Title t= 304.00000 step= 152000
44463
    1GLY      N    1   2.943   3.135   3.544
    1GLY    HT1    2   2.906   3.203   3.475
    1GLY    HT2    3   3.040   3.109   3.518
    1GLY    HT3    4   2.940   3.178   3.639
    1GLY     CA    5   2.832   3.027   3.541
    1GLY    HA1    6   2.834   2.981   3.444
    1GLY    HA2    7   2.741   3.083   3.559
    1GLY      C    8   2.847   2.914   3.647
    1GLY      O    9   2.955   2.912   3.716
    2PRO      N   10   2.751   2.830   3.660
    2PRO     CD   11   2.629   2.826   3.576
    2PRO    HD1   12   2.665   2.825   3.471
    2PRO    HD2   13   2.563   2.915   3.580
    2PRO     CA   14   2.752   2.719   3.758
    2PRO     HA   15   2.799   2.755   3.848
    2PRO     CB   16   2.605   2.684   3.770
    2PRO    HB1   17   2.555   2.744   3.849
    2PRO    HB2   18   2.578   2.580   3.798
    2PRO     CG   19   2.551   2.709   3.622
    2PRO    HG1   20   2.588   2.620   3.566
    2PRO    HG2   21   2.441   2.724   3.623
    2PRO      C   22   2.848   2.603   3.707
    2PRO      O   23   2.848   2.569   3.590
    3GLY      N   24   2.934   2.560   3.800
    3GLY     HN   25   2.947   2.610   3.885
    3GLY     CA   26   3.024   2.443   3.782
    3GLY    HA1   27   3.080   2.418   3.871
    3GLY    HA2   28   3.096   2.457   3.703
    3GLY      C   29   2.974   2.304   3.753
    3GLY      O   30   2.856   2.276   3.750
    4ASP      N   31   3.066   2.216   3.719
    4ASP     HN   32   3.160   2.248   3.709
    4ASP     CA   33   3.059   2.074   3.701
    4ASP     HA   34   2.972   2.066   3.638
    4ASP     CB   35   3.189   2.009   3.632
    4ASP    HB1   36   3.173   1.899   3.638
    4ASP    HB2   37   3.281   2.029   3.690
    4ASP     CG   38   3.188   2.060   3.497
    4ASP    OD1   39   3.301   2.061   3.443
    4ASP    OD2   40   3.090   2.107   3.436
    4ASP      C   41   3.026   2.001   3.833
    4ASP      O   42   3.066   2.051   3.937
    5PRO      N   43   2.953   1.894   3.835
    5PRO     CD   44   2.877   1.845   3.720
    5PRO    HD1   45   2.944   1.796   3.647
    5PRO    HD2   46   2.813   1.921   3.669
    5PRO     CA   47   2.945   1.799   3.949
    5PRO     HA   48   2.891   1.843   4.032
    5PRO     CB   49   2.862   1.679   3.891
    5PRO    HB1   50   2.800   1.619   3.961
    5PRO    HB2   51   2.935   1.607   3.848
    5PRO     CG   52   2.781   1.740   3.778
    5PRO    HG1   53   2.740   1.671   3.702
    5PRO    HG2   54   2.698   1.792   3.831
    5PRO      C   55   3.081   1.758   4.016
    5PRO      O   56   3.173   1.719   3.941
    6GLY      N   57   3.109   1.780   4.146
    6GLY     HN   58   3.034   1.800   4.209
    6GLY     CA   59   3.241   1.771   4.207
    6GLY    HA1   60   3.247   1.837   4.293
    6GLY    HA2   61   3.315   1.789   4.131
    6GLY      C   62   3.280   1.634   4.247
    6GLY      O   63   3.214   1.538   4.203
    7PRO      N   64   3.396   1.598   4.314
    7PRO     CD   65   3.484   1.700   4.378
    7PRO    HD1   66   3.446   1.725   4.479
    7PRO    HD2   67   3.489   1.794   4.319
    7PRO     CA   68   3.436   1.462   4.360
    7PRO     HA   69   3.451   1.399   4.273
    7PRO     CB   70   3.566   1.482   4.437
    7PRO    HB1   71   3.643   1.409   4.405
    7PRO    HB2   72   3.554   1.466   4.546
    7PRO     CG   73   3.613   1.627   4.397
    7PRO    HG1   74   3.673   1.673   4.478
    7PRO    HG2   75   3.657   1.632   4.295
    7PRO      C   76   3.329   1.397   4.449
    7PRO      O   77   3.260   1.464   4.527
    8GLY      N   78   3.306   1.264   4.434
    8GLY     HN   79   3.387   1.221   4.396
    8GLY     CA   80   3.182   1.201   4.482
    8GLY    HA1   81   3.113   1.275   4.519
    8GLY    HA2   82   3.207   1.119   4.546
    8GLY      C   83   3.109   1.143   4.366
    8GLY      O   84   3.152   1.148   4.253
    9ASP      N   85   2.990   1.085   4.399
    9ASP     HN   86   2.956   1.075   4.492
    9ASP     CA   87   2.915   1.005   4.306
    9ASP     HA   88   2.987   0.958   4.240
    9ASP     CB   89   2.828   0.893   4.374
    9ASP    HB1   90   2.752   0.850   4.304
    9ASP    HB2   91   2.772   0.933   4.461
    9ASP     CG   92   2.905   0.770   4.429
    9ASP    OD1   93   3.029   0.771   4.427
    9ASP    OD2   94   2.840   0.679   4.492
    9ASP      C   95   2.803   1.085   4.228
    9ASP      O   96   2.744   1.174   4.292
   10PRO      N   97   2.774   1.071   4.097
   10PRO     CD   98   2.860   0.988   4.015
   10PRO    HD1   99   2.873   0.885   4.055
   10PRO    HD2  100   2.964   1.025   4.015
   10PRO     CA  101   2.660   1.122   4.023
   10PRO     HA  102   2.679   1.224   3.994
   10PRO     CB  103   2.656   1.030   3.899
   10PRO    HB1  104   2.627   1.095   3.813
   10PRO    HB2  105   2.579   0.950   3.912
   10PRO     CG  106   2.795   0.976   3.879
   10PRO    HG1  107   2.806   0.877   3.830
   10PRO    HG2  108   2.845   1.053   3.817
   10PRO      C  109   2.521   1.136   4.094
   10PRO      O  110   2.481   1.041   4.164
   11GLY      N  111   2.456   1.253   4.069
   11GLY     HN  112   2.479   1.326   4.006
   11GLY     CA  113   2.328   1.287   4.133
   11GLY    HA1  114   2.254   1.212   4.106
   11GLY    HA2  115   2.308   1.384   4.090
   11GLY      C  116   2.316   1.306   4.284
   11GLY      O  117   2.415   1.320   4.354
   12PRO      N  118   2.190   1.319   4.325
   12PRO     CD  119   2.082   1.363   4.241
   12PRO    HD1  120   2.049   1.284   4.171
   12PRO    HD2  121   2.109   1.461   4.196
   12PRO     CA  122   2.151   1.338   4.467
   12PRO     HA  123   2.199   1.432   4.490
   12PRO     CB  124   1.999   1.327   4.465
   12PRO    HB1  125   1.963   1.380   4.556
   12PRO    HB2  126   1.975   1.219   4.470
   12PRO     CG  127   1.963   1.402   4.337
   12PRO    HG1  128   1.858   1.385   4.305
   12PRO    HG2  129   1.970   1.512   4.355
   12PRO      C  130   2.213   1.229   4.565
   12PRO      O  131   2.250   1.113   4.527
   13GLY      N  132   2.217   1.275   4.691
   13GLY     HN  133   2.200   1.371   4.712
   13GLY     CA  134   2.276   1.194   4.801
   13GLY    HA1  135   2.293   1.261   4.884
   13GLY    HA2  136   2.361   1.133   4.773
   13GLY      C  137   2.180   1.087   4.854
   13GLY      O  138   2.108   1.018   4.782
   14ASP      N  139   2.182   1.068   4.983
   14ASP     HN  140   2.259   1.116   5.024
   14ASP     CA  141   2.087   0.984   5.062
   14ASP     HA  142   2.096   0.880   5.034
   14ASP     CB  143   2.137   0.998   5.209
   14ASP    HB1  144   2.063   0.961   5.283
   14ASP    HB2  145   2.156   1.107   5.223
   14ASP     CG  146   2.267   0.925   5.231
   14ASP    OD1  147   2.295   0.818   5.175
   14ASP    OD2  148   2.346   0.980   5.312
   14ASP      C  149   1.943   1.032   5.039
   14ASP      O  150   1.916   1.148   5.005
   15PRO      N  151   1.850   0.942   5.056
   15PRO     CD  152   1.860   0.797   5.078
   15PRO    HD1  153   1.871   0.782   5.187
   15PRO    HD2  154   1.934   0.748   5.011
   15PRO     CA  155   1.710   0.979   5.047
   15PRO     HA  156   1.681   1.012   4.949
   15PRO     CB  157   1.634   0.845   5.076
   15PRO    HB1  158   1.544   0.842   5.011
   15PRO    HB2  159   1.614   0.827   5.183
   15PRO     CG  160   1.725   0.732   5.029
   15PRO    HG1  161   1.722   0.628   5.069
   15PRO    HG2  162   1.723   0.723   4.919
   15PRO      C  163   1.666   1.090   5.145
   15PRO    OT1  164   1.719   1.104   5.257
   15PRO    OT2  165   1.575   1.169   5.115
   16LIT    LIT  166   1.555   1.212   5.310
   17LIT    LIT  167   2.382   2.390   6.135
   18LIT    LIT  168   2.260   6.911   1.755
   19LIT    LIT  169   5.540   5.304   1.739
   20LIT    LIT  170   2.314   6.710   3.086
   21LIT    LIT  171   0.217   2.687   3.244
   22LIT    LIT  172   0.640   2.025   3.705
   23LIT    LIT  173   1.784   3.406   1.895
   24LIT    LIT  174   0.204   2.345   5.984
   25LIT    LIT  175   5.594   0.091   3.881
   26LIT    LIT  176   7.452   2.254   2.911
   27LIT    LIT  177   7.438   0.601   0.325
   28LIT    LIT  178   3.868   1.403   4.824
   29LIT    LIT  179   2.688   6.232   0.504
   30LIT    LIT  180   0.916   0.488   6.593
   31LIT    LIT  181   7.151   5.505   6.614
   32LIT    LIT  182   4.753   4.546   1.148
   33LIT    LIT  183   7.358   2.817   0.702
   34LIT    LIT  184   3.744   6.790   3.555
   35LIT    LIT  185   3.710   7.258   6.397
   36LIT    LIT  186   3.857   0.448   3.085
   37LIT    LIT  187   6.552   2.726   6.740
   38LIT    LIT  188   4.925   7.648   4.651
   39LIT    LIT  189   0.523   7.420   3.665
   40LIT    LIT  190   0.593   1.165   2.614
   41LIT    LIT  191   4.170   0.157   5.013
   42LIT    LIT  192   6.149   1.483   0.478
   43LIT    LIT  193   4.341   2.599   1.187
   44LIT    LIT  194   6.743   1.571   5.124
   45LIT    LIT  195   7.262   6.385   2.995
   46LIT    LIT  196   8.220   4.806   1.225
   47LIT    LIT  197   0.843   4.876   2.114
   48LIT    LIT  198   5.887   2.646   3.872
   49LIT    LIT  199   0.681   0.963   6.490
   50LIT    LIT  200   7.861   1.885   4.536
   51LIT    LIT  201   2.354   0.376   3.766
   52LIT    LIT  202   4.627   1.781   6.525
   53LIT    LIT  203   0.310   3.855   1.430
   54LIT    LIT  204   0.902   2.758   1.936
   55LIT    LIT  205   0.160   0.134   3.150
   56LIT    LIT  206   4.235   7.620   2.167
   57LIT    LIT  207   6.752   4.129   1.637
   58LIT    LIT  208   2.474   0.850   5.279
   59LIT    LIT  209   0.953   5.978   4.152
   60LIT    LIT  210   2.502   4.685   4.488
   61CLA    CLA  211   0.422   6.040   2.763
   62CLA    CLA  212   2.100   4.562   4.685
   63CLA    CLA  213   1.422   2.033   3.500
   64CLA    CLA  214   5.886   3.402   0.958
   65CLA    CLA  215   7.533   0.683   2.349
   66CLA    CLA  216   0.112   1.209   4.366
   67CLA    CLA  217   1.229   0.750   5.681
   68CLA    CLA  218   5.998   0.505   4.573
   69CLA    CLA  219   1.218   1.588   5.240
   70CLA    CLA  220   3.840   4.878   5.882
   71CLA    CLA  221   0.140   4.662   6.617
   72CLA    CLA  222   2.653   6.012   1.083
   73CLA    CLA  223   0.203   3.563   2.510
   74CLA    CLA  224   0.074   5.727   4.079
   75CLA    CLA  225   6.934   0.140   5.337
   76CLA    CLA  226   4.085   1.270   0.662
   77CLA    CLA  227   2.913   4.480   4.358
   78CLA    CLA  228   5.116   5.794   1.147
   79CLA    CLA  229   5.235   1.702   5.683
   80CLA    CLA  230   0.116   4.685   1.622
   81CLA    CLA  231   5.203   6.106   6.188
   82CLA    CLA  232   0.357   0.640   6.029
   83CLA    CLA  233   3.194   4.828   0.782
   84CLA    CLA  234   0.808   0.454   0.404
   85CLA    CLA  235   3.386   4.911   5.357
   86CLA    CLA  236   7.090   4.306   2.761
   87CLA    CLA  237   2.540   6.546   2.122
   88CLA    CLA  238   5.138   5.311   1.224
   89CLA    CLA  239   6.674   4.099   4.799
   90CLA    CLA  240   0.951   5.769   6.300
   91CLA    CLA  241   4.219   4.473   2.342
   92CLA    CLA  242   6.585   6.338   6.311
   93CLA    CLA  243   4.030   1.385   3.948
   94CLA    CLA  244   5.406   6.324   0.516
   95CLA    CLA  245   2.734   6.008   3.469
   96CLA    CLA  246   0.532   1.659   2.930
   97CLA    CLA  247   6.624   1.730   3.995
   98CLA    CLA  248   1.073   6.297   5.133
   99CLA    CLA  249   7.227   2.764   0.886
  100CLA    CLA  250   2.964   3.289   3.821
  101CLA    CLA  251   0.227   2.516   3.381
  102CLA    CLA  252   1.204   0.951   4.481
  103TIP3   OH2  253   2.438   6.948   3.976
  103TIP3    H1  254   2.344   6.932   3.982
  103TIP3    H2  255   2.470   6.945   4.066
  104TIP3   OH2  256   4.940   5.846   5.764
  104TIP3    H1  257   4.910   5.792   5.837
  104TIP3    H2  258   5.014   5.896   5.801
  105TIP3   OH2  259   7.158   1.535   3.839
  105TIP3    H1  260   7.088   1.557   3.777
  105TIP3    H2  261   7.177   1.618   3.883
  106TIP3   OH2  262   7.020   5.706   1.665
  106TIP3    H1  263   7.006   5.795   1.698
  106TIP3    H2  264   7.051   5.719   1.575
  107TIP3   OH2  265   2.004   5.352   1.590
  107TIP3    H1  266   1.942   5.338   1.661
  107TIP3    H2  267   1.976   5.433   1.548
  108TIP3   OH2  268   7.433   2.480   6.517
  108TIP3    H1  269   7.385   2.526   6.448
  108TIP3    H2  270   7.522   2.516   6.513
  109TIP3   OH2  271   6.917   5.884   3.807
  109TIP3    H1  272   6.845   5.843   3.855
  109TIP3    H2  273   6.996   5.853   3.851
  110TIP3   OH2  274   5.365   6.813   4.790
  110TIP3    H1  275   5.448   6.777   4.820
  110TIP3    H2  276   5.365   6.903   4.820
  111TIP3   OH2  277   7.366   4.706   5.145
  111TIP3    H1  278   7.349   4.799   5.135
  111TIP3    H2  279   7.414   4.681   5.066
  112TIP3   OH2  280   3.258   2.260   6.558
  112TIP3    H1  281   3.201   2.185   6.578
  112TIP3    H2  282   3.305   2.232   6.479
  113TIP3   OH2  283   6.834   3.445   5.899
  113TIP3    H1  284   6.787   3.522   5.867
  113TIP3    H2  285   6.878   3.409   5.822
  114TIP3   OH2  286   7.285   7.853   1.892
  114TIP3    H1  287   7.257   7.817   1.808
  114TIP3    H2  288   7.285   7.778   1.952
  115TIP3   OH2  289   5.148   6.513   4.331
  115TIP3    H1  290   5.203   6.448   4.376
  115TIP3    H2  291   5.128   6.578   4.399
  116TIP3   OH2  292   2.952   2.749   4.067
  116TIP3    H1  293   2.990   2.832   4.038
  116TIP3    H2  294   2.886   2.775   4.132
  117TIP3   OH2  295   6.604   5.711   3.641
  117TIP3    H1  296   6.585   5.664   3.559
  117TIP3    H2  297   6.693   5.744   3.629
  118TIP3   OH2  298   1.227   4.276   6.251
  118TIP3    H1  299   1.231   4.342   6.321
  118TIP3    H2  300   1.305   4.223   6.264
  119TIP3   OH2  301   1.026   6.999   2.680
  119TIP3    H1  302   1.113   6.959   2.689
  119TIP3    H2  303   0.966   6.936   2.721
  120TIP3   OH2  304   8.129   0.152   6.649
  120TIP3    H1  305   8.041   0.173   6.680
  120TIP3    H2  306   8.170   0.238   6.634
  121TIP3   OH2  307   1.097   2.112   6.356
  121TIP3    H1  308   1.035   2.109   6.283
  121TIP3    H2  309   1.042   2.106   6.434
  122TIP3   OH2  310   7.239   7.392   5.257
  122TIP3    H1  311   7.241   7.480   5.294
  122TIP3    H2  312   7.205   7.404   5.168
  123TIP3   OH2  313   5.879   5.615   2.365
  123TIP3    H1  314   5.794   5.652   2.388
  123TIP3    H2  315   5.865   5.520   2.368
  124TIP3   OH2  316   7.947   5.564   3.753
  124TIP3    H1  317   8.022   5.615   3.724
  124TIP3    H2  318   7.956   5.481   3.707
  125TIP3   OH2  319   0.370   5.623   4.082
  125TIP3    H1  320   0.294   5.681   4.087
  125TIP3    H2  321   0.404   5.620   4.171
  126TIP3   OH2  322   1.545   1.647   0.762
  126TIP3    H1  323   1.575   1.567   0.804
  126TIP3    H2  324   1.518   1.620   0.674
  127TIP3   OH2  325   4.497   7.071   0.575
  127TIP3    H1  326   4.588   7.053   0.598
  127TIP3    H2  327   4.502   7.128   0.497
  128TIP3   OH2  328   4.921   5.556   6.704
  128TIP3    H1  329   4.884   5.515   6.626
  128TIP3    H2  330   4.857   5.623   6.728
  129TIP3   OH2  331   4.806   2.504   5.950
  129TIP3    H1  332   4.826   2.449   5.874
  129TIP3    H2  333   4.828   2.593   5.922
  130TIP3   OH2  334   7.470   2.673   2.756
  130TIP3    H1  335   7.415   2.595   2.747
  130TIP3    H2  336   7.546   2.655   2.701
  131TIP3   OH2  337   3.803   2.597   0.913
  131TIP3    H1  338   3.773   2.508   0.896
  131TIP3    H2  339   3.860   2.589   0.990
  132TIP3   OH2  340   4.159   3.130   3.947
  132TIP3    H1  341   4.069   3.163   3.958
  132TIP3    H2  342   4.159   3.046   3.994
  133TIP3   OH2  343   2.480   6.984   6.018
  133TIP3    H1  344   2.447   6.894   6.024
  133TIP3    H2  345   2.481   7.002   5.924
  134TIP3   OH2  346   7.325   7.596   4.393
  134TIP3    H1  347   7.249   7.652   4.408
  134TIP3    H2  348   7.401   7.653   4.405
  135TIP3   OH2  349   0.544   0.384   5.477
  135TIP3    H1  350   0.563   0.412   5.566
  135TIP3    H2  351   0.486   0.453   5.442
  136TIP3   OH2  352   0.723   2.696   1.889
  136TIP3    H1  353   0.658   2.764   1.870
  136TIP3    H2  354   0.673   2.624   1.926
  137TIP3   OH2  355   0.259   0.803   6.483
  137TIP3    H1  356   0.266   0.730   6.544
  137TIP3    H2  357   0.204   0.770   6.412
  138TIP3   OH2  358   2.057   3.540   5.966
  138TIP3    H1  359   2.139   3.500   5.995
  138TIP3    H2  360   1.993   3.470   5.968
  139TIP3   OH2  361   4.676   0.498   6.437
  139TIP3    H1  362   4.611   0.467   6.375
  139TIP3    H2  363   4.639   0.578   6.475
  140TIP3   OH2  364   0.676   7.229   2.274
  140TIP3    H1  365   0.734   7.269   2.339
  140TIP3    H2  366   0.588   7.256   2.300
  141TIP3   OH2  367   3.180   5.086   0.633
  141TIP3    H1  368   3.165   5.010   0.690
  141TIP3    H2  369   3.224   5.049   0.556
  142TIP3   OH2  370   4.360   5.239   3.656
  142TIP3    H1  371   4.282   5.209   3.703
  142TIP3    H2  372   4.360   5.334   3.667
  143TIP3   OH2  373   5.963   2.598   5.603
  143TIP3    H1  374   5.969   2.629   5.693
  143TIP3    H2  375   6.053   2.596   5.572
  144TIP3   OH2  376   0.435   6.558   3.500
  144TIP3    H1  377   0.437   6.523   3.411
  144TIP3    H2  378   0.352   6.526   3.536
  145TIP3   OH2  379   7.837   4.771   5.438
  145TIP3    H1  380   7.905   4.703   5.435
  145TIP3    H2  381   7.758   4.727   5.407
  146TIP3   OH2  382   7.696   4.430   2.300
  146TIP3    H1  383   7.706   4.335   2.296
  146TIP3    H2  384   7.785   4.464   2.289
  147TIP3   OH2  385   1.611   3.790   3.753
  147TIP3    H1  386   1.629   3.872   3.798
  147TIP3    H2  387   1.698   3.754   3.733
  148TIP3   OH2  388   8.027   4.269   2.386
  148TIP3    H1  389   8.079   4.215   2.328
  148TIP3    H2  390   7.979   4.206   2.441
  149TIP3   OH2  391   7.527   0.730   6.349
  149TIP3    H1  392   7.512   0.640   6.377
  149TIP3    H2  393   7.504   0.783   6.426
  150TIP3   OH2  394   5.790   6.933   3.845
  150TIP3    H1  395   5.709   6.900   3.808
  150TIP3    H2  396   5.851   6.938   3.771
  151TIP3   OH2  397   0.439   4.888   4.381
  151TIP3    H1  398   0.451   4.858   4.471
  151TIP3    H2  399   0.385   4.967   4.390
  152TIP3   OH2  400   7.632   5.689   5.764
  152TIP3    H1  401   7.582   5.771   5.766
  152TIP3    H2  402   7.610   5.646   5.847
  153TIP3   OH2  403   7.455   6.375   2.965
  153TIP3    H1  404   7.499   6.391   2.881
  153TIP3    H2  405   7.526   6.381   3.030
  154TIP3   OH2  406   8.148   0.189   3.578
  154TIP3    H1  407   8.220   0.187   3.641
  154TIP3    H2  408   8.152   0.277   3.540
  155TIP3   OH2  409   5.648   6.950   1.630
  155TIP3    H1  410   5.613   7.015   1.570
  155TIP3    H2  411   5.664   6.873   1.575
  156TIP3   OH2  412   0.251   4.928   4.104
  156TIP3    H1  413   0.321   4.954   4.164
  156TIP3    H2  414   0.273   4.839   4.078
  157TIP3   OH2  415   0.646   3.262   0.866
  157TIP3    H1  416   0.625   3.178   0.906
  157TIP3    H2  417   0.685   3.239   0.782
  158TIP3   OH2  418   2.040   1.835   0.294
  158TIP3    H1  419   2.048   1.924   0.326
  158TIP3    H2  420   2.024   1.782   0.372
  159TIP3   OH2  421   0.543   0.208   1.299
  159TIP3    H1  422   0.563   0.115   1.291
  159TIP3    H2  423   0.450   0.211   1.320
  160TIP3   OH2  424   3.057   4.299   1.570
  160TIP3    H1  425   3.117   4.345   1.628
  160TIP3    H2  426   3.107   4.224   1.537
  161TIP3   OH2  427   0.165   6.482   5.666
  161TIP3    H1  428   0.235   6.540   5.636
  161TIP3    H2  429   0.201   6.439   5.743
  162TIP3   OH2  430   2.343   6.094   6.596
  162TIP3    H1  431   2.358   6.093   6.690
  162TIP3    H2  432   2.320   6.185   6.575
  163TIP3   OH2  433   0.032   2.735   2.280
  163TIP3    H1  434   0.083   2.692   2.349
  163TIP3    H2  435  -0.049   2.683   2.274
  164TIP3   OH2  436   8.028   6.484   0.276
  164TIP3    H1  437   8.114   6.517   0.251
  164TIP3    H2  438   8.044   6.395   0.307
  165TIP3   OH2  439   4.614   3.447   3.697
  165TIP3    H1  440   4.534   3.496   3.676
  165TIP3    H2  441   4.685   3.503   3.666
  166TIP3   OH2  442   4.861   7.652   0.597
  166TIP3    H1  443   4.874   7.746   0.591
  166TIP3    H2  444   4.939   7.614   0.558
  167TIP3   OH2  445   6.970   1.914   5.745
  167TIP3    H1  446   7.013   1.997   5.768
  167TIP3    H2  447   6.876   1.934   5.750
  168TIP3   OH2  448   8.237   7.206   1.573
  168TIP3    H1  449   8.284   7.136   1.529
  168TIP3    H2  450   8.148   7.200   1.539
  169TIP3   OH2  451   6.807   2.570   4.028
  169TIP3    H1  452   6.894   2.543   3.997
  169TIP3    H2  453   6.746   2.515   3.980
  170TIP3   OH2  454   5.209   1.004   0.761
  170TIP3    H1  455   5.153   1.067   0.806
  170TIP3    H2  456   5.296   1.017   0.800
  171TIP3   OH2  457   4.128   2.705   6.758
  171TIP3    H1  458   4.074   2.657   6.821
  171TIP3    H2  459   4.080   2.787   6.743
  172TIP3   OH2  460   4.466   1.411   2.353
  172TIP3    H1  461   4.384   1.365   2.336
  172TIP3    H2  462   4.445   1.503   2.341
  173TIP3   OH2  463   3.148   3.716   5.619
  173TIP3    H1  464   3.187   3.638   5.581
  173TIP3    H2  465   3.134   3.775   5.545
  174TIP3   OH2  466   7.398   5.175   3.156
  174TIP3    H1  467   7.372   5.196   3.246
  174TIP3    H2  468   7.333   5.220   3.102
  175TIP3   OH2  469   3.192   6.076   5.282
  175TIP3    H1  470   3.099   6.081   5.307
  175TIP3    H2  471   3.225   5.999   5.328
  176TIP3   OH2  472   2.813   3.963   3.603
  176TIP3    H1  473   2.788   4.053   3.583
  176TIP3    H2  474   2.896   3.971   3.651
  177TIP3   OH2  475   1.608   7.168   4.775
  177TIP3    H1  476   1.517   7.160   4.744
  177TIP3    H2  477   1.624   7.262   4.775
  178TIP3   OH2  478   5.928   6.862   1.529
  178TIP3    H1  479   5.887   6.807   1.595
  178TIP3    H2  480   5.928   6.809   1.449
  179TIP3   OH2  481   0.168   4.321   5.168
  179TIP3    H1  482   0.127   4.235   5.154
  179TIP3    H2  483   0.123   4.379   5.107
  180TIP3   OH2  484   0.378   0.575   5.392
  180TIP3    H1  485   0.322   0.574   5.315
  180TIP3    H2  486   0.395   0.668   5.409
  181TIP3   OH2  487   2.151   0.138   2.066
  181TIP3    H1  488   2.223   0.184   2.108
  181TIP3    H2  489   2.193   0.081   2.002
  182TIP3   OH2  490   0.397   4.892   0.468
  182TIP3    H1  491   0.374   4.834   0.541
  182TIP3    H2  492   0.345   4.971   0.483
  183TIP3   OH2  493   6.308   1.322   0.492
  183TIP3    H1  494   6.386   1.290   0.447
  183TIP3    H2  495   6.242   1.256   0.476
  184TIP3   OH2  496   8.058   6.054   2.934
  184TIP3    H1  497   8.137   6.036   2.884
  184TIP3    H2  498   8.075   6.018   3.020
  185TIP3   OH2  499   5.225   3.942   0.560
  185TIP3    H1  500   5.273   3.871   0.603
  185TIP3    H2  501   5.271   3.954   0.477
  186TIP3   OH2  502   7.043   0.431   5.968
  186TIP3    H1  503   7.068   0.354   6.019
  186TIP3    H2  504   6.948   0.427   5.963
  187TIP3   OH2  505   2.365   5.774   5.401
  187TIP3    H1  506   2.315   5.760   5.320
  187TIP3    H2  507   2.323   5.716   5.465
  188TIP3   OH2  508   3.399   1.442   6.260
  188TIP3    H1  509   3.386   1.351   6.287
  188TIP3    H2  510   3.349   1.493   6.323
  189TIP3   OH2  511   0.280   5.690   6.593
  189TIP3    H1  512   0.241   5.775   6.574
  189TIP3    H2  513   0.263   5.638   6.514
  190TIP3   OH2  514   5.144   6.682   1.452
  190TIP3    H1  515   5.078   6.620   1.484
  190TIP3    H2  516   5.149   6.666   1.358
  191TIP3   OH2  517   6.717   6.451   1.150
  191TIP3    H1  518   6.714   6.474   1.243
  191TIP3    H2  519   6.626   6.433   1.127
  192TIP3   OH2  520   4.427   3.605   5.761
  192TIP3    H1  521   4.483   3.682   5.766
  192TIP3    H2  522   4.350   3.634   5.712
  193TIP3   OH2  523   7.530   6.549   1.061
  193TIP3    H1  524   7.440   6.572   1.038
  193TIP3    H2  525   7.558   6.490   0.992
  194TIP3   OH2  526   4.858   4.101   3.370
  194TIP3    H1  527   4.867   4.008   3.391
  194TIP3    H2  528   4.778   4.107   3.318
  195TIP3   OH2  529   0.737   1.016   2.068
  195TIP3    H1  530   0.790   1.081   2.114
  195TIP3    H2  531   0.724   1.052   1.981
  196TIP3   OH2  532   0.583   2.341   0.819
  196TIP3    H1  533   0.622   2.425   0.796
  196TIP3    H2  534   0.611   2.281   0.750
  197TIP3   OH2  535   7.842   2.183   2.861
  197TIP3    H1  536   7.815   2.105   2.908
  197TIP3    H2  537   7.921   2.213   2.905
  198TIP3   OH2  538   5.908   6.589   1.395
  198TIP3    H1  539   5.861   6.529   1.337
  198TIP3    H2  540   5.841   6.623   1.454
  199TIP3   OH2  541   5.665   5.799   6.003
  199TIP3    H1  542   5.589   5.856   5.998
  199TIP3    H2  543   5.700   5.813   6.091
  200TIP3   OH2  544   3.694   3.845   3.240
  200TIP3    H1  545   3.624   3.814   3.183
  200TIP3    H2  546   3.686   3.941   3.238
  201TIP3   OH2  547   6.966   5.124   6.013
  201TIP3    H1  548   6.894   5.123   6.076
  201TIP3    H2  549   6.923   5.130   5.927
  202TIP3   OH2  550   7.901   6.321   4.501
  202TIP3    H1  551   7.937   6.397   4.455
  202TIP3    H2  552   7.868   6.357   4.584
  203TIP3   OH2  553   5.393   3.101   6.382
  203TIP3    H1  554   5.339   3.029   6.351
  203TIP3    H2  555   5.458   3.115   6.313
  204TIP3   OH2  556   4.074   3.154   2.293
  204TIP3    H1  557   4.165   3.140   2.265
  204TIP3    H2  558   4.067   3.107   2.376
  205TIP3   OH2  559   0.431   6.283   4.135
  205TIP3    H1  560   0.371   6.223   4.090
  205TIP3    H2  561   0.409   6.274   4.227
  206TIP3   OH2  562   4.006   3.159   6.410
  206TIP3    H1  563   3.974   3.219   6.343
  206TIP3    H2  564   4.093   3.133   6.379
  207TIP3   OH2  565   3.633   5.835   4.458
  207TIP3    H1  566   3.538   5.842   4.465
  207TIP3    H2  567   3.659   5.790   4.539
  208TIP3   OH2  568   6.673   1.264   2.514
  208TIP3    H1  569   6.648   1.215   2.593
  208TIP3    H2  570   6.766   1.246   2.504
  209TIP3   OH2  571   3.668   5.638   1.465
  209TIP3    H1  572   3.753   5.668   1.497
  209TIP3    H2  573   3.679   5.634   1.370
  210TIP3   OH2  574   7.312   2.209   6.509
  210TIP3    H1  575   7.332   2.296   6.544
  210TIP3    H2  576   7.354   2.208   6.423
  211TIP3   OH2  577   5.522   0.487   6.560
  211TIP3    H1  578   5.595   0.467   6.501
  211TIP3    H2  579   5.461   0.537   6.505
  212TIP3   OH2  580   1.620   5.391   0.582
  212TIP3    H1  581   1.583   5.349   0.504
  212TIP3    H2  582   1.709   5.355   0.588
  213TIP3   OH2  583   6.009   6.987   1.871
  213TIP3    H1  584   6.019   6.902   1.828
  213TIP3    H2  585   5.914   7.002   1.871
  214TIP3   OH2  586   2.340   4.796   1.081
  214TIP3    H1  587   2.251   4.798   1.116
  214TIP3    H2  588   2.348   4.876   1.030
  215TIP3   OH2  589   0.530   4.538   1.694
  215TIP3    H1  590   0.625   4.548   1.690
  215TIP3    H2  591   0.513   4.498   1.779
  216TIP3   OH2  592   1.655   4.776   3.781
  216TIP3    H1  593   1.651   4.871   3.776
  216TIP3    H2  594   1.577   4.751   3.831
  217TIP3   OH2  595   2.192   4.343   5.076
  217TIP3    H1  596   2.121   4.407   5.088
  217TIP3    H2  597   2.165   4.292   5.000
  218TIP3   OH2  598   0.574   3.795   3.321
  218TIP3    H1  599   0.632   3.860   3.282
  218TIP3    H2  600   0.504   3.783   3.258
  219TIP3   OH2  601   4.210   5.576   2.913
  219TIP3    H1  602   4.194   5.599   2.821
  219TIP3    H2  603   4.157   5.639   2.962
  220TIP3   OH2  604   1.073   2.125   0.605
  220TIP3    H1  605   1.033   2.038   0.606
  220TIP3    H2  606   1.077   2.150   0.697
  221TIP3   OH2  607   5.194   0.733   1.518
  221TIP3    H1  608   5.187   0.658   1.458
  221TIP3    H2  609   5.127   0.794   1.487
  222TIP3   OH2  610   7.043   7.138   3.445
  222TIP3    H1  611   7.015   7.048   3.428
  222TIP3    H2  612   7.056   7.142   3.540
  223TIP3   OH2  613   1.133   1.054   4.769
  223TIP3    H1  614   1.208   1.026   4.822
  223TIP3    H2  615   1.151   1.020   4.682
  224TIP3   OH2  616   1.462   3.486   6.448
  224TIP3    H1  617   1.403   3.410   6.453
  224TIP3    H2  618   1.545   3.450   6.417
  225TIP3   OH2  619   4.391   3.771   2.116
  225TIP3    H1  620   4.410   3.680   2.140
  225TIP3    H2  621   4.394   3.819   2.199
  226TIP3   OH2  622   1.799   7.513   4.478
  226TIP3    H1  623   1.859   7.439   4.487
  226TIP3    H2  624   1.811   7.564   4.558
  227TIP3   OH2  625   5.284   7.221   6.075
  227TIP3    H1  626   5.238   7.290   6.026
  227TIP3    H2  627   5.326   7.167   6.008
  228TIP3   OH2  628   0.048   6.824   3.127
  228TIP3    H1  629   0.076   6.761   3.194
  228TIP3    H2  630  -0.011   6.883   3.173
  229TIP3   OH2  631   0.132   1.895   4.600
  229TIP3    H1  632   0.212   1.935   4.564
  229TIP3    H2  633   0.091   1.966   4.651
  230TIP3   OH2  634   7.088   3.667   2.034
  230TIP3    H1  635   7.028   3.697   2.102
  230TIP3    H2  636   7.152   3.612   2.081
  231TIP3   OH2  637   3.835   4.253   4.815
  231TIP3    H1  638   3.885   4.224   4.892
  231TIP3    H2  639   3.812   4.172   4.770
  232TIP3   OH2  640   4.423   3.507   1.370
  232TIP3    H1  641   4.493   3.445   1.347
  232TIP3    H2  642   4.465   3.593   1.369
  233TIP3   OH2  643   1.196   1.724   5.654
  233TIP3    H1  644   1.228   1.638   5.627
  233TIP3    H2  645   1.264   1.758   5.713
  234TIP3   OH2  646   3.215   0.408   3.777
  234TIP3    H1  647   3.244   0.403   3.686
  234TIP3    H2  648   3.215   0.318   3.808
  235TIP3   OH2  649   3.214   2.252   0.512
  235TIP3    H1  650   3.229   2.342   0.482
  235TIP3    H2  651   3.297   2.227   0.554
  236TIP3   OH2  652   4.389   1.518   4.232
  236TIP3    H1  653   4.442   1.580   4.282
  236TIP3    H2  654   4.327   1.572   4.185
  237TIP3   OH2  655   4.173   5.832   4.034
  237TIP3    H1  656   4.091   5.825   4.083
  237TIP3    H2  657   4.155   5.787   3.951
  238TIP3   OH2  658   1.540   5.150   3.543
  238TIP3    H1  659   1.538   5.186   3.632
  238TIP3    H2  660   1.470   5.196   3.497
  239TIP3   OH2  661   5.450   7.526   4.611
  239TIP3    H1  662   5.502   7.479   4.547
  239TIP3    H2  663   5.500   7.520   4.692
  240TIP3   OH2  664   2.721   2.265   5.709
  240TIP3    H1  665   2.738   2.290   5.800
  240TIP3    H2  666   2.809   2.256   5.671
  241TIP3   OH2  667   6.459   0.728   6.251
  241TIP3    H1  668   6.537   0.774   6.282
  241TIP3    H2  669   6.433   0.775   6.172
  242TIP3   OH2  670   3.485   5.363   4.475
  242TIP3    H1  671   3.572   5.398   4.455
  242TIP3    H2  672   3.430   5.391   4.402
  243TIP3   OH2  673   4.327   7.110   1.302
  243TIP3    H1  674   4.408   7.089   1.255
  243TIP3    H2  675   4.348   7.095   1.394
  244TIP3   OH2  676   2.163   3.129   2.566
  244TIP3    H1  677   2.207   3.075   2.499
  244TIP3    H2  678   2.093   3.173   2.518
  245TIP3   OH2  679   2.062   1.143   5.990
  245TIP3    H1  680   2.102   1.213   5.938
  245TIP3    H2  681   1.968   1.153   5.975
  246TIP3   OH2  682   5.546   6.967   3.712
  246TIP3    H1  683   5.540   6.981   3.618
  246TIP3    H2  684   5.456   6.948   3.739
  247TIP3   OH2  685   2.869   6.194   6.068
  247TIP3    H1  686   2.916   6.218   5.988
  247TIP3    H2  687   2.932   6.145   6.120
  248TIP3   OH2  688   2.211   0.928   3.147
  248TIP3    H1  689   2.168   0.871   3.211
  248TIP3    H2  690   2.250   0.867   3.084
  249TIP3   OH2  691   1.791   1.243   6.604
  249TIP3    H1  692   1.855   1.172   6.594
  249TIP3    H2  693   1.771   1.270   6.515
  250TIP3   OH2  694   4.726   1.129   6.681
  250TIP3    H1  695   4.667   1.151   6.753
  250TIP3    H2  696   4.772   1.211   6.663
  251TIP3   OH2  697   2.317   3.688   4.522
  251TIP3    H1  698   2.356   3.773   4.542
  251TIP3    H2  699   2.275   3.701   4.437
  252TIP3   OH2  700   1.230   3.577   2.916
  252TIP3    H1  701   1.236   3.568   2.821
  252TIP3    H2  702   1.258   3.667   2.933
  253TIP3   OH2  703   2.325   2.320   0.231
  253TIP3    H1  704   2.410   2.303   0.192
  253TIP3    H2  705   2.263   2.319   0.158
  254TIP3   OH2  706   2.768   5.315   4.243
  254TIP3    H1  707   2.785   5.407   4.220
  254TIP3    H2  708   2.744   5.318   4.336
  255TIP3   OH2  709   5.796   3.013   2.259
  255TIP3    H1  710   5.890   3.009   2.240
  255TIP3    H2  711   5.785   3.094   2.310
  256TIP3   OH2  712   6.397   4.499   3.001
  256TIP3    H1  713   6.345   4.429   3.039
  256TIP3    H2  714   6.344   4.530   2.927
  257TIP3   OH2  715   0.816   2.688   0.240
  257TIP3    H1  716   0.841   2.597   0.254
  257TIP3    H2  717   0.760   2.710   0.314
  258TIP3   OH2  718   1.488   0.908   6.458
  258TIP3    H1  719   1.522   0.843   6.397
  258TIP3    H2  720   1.477   0.987   6.404
  259TIP3   OH2  721   7.211   0.446   4.057
  259TIP3    H1  722   7.149   0.513   4.030
  259TIP3    H2  723   7.203   0.442   4.153
  260TIP3   OH2  724   6.471   4.969   0.202
  260TIP3    H1  725   6.387   4.969   0.156
  260TIP3    H2  726   6.494   5.061   0.209
  261TIP3   OH2  727   7.980   5.682   3.033
  261TIP3    H1  728   7.895   5.698   3.072
  261TIP3    H2  729   8.042   5.725   3.092
  262TIP3   OH2  730   6.840   5.484   0.658
  262TIP3    H1  731   6.848   5.518   0.747
  262TIP3    H2  732   6.763   5.528   0.623
  263TIP3   OH2  733   2.274   7.112   3.004
  263TIP3    H1  734   2.289   7.194   2.957
  263TIP3    H2  735   2.260   7.138   3.095
  264TIP3   OH2  736   5.803   5.360   2.548
  264TIP3    H1  737   5.731   5.299   2.534
  264TIP3    H2  738   5.879   5.318   2.507
  265TIP3   OH2  739   0.546   4.272   1.224
  265TIP3    H1  740   0.551   4.195   1.166
  265TIP3    H2  741   0.480   4.328   1.183
  266TIP3   OH2  742   5.855   5.307   1.125
  266TIP3    H1  743   5.816   5.353   1.051
  266TIP3    H2  744   5.786   5.307   1.192
  267TIP3   OH2  745   5.954   6.875   3.328
  267TIP3    H1  746   5.900   6.796   3.331
  267TIP3    H2  747   5.900   6.939   3.282
  268TIP3   OH2  748   7.705   2.672   5.245
  268TIP3    H1  749   7.656   2.754   5.253
  268TIP3    H2  750   7.797   2.699   5.246
  269TIP3   OH2  751   5.301   7.823   5.487
  269TIP3    H1  752   5.392   7.852   5.483
  269TIP3    H2  753   5.303   7.733   5.455
  270TIP3   OH2  754   7.746   3.729   3.545
  270TIP3    H1  755   7.705   3.665   3.603
  270TIP3    H2  756   7.810   3.678   3.495
  271TIP3   OH2  757   1.514   6.233   6.099
  271TIP3    H1  758   1.512   6.174   6.023
  271TIP3    H2  759   1.507   6.175   6.175
  272TIP3   OH2  760   7.706   3.908   0.100
  272TIP3    H1  761   7.798   3.913   0.125
  272TIP3    H2  762   7.658   3.940   0.176
  273TIP3   OH2  763   1.685   5.091   2.946
  273TIP3    H1  764   1.708   5.076   3.038
  273TIP3    H2  765   1.615   5.028   2.929
  274TIP3   OH2  766   0.114   2.175   5.519
  274TIP3    H1  767   0.051   2.202   5.453
  274TIP3    H2  768   0.199   2.200   5.484
  275TIP3   OH2  769   4.748   7.033   3.972
  275TIP3    H1  770   4.723   7.045   4.063
  275TIP3    H2  771   4.822   6.972   3.975
  276TIP3   OH2  772   4.214   7.639   3.797
  276TIP3    H1  773   4.262   7.582   3.856
  276TIP3    H2  774   4.154   7.581   3.750
  277TIP3   OH2  775   4.308   1.456   6.031
  277TIP3    H1  776   4.268   1.377   5.995
  277TIP3    H2  777   4.282   1.526   5.971
  278TIP3   OH2  778   7.891   6.677   2.075
  278TIP3    H1  779   7.957   6.744   2.057
  278TIP3    H2  780   7.811   6.710   2.036
  279TIP3   OH2  781   8.155   6.228   4.947
  279TIP3    H1  782   8.091   6.189   5.006
  279TIP3    H2  783   8.119   6.315   4.927
  280TIP3   OH2  784   3.120   4.714   3.547
  280TIP3    H1  785   3.028   4.729   3.568
  280TIP3    H2  786   3.168   4.750   3.622
  281TIP3   OH2  787   4.752   1.572   3.887
  281TIP3    H1  788   4.708   1.603   3.808
  281TIP3    H2  789   4.684   1.574   3.954
  282TIP3   OH2  790   1.657   1.313   1.452
  282TIP3    H1  791   1.677   1.269   1.369
  282TIP3    H2  792   1.715   1.270   1.516
  283TIP3   OH2  793   4.701   4.313   2.764
  283TIP3    H1  794   4.735   4.285   2.849
  283TIP3    H2  795   4.705   4.408   2.766
  284TIP3   OH2  796   2.056   1.378   6.192
  284TIP3    H1  797   2.136   1.376   6.140
  284TIP3    H2  798   2.013   1.295   6.175
  285TIP3   OH2  799   3.188   7.346   3.766
  285TIP3    H1  800   3.114   7.384   3.813
  285TIP3    H2  801   3.187   7.388   3.680
  286TIP3   OH2  802   2.906   2.027   4.326
  286TIP3    H1  803   2.897   1.932   4.332
  286TIP3    H2  804   2.836   2.061   4.382
  287TIP3   OH2  805   0.370   6.006   5.986
  287TIP3    H1  806   0.363   5.911   5.977
  287TIP3    H2  807   0.330   6.040   5.906
  288TIP3   OH2  808   5.311   5.627   1.563
  288TIP3    H1  809   5.238   5.615   1.503
  288TIP3    H2  810   5.272   5.617   1.650
  289TIP3   OH2  811   1.849   5.329   4.302
  289TIP3    H1  812   1.828   5.384   4.378
  289TIP3    H2  813   1.862   5.391   4.230
  290TIP3   OH2  814   7.292   3.438   3.346
  290TIP3    H1  815   7.273   3.478   3.431
  290TIP3    H2  816   7.235   3.483   3.284
  291TIP3   OH2  817   0.430   5.623   4.628
  291TIP3    H1  818   0.374   5.615   4.705
  291TIP3    H2  819   0.495   5.688   4.652
  292TIP3   OH2  820   6.147   7.566   1.101
  292TIP3    H1  821   6.089   7.530   1.034
  292TIP3    H2  822   6.214   7.614   1.052
  293TIP3   OH2  823   0.357   2.189   5.340
  293TIP3    H1  824   0.391   2.270   5.302
  293TIP3    H2  825   0.428   2.126   5.331
  294TIP3   OH2  826   4.333   0.341   5.405
  294TIP3    H1  827   4.393   0.279   5.363
  294TIP3    H2  828   4.317   0.407   5.338
  295TIP3   OH2  829   2.772   5.032   4.048
  295TIP3    H1  830   2.789   5.025   3.954
  295TIP3    H2  831   2.855   5.063   4.084
  296TIP3   OH2  832   4.085   3.616   1.610
  296TIP3    H1  833   4.156   3.671   1.576
  296TIP3    H2  834   4.104   3.607   1.703
  297TIP3   OH2  835   7.912   6.764   2.431
  297TIP3    H1  836   7.905   6.805   2.518
  297TIP3    H2  837   8.003   6.779   2.405
  298TIP3   OH2  838   8.045   2.830   2.149
  298TIP3    H1  839   8.091   2.795   2.073
  298TIP3    H2  840   8.030   2.754   2.205
  299TIP3   OH2  841   7.361   5.519   5.456
  299TIP3    H1  842   7.436   5.563   5.495
  299TIP3    H2  843   7.329   5.580   5.390
  300TIP3   OH2  844   0.054   0.897   6.072
  300TIP3    H1  845  -0.014   0.961   6.094
  300TIP3    H2  846   0.068   0.910   5.978
  301TIP3   OH2  847   2.882   7.631   0.576
  301TIP3    H1  848   2.905   7.719   0.606
  301TIP3    H2  849   2.954   7.576   0.607
  302TIP3   OH2  850   7.684   5.148   1.922
  302TIP3    H1  851   7.731   5.071   1.953
  302TIP3    H2  852   7.595   5.137   1.957
  303TIP3   OH2  853   4.475   3.979   3.468
  303TIP3    H1  854   4.479   3.923   3.391
  303TIP3    H2  855   4.543   3.946   3.526
  304TIP3   OH2  856   6.206   6.752   5.206
  304TIP3    H1  857   6.233   6.723   5.119
  304TIP3    H2  858   6.212   6.847   5.203
  305TIP3   OH2  859   0.964   3.781   3.955
  305TIP3    H1  860   0.965   3.726   3.877
  305TIP3    H2  861   0.883   3.831   3.948
  306TIP3   OH2  862   4.608   2.946   5.720
  306TIP3    H1  863   4.526   2.928   5.675
  306TIP3    H2  864   4.669   2.968   5.649
  307TIP3   OH2  865   3.784   6.868   4.376
  307TIP3    H1  866   3.848   6.815   4.424
  307TIP3    H2  867   3.733   6.911   4.444
  308TIP3   OH2  868   5.454   6.288   6.143
  308TIP3    H1  869   5.389   6.223   6.167
  308TIP3    H2  870   5.533   6.263   6.192
  309TIP3   OH2  871   1.480   4.043   5.968
  309TIP3    H1  872   1.517   4.117   5.920
  309TIP3    H2  873   1.485   4.068   6.060
  310TIP3   OH2  874   2.320   7.600   2.384
  310TIP3    H1  875   2.253   7.555   2.434
  310TIP3    H2  876   2.272   7.663   2.330
  311TIP3   OH2  877   0.955   1.847   1.080
  311TIP3    H1  878   0.897   1.857   1.155
  311TIP3    H2  879   0.975   1.753   1.077
  312TIP3   OH2  880   7.433   3.922   2.480
  312TIP3    H1  881   7.522   3.893   2.497
  312TIP3    H2  882   7.429   4.011   2.517
  313TIP3   OH2  883   0.711   7.685   4.044
  313TIP3    H1  884   0.691   7.606   4.094
  313TIP3    H2  885   0.770   7.735   4.100
  314TIP3   OH2  886   6.658   2.691   6.584
  314TIP3    H1  887   6.750   2.682   6.560
  314TIP3    H2  888   6.613   2.704   6.501
  315TIP3   OH2  889   7.316   5.430   6.534
  315TIP3    H1  890   7.411   5.440   6.536
  315TIP3    H2  891   7.302   5.336   6.521
  316TIP3   OH2  892   4.813   5.444   4.676
  316TIP3    H1  893   4.891   5.413   4.722
  316TIP3    H2  894   4.803   5.384   4.602
  317TIP3   OH2  895   1.308   5.468   5.772
  317TIP3    H1  896   1.303   5.558   5.738
  317TIP3    H2  897   1.241   5.464   5.840
  318TIP3   OH2  898   2.002   2.961   5.009
  318TIP3    H1  899   1.956   2.992   4.931
  318TIP3    H2  900   2.034   3.041   5.051
  319TIP3   OH2  901   5.024   7.128   4.745
  319TIP3    H1  902   5.081   7.095   4.814
  319TIP3    H2  903   5.069   7.206   4.712
  320TIP3   OH2  904   3.582   0.780   1.166
  320TIP3    H1  905   3.532   0.729   1.230
  320TIP3    H2  906   3.673   0.749   1.177
  321TIP3   OH2  907   1.398   6.460   2.733
  321TIP3    H1  908   1.362   6.442   2.819
  321TIP3    H2  909   1.346   6.535   2.701
  322TIP3   OH2  910   5.518   0.566   0.934
  322TIP3    H1  911   5.603   0.564   0.977
  322TIP3    H2  912   5.533   0.526   0.848
  323TIP3   OH2  913   5.784   2.455   2.237
  323TIP3    H1  914   5.774   2.548   2.218
  323TIP3    H2  915   5.866   2.450   2.287
  324TIP3   OH2  916   5.092   3.185   1.194
  324TIP3    H1  917   5.105   3.280   1.190
  324TIP3    H2  918   5.156   3.155   1.258
  325TIP3   OH2  919   4.725   0.763   6.109
  325TIP3    H1  920   4.759   0.708   6.180
  325TIP3    H2  921   4.739   0.712   6.030
  326TIP3   OH2  922   7.854   5.633   6.011
  326TIP3    H1  923   7.833   5.574   5.939
  326TIP3    H2  924   7.769   5.661   6.045
  327TIP3   OH2  925   2.980   3.011   5.768
  327TIP3    H1  926   2.894   2.999   5.810
  327TIP3    H2  927   2.999   3.104   5.778
  328TIP3   OH2  928   3.449   0.992   3.403
  328TIP3    H1  929   3.415   1.072   3.443
  328TIP3    H2  930   3.393   0.977   3.327
  329TIP3   OH2  931   1.738   0.316   5.974
  329TIP3    H1  932   1.734   0.349   6.064
  329TIP3    H2  933   1.722   0.222   5.982
  330TIP3   OH2  934   4.849   6.657   6.566
  330TIP3    H1  935   4.942   6.634   6.562
  330TIP3    H2  936   4.847   6.750   6.547
  331TIP3   OH2  937   0.549   4.432   3.301
  331TIP3    H1  938   0.460   4.411   3.271
  331TIP3    H2  939   0.541   4.441   3.396
  332TIP3   OH2  940   2.898   2.419   2.666
  332TIP3    H1  941   2.861   2.399   2.752
  332TIP3    H2  942   2.961   2.349   2.650
  333TIP3   OH2  943   3.626   1.193   5.091
  333TIP3    H1  944   3.585   1.145   5.019
  333TIP3    H2  945   3.554   1.243   5.130
  334TIP3   OH2  946   4.339   3.845   0.355
  334TIP3    H1  947   4.395   3.911   0.313
  334TIP3    H2  948   4.256   3.890   0.371
  335TIP3   OH2  949   1.998   4.555   5.112
  335TIP3    H1  950   2.078   4.597   5.079
  335TIP3    H2  951   1.975   4.607   5.190
  336TIP3   OH2  952   1.938   6.979   0.847
  336TIP3    H1  953   1.950   7.071   0.825
  336TIP3    H2  954   2.021   6.954   0.888
  337TIP3   OH2  955   4.311   0.223   3.225
  337TIP3    H1  956   4.380   0.170   3.265
  337TIP3    H2  957   4.316   0.307   3.270
  338TIP3   OH2  958   6.674   6.679   6.678
  338TIP3    H1  959   6.631   6.763   6.694
  338TIP3    H2  960   6.768   6.699   6.680
  339TIP3   OH2  961   6.090   3.452   4.549
  339TIP3    H1  962   6.068   3.505   4.627
  339TIP3    H2  963   6.021   3.386   4.546
  340TIP3   OH2  964   5.040   4.510   3.709
  340TIP3    H1  965   5.091   4.533   3.631
  340TIP3    H2  966   5.103   4.513   3.781
  341TIP3   OH2  967   6.280   4.038   1.225
  341TIP3    H1  968   6.223   3.973   1.266
  341TIP3    H2  969   6.234   4.064   1.145
  342TIP3   OH2  970   7.519   0.023   1.431
  342TIP3    H1  971   7.540   0.117   1.427
  342TIP3    H2  972   7.604  -0.020   1.424
  343TIP3   OH2  973   5.882   5.423   6.635
  343TIP3    H1  974   5.842   5.412   6.721
  343TIP3    H2  975   5.936   5.344   6.625
  344TIP3   OH2  976   0.711   5.125   1.738
  344TIP3    H1  977   0.701   5.060   1.668
  344TIP3    H2  978   0.770   5.191   1.701
  345TIP3   OH2  979   1.336   5.501   6.139
  345TIP3    H1  980   1.338   5.413   6.176
  345TIP3    H2  981   1.402   5.550   6.188
  346TIP3   OH2  982   0.142   7.472   6.256
  346TIP3    H1  983   0.220   7.509   6.297
  346TIP3    H2  984   0.078   7.464   6.328
  347TIP3   OH2  985   2.607   5.050   4.274
  347TIP3    H1  986   2.664   5.014   4.205
  347TIP3    H2  987   2.640   5.139   4.287
  348TIP3   OH2  988   2.446   5.441   2.432
  348TIP3    H1  989   2.501   5.455   2.509
  348TIP3    H2  990   2.364   5.405   2.467
  349TIP3   OH2  991   6.303   2.295   3.827
  349TIP3    H1  992   6.375   2.357   3.818
  349TIP3    H2  993   6.227   2.341   3.792
  350TIP3   OH2  994   6.590   0.298   1.984
  350TIP3    H1  995   6.628   0.245   2.053
  350TIP3    H2  996   6.542   0.367   2.030
  351TIP3   OH2  997   5.576   6.952   2.889
  351TIP3    H1  998   5.650   6.913   2.843
  351TIP3    H2  999   5.605   7.040   2.912
  352TIP3   OH2 1000   0.785   3.677   3.570
  352TIP3    H1 1001   0.839   3.653   3.494
  352TIP3    H2 1002   0.827   3.756   3.604
  353TIP3   OH2 1003   3.670   6.157   0.449
  353TIP3    H1 1004   3.634   6.075   0.482
  353TIP3    H2 1005   3.763   6.152   0.470
  354TIP3   OH2 1006   0.486   1.982   3.811
  354TIP3    H1 1007   0.412   1.941   3.767
  354TIP3    H2 1008   0.447   2.048   3.868
  355TIP3   OH2 1009   1.362   0.423   3.974
  355TIP3    H1 1010   1.311   0.502   3.955
  355TIP3    H2 1011   1.351   0.410   4.068
  356TIP3   OH2 1012   7.520   2.804   0.148
  356TIP3    H1 1013   7.446   2.775   0.203
  356TIP3    H2 1014   7.481   2.818   0.062
  357TIP3   OH2 1015   4.552   0.070   1.647
  357TIP3    H1 1016   4.458   0.055   1.648
  357TIP3    H2 1017   4.563   0.158   1.681
  358TIP3   OH2 1018   1.314   4.154   6.630
  358TIP3    H1 1019   1.355   4.234   6.661
  358TIP3    H2 1020   1.351   4.084   6.684
  359TIP3   OH2 1021   6.713   0.892   2.139
  359TIP3    H1 1022   6.695   0.955   2.069
  359TIP3    H2 1023   6.726   0.946   2.217
  360TIP3   OH2 1024   3.776   0.581   3.187
  360TIP3    H1 1025   3.782   0.676   3.198
  360TIP3    H2 1026   3.755   0.548   3.274
  361TIP3   OH2 1027   2.625   3.849   2.294
  361TIP3    H1 1028   2.715   3.847   2.326
  361TIP3    H2 1029   2.607   3.942   2.279
  362TIP3   OH2 1030   1.934   4.443   0.210
  362TIP3    H1 1031   1.986   4.405   0.280
  362TIP3    H2 1032   1.978   4.525   0.189
  363TIP3   OH2 1033   2.634   0.443   0.770
  363TIP3    H1 1034   2.573   0.488   0.711
  363TIP3    H2 1035   2.598   0.458   0.858
  364TIP3   OH2 1036   5.430   4.676   3.480
  364TIP3    H1 1037   5.361   4.611   3.479
  364TIP3    H2 1038   5.478   4.660   3.562
  365TIP3   OH2 1039   6.033   5.651   4.952
  365TIP3    H1 1040   6.107   5.610   4.997
  365TIP3    H2 1041   6.071   5.728   4.909
  366TIP3   OH2 1042   2.182   6.893   4.019
  366TIP3    H1 1043   2.171   6.804   3.988
  366TIP3    H2 1044   2.117   6.902   4.089
  367TIP3   OH2 1045   4.339   5.993   5.881
  367TIP3    H1 1046   4.401   6.045   5.832
  367TIP3    H2 1047   4.280   5.957   5.815
  368TIP3   OH2 1048   3.528   7.057   6.717
  368TIP3    H1 1049   3.544   7.110   6.796
  368TIP3    H2 1050   3.433   7.047   6.714
  369TIP3   OH2 1051   0.374   5.339   0.001
  369TIP3    H1 1052   0.452   5.363  -0.050
  369TIP3    H2 1053   0.406   5.274   0.063
  370TIP3   OH2 1054   0.565   4.610   4.935
  370TIP3    H1 1055   0.578   4.694   4.980
  370TIP3    H2 1056   0.642   4.558   4.958
  371TIP3   OH2 1057   7.280   2.149   5.950
  371TIP3    H1 1058   7.363   2.101   5.958
  371TIP3    H2 1059   7.301   2.226   5.898
  372TIP3   OH2 1060   2.790   2.733   3.217
  372TIP3    H1 1061   2.697   2.743   3.235
  372TIP3    H2 1062   2.794   2.669   3.146
  373TIP3   OH2 1063   4.173   1.803   5.802
  373TIP3    H1 1064   4.232   1.768   5.735
  373TIP3    H2 1065   4.129   1.726   5.838
  374TIP3   OH2 1066   3.878   3.893   4.371
  374TIP3    H1 1067   3.968   3.883   4.340
  374TIP3    H2 1068   3.826   3.841   4.310
  375TIP3   OH2 1069   7.078   6.266   1.417
  375TIP3    H1 1070   7.053   6.173   1.417
  375TIP3    H2 1071   7.139   6.274   1.344
  376TIP3   OH2 1072   7.338   2.029   4.024
  376TIP3    H1 1073   7.275   2.088   4.067
  376TIP3    H2 1074   7.318   2.036   3.931
  377TIP3   OH2 1075   2.862   7.710   3.301
  377TIP3    H1 1076   2.946   7.697   3.258
  377TIP3    H2 1077   2.807   7.640   3.268
  378TIP3   OH2 1078   1.991   0.411   1.032
  378TIP3    H1 1079   2.080   0.432   1.059
  378TIP3    H2 1080   1.994   0.319   1.008
  379TIP3   OH2 1081   6.967   4.016   0.168
  379TIP3    H1 1082   6.883   4.028   0.124
  379TIP3    H2 1083   7.021   4.089   0.137
  380TIP3   OH2 1084   3.030   0.554   4.973
  380TIP3    H1 1085   3.072   0.637   4.995
  380TIP3    H2 1086   3.092   0.512   4.913
  381TIP3   OH2 1087   0.425   5.336   4.904
  381TIP3    H1 1088   0.476   5.356   4.982
  381TIP3    H2 1089   0.362   5.270   4.933
  382TIP3   OH2 1090   6.657   3.752   4.185
  382TIP3    H1 1091   6.737   3.736   4.235
  382TIP3    H2 1092   6.589   3.702   4.231
  383TIP3   OH2 1093   3.311   2.494   6.674
  383TIP3    H1 1094   3.401   2.464   6.690
  383TIP3    H2 1095   3.264   2.414   6.649
  384TIP3   OH2 1096   6.357   6.297   5.023
  384TIP3    H1 1097   6.277   6.245   5.017
  384TIP3    H2 1098   6.408   6.255   5.092
  385TIP3   OH2 1099   1.987   5.309   0.997
  385TIP3    H1 1100   2.066   5.309   1.051
  385TIP3    H2 1101   2.009   5.251   0.923
  386TIP3   OH2 1102   4.856   2.382   1.274
  386TIP3    H1 1103   4.922   2.335   1.326
  386TIP3    H2 1104   4.902   2.459   1.242
  387TIP3   OH2 1105   7.612   0.361   2.532
  387TIP3    H1 1106   7.524   0.392   2.510
  387TIP3    H2 1107   7.607   0.266   2.519
  388TIP3   OH2 1108   5.186   4.501   3.456
  388TIP3    H1 1109   5.254   4.453   3.503
  388TIP3    H2 1110   5.118   4.436   3.439
  389TIP3   OH2 1111   5.104   6.226   0.373
  389TIP3    H1 1112   5.026   6.258   0.419
  389TIP3    H2 1113   5.177   6.253   0.428
  390TIP3   OH2 1114   7.067   3.374   6.236
  390TIP3    H1 1115   7.135   3.319   6.197
  390TIP3    H2 1116   7.085   3.371   6.330
  391TIP3   OH2 1117   0.224   0.304   0.464
  391TIP3    H1 1118   0.186   0.329   0.379
  391TIP3    H2 1119   0.152   0.315   0.526
  392TIP3   OH2 1120   2.139   2.196   1.462
  392TIP3    H1 1121   2.051   2.173   1.493
  392TIP3    H2 1122   2.190   2.116   1.476
  393TIP3   OH2 1123   2.654   2.174   3.524
  393TIP3    H1 1124   2.722   2.111   3.504
  393TIP3    H2 1125   2.701   2.252   3.554
  394TIP3   OH2 1126   0.313   0.845   4.381
  394TIP3    H1 1127   0.231   0.806   4.410
  394TIP3    H2 1128   0.328   0.917   4.442
  395TIP3   OH2 1129   4.674   5.202   1.558
  395TIP3    H1 1130   4.585   5.175   1.580
  395TIP3    H2 1131   4.679   5.190   1.463
  396TIP3   OH2 1132   8.049   0.570   4.266
  396TIP3    H1 1133   8.067   0.621   4.187
  396TIP3    H2 1134   7.956   0.547   4.259
  397TIP3   OH2 1135   1.890   5.327   3.217
  397TIP3    H1 1136   1.857   5.347   3.305
  397TIP3    H2 1137   1.961   5.389   3.203
  398TIP3   OH2 1138   5.955   2.122   3.620
  398TIP3    H1 1139   5.953   2.090   3.530
  398TIP3    H2 1140   6.034   2.084   3.658
  399TIP3   OH2 1141   1.411   6.401   2.402
  399TIP3    H1 1142   1.427   6.492   2.423
  399TIP3    H2 1143   1.449   6.389   2.315
  400TIP3   OH2 1144   8.148   7.260   3.525
  400TIP3    H1 1145   8.152   7.165   3.531
  400TIP3    H2 1146   8.082   7.276   3.457
  401TIP3   OH2 1147   6.571   6.716   5.424
  401TIP3    H1 1148   6.642   6.741   5.365
  401TIP3    H2 1149   6.527   6.643   5.379
  402TIP3   OH2 1150   2.124   2.056   1.797
  402TIP3    H1 1151   2.185   2.116   1.840
  402TIP3    H2 1152   2.164   2.038   1.711
  403TIP3   OH2 1153   0.300   5.578   3.639
  403TIP3    H1 1154   0.374   5.617   3.685
  403TIP3    H2 1155   0.239   5.552   3.708
  404TIP3   OH2 1156   5.951   2.142   3.328
  404TIP3    H1 1157   5.898   2.217   3.302
  404TIP3    H2 1158   5.924   2.071   3.268
  405TIP3   OH2 1159   1.381   6.003   1.321
  405TIP3    H1 1160   1.417   5.954   1.247
  405TIP3    H2 1161   1.324   6.069   1.280
  406TIP3   OH2 1162   6.772   2.383   2.597
  406TIP3    H1 1163   6.695   2.330   2.573
  406TIP3    H2 1164   6.846   2.325   2.581
  407TIP3   OH2 1165   5.890   6.314   5.493
  407TIP3    H1 1166   5.823   6.366   5.538
  407TIP3    H2 1167   5.839   6.249   5.443
  408TIP3   OH2 1168   4.260   0.957   2.729
  408TIP3    H1 1169   4.214   0.995   2.804
  408TIP3    H2 1170   4.191   0.939   2.666
  409TIP3   OH2 1171   3.510   5.765   4.784
  409TIP3    H1 1172   3.502   5.860   4.782
  409TIP3    H2 1173   3.555   5.746   4.866
  410TIP3   OH2 1174   3.858   1.892   1.719
  410TIP3    H1 1175   3.944   1.861   1.747
  410TIP3    H2 1176   3.810   1.813   1.694
  411TIP3   OH2 1177   5.677   1.765   2.201
  411TIP3    H1 1178   5.723   1.848   2.215
  411TIP3    H2 1179   5.603   1.787   2.145
  412TIP3   OH2 1180   2.298   6.862   6.625
  412TIP3    H1 1181   2.238   6.909   6.566
  412TIP3    H2 1182   2.380   6.856   6.575
  413TIP3   OH2 1183   4.324   0.467   3.327
  413TIP3    H1 1184   4.247   0.508   3.366
  413TIP3    H2 1185   4.397   0.499   3.379
  414TIP3   OH2 1186   3.079   4.962   1.917
  414TIP3    H1 1187   3.031   5.024   1.972
  414TIP3    H2 1188   3.171   4.973   1.942
  415TIP3   OH2 1189   2.542   1.053   6.246
  415TIP3    H1 1190   2.470   1.044   6.183
  415TIP3    H2 1191   2.604   1.112   6.203
  416TIP3   OH2 1192   2.512   1.536   4.480
  416TIP3    H1 1193   2.524   1.593   4.404
  416TIP3    H2 1194   2.491   1.451   4.442
  417TIP3   OH2 1195   4.522   5.118   4.891
  417TIP3    H1 1196   4.537   5.058   4.964
  417TIP3    H2 1197   4.489   5.062   4.820
  418TIP3   OH2 1198   7.181   3.235   2.073
  418TIP3    H1 1199   7.259   3.287   2.054
  418TIP3    H2 1200   7.213   3.145   2.080
  419TIP3   OH2 1201   7.458   7.281   2.230
  419TIP3    H1 1202   7.488   7.199   2.191
  419TIP3    H2 1203   7.417   7.328   2.158
  420TIP3   OH2 1204   6.204   4.070   0.968
  420TIP3    H1 1205   6.272   4.101   0.908
  420TIP3    H2 1206   6.153   4.008   0.916
  421TIP3   OH2 1207   8.279   2.992   0.455
  421TIP3    H1 1208   8.211   3.055   0.481
  421TIP3    H2 1209   8.361   3.041   0.462
  422TIP3   OH2 1210   6.686   6.140   1.724
  422TIP3    H1 1211   6.594   6.115   1.720
  422TIP3    H2 1212   6.715   6.141   1.633
  423TIP3   OH2 1213   7.034   0.469   6.577
  423TIP3    H1 1214   7.034   0.431   6.489
  423TIP3    H2 1215   6.949   0.446   6.613
  424TIP3   OH2 1216   5.502   6.617   5.637
  424TIP3    H1 1217   5.522   6.657   5.553
  424TIP3    H2 1218   5.407   6.606   5.637
  425TIP3   OH2 1219   2.432   6.704   0.107
  425TIP3    H1 1220   2.487   6.637   0.066
  425TIP3    H2 1221   2.443   6.781   0.052
  426TIP3   OH2 1222   5.029   3.997   2.842
  426TIP3    H1 1223   4.937   3.973   2.841
  426TIP3    H2 1224   5.037   4.065   2.775
  427TIP3   OH2 1225   0.042   5.859   5.879
  427TIP3    H1 1226   0.054   5.918   5.804
  427TIP3    H2 1227   0.062   5.772   5.844
  428TIP3   OH2 1228   3.254   6.877   3.159
  428TIP3    H1 1229   3.235   6.787   3.186
  428TIP3    H2 1230   3.246   6.876   3.064
  429TIP3   OH2 1231   6.198   6.838   1.505
  429TIP3    H1 1232   6.123   6.896   1.511
  429TIP3    H2 1233   6.170   6.769   1.445
  430TIP3   OH2 1234   1.472   4.232   2.837
  430TIP3    H1 1235   1.534   4.162   2.857
  430TIP3    H2 1236   1.512   4.280   2.765
  431TIP3   OH2 1237   5.145   2.611   6.346
  431TIP3    H1 1238   5.216   2.567   6.300
  431TIP3    H2 1239   5.074   2.546   6.348
  432TIP3   OH2 1240   0.537   0.681   4.681
  432TIP3    H1 1241   0.524   0.597   4.725
  432TIP3    H2 1242   0.579   0.658   4.598
  433TIP3   OH2 1243   2.281   3.836   5.203
  433TIP3    H1 1244   2.307   3.814   5.114
  433TIP3    H2 1245   2.281   3.932   5.205
  434TIP3   OH2 1246   5.005   2.771   5.632
  434TIP3    H1 1247   4.947   2.742   5.702
  434TIP3    H2 1248   4.948   2.774   5.554
  435TIP3   OH2 1249   0.981   0.847   3.711
  435TIP3    H1 1250   0.896   0.830   3.751
  435TIP3    H2 1251   0.973   0.936   3.674
  436TIP3   OH2 1252   3.498   6.735   2.904
  436TIP3    H1 1253   3.525   6.715   2.814
  436TIP3    H2 1254   3.415   6.781   2.895
  437TIP3   OH2 1255   3.012   7.671   0.184
  437TIP3    H1 1256   3.082   7.621   0.141
  437TIP3    H2 1257   3.039   7.674   0.276
  438TIP3   OH2 1258   6.378   4.173   0.778
  438TIP3    H1 1259   6.461   4.221   0.779
  438TIP3    H2 1260   6.382   4.118   0.700
  439TIP3   OH2 1261   1.937   7.721   3.625
  439TIP3    H1 1262   1.968   7.631   3.619
  439TIP3    H2 1263   1.849   7.719   3.587
  440TIP3   OH2 1264   7.158   6.147   5.787
  440TIP3    H1 1265   7.126   6.206   5.856
  440TIP3    H2 1266   7.164   6.062   5.830
  441TIP3   OH2 1267   4.726   1.339   6.340
  441TIP3    H1 1268   4.726   1.330   6.436
  441TIP3    H2 1269   4.671   1.268   6.309
  442TIP3   OH2 1270   4.558   3.500   6.416
  442TIP3    H1 1271   4.602   3.444   6.352
  442TIP3    H2 1272   4.624   3.516   6.483
  443TIP3   OH2 1273   5.013   5.446   0.136
  443TIP3    H1 1274   4.948   5.514   0.121
  443TIP3    H2 1275   4.984   5.402   0.216
  444TIP3   OH2 1276   3.528   6.261   2.695
  444TIP3    H1 1277   3.493   6.175   2.718
  444TIP3    H2 1278   3.580   6.287   2.771
  445TIP3   OH2 1279   4.809   7.553   1.219
  445TIP3    H1 1280   4.781   7.593   1.136
  445TIP3    H2 1281   4.893   7.512   1.199
  446TIP3   OH2 1282   0.229   4.480   0.513
  446TIP3    H1 1283   0.147   4.481   0.464
  446TIP3    H2 1284   0.272   4.563   0.489
  447TIP3   OH2 1285   2.453   3.778   5.806
  447TIP3    H1 1286   2.439   3.773   5.900
  447TIP3    H2 1287   2.538   3.736   5.792
  448TIP3   OH2 1288   2.466   4.573   0.641
  448TIP3    H1 1289   2.484   4.557   0.734
  448TIP3    H2 1290   2.371   4.575   0.634
  449TIP3   OH2 1291   7.774   1.840   2.618
  449TIP3    H1 1292   7.751   1.771   2.556
  449TIP3    H2 1293   7.709   1.833   2.688
  450TIP3   OH2 1294   6.392   7.808   5.468
  450TIP3    H1 1295   6.424   7.728   5.510
  450TIP3    H2 1296   6.470   7.859   5.449
  451TIP3   OH2 1297   6.055   1.674   3.041
  451TIP3    H1 1298   5.984   1.643   3.097
  451TIP3    H2 1299   6.133   1.668   3.096
  452TIP3   OH2 1300   0.920   5.792   0.259
  452TIP3    H1 1301   0.850   5.829   0.204
  452TIP3    H2 1302   0.991   5.774   0.197
  453TIP3   OH2 1303   3.119   7.235   4.228
  453TIP3    H1 1304   3.058   7.309   4.231
  453TIP3    H2 1305   3.205   7.275   4.238
  454TIP3   OH2 1306   8.184   2.249   6.610
  454TIP3    H1 1307   8.280   2.247   6.615
  454TIP3    H2 1308   8.160   2.166   6.569
  455TIP3   OH2 1309   2.346   5.794   2.571
  455TIP3    H1 1310   2.263   5.821   2.532
  455TIP3    H2 1311   2.323   5.723   2.631
  456TIP3   OH2 1312   2.007   7.267   6.147
  456TIP3    H1 1313   1.978   7.176   6.154
  456TIP3    H2 1314   1.940   7.309   6.094
  457TIP3   OH2 1315   3.934   0.617   4.129
  457TIP3    H1 1316   3.888   0.691   4.091
  457TIP3    H2 1317   3.888   0.540   4.095
  458TIP3   OH2 1318   6.007   4.944   0.298
  458TIP3    H1 1319   5.964   5.030   0.301
  458TIP3    H2 1320   5.936   4.881   0.302
  459TIP3   OH2 1321   8.226   3.608   2.366
  459TIP3    H1 1322   8.311   3.610   2.411
  459TIP3    H2 1323   8.222   3.522   2.326
  460TIP3   OH2 1324   5.891   2.650   1.359
  460TIP3    H1 1325   5.963   2.598   1.323
  460TIP3    H2 1326   5.867   2.606   1.440
  461TIP3   OH2 1327   4.054   2.047   5.559
  461TIP3    H1 1328   4.016   2.124   5.602
  461TIP3    H2 1329   3.987   1.979   5.567
  462TIP3   OH2 1330   2.197   1.233   1.575
  462TIP3    H1 1331   2.230   1.191   1.496
  462TIP3    H2 1332   2.274   1.244   1.631
  463TIP3   OH2 1333   3.440   5.256   0.331
  463TIP3    H1 1334   3.510   5.191   0.318
  463TIP3    H2 1335   3.429   5.261   0.425
  464TIP3   OH2 1336   3.378   0.655   5.132
  464TIP3    H1 1337   3.420   0.582   5.179
  464TIP3    H2 1338   3.308   0.683   5.191
  465TIP3   OH2 1339   1.956   1.270   5.632
  465TIP3    H1 1340   2.024   1.205   5.615
  465TIP3    H2 1341   1.999   1.354   5.614
  466TIP3   OH2 1342   6.835   3.373   0.113
  466TIP3    H1 1343   6.742   3.351   0.121
  466TIP3    H2 1344   6.845   3.451   0.167
  467TIP3   OH2 1345   1.349   4.179   0.486
  467TIP3    H1 1346   1.388   4.181   0.573
  467TIP3    H2 1347   1.295   4.101   0.485
  468TIP3   OH2 1348   8.230   3.551   4.358
  468TIP3    H1 1349   8.315   3.513   4.378
  468TIP3    H2 1350   8.249   3.624   4.298
  469TIP3   OH2 1351   5.193   0.417   2.034
  469TIP3    H1 1352   5.285   0.440   2.019
  469TIP3    H2 1353   5.192   0.382   2.123
  470TIP3   OH2 1354   0.241   1.297   6.133
  470TIP3    H1 1355   0.262   1.205   6.144
  470TIP3    H2 1356   0.320   1.336   6.095
  471TIP3   OH2 1357   7.011   6.792   6.187
  471TIP3    H1 1358   7.024   6.883   6.160
  471TIP3    H2 1359   7.064   6.783   6.266
  472TIP3   OH2 1360   5.168   0.489   3.609
  472TIP3    H1 1361   5.218   0.497   3.529
  472TIP3    H2 1362   5.113   0.568   3.612
  473TIP3   OH2 1363   5.750   1.438   3.415
  473TIP3    H1 1364   5.789   1.354   3.394
  473TIP3    H2 1365   5.802   1.470   3.489
  474TIP3   OH2 1366   5.098   3.716   4.798
  474TIP3    H1 1367   5.158   3.655   4.756
  474TIP3    H2 1368   5.154   3.789   4.826
  475TIP3   OH2 1369   0.554   0.845   5.098
  475TIP3    H1 1370   0.517   0.889   5.174
  475TIP3    H2 1371   0.593   0.915   5.046
  476TIP3   OH2 1372   5.014   2.233   1.445
  476TIP3    H1 1373   5.109   2.220   1.437
  476TIP3    H2 1374   4.985   2.163   1.504
  477TIP3   OH2 1375   2.557   2.531   4.899
  477TIP3    H1 1376   2.496   2.523   4.973
  477TIP3    H2 1377   2.503   2.519   4.821
  478TIP3   OH2 1378   1.318   2.357   6.356
  478TIP3    H1 1379   1.250   2.290   6.363
  478TIP3    H2 1380   1.317   2.402   6.441
  479TIP3   OH2 1381   7.060   0.265   3.355
  479TIP3    H1 1382   7.100   0.263   3.442
  479TIP3    H2 1383   7.133   0.278   3.295
  480TIP3   OH2 1384   0.251   5.798   5.582
  480TIP3    H1 1385   0.231   5.858   5.653
  480TIP3    H2 1386   0.200   5.831   5.508
  481TIP3   OH2 1387   6.008   3.540   6.007
  481TIP3    H1 1388   6.051   3.544   6.092
  481TIP3    H2 1389   5.968   3.626   5.996
  482TIP3   OH2 1390   4.917   6.462   5.879
  482TIP3    H1 1391   4.977   6.458   5.954
  482TIP3    H2 1392   4.831   6.476   5.918
  483TIP3   OH2 1393   0.149   2.441   0.762
  483TIP3    H1 1394   0.101   2.495   0.699
  483TIP3    H2 1395   0.193   2.375   0.709
  484TIP3   OH2 1396   1.775   0.521   3.852
  484TIP3    H1 1397   1.703   0.480   3.805
  484TIP3    H2 1398   1.734   0.566   3.926
  485TIP3   OH2 1399   2.042   2.888   6.012
  485TIP3    H1 1400   1.953   2.920   6.000
  485TIP3    H2 1401   2.082   2.896   5.925
  486TIP3   OH2 1402   2.279   5.360   1.567
  486TIP3    H1 1403   2.186   5.348   1.584
  486TIP3    H2 1404   2.321   5.284   1.609
  487TIP3   OH2 1405   2.648   0.865   2.516
  487TIP3    H1 1406   2.705   0.931   2.556
  487TIP3    H2 1407   2.705   0.818   2.455
  488TIP3   OH2 1408   7.101   5.398   4.615
  488TIP3    H1 1409   7.048   5.449   4.677
  488TIP3    H2 1410   7.192   5.417   4.640
  489TIP3   OH2 1411   1.483   7.800   5.758
  489TIP3    H1 1412   1.570   7.835   5.778
  489TIP3    H2 1413   1.466   7.827   5.668
  490TIP3   OH2 1414   1.919   6.298   5.336
  490TIP3    H1 1415   1.848   6.318   5.275
  490TIP3    H2 1416   1.966   6.380   5.346
  491TIP3   OH2 1417   7.999   2.637   5.600
  491TIP3    H1 1418   8.037   2.549   5.611
  491TIP3    H2 1419   8.033   2.668   5.516
  492TIP3   OH2 1420   0.619   3.510   3.393
  492TIP3    H1 1421   0.585   3.467   3.471
  492TIP3    H2 1422   0.621   3.603   3.415
  493TIP3   OH2 1423   4.421   5.588   6.534
  493TIP3    H1 1424   4.349   5.645   6.562
  493TIP3    H2 1425   4.490   5.648   6.505
  494TIP3   OH2 1426   6.705   3.853   1.986
  494TIP3    H1 1427   6.797   3.845   1.962
  494TIP3    H2 1428   6.657   3.836   1.905
  495TIP3   OH2 1429   2.652   5.454   2.716
  495TIP3    H1 1430   2.626   5.546   2.720
  495TIP3    H2 1431   2.580   5.407   2.757
  496TIP3   OH2 1432   1.107   4.330   1.934
  496TIP3    H1 1433   1.017   4.319   1.963
  496TIP3    H2 1434   1.154   4.256   1.973
  497TIP3   OH2 1435   3.156   7.487   6.568
  497TIP3    H1 1436   3.081   7.428   6.574
  497TIP3    H2 1437   3.135   7.560   6.626
  498TIP3   OH2 1438   4.833   5.648   0.175
  498TIP3    H1 1439   4.847   5.714   0.107
  498TIP3    H2 1440   4.783   5.693   0.243
  499TIP3   OH2 1441   3.274   0.515   0.591
  499TIP3    H1 1442   3.271   0.425   0.621
  499TIP3    H2 1443   3.312   0.564   0.663
  500TIP3   OH2 1444   3.493   4.352   4.063
  500TIP3    H1 1445   3.425   4.417   4.049
  500TIP3    H2 1446   3.509   4.314   3.977
  501TIP3   OH2 1447   2.212   0.978   4.278
  501TIP3    H1 1448   2.306   0.983   4.261
  501TIP3    H2 1449   2.198   1.036   4.353
  502TIP3   OH2 1450   6.963   6.886   4.442
  502TIP3    H1 1451   7.052   6.899   4.409
  502TIP3    H2 1452   6.971   6.816   4.507
  503TIP3   OH2 1453   4.114   4.287   4.408
  503TIP3    H1 1454   4.129   4.360   4.347
  503TIP3    H2 1455   4.022   4.294   4.432
  504TIP3   OH2 1456   2.249   4.475   1.102
  504TIP3    H1 1457   2.223   4.399   1.153
  504TIP3    H2 1458   2.321   4.514   1.152
  505TIP3   OH2 1459   8.117   6.972   0.870
  505TIP3    H1 1460   8.030   7.010   0.856
  505TIP3    H2 1461   8.175   7.047   0.882
  506TIP3   OH2 1462   4.994  -0.014   5.485
  506TIP3    H1 1463   5.077  -0.016   5.532
  506TIP3    H2 1464   5.010   0.045   5.411
  507TIP3   OH2 1465   3.355   5.145   4.653
  507TIP3    H1 1466   3.406   5.217   4.616
  507TIP3    H2 1467   3.316   5.102   4.576
  508TIP3   OH2 1468   4.095   3.722   3.137
  508TIP3    H1 1469   4.178   3.685   3.165
  508TIP3    H2 1470   4.086   3.803   3.187
  509TIP3   OH2 1471   3.205   3.400   0.803
  509TIP3    H1 1472   3.220   3.481   0.755
  509TIP3    H2 1473   3.127   3.417   0.856
  510TIP3   OH2 1474   4.169   2.005   1.696
  510TIP3    H1 1475   4.225   2.020   1.620
  510TIP3    H2 1476   4.147   1.912   1.693
  511TIP3   OH2 1477   0.212   6.206   5.324
  511TIP3    H1 1478   0.204   6.221   5.418
  511TIP3    H2 1479   0.126   6.173   5.298
  512TIP3   OH2 1480   3.247   5.656   1.870
  512TIP3    H1 1481   3.227   5.749   1.885
  512TIP3    H2 1482   3.308   5.656   1.797
  513TIP3   OH2 1483   1.213   1.895   4.209
  513TIP3    H1 1484   1.294   1.941   4.187
  513TIP3    H2 1485   1.190   1.848   4.129
  514TIP3   OH2 1486   4.405   7.413   1.167
  514TIP3    H1 1487   4.319   7.389   1.133
  514TIP3    H2 1488   4.460   7.336   1.149
  515TIP3   OH2 1489   0.566   0.501   3.322
  515TIP3    H1 1490   0.653   0.523   3.289
  515TIP3    H2 1491   0.552   0.560   3.396
  516TIP3   OH2 1492   4.861   4.737   5.847
  516TIP3    H1 1493   4.781   4.780   5.877
  516TIP3    H2 1494   4.932   4.788   5.887
  517TIP3   OH2 1495   4.070   2.570   0.426
  517TIP3    H1 1496   4.063   2.568   0.522
  517TIP3    H2 1497   4.164   2.559   0.409
  518TIP3   OH2 1498   5.774   5.534   4.421
  518TIP3    H1 1499   5.865   5.562   4.424
  518TIP3    H2 1500   5.762   5.501   4.332
  519TIP3   OH2 1501   1.515   7.786   6.299
  519TIP3    H1 1502   1.605   7.790   6.331
  519TIP3    H2 1503   1.490   7.878   6.287
  520TIP3   OH2 1504   2.552   7.321   4.529
  520TIP3    H1 1505   2.554   7.238   4.482
  520TIP3    H2 1506   2.475   7.367   4.495
  521TIP3   OH2 1507   2.127   5.012   4.055
  521TIP3    H1 1508   2.037   5.041   4.070
  521TIP3    H2 1509   2.180   5.083   4.092
  522TIP3   OH2 1510   7.901   4.822   5.847
  522TIP3    H1 1511   7.934   4.889   5.787
  522TIP3    H2 1512   7.971   4.757   5.850
  523TIP3   OH2 1513   3.146   6.698   5.753
  523TIP3    H1 1514   3.153   6.744   5.669
  523TIP3    H2 1515   3.077   6.745   5.800
  524TIP3   OH2 1516   5.698   4.592   5.351
  524TIP3    H1 1517   5.741   4.509   5.369
  524TIP3    H2 1518   5.609   4.581   5.383
  525TIP3   OH2 1519   6.504   7.566   5.575
  525TIP3    H1 1520   6.580   7.556   5.517
  525TIP3    H2 1521   6.471   7.476   5.585
  526TIP3   OH2 1522   2.230   1.378   0.540
  526TIP3    H1 1523   2.180   1.425   0.472
  526TIP3    H2 1524   2.259   1.298   0.497
  527TIP3   OH2 1525   0.397   4.543   5.681
  527TIP3    H1 1526   0.395   4.501   5.596
  527TIP3    H2 1527   0.305   4.551   5.707
  528TIP3   OH2 1528   8.289   2.594   4.525
  528TIP3    H1 1529   8.335   2.632   4.450
  528TIP3    H2 1530   8.257   2.509   4.492
  529TIP3   OH2 1531   3.143   3.255   0.547
  529TIP3    H1 1532   3.177   3.287   0.630
  529TIP3    H2 1533   3.199   3.295   0.480
  530TIP3   OH2 1534   2.157   4.761   5.614
  530TIP3    H1 1535   2.228   4.792   5.671
  530TIP3    H2 1536   2.107   4.841   5.595
  531TIP3   OH2 1537   1.939   5.681   3.274
  531TIP3    H1 1538   1.861   5.729   3.246
  531TIP3    H2 1539   1.917   5.646   3.360
  532TIP3   OH2 1540   2.459   1.140   1.246
  532TIP3    H1 1541   2.542   1.142   1.295
  532TIP3    H2 1542   2.477   1.084   1.171
  533TIP3   OH2 1543   6.048   6.503   4.115
  533TIP3    H1 1544   6.080   6.524   4.203
  533TIP3    H2 1545   6.039   6.589   4.073
  534TIP3   OH2 1546   7.938   3.315   1.880
  534TIP3    H1 1547   7.875   3.387   1.882
  534TIP3    H2 1548   7.924   3.274   1.794
  535TIP3   OH2 1549   6.583   2.719   4.286
  535TIP3    H1 1550   6.630   2.640   4.259
  535TIP3    H2 1551   6.604   2.784   4.219
  536TIP3   OH2 1552   1.684   0.840   1.286
  536TIP3    H1 1553   1.716   0.807   1.201
  536TIP3    H2 1554   1.701   0.768   1.347
  537TIP3   OH2 1555   2.573   2.458   1.323
  537TIP3    H1 1556   2.667   2.457   1.304
  537TIP3    H2 1557   2.540   2.378   1.283
  538TIP3   OH2 1558   0.443   2.423   4.314
  538TIP3    H1 1559   0.471   2.513   4.330
  538TIP3    H2 1560   0.395   2.398   4.393
  539TIP3   OH2 1561   2.780   5.780   2.653
  539TIP3    H1 1562   2.723   5.827   2.592
  539TIP3    H2 1563   2.731   5.777   2.735
  540TIP3   OH2 1564   0.495   5.386   6.769
  540TIP3    H1 1565   0.410   5.414   6.802
  540TIP3    H2 1566   0.474   5.328   6.696
  541TIP3   OH2 1567   7.598   4.148   2.252
  541TIP3    H1 1568   7.552   4.183   2.175
  541TIP3    H2 1569   7.539   4.165   2.325
  542TIP3   OH2 1570   6.385   5.796   2.257
  542TIP3    H1 1571   6.421   5.756   2.336
  542TIP3    H2 1572   6.310   5.847   2.288
  543TIP3   OH2 1573   2.950   2.892   2.181
  543TIP3    H1 1574   2.916   2.847   2.258
  543TIP3    H2 1575   3.044   2.874   2.181
  544TIP3   OH2 1576   1.499   2.906   4.673
  544TIP3    H1 1577   1.540   2.823   4.695
  544TIP3    H2 1578   1.419   2.908   4.727
  545TIP3   OH2 1579   6.941   1.096   3.807
  545TIP3    H1 1580   7.036   1.093   3.812
  545TIP3    H2 1581   6.920   1.189   3.799
  546TIP3   OH2 1582   1.415   0.507   2.356
  546TIP3    H1 1583   1.457   0.509   2.442
  546TIP3    H2 1584   1.355   0.432   2.360
  547TIP3   OH2 1585   3.176   7.517   1.039
  547TIP3    H1 1586   3.205   7.574   1.110
  547TIP3    H2 1587   3.082   7.503   1.057
  548TIP3   OH2 1588   0.312   7.609   5.527
  548TIP3    H1 1589   0.338   7.614   5.619
  548TIP3    H2 1590   0.358   7.532   5.494
  549TIP3   OH2 1591   2.962   5.171   5.217
  549TIP3    H1 1592   3.033   5.235   5.218
  549TIP3    H2 1593   2.882   5.224   5.206
  550TIP3   OH2 1594   1.342   3.818   0.268
  550TIP3    H1 1595   1.437   3.828   0.268
  550TIP3    H2 1596   1.320   3.791   0.179
  551TIP3   OH2 1597   6.634   2.114   5.240
  551TIP3    H1 1598   6.565   2.064   5.197
  551TIP3    H2 1599   6.634   2.082   5.330
  552TIP3   OH2 1600   2.773   7.329   6.420
  552TIP3    H1 1601   2.812   7.379   6.348
  552TIP3    H2 1602   2.690   7.373   6.439
  553TIP3   OH2 1603   4.334   1.612   0.702
  553TIP3    H1 1604   4.358   1.536   0.649
  553TIP3    H2 1605   4.346   1.582   0.793
  554TIP3   OH2 1606   3.280   7.330   4.921
  554TIP3    H1 1607   3.333   7.409   4.911
  554TIP3    H2 1608   3.330   7.276   4.983
  555TIP3   OH2 1609   2.302   2.553   3.105
  555TIP3    H1 1610   2.311   2.564   3.200
  555TIP3    H2 1611   2.212   2.523   3.092
  556TIP3   OH2 1612   7.096   7.766   2.649
  556TIP3    H1 1613   7.112   7.694   2.710
  556TIP3    H2 1614   7.086   7.843   2.705
  557TIP3   OH2 1615   4.392   2.006   2.995
  557TIP3    H1 1616   4.346   1.997   2.911
  557TIP3    H2 1617   4.385   1.919   3.034
  558TIP3   OH2 1618   5.819   2.347   0.469
  558TIP3    H1 1619   5.870   2.316   0.543
  558TIP3    H2 1620   5.864   2.426   0.439
  559TIP3   OH2 1621   2.416   3.442   5.816
  559TIP3    H1 1622   2.399   3.519   5.762
  559TIP3    H2 1623   2.332   3.396   5.820
  560TIP3   OH2 1624   3.849   5.844   2.739
  560TIP3    H1 1625   3.860   5.840   2.833
  560TIP3    H2 1626   3.778   5.783   2.720
  561TIP3   OH2 1627   3.514   6.882   5.046
  561TIP3    H1 1628   3.584   6.819   5.031
  561TIP3    H2 1629   3.545   6.962   5.002
  562TIP3   OH2 1630   4.403   0.608   5.163
  562TIP3    H1 1631   4.453   0.677   5.207
  562TIP3    H2 1632   4.314   0.645   5.155
  563TIP3   OH2 1633   5.501   3.866   2.924
  563TIP3    H1 1634   5.429   3.860   2.861
  563TIP3    H2 1635   5.528   3.958   2.920
  564TIP3   OH2 1636   6.877   0.676   0.146
  564TIP3    H1 1637   6.969   0.649   0.155
  564TIP3    H2 1638   6.856   0.715   0.231
  565TIP3   OH2 1639   5.656   0.767   6.355
  565TIP3    H1 1640   5.647   0.722   6.270
  565TIP3    H2 1641   5.720   0.714   6.403
  566TIP3   OH2 1642   7.614   4.700   1.411
  566TIP3    H1 1643   7.531   4.655   1.427
  566TIP3    H2 1644   7.588   4.790   1.390
  567TIP3   OH2 1645   5.189   5.248   3.771
  567TIP3    H1 1646   5.182   5.153   3.782
  567TIP3    H2 1647   5.131   5.284   3.838
  568TIP3   OH2 1648   5.503   7.094   5.548
  568TIP3    H1 1649   5.428   7.039   5.524
  568TIP3    H2 1650   5.473   7.143   5.625
  569TIP3   OH2 1651   6.875   2.662   1.926
  569TIP3    H1 1652   6.833   2.669   2.011
  569TIP3    H2 1653   6.955   2.612   1.943
  570TIP3   OH2 1654   3.416   0.410   1.888
  570TIP3    H1 1655   3.421   0.317   1.911
  570TIP3    H2 1656   3.327   0.423   1.855
  571TIP3   OH2 1657   6.241   3.161   1.386
  571TIP3    H1 1658   6.279   3.095   1.328
  571TIP3    H2 1659   6.178   3.207   1.331
  572TIP3   OH2 1660   5.561   1.784   5.980
  572TIP3    H1 1661   5.518   1.796   5.895
  572TIP3    H2 1662   5.599   1.696   5.975
  573TIP3   OH2 1663   7.973   5.880   6.737
  573TIP3    H1 1664   7.939   5.898   6.650
  573TIP3    H2 1665   8.024   5.957   6.760
  574TIP3   OH2 1666   0.098   3.217   2.191
  574TIP3    H1 1667   0.046   3.286   2.232
  574TIP3    H2 1668   0.109   3.245   2.100
  575TIP3   OH2 1669   5.238   6.375   1.970
  575TIP3    H1 1670   5.188   6.451   1.942
  575TIP3    H2 1671   5.172   6.309   1.992
  576TIP3   OH2 1672   5.554   2.031   6.390
  576TIP3    H1 1673   5.584   1.973   6.460
  576TIP3    H2 1674   5.634   2.058   6.346
  577TIP3   OH2 1675   3.642   7.702   1.667
  577TIP3    H1 1676   3.589   7.733   1.740
  577TIP3    H2 1677   3.711   7.768   1.658
  578TIP3   OH2 1678   1.301   2.635   2.662
  578TIP3    H1 1679   1.325   2.568   2.725
  578TIP3    H2 1680   1.325   2.718   2.704
  579TIP3   OH2 1681   8.208   6.446   2.039
  579TIP3    H1 1682   8.279   6.395   2.001
  579TIP3    H2 1683   8.238   6.536   2.035
  580TIP3   OH2 1684   2.964   3.937   2.080
  580TIP3    H1 1685   2.906   3.981   2.017
  580TIP3    H2 1686   3.040   3.994   2.086
  581TIP3   OH2 1687   8.313   3.820   3.742
  581TIP3    H1 1688   8.263   3.755   3.692
  581TIP3    H2 1689   8.247   3.879   3.777
  582TIP3   OH2 1690   1.172   3.749   6.357
  582TIP3    H1 1691   1.189   3.675   6.298
  582TIP3    H2 1692   1.191   3.827   6.305
  583TIP3   OH2 1693   2.424   0.068   5.981
  583TIP3    H1 1694   2.380   0.137   6.030
  583TIP3    H2 1695   2.392   0.078   5.891
  584TIP3   OH2 1696   2.410   7.592   0.698
  584TIP3    H1 1697   2.500   7.584   0.730
  584TIP3    H2 1698   2.400   7.521   0.635
  585TIP3   OH2 1699   3.109   3.527   4.227
  585TIP3    H1 1700   3.144   3.441   4.203
  585TIP3    H2 1701   3.016   3.522   4.203
  586TIP3   OH2 1702   7.144   6.941   5.214
  586TIP3    H1 1703   7.226   6.898   5.241
  586TIP3    H2 1704   7.148   7.027   5.256
  587TIP3   OH2 1705   7.302   3.496   6.791
  587TIP3    H1 1706   7.220   3.511   6.744
  587TIP3    H2 1707   7.339   3.417   6.751
  588TIP3   OH2 1708   4.522   0.090   4.217
  588TIP3    H1 1709   4.480   0.175   4.226
  588TIP3    H2 1710   4.535   0.079   4.123
  589TIP3   OH2 1711   6.935   4.200   4.917
  589TIP3    H1 1712   6.851   4.172   4.880
  589TIP3    H2 1713   6.917   4.214   5.010
  590TIP3   OH2 1714   5.300   3.746   4.481
  590TIP3    H1 1715   5.245   3.719   4.408
  590TIP3    H2 1716   5.276   3.686   4.552
  591TIP3   OH2 1717   0.785   0.177   2.368
  591TIP3    H1 1718   0.727   0.127   2.311
  591TIP3    H2 1719   0.803   0.119   2.442
  592TIP3   OH2 1720   5.974   0.512   1.968
  592TIP3    H1 1721   6.045   0.565   2.003
  592TIP3    H2 1722   5.898   0.570   1.968
  593TIP3   OH2 1723   4.176   4.248   6.037
  593TIP3    H1 1724   4.160   4.154   6.027
  593TIP3    H2 1725   4.090   4.288   6.029
  594TIP3   OH2 1726   2.068   6.910   2.433
  594TIP3    H1 1727   2.099   6.994   2.400
  594TIP3    H2 1728   2.077   6.917   2.528
  595TIP3   OH2 1729   5.420   1.980   6.692
  595TIP3    H1 1730   5.348   1.917   6.694
  595TIP3    H2 1731   5.493   1.933   6.652
  596TIP3   OH2 1732   3.047   2.736   2.816
  596TIP3    H1 1733   3.140   2.726   2.793
  596TIP3    H2 1734   3.002   2.735   2.731
  597TIP3   OH2 1735   6.473   4.695   4.200
  597TIP3    H1 1736   6.564   4.719   4.220
  597TIP3    H2 1737   6.453   4.625   4.261
  598TIP3   OH2 1738   1.620   4.116   4.476
  598TIP3    H1 1739   1.527   4.100   4.461
  598TIP3    H2 1740   1.663   4.034   4.453
  599TIP3   OH2 1741   3.056   1.663   0.587
  599TIP3    H1 1742   2.972   1.698   0.555
  599TIP3    H2 1743   3.042   1.647   0.680
  600TIP3   OH2 1744   3.723   7.559   2.301
  600TIP3    H1 1745   3.802   7.583   2.348
  600TIP3    H2 1746   3.721   7.463   2.305
  601TIP3   OH2 1747   6.978   1.869   0.126
  601TIP3    H1 1748   7.021   1.814   0.061
  601TIP3    H2 1749   6.913   1.919   0.076
  602TIP3   OH2 1750   6.866   2.048   3.186
  602TIP3    H1 1751   6.782   2.052   3.231
  602TIP3    H2 1752   6.921   1.993   3.243
  603TIP3   OH2 1753   7.013   5.570   1.915
  603TIP3    H1 1754   6.998   5.639   1.980
  603TIP3    H2 1755   7.004   5.615   1.831
  604TIP3   OH2 1756   2.249   0.905   6.395
  604TIP3    H1 1757   2.217   0.854   6.320
  604TIP3    H2 1758   2.232   0.996   6.371
  605TIP3   OH2 1759   3.918   6.465   4.876
  605TIP3    H1 1760   3.952   6.382   4.908
  605TIP3    H2 1761   3.992   6.505   4.830
  606TIP3   OH2 1762   6.485   6.557   0.759
  606TIP3    H1 1763   6.566   6.587   0.717
  606TIP3    H2 1764   6.415   6.590   0.702
  607TIP3   OH2 1765   7.507   1.636   3.778
  607TIP3    H1 1766   7.454   1.645   3.699
  607TIP3    H2 1767   7.546   1.722   3.791
  608TIP3   OH2 1768   7.318   4.393   2.566
  608TIP3    H1 1769   7.329   4.476   2.613
  608TIP3    H2 1770   7.252   4.346   2.618
  609TIP3   OH2 1771   3.210   7.097   2.186
  609TIP3    H1 1772   3.124   7.081   2.226
  609TIP3    H2 1773   3.197   7.076   2.094
  610TIP3   OH2 1774   6.807   1.695   3.253
  610TIP3    H1 1775   6.833   1.652   3.172
  610TIP3    H2 1776   6.866   1.661   3.320
  611TIP3   OH2 1777   0.074   1.299   0.411
  611TIP3    H1 1778   0.155   1.266   0.449
  611TIP3    H2 1779   0.066   1.388   0.445
  612TIP3   OH2 1780   3.556   2.513   5.130
  612TIP3    H1 1781   3.486   2.469   5.178
  612TIP3    H2 1782   3.620   2.445   5.111
  613TIP3   OH2 1783   2.379   0.752   2.921
  613TIP3    H1 1784   2.423   0.669   2.904
  613TIP3    H2 1785   2.321   0.764   2.845
  614TIP3   OH2 1786   7.820   4.581   1.744
  614TIP3    H1 1787   7.892   4.517   1.753
  614TIP3    H2 1788   7.743   4.535   1.777
  615TIP3   OH2 1789   1.634   6.098   4.000
  615TIP3    H1 1790   1.696   6.148   3.947
  615TIP3    H2 1791   1.552   6.148   3.995
  616TIP3   OH2 1792   3.387   2.677   6.409
  616TIP3    H1 1793   3.410   2.737   6.480
  616TIP3    H2 1794   3.326   2.616   6.449
  617TIP3   OH2 1795   5.883   2.463   4.491
  617TIP3    H1 1796   5.866   2.492   4.580
  617TIP3    H2 1797   5.837   2.527   4.436
  618TIP3   OH2 1798   0.353   0.213   4.663
  618TIP3    H1 1799   0.323   0.177   4.579
  618TIP3    H2 1800   0.284   0.273   4.689
  619TIP3   OH2 1801   5.784   4.168   1.912
  619TIP3    H1 1802   5.767   4.164   2.006
  619TIP3    H2 1803   5.837   4.091   1.894
  620TIP3   OH2 1804   6.734   4.667   2.826
  620TIP3    H1 1805   6.803   4.715   2.780
  620TIP3    H2 1806   6.765   4.576   2.829
  621TIP3   OH2 1807   5.652   6.383   5.199
  621TIP3    H1 1808   5.599   6.458   5.171
  621TIP3    H2 1809   5.722   6.377   5.134
  622TIP3   OH2 1810   0.497   6.426   2.064
  622TIP3    H1 1811   0.489   6.517   2.091
  622TIP3    H2 1812   0.435   6.379   2.120
  623TIP3   OH2 1813   4.280   3.582   0.323
  623TIP3    H1 1814   4.320   3.661   0.361
  623TIP3    H2 1815   4.331   3.510   0.359
  624TIP3   OH2 1816   5.267   4.699   2.372
  624TIP3    H1 1817   5.356   4.729   2.392
  624TIP3    H2 1818   5.233   4.668   2.456
  625TIP3   OH2 1819   5.290   6.609   3.607
  625TIP3    H1 1820   5.333   6.524   3.601
  625TIP3    H2 1821   5.356   6.672   3.577
  626TIP3   OH2 1822   3.688   5.245   2.781
  626TIP3    H1 1823   3.735   5.321   2.813
  626TIP3    H2 1824   3.756   5.183   2.754
  627TIP3   OH2 1825   5.391   6.846   3.492
  627TIP3    H1 1826   5.303   6.857   3.529
  627TIP3    H2 1827   5.391   6.900   3.413
  628TIP3   OH2 1828   0.090   5.259   6.424
  628TIP3    H1 1829   0.154   5.216   6.482
  628TIP3    H2 1830   0.052   5.188   6.373
  629TIP3   OH2 1831   4.130   7.233   1.153
  629TIP3    H1 1832   4.059   7.268   1.207
  629TIP3    H2 1833   4.193   7.197   1.216
  630TIP3   OH2 1834   4.320   1.265   2.908
  630TIP3    H1 1835   4.366   1.203   2.851
  630TIP3    H2 1836   4.390   1.318   2.947
  631TIP3   OH2 1837   8.052   2.038   3.931
  631TIP3    H1 1838   8.106   2.075   3.861
  631TIP3    H2 1839   8.061   1.943   3.921
  632TIP3   OH2 1840   3.372   0.994   3.802
  632TIP3    H1 1841   3.312   1.057   3.762
  632TIP3    H2 1842   3.459   1.023   3.774
  633TIP3   OH2 1843   6.389   0.328   4.161
  633TIP3    H1 1844   6.446   0.403   4.182
  633TIP3    H2 1845   6.448   0.253   4.163
  634TIP3   OH2 1846   7.987   4.703   5.095
  634TIP3    H1 1847   8.038   4.695   5.176
  634TIP3    H2 1848   7.939   4.621   5.089
  635TIP3   OH2 1849   3.906   7.636   5.101
  635TIP3    H1 1850   3.926   7.569   5.036
  635TIP3    H2 1851   3.981   7.635   5.161
  636TIP3   OH2 1852   4.304   6.360   1.009
  636TIP3    H1 1853   4.361   6.434   1.022
  636TIP3    H2 1854   4.363   6.288   0.985
  637TIP3   OH2 1855   7.224   6.189   1.187
  637TIP3    H1 1856   7.178   6.136   1.122
  637TIP3    H2 1857   7.310   6.147   1.196
  638TIP3   OH2 1858   4.733   4.129   5.865
  638TIP3    H1 1859   4.796   4.101   5.931
  638TIP3    H2 1860   4.650   4.133   5.912
  639TIP3   OH2 1861   5.464   7.532   2.859
  639TIP3    H1 1862   5.406   7.557   2.931
  639TIP3    H2 1863   5.413   7.469   2.807
  640TIP3   OH2 1864   0.119   1.155   3.071
  640TIP3    H1 1865   0.110   1.095   3.146
  640TIP3    H2 1866   0.061   1.118   3.005
  641TIP3   OH2 1867   6.220   1.115   4.016
  641TIP3    H1 1868   6.277   1.105   3.940
  641TIP3    H2 1869   6.268   1.070   4.086
  642TIP3   OH2 1870   8.178   5.767   1.371
  642TIP3    H1 1871   8.113   5.788   1.304
  642TIP3    H2 1872   8.245   5.717   1.324
  643TIP3   OH2 1873   1.770   3.897   4.438
  643TIP3    H1 1874   1.784   3.849   4.520
  643TIP3    H2 1875   1.781   3.832   4.370
  644TIP3   OH2 1876   2.452   4.092   6.446
  644TIP3    H1 1877   2.444   4.146   6.367
  644TIP3    H2 1878   2.366   4.098   6.487
  645TIP3   OH2 1879   5.154   7.715   3.428
  645TIP3    H1 1880   5.191   7.790   3.381
  645TIP3    H2 1881   5.202   7.713   3.511
  646TIP3   OH2 1882   7.140   2.091   1.413
  646TIP3    H1 1883   7.223   2.090   1.461
  646TIP3    H2 1884   7.134   2.181   1.379
  647TIP3   OH2 1885   0.923   1.439   2.444
  647TIP3    H1 1886   0.881   1.416   2.527
  647TIP3    H2 1887   0.943   1.355   2.403
  648TIP3   OH2 1888   0.190   5.069   5.707
  648TIP3    H1 1889   0.098   5.056   5.684
  648TIP3    H2 1890   0.218   4.984   5.743
  649TIP3   OH2 1891   5.030   1.534   3.479
  649TIP3    H1 1892   5.050   1.617   3.437
  649TIP3    H2 1893   5.026   1.554   3.573
  650TIP3   OH2 1894   1.551   7.576   0.217
  650TIP3    H1 1895   1.573   7.573   0.310
  650TIP3    H2 1896   1.545   7.670   0.198
  651TIP3   OH2 1897   4.225   4.366   6.568
  651TIP3    H1 1898   4.166   4.293   6.588
  651TIP3    H2 1899   4.259   4.346   6.481
  652TIP3   OH2 1900   5.728   6.307   4.514
  652TIP3    H1 1901   5.674   6.267   4.583
  652TIP3    H2 1902   5.695   6.269   4.433
  653TIP3   OH2 1903   3.739   5.158   0.234
  653TIP3    H1 1904   3.669   5.155   0.170
  653TIP3    H2 1905   3.795   5.083   0.212
  654TIP3   OH2 1906   5.045   3.733   0.418
  654TIP3    H1 1907   5.000   3.721   0.502
  654TIP3    H2 1908   5.132   3.765   0.442
  655TIP3   OH2 1909   0.963   0.140   2.721
  655TIP3    H1 1910   1.057   0.123   2.725
  655TIP3    H2 1911   0.923   0.065   2.766
  656TIP3   OH2 1912   6.883   0.144   5.864
  656TIP3    H1 1913   6.798   0.107   5.888
  656TIP3    H2 1914   6.879   0.156   5.769
  657TIP3   OH2 1915   7.702   3.597   3.022
  657TIP3    H1 1916   7.673   3.522   2.969
  657TIP3    H2 1917   7.624   3.622   3.072
  658TIP3   OH2 1918   6.219   0.480   0.192
  658TIP3    H1 1919   6.165   0.422   0.138
  658TIP3    H2 1920   6.238   0.555   0.135
  659TIP3   OH2 1921   0.112   4.140   1.681
  659TIP3    H1 1922   0.091   4.231   1.660
  659TIP3    H2 1923   0.037   4.089   1.648
  660TIP3   OH2 1924   0.277   7.229   6.305
  660TIP3    H1 1925   0.198   7.208   6.256
  660TIP3    H2 1926   0.317   7.302   6.257
  661TIP3   OH2 1927   6.540   3.525   3.854
  661TIP3    H1 1928   6.627   3.496   3.881
  661TIP3    H2 1929   6.512   3.584   3.924
  662TIP3   OH2 1930   0.910   1.876   3.302
  662TIP3    H1 1931   0.905   1.782   3.316
  662TIP3    H2 1932   0.820   1.906   3.313
  663TIP3   OH2 1933   1.094   3.500   3.150
  663TIP3    H1 1934   1.154   3.510   3.076
  663TIP3    H2 1935   1.130   3.426   3.199
  664TIP3   OH2 1936   3.633   6.169   3.267
  664TIP3    H1 1937   3.577   6.243   3.246
  664TIP3    H2 1938   3.705   6.175   3.205
  665TIP3   OH2 1939   8.285   4.113   5.043
  665TIP3    H1 1940   8.231   4.142   5.116
  665TIP3    H2 1941   8.235   4.041   5.004
  666TIP3   OH2 1942   6.685   7.622   4.507
  666TIP3    H1 1943   6.767   7.592   4.545
  666TIP3    H2 1944   6.635   7.542   4.490
  667TIP3   OH2 1945   0.185   2.511   1.301
  667TIP3    H1 1946   0.089   2.514   1.298
  667TIP3    H2 1947   0.213   2.594   1.263
  668TIP3   OH2 1948   1.719   1.974   6.507
  668TIP3    H1 1949   1.632   2.012   6.495
  668TIP3    H2 1950   1.743   1.997   6.597
  669TIP3   OH2 1951   3.712   1.935   2.141
  669TIP3    H1 1952   3.647   1.918   2.073
  669TIP3    H2 1953   3.666   1.918   2.223
  670TIP3   OH2 1954   3.408   1.608   3.933
  670TIP3    H1 1955   3.321   1.646   3.940
  670TIP3    H2 1956   3.427   1.610   3.839
  671TIP3   OH2 1957   0.860   0.810   1.391
  671TIP3    H1 1958   0.902   0.856   1.318
  671TIP3    H2 1959   0.811   0.739   1.350
  672TIP3   OH2 1960   4.574   3.441   2.443
  672TIP3    H1 1961   4.632   3.386   2.497
  672TIP3    H2 1962   4.496   3.453   2.497
  673TIP3   OH2 1963   7.118   6.748   3.881
  673TIP3    H1 1964   7.046   6.779   3.825
  673TIP3    H2 1965   7.074   6.715   3.960
  674TIP3   OH2 1966   6.274   1.781   2.296
  674TIP3    H1 1967   6.213   1.711   2.272
  674TIP3    H2 1968   6.222   1.840   2.350
  675TIP3   OH2 1969   7.325   3.588   1.853
  675TIP3    H1 1970   7.335   3.660   1.915
  675TIP3    H2 1971   7.259   3.619   1.791
  676TIP3   OH2 1972   5.837   7.553   4.543
  676TIP3    H1 1973   5.853   7.591   4.629
  676TIP3    H2 1974   5.923   7.554   4.500
  677TIP3   OH2 1975   7.644   6.092   5.539
  677TIP3    H1 1976   7.634   6.177   5.496
  677TIP3    H2 1977   7.729   6.097   5.583
  678TIP3   OH2 1978   6.727   4.402   4.383
  678TIP3    H1 1979   6.817   4.371   4.382
  678TIP3    H2 1980   6.718   4.449   4.466
  679TIP3   OH2 1981   6.093   7.211   6.277
  679TIP3    H1 1982   6.010   7.258   6.270
  679TIP3    H2 1983   6.108   7.176   6.189
  680TIP3   OH2 1984   7.101   6.808   1.481
  680TIP3    H1 1985   7.115   6.897   1.449
  680TIP3    H2 1986   7.189   6.774   1.494
  681TIP3   OH2 1987   1.013   5.310   2.403
  681TIP3    H1 1988   1.061   5.338   2.481
  681TIP3    H2 1989   0.940   5.372   2.396
  682TIP3   OH2 1990   5.373   7.802   1.802
  682TIP3    H1 1991   5.451   7.850   1.774
  682TIP3    H2 1992   5.407   7.732   1.857
  683TIP3   OH2 1993   2.331   5.112   4.245
  683TIP3    H1 1994   2.314   5.053   4.318
  683TIP3    H2 1995   2.419   5.088   4.216
  684TIP3   OH2 1996   5.283   0.435   5.462
  684TIP3    H1 1997   5.365   0.442   5.413
  684TIP3    H2 1998   5.242   0.356   5.429
  685TIP3   OH2 1999   3.260   2.632   3.586
  685TIP3    H1 2000   3.223   2.629   3.498
  685TIP3    H2 2001   3.305   2.548   3.597
  686TIP3   OH2 2002   3.773   5.447   0.319
  686TIP3    H1 2003   3.865   5.467   0.303
  686TIP3    H2 2004   3.760   5.361   0.280
  687TIP3   OH2 2005   4.805   5.855   4.723
  687TIP3    H1 2006   4.882   5.819   4.766
  687TIP3    H2 2007   4.791   5.799   4.647
  688TIP3   OH2 2008   3.837   6.824   1.466
  688TIP3    H1 2009   3.757   6.847   1.418
  688TIP3    H2 2010   3.888   6.905   1.468
  689TIP3   OH2 2011   5.698   3.030   1.975
  689TIP3    H1 2012   5.673   2.990   2.058
  689TIP3    H2 2013   5.619   3.029   1.922
  690TIP3   OH2 2014   7.733   7.332   5.497
  690TIP3    H1 2015   7.778   7.370   5.421
  690TIP3    H2 2016   7.800   7.279   5.540
  691TIP3   OH2 2017   6.168   2.890   4.588
  691TIP3    H1 2018   6.133   2.859   4.505
  691TIP3    H2 2019   6.247   2.839   4.602
  692TIP3   OH2 2020   3.881   4.575   1.300
  692TIP3    H1 2021   3.836   4.631   1.237
  692TIP3    H2 2022   3.857   4.611   1.385
  693TIP3   OH2 2023   1.964   0.636   0.358
  693TIP3    H1 2024   1.894   0.701   0.365
  693TIP3    H2 2025   2.017   0.666   0.284
  694TIP3   OH2 2026   4.509   2.196   0.158
  694TIP3    H1 2027   4.428   2.199   0.209
  694TIP3    H2 2028   4.483   2.222   0.070
  695TIP3   OH2 2029   1.830   2.109   4.941
  695TIP3    H1 2030   1.846   2.021   4.976
  695TIP3    H2 2031   1.914   2.154   4.953
  696TIP3   OH2 2032   1.852   5.454   5.084
  696TIP3    H1 2033   1.912   5.477   5.155
  696TIP3    H2 2034   1.806   5.376   5.115
  697TIP3   OH2 2035   1.100   5.055   3.586
  697TIP3    H1 2036   1.157   5.017   3.654
  697TIP3    H2 2037   1.047   4.981   3.556
  698TIP3   OH2 2038   7.703   7.463   3.648
  698TIP3    H1 2039   7.643   7.483   3.576
  698TIP3    H2 2040   7.680   7.374   3.674
  699TIP3   OH2 2041   4.642   3.308   6.247
  699TIP3    H1 2042   4.597   3.233   6.207
  699TIP3    H2 2043   4.677   3.357   6.173
  700TIP3   OH2 2044   5.963   0.198   0.548
  700TIP3    H1 2045   6.054   0.219   0.568
  700TIP3    H2 2046   5.925   0.282   0.522
  701TIP3   OH2 2047   5.980   2.922   1.315
  701TIP3    H1 2048   5.937   2.838   1.330
  701TIP3    H2 2049   5.949   2.978   1.386
  702TIP3   OH2 2050   0.982   5.256   5.930
  702TIP3    H1 2051   0.965   5.246   5.836
  702TIP3    H2 2052   1.032   5.178   5.954
  703TIP3   OH2 2053   0.376   2.174   3.471
  703TIP3    H1 2054   0.368   2.195   3.565
  703TIP3    H2 2055   0.353   2.256   3.427
  704TIP3   OH2 2056   3.923   6.800   6.445
  704TIP3    H1 2057   3.884   6.877   6.487
  704TIP3    H2 2058   4.016   6.803   6.470
  705TIP3   OH2 2059   3.876   0.804   0.269
  705TIP3    H1 2060   3.959   0.837   0.234
  705TIP3    H2 2061   3.813   0.874   0.252
  706TIP3   OH2 2062   3.543   0.188   4.405
  706TIP3    H1 2063   3.561   0.237   4.485
  706TIP3    H2 2064   3.577   0.100   4.421
  707TIP3   OH2 2065   3.623   1.269   6.172
  707TIP3    H1 2066   3.614   1.209   6.246
  707TIP3    H2 2067   3.551   1.331   6.182
  708TIP3   OH2 2068   7.626   2.197   4.534
  708TIP3    H1 2069   7.542   2.153   4.519
  708TIP3    H2 2070   7.610   2.257   4.606
  709TIP3   OH2 2071   6.431   3.803   2.273
  709TIP3    H1 2072   6.494   3.746   2.229
  709TIP3    H2 2073   6.449   3.792   2.367
  710TIP3   OH2 2074   7.846   4.885   3.884
  710TIP3    H1 2075   7.792   4.837   3.820
  710TIP3    H2 2076   7.924   4.910   3.835
  711TIP3   OH2 2077   7.221   6.446   6.549
  711TIP3    H1 2078   7.294   6.416   6.604
  711TIP3    H2 2079   7.144   6.403   6.585
  712TIP3   OH2 2080   2.238   1.565   4.766
  712TIP3    H1 2081   2.254   1.635   4.702
  712TIP3    H2 2082   2.149   1.582   4.797
  713TIP3   OH2 2083   7.284   2.661   3.857
  713TIP3    H1 2084   7.256   2.572   3.877
  713TIP3    H2 2085   7.230   2.687   3.782
  714TIP3   OH2 2086   1.562   5.681   2.955
  714TIP3    H1 2087   1.644   5.708   2.996
  714TIP3    H2 2088   1.558   5.587   2.969
  715TIP3   OH2 2089   5.767   1.575   0.004
  715TIP3    H1 2090   5.761   1.650  -0.054
  715TIP3    H2 2091   5.778   1.613   0.091
  716TIP3   OH2 2092   2.514   2.718   1.152
  716TIP3    H1 2093   2.494   2.649   1.215
  716TIP3    H2 2094   2.578   2.679   1.093
  717TIP3   OH2 2095   1.657   5.418   2.368
  717TIP3    H1 2096   1.643   5.512   2.382
  717TIP3    H2 2097   1.569   5.380   2.377
  718TIP3   OH2 2098   0.605   6.538   2.429
  718TIP3    H1 2099   0.588   6.454   2.471
  718TIP3    H2 2100   0.681   6.522   2.373
  719TIP3   OH2 2101   4.618   2.164   2.684
  719TIP3    H1 2102   4.603   2.232   2.750
  719TIP3    H2 2103   4.542   2.107   2.691
  720TIP3   OH2 2104   1.881   2.781   4.110
  720TIP3    H1 2105   1.845   2.752   4.194
  720TIP3    H2 2106   1.863   2.875   4.108
  721TIP3   OH2 2107   6.065   7.602   2.131
  721TIP3    H1 2108   6.095   7.552   2.055
  721TIP3    H2 2109   5.970   7.590   2.132
  722TIP3   OH2 2110   7.908   3.503   2.677
  722TIP3    H1 2111   7.930   3.538   2.590
  722TIP3    H2 2112   7.834   3.445   2.662
  723TIP3   OH2 2113   5.680   4.989   0.524
  723TIP3    H1 2114   5.597   4.945   0.504
  723TIP3    H2 2115   5.747   4.929   0.492
  724TIP3   OH2 2116   7.659   3.245   3.985
  724TIP3    H1 2117   7.578   3.293   3.970
  724TIP3    H2 2118   7.695   3.284   4.065
  725TIP3   OH2 2119   4.029   0.360   1.368
  725TIP3    H1 2120   3.940   0.334   1.394
  725TIP3    H2 2121   4.038   0.330   1.278
  726TIP3   OH2 2122   5.095   1.290   5.708
  726TIP3    H1 2123   5.041   1.214   5.684
  726TIP3    H2 2124   5.172   1.252   5.751
  727TIP3   OH2 2125   7.445   5.711   2.107
  727TIP3    H1 2126   7.488   5.687   2.188
  727TIP3    H2 2127   7.467   5.641   2.046
  728TIP3   OH2 2128   3.205   0.389   2.916
  728TIP3    H1 2129   3.215   0.304   2.873
  728TIP3    H2 2130   3.295   0.420   2.928
  729TIP3   OH2 2131   3.836   4.957   4.937
  729TIP3    H1 2132   3.783   4.889   4.980
  729TIP3    H2 2133   3.796   5.039   4.963
  730TIP3   OH2 2134   5.698   0.096   2.301
  730TIP3    H1 2135   5.616   0.051   2.281
  730TIP3    H2 2136   5.758   0.067   2.233
  731TIP3   OH2 2137   3.403   1.794   3.133
  731TIP3    H1 2138   3.374   1.780   3.223
  731TIP3    H2 2139   3.490   1.754   3.129
  732TIP3   OH2 2140   8.073   1.177   5.998
  732TIP3    H1 2141   8.159   1.170   6.039
  732TIP3    H2 2142   8.086   1.235   5.923
  733TIP3   OH2 2143   5.190   2.746   2.026
  733TIP3    H1 2144   5.278   2.742   2.064
  733TIP3    H2 2145   5.179   2.662   1.983
  734TIP3   OH2 2146   0.274   7.190   4.390
  734TIP3    H1 2147   0.205   7.124   4.402
  734TIP3    H2 2148   0.296   7.218   4.479
  735TIP3   OH2 2149   3.608   2.372   4.614
  735TIP3    H1 2150   3.627   2.281   4.636
  735TIP3    H2 2151   3.584   2.412   4.697
  736TIP3   OH2 2152   7.915   2.563   5.852
  736TIP3    H1 2153   7.849   2.497   5.829
  736TIP3    H2 2154   7.905   2.631   5.785
  737TIP3   OH2 2155   1.627   6.704   1.106
  737TIP3    H1 2156   1.675   6.652   1.170
  737TIP3    H2 2157   1.643   6.659   1.022
  738TIP3   OH2 2158   0.452   4.165   5.829
  738TIP3    H1 2159   0.497   4.127   5.754
  738TIP3    H2 2160   0.371   4.114   5.838
  739TIP3   OH2 2161   7.047   2.319   5.986
  739TIP3    H1 2162   7.014   2.346   5.900
  739TIP3    H2 2163   7.104   2.245   5.968
  740TIP3   OH2 2164   5.427   6.095   0.761
  740TIP3    H1 2165   5.406   6.149   0.685
  740TIP3    H2 2166   5.522   6.101   0.769
  741TIP3   OH2 2167   7.043   2.553   5.398
  741TIP3    H1 2168   6.950   2.543   5.415
  741TIP3    H2 2169   7.048   2.599   5.314
  742TIP3   OH2 2170   1.617   4.590   1.124
  742TIP3    H1 2171   1.600   4.595   1.218
  742TIP3    H2 2172   1.589   4.675   1.090
  743TIP3   OH2 2173   4.397   7.733   6.125
  743TIP3    H1 2174   4.489   7.755   6.139
  743TIP3    H2 2175   4.384   7.743   6.031
  744TIP3   OH2 2176   6.388   1.135   4.272
  744TIP3    H1 2177   6.312   1.123   4.329
  744TIP3    H2 2178   6.453   1.074   4.306
  745TIP3   OH2 2179   7.083   2.701   5.877
  745TIP3    H1 2180   6.992   2.713   5.849
  745TIP3    H2 2181   7.124   2.653   5.805
  746TIP3   OH2 2182   4.428   2.419   3.079
  746TIP3    H1 2183   4.370   2.390   3.008
  746TIP3    H2 2184   4.406   2.511   3.091
  747TIP3   OH2 2185   3.069   2.883   5.549
  747TIP3    H1 2186   3.044   2.907   5.638
  747TIP3    H2 2187   3.042   2.957   5.496
  748TIP3   OH2 2188   8.208   1.283   0.653
  748TIP3    H1 2189   8.176   1.194   0.665
  748TIP3    H2 2190   8.276   1.276   0.586
  749TIP3   OH2 2191   7.082   6.011   0.983
  749TIP3    H1 2192   7.075   5.918   1.006
  749TIP3    H2 2193   7.017   6.023   0.914
  750TIP3   OH2 2194   0.318   5.114   6.189
  750TIP3    H1 2195   0.253   5.136   6.122
  750TIP3    H2 2196   0.354   5.199   6.215
  751TIP3   OH2 2197   2.485   7.618   5.448
  751TIP3    H1 2198   2.421   7.561   5.491
  751TIP3    H2 2199   2.500   7.689   5.510
  752TIP3   OH2 2200   5.498   3.066   2.822
  752TIP3    H1 2201   5.415   3.032   2.854
  752TIP3    H2 2202   5.496   3.050   2.728
  753TIP3   OH2 2203   1.480   2.098   1.654
  753TIP3    H1 2204   1.542   2.077   1.585
  753TIP3    H2 2205   1.525   2.073   1.735
  754TIP3   OH2 2206   6.332   3.555   0.133
  754TIP3    H1 2207   6.345   3.562   0.227
  754TIP3    H2 2208   6.289   3.637   0.108
  755TIP3   OH2 2209   6.566   0.602   2.987
  755TIP3    H1 2210   6.654   0.632   3.011
  755TIP3    H2 2211   6.514   0.614   3.066
  756TIP3   OH2 2212   6.258   2.740   0.026
  756TIP3    H1 2213   6.209   2.694   0.095
  756TIP3    H2 2214   6.202   2.734  -0.051
  757TIP3   OH2 2215   6.410   4.692   1.437
  757TIP3    H1 2216   6.387   4.732   1.354
  757TIP3    H2 2217   6.417   4.599   1.418
  758TIP3   OH2 2218   5.162   0.306   1.751
  758TIP3    H1 2219   5.171   0.401   1.742
  758TIP3    H2 2220   5.245   0.278   1.788
  759TIP3   OH2 2221   7.899   5.297   6.530
  759TIP3    H1 2222   7.927   5.280   6.440
  759TIP3    H2 2223   7.838   5.226   6.550
  760TIP3   OH2 2224   0.285   0.279   6.583
  760TIP3    H1 2225   0.232   0.203   6.558
  760TIP3    H2 2226   0.328   0.253   6.664
  761TIP3   OH2 2227   2.083   7.323   4.055
  761TIP3    H1 2228   2.007   7.268   4.071
  761TIP3    H2 2229   2.047   7.409   4.037
  762TIP3   OH2 2230   7.945   2.368   4.062
  762TIP3    H1 2231   7.966   2.345   3.972
  762TIP3    H2 2232   7.853   2.395   4.059
  763TIP3   OH2 2233   7.538   0.544   3.035
  763TIP3    H1 2234   7.577   0.594   2.963
  763TIP3    H2 2235   7.446   0.568   3.034
  764TIP3   OH2 2236   1.458   4.891   3.570
  764TIP3    H1 2237   1.520   4.829   3.534
  764TIP3    H2 2238   1.490   4.977   3.542
  765TIP3   OH2 2239   2.927   2.054   5.100
  765TIP3    H1 2240   2.839   2.026   5.127
  765TIP3    H2 2241   2.975   1.972   5.087
  766TIP3   OH2 2242   0.825   3.660   5.562
  766TIP3    H1 2243   0.875   3.584   5.592
  766TIP3    H2 2244   0.745   3.623   5.525
  767TIP3   OH2 2245   2.507   0.655   5.238
  767TIP3    H1 2246   2.478   0.574   5.280
  767TIP3    H2 2247   2.476   0.648   5.148
  768TIP3   OH2 2248   7.607   5.319   1.349
  768TIP3    H1 2249   7.673   5.343   1.414
  768TIP3    H2 2250   7.534   5.378   1.367
  769TIP3   OH2 2251   5.087   7.493   0.614
  769TIP3    H1 2252   5.053   7.415   0.571
  769TIP3    H2 2253   5.173   7.507   0.573
  770TIP3   OH2 2254   3.429   2.911   1.959
  770TIP3    H1 2255   3.483   2.901   1.880
  770TIP3    H2 2256   3.358   2.847   1.947
  771TIP3   OH2 2257   7.739   6.349   1.621
  771TIP3    H1 2258   7.759   6.321   1.710
  771TIP3    H2 2259   7.809   6.311   1.568
  772TIP3   OH2 2260   5.533   6.642   0.202
  772TIP3    H1 2261   5.576   6.715   0.248
  772TIP3    H2 2262   5.550   6.660   0.109
  773TIP3   OH2 2263   2.265   4.612   4.003
  773TIP3    H1 2264   2.227   4.666   4.072
  773TIP3    H2 2265   2.277   4.672   3.929
  774TIP3   OH2 2266   3.974   5.298   1.230
  774TIP3    H1 2267   4.043   5.234   1.212
  774TIP3    H2 2268   3.993   5.371   1.171
  775TIP3   OH2 2269   4.730   6.152   4.423
  775TIP3    H1 2270   4.677   6.131   4.500
  775TIP3    H2 2271   4.806   6.095   4.430
  776TIP3   OH2 2272   7.960   4.620   6.138
  776TIP3    H1 2273   8.041   4.657   6.172
  776TIP3    H2 2274   7.986   4.536   6.100
  777TIP3   OH2 2275   3.483   0.024   3.623
  777TIP3    H1 2276   3.561   0.038   3.676
  777TIP3    H2 2277   3.509   0.050   3.534
  778TIP3   OH2 2278   2.799   5.901   6.031
  778TIP3    H1 2279   2.760   5.989   6.026
  778TIP3    H2 2280   2.891   5.917   6.054
  779TIP3   OH2 2281   0.072   1.762   6.664
  779TIP3    H1 2282   0.123   1.815   6.725
  779TIP3    H2 2283   0.047   1.822   6.595
  780TIP3   OH2 2284   4.271   1.192   3.702
  780TIP3    H1 2285   4.324   1.235   3.635
  780TIP3    H2 2286   4.244   1.264   3.760
  781TIP3   OH2 2287   7.212   0.258   5.753
  781TIP3    H1 2288   7.231   0.346   5.722
  781TIP3    H2 2289   7.117   0.254   5.755
  782TIP3   OH2 2290   2.108   0.207   0.337
  782TIP3    H1 2291   2.122   0.132   0.395
  782TIP3    H2 2292   2.195   0.227   0.302
  783TIP3   OH2 2293   5.902   4.272   6.640
  783TIP3    H1 2294   5.846   4.283   6.564
  783TIP3    H2 2295   5.850   4.303   6.714
  784TIP3   OH2 2296   3.607   3.126   4.150
  784TIP3    H1 2297   3.678   3.182   4.181
  784TIP3    H2 2298   3.542   3.188   4.116
  785TIP3   OH2 2299   2.265   2.551   2.517
  785TIP3    H1 2300   2.256   2.575   2.425
  785TIP3    H2 2301   2.341   2.601   2.547
  786TIP3   OH2 2302   6.617   1.706   1.691
  786TIP3    H1 2303   6.532   1.714   1.649
  786TIP3    H2 2304   6.658   1.792   1.681
  787TIP3   OH2 2305   7.018   4.743   4.079
  787TIP3    H1 2306   7.049   4.656   4.102
  787TIP3    H2 2307   6.997   4.737   3.985
  788TIP3   OH2 2308   5.055   4.056   2.128
  788TIP3    H1 2309   4.983   4.016   2.177
  788TIP3    H2 2310   5.093   4.119   2.188
  789TIP3   OH2 2311   3.058   7.154   0.008
  789TIP3    H1 2312   3.125   7.105   0.056
  789TIP3    H2 2313   3.037   7.228   0.064
  790TIP3   OH2 2314   4.643   3.179   5.870
  790TIP3    H1 2315   4.632   3.094   5.827
  790TIP3    H2 2316   4.721   3.168   5.924
  791TIP3   OH2 2317   1.871   4.398   1.896
  791TIP3    H1 2318   1.953   4.426   1.855
  791TIP3    H2 2319   1.896   4.374   1.985
  792TIP3   OH2 2320   3.348   2.079   4.039
  792TIP3    H1 2321   3.378   2.085   4.129
  792TIP3    H2 2322   3.255   2.055   4.046
  793TIP3   OH2 2323   5.160   1.194   2.247
  793TIP3    H1 2324   5.196   1.109   2.223
  793TIP3    H2 2325   5.072   1.174   2.280
  794TIP3   OH2 2326   5.254   0.388   0.173
  794TIP3    H1 2327   5.254   0.309   0.118
  794TIP3    H2 2328   5.166   0.424   0.162
  795TIP3   OH2 2329   5.281   4.796   4.464
  795TIP3    H1 2330   5.233   4.855   4.522
  795TIP3    H2 2331   5.290   4.715   4.514
  796TIP3   OH2 2332   2.792   2.768   2.934
  796TIP3    H1 2333   2.754   2.748   2.848
  796TIP3    H2 2334   2.886   2.764   2.920
  797TIP3   OH2 2335   5.484   3.911   1.970
  797TIP3    H1 2336   5.467   3.989   2.023
  797TIP3    H2 2337   5.509   3.844   2.033
  798TIP3   OH2 2338   2.976   4.479   0.177
  798TIP3    H1 2339   3.039   4.537   0.219
  798TIP3    H2 2340   2.894   4.493   0.224
  799TIP3   OH2 2341   5.203   4.028   1.630
  799TIP3    H1 2342   5.144   4.072   1.691
  799TIP3    H2 2343   5.199   3.936   1.656
  800TIP3   OH2 2344   5.294   3.924   6.485
  800TIP3    H1 2345   5.226   3.902   6.422
  800TIP3    H2 2346   5.296   3.849   6.545
  801TIP3   OH2 2347   2.858   1.009   0.965
  801TIP3    H1 2348   2.928   0.987   0.904
  801TIP3    H2 2349   2.783   1.030   0.909
  802TIP3   OH2 2350   5.871   2.911   6.382
  802TIP3    H1 2351   5.796   2.959   6.348
  802TIP3    H2 2352   5.888   2.952   6.467
  803TIP3   OH2 2353   4.390   7.263   6.637
  803TIP3    H1 2354   4.480   7.247   6.609
  803TIP3    H2 2355   4.394   7.344   6.687
  804TIP3   OH2 2356   4.453   6.536   0.040
  804TIP3    H1 2357   4.413   6.452   0.062
  804TIP3    H2 2358   4.535   6.537   0.089
  805TIP3   OH2 2359   6.239   6.029   6.665
  805TIP3    H1 2360   6.319   6.020   6.613
  805TIP3    H2 2361   6.169   6.003   6.606
  806TIP3   OH2 2362   6.909   6.345   0.244
  806TIP3    H1 2363   6.826   6.320   0.205
  806TIP3    H2 2364   6.959   6.383   0.172
  807TIP3   OH2 2365   4.909   5.829   3.509
  807TIP3    H1 2366   4.963   5.793   3.439
  807TIP3    H2 2367   4.824   5.785   3.499
  808TIP3   OH2 2368   5.429   1.273   1.428
  808TIP3    H1 2369   5.521   1.252   1.415
  808TIP3    H2 2370   5.382   1.203   1.383
  809TIP3   OH2 2371   3.415   6.503   2.603
  809TIP3    H1 2372   3.459   6.417   2.599
  809TIP3    H2 2373   3.350   6.493   2.673
  810TIP3   OH2 2374   5.552   6.127   3.568
  810TIP3    H1 2375   5.629   6.092   3.614
  810TIP3    H2 2376   5.522   6.055   3.514
  811TIP3   OH2 2377   6.834   1.685   4.738
  811TIP3    H1 2378   6.808   1.777   4.731
  811TIP3    H2 2379   6.841   1.655   4.647
  812TIP3   OH2 2380   3.993   2.346   1.532
  812TIP3    H1 2381   4.021   2.373   1.620
  812TIP3    H2 2382   3.943   2.266   1.546
  813TIP3   OH2 2383   2.260   3.594   2.027
  813TIP3    H1 2384   2.325   3.660   2.049
  813TIP3    H2 2385   2.178   3.627   2.064
  814TIP3   OH2 2386   4.719   6.551   0.120
  814TIP3    H1 2387   4.774   6.489   0.072
  814TIP3    H2 2388   4.779   6.621   0.145
  815TIP3   OH2 2389   2.753   0.340   2.938
  815TIP3    H1 2390   2.830   0.316   2.991
  815TIP3    H2 2391   2.772   0.306   2.851
  816TIP3   OH2 2392   4.375   3.571   3.095
  816TIP3    H1 2393   4.369   3.479   3.120
  816TIP3    H2 2394   4.469   3.588   3.088
  817TIP3   OH2 2395   4.668   6.927   6.601
  817TIP3    H1 2396   4.625   6.928   6.687
  817TIP3    H2 2397   4.756   6.961   6.618
  818TIP3   OH2 2398   5.977   3.992   2.514
  818TIP3    H1 2399   6.064   3.982   2.476
  818TIP3    H2 2400   5.918   3.993   2.439
  819TIP3   OH2 2401   1.913   7.001   6.188
  819TIP3    H1 2402   1.840   7.010   6.127
  819TIP3    H2 2403   1.963   6.926   6.157
  820TIP3   OH2 2404   7.955   5.263   4.477
  820TIP3    H1 2405   7.981   5.284   4.387
  820TIP3    H2 2406   7.890   5.194   4.467
  821TIP3   OH2 2407   4.456   0.210   1.061
  821TIP3    H1 2408   4.529   0.164   1.020
  821TIP3    H2 2409   4.478   0.209   1.155
  822TIP3   OH2 2410   4.942   6.095   2.989
  822TIP3    H1 2411   4.952   6.117   3.082
  822TIP3    H2 2412   5.000   6.020   2.975
  823TIP3   OH2 2413   2.992   0.511   2.109
  823TIP3    H1 2414   3.025   0.451   2.042
  823TIP3    H2 2415   2.916   0.552   2.068
  824TIP3   OH2 2416   3.515   0.909   5.063
  824TIP3    H1 2417   3.474   0.827   5.092
  824TIP3    H2 2418   3.473   0.977   5.115
  825TIP3   OH2 2419   3.511   1.008   2.871
  825TIP3    H1 2420   3.580   0.946   2.897
  825TIP3    H2 2421   3.557   1.072   2.816
  826TIP3   OH2 2422   1.202   5.196   6.586
  826TIP3    H1 2423   1.283   5.178   6.634
  826TIP3    H2 2424   1.144   5.234   6.652
  827TIP3   OH2 2425   1.963   5.845   2.697
  827TIP3    H1 2426   1.970   5.902   2.773
  827TIP3    H2 2427   2.029   5.777   2.711
  828TIP3   OH2 2428   3.176   6.358   0.611
  828TIP3    H1 2429   3.174   6.280   0.667
  828TIP3    H2 2430   3.258   6.401   0.633
  829TIP3   OH2 2431   2.911   4.415   5.146
  829TIP3    H1 2432   2.952   4.365   5.075
  829TIP3    H2 2433   2.984   4.443   5.201
  830TIP3   OH2 2434   5.198   7.378   1.836
  830TIP3    H1 2435   5.184   7.320   1.761
  830TIP3    H2 2436   5.210   7.319   1.910
  831TIP3   OH2 2437   0.885   0.114   5.865
  831TIP3    H1 2438   0.816   0.178   5.844
  831TIP3    H2 2439   0.850   0.030   5.836
  832TIP3   OH2 2440   2.001   1.830   1.701
  832TIP3    H1 2441   1.920   1.870   1.670
  832TIP3    H2 2442   2.046   1.901   1.747
  833TIP3   OH2 2443   4.241   2.998   1.372
  833TIP3    H1 2444   4.223   2.968   1.461
  833TIP3    H2 2445   4.267   3.090   1.383
  834TIP3   OH2 2446   4.697   6.982   3.241
  834TIP3    H1 2447   4.767   6.922   3.267
  834TIP3    H2 2448   4.660   7.013   3.324
  835TIP3   OH2 2449   5.790   0.063   5.702
  835TIP3    H1 2450   5.843   0.119   5.645
  835TIP3    H2 2451   5.705   0.106   5.705
  836TIP3   OH2 2452   0.939   3.992   4.405
  836TIP3    H1 2453   0.880   4.004   4.330
  836TIP3    H2 2454   1.023   3.967   4.366
  837TIP3   OH2 2455   3.407   2.472   5.941
  837TIP3    H1 2456   3.482   2.414   5.933
  837TIP3    H2 2457   3.419   2.516   6.025
  838TIP3   OH2 2458   6.659   0.595   0.972
  838TIP3    H1 2459   6.696   0.670   1.018
  838TIP3    H2 2460   6.676   0.520   1.030
  839TIP3   OH2 2461   2.795   1.821   1.702
  839TIP3    H1 2462   2.884   1.854   1.710
  839TIP3    H2 2463   2.741   1.900   1.693
  840TIP3   OH2 2464   4.934   0.717   5.343
  840TIP3    H1 2465   4.867   0.687   5.403
  840TIP3    H2 2466   4.885   0.758   5.271
  841TIP3   OH2 2467   0.166   2.025   6.479
  841TIP3    H1 2468   0.229   1.959   6.506
  841TIP3    H2 2469   0.166   2.088   6.551
  842TIP3   OH2 2470   6.730   4.581   2.384
  842TIP3    H1 2471   6.689   4.509   2.430
  842TIP3    H2 2472   6.815   4.593   2.427
  843TIP3   OH2 2473   0.578   2.155   1.213
  843TIP3    H1 2474   0.605   2.182   1.301
  843TIP3    H2 2475   0.606   2.064   1.207
  844TIP3   OH2 2476   2.483   4.321   4.548
  844TIP3    H1 2477   2.427   4.321   4.625
  844TIP3    H2 2478   2.515   4.232   4.540
  845TIP3   OH2 2479   4.013   1.679   3.839
  845TIP3    H1 2480   4.004   1.608   3.902
  845TIP3    H2 2481   3.978   1.644   3.757
  846TIP3   OH2 2482   1.291   7.478   3.470
  846TIP3    H1 2483   1.274   7.393   3.429
  846TIP3    H2 2484   1.257   7.542   3.407
  847TIP3   OH2 2485   7.900   4.535   3.004
  847TIP3    H1 2486   7.954   4.495   3.073
  847TIP3    H2 2487   7.943   4.617   2.984
  848TIP3   OH2 2488   4.340   0.286   4.149
  848TIP3    H1 2489   4.293   0.207   4.176
  848TIP3    H2 2490   4.276   0.356   4.159
  849TIP3   OH2 2491   0.278   0.000   5.024
  849TIP3    H1 2492   0.292  -0.055   5.101
  849TIP3    H2 2493   0.321   0.083   5.047
  850TIP3   OH2 2494   3.852   4.894   0.208
  850TIP3    H1 2495   3.920   4.853   0.153
  850TIP3    H2 2496   3.788   4.825   0.223
  851TIP3   OH2 2497   5.806   0.452   5.866
  851TIP3    H1 2498   5.880   0.465   5.806
  851TIP3    H2 2499   5.806   0.530   5.921
  852TIP3   OH2 2500   2.998   5.537   1.951
  852TIP3    H1 2501   3.068   5.481   1.983
  852TIP3    H2 2502   3.040   5.597   1.889
  853TIP3   OH2 2503   7.318   4.578   0.031
  853TIP3    H1 2504   7.383   4.629   0.081
  853TIP3    H2 2505   7.363   4.557  -0.051
  854TIP3   OH2 2506   0.058   7.296   4.763
  854TIP3    H1 2507   0.049   7.202   4.776
  854TIP3    H2 2508   0.027   7.335   4.844
  855TIP3   OH2 2509   7.667   3.988   3.926
  855TIP3    H1 2510   7.682   4.069   3.877
  855TIP3    H2 2511   7.754   3.956   3.946
  856TIP3   OH2 2512   0.527   4.776   4.683
  856TIP3    H1 2513   0.459   4.808   4.742
  856TIP3    H2 2514   0.522   4.681   4.690
  857TIP3   OH2 2515   2.285   0.750   3.991
  857TIP3    H1 2516   2.368   0.736   3.948
  857TIP3    H2 2517   2.250   0.830   3.951
  858TIP3   OH2 2518   1.598   5.685   6.661
  858TIP3    H1 2519   1.639   5.611   6.614
  858TIP3    H2 2520   1.505   5.678   6.640
  859TIP3   OH2 2521   0.673   0.346   4.500
  859TIP3    H1 2522   0.601   0.349   4.436
  859TIP3    H2 2523   0.651   0.415   4.563
  860TIP3   OH2 2524   4.904   4.593   4.735
  860TIP3    H1 2525   4.810   4.574   4.740
  860TIP3    H2 2526   4.910   4.688   4.750
  861TIP3   OH2 2527   2.949   2.941   0.612
  861TIP3    H1 2528   3.001   2.943   0.692
  861TIP3    H2 2529   2.869   2.989   0.634
  862TIP3   OH2 2530   4.696   2.327   0.289
  862TIP3    H1 2531   4.783   2.308   0.253
  862TIP3    H2 2532   4.637   2.269   0.241
  863TIP3   OH2 2533   3.910   3.329   1.526
  863TIP3    H1 2534   3.822   3.362   1.544
  863TIP3    H2 2535   3.961   3.353   1.603
  864TIP3   OH2 2536   2.173   4.086   6.488
  864TIP3    H1 2537   2.139   4.090   6.398
  864TIP3    H2 2538   2.128   4.011   6.527
  865TIP3   OH2 2539   3.372   0.052   3.221
  865TIP3    H1 2540   3.315  -0.002   3.276
  865TIP3    H2 2541   3.433  -0.010   3.181
  866TIP3   OH2 2542   3.845   7.568   3.789
  866TIP3    H1 2543   3.771   7.614   3.829
  866TIP3    H2 2544   3.886   7.520   3.861
  867TIP3   OH2 2545   0.825   2.303   2.607
  867TIP3    H1 2546   0.870   2.225   2.641
  867TIP3    H2 2547   0.896   2.362   2.581
  868TIP3   OH2 2548   6.057   6.185   6.094
  868TIP3    H1 2549   6.081   6.272   6.127
  868TIP3    H2 2550   6.001   6.148   6.161
  869TIP3   OH2 2551   1.099   3.486   4.441
  869TIP3    H1 2552   1.113   3.467   4.534
  869TIP3    H2 2553   1.022   3.542   4.439
  870TIP3   OH2 2554   5.047   7.441   1.280
  870TIP3    H1 2555   5.014   7.430   1.369
  870TIP3    H2 2556   5.040   7.354   1.241
  871TIP3   OH2 2557   2.744   2.778   2.401
  871TIP3    H1 2558   2.663   2.829   2.394
  871TIP3    H2 2559   2.743   2.721   2.325
  872TIP3   OH2 2560   2.120   1.950   3.835
  872TIP3    H1 2561   2.183   1.887   3.872
  872TIP3    H2 2562   2.168   2.033   3.832
  873TIP3   OH2 2563   7.730   4.801   6.198
  873TIP3    H1 2564   7.814   4.762   6.174
  873TIP3    H2 2565   7.708   4.858   6.125
  874TIP3   OH2 2566   1.646   5.919   5.431
  874TIP3    H1 2567   1.661   5.983   5.361
  874TIP3    H2 2568   1.733   5.903   5.468
  875TIP3   OH2 2569   4.156   6.980   3.074
  875TIP3    H1 2570   4.110   7.061   3.098
  875TIP3    H2 2571   4.238   7.010   3.035
  876TIP3   OH2 2572   3.483   5.772   3.810
  876TIP3    H1 2573   3.514   5.779   3.901
  876TIP3    H2 2574   3.445   5.685   3.804
  877TIP3   OH2 2575   6.015   7.585   6.059
  877TIP3    H1 2576   5.963   7.643   6.003
  877TIP3    H2 2577   6.098   7.630   6.070
  878TIP3   OH2 2578   4.764   1.499   3.404
  878TIP3    H1 2579   4.859   1.511   3.410
  878TIP3    H2 2580   4.749   1.482   3.311
  879TIP3   OH2 2581   2.384   7.648   0.086
  879TIP3    H1 2582   2.412   7.645   0.178
  879TIP3    H2 2583   2.463   7.628   0.036
  880TIP3   OH2 2584   5.143   5.041   1.869
  880TIP3    H1 2585   5.228   4.997   1.879
  880TIP3    H2 2586   5.166   5.129   1.839
  881TIP3   OH2 2587   0.527   7.634   2.236
  881TIP3    H1 2588   0.480   7.577   2.296
  881TIP3    H2 2589   0.490   7.721   2.250
  882TIP3   OH2 2590   5.099   2.762   4.653
  882TIP3    H1 2591   5.136   2.773   4.741
  882TIP3    H2 2592   5.163   2.802   4.595
  883TIP3   OH2 2593   5.072   7.036   3.357
  883TIP3    H1 2594   5.084   7.038   3.452
  883TIP3    H2 2595   5.009   7.105   3.339
  884TIP3   OH2 2596   4.593   3.850   5.364
  884TIP3    H1 2597   4.565   3.759   5.376
  884TIP3    H2 2598   4.647   3.848   5.284
  885TIP3   OH2 2599   7.700   0.906   1.439
  885TIP3    H1 2600   7.667   0.842   1.501
  885TIP3    H2 2601   7.624   0.959   1.416
  886TIP3   OH2 2602   4.947   7.260   5.446
  886TIP3    H1 2603   4.963   7.238   5.354
  886TIP3    H2 2604   4.855   7.240   5.460
  887TIP3   OH2 2605   2.852   7.778   4.035
  887TIP3    H1 2606   2.915   7.774   4.107
  887TIP3    H2 2607   2.766   7.774   4.078
  888TIP3   OH2 2608   5.018   1.032   4.647
  888TIP3    H1 2609   5.016   1.115   4.599
  888TIP3    H2 2610   5.100   1.036   4.697
  889TIP3   OH2 2611   4.499   3.424   2.853
  889TIP3    H1 2612   4.565   3.377   2.802
  889TIP3    H2 2613   4.491   3.373   2.933
  890TIP3   OH2 2614   5.003   0.897   1.365
  890TIP3    H1 2615   4.947   0.840   1.312
  890TIP3    H2 2616   4.952   0.977   1.377
  891TIP3   OH2 2617   4.913   3.141   5.948
  891TIP3    H1 2618   4.977   3.083   5.906
  891TIP3    H2 2619   4.938   3.229   5.919
  892TIP3   OH2 2620   4.620   3.796   0.984
  892TIP3    H1 2621   4.544   3.819   0.929
  892TIP3    H2 2622   4.581   3.766   1.066
  893TIP3   OH2 2623   4.873   1.880   4.098
  893TIP3    H1 2624   4.954   1.930   4.105
  893TIP3    H2 2625   4.862   1.863   4.005
  894TIP3   OH2 2626   3.545   4.290   2.061
  894TIP3    H1 2627   3.507   4.208   2.030
  894TIP3    H2 2628   3.544   4.347   1.984
  895TIP3   OH2 2629   7.929   3.369   4.673
  895TIP3    H1 2630   7.971   3.451   4.700
  895TIP3    H2 2631   7.986   3.300   4.708
  896TIP3   OH2 2632   4.598   7.537   6.414
  896TIP3    H1 2633   4.693   7.546   6.411
  896TIP3    H2 2634   4.566   7.627   6.419
  897TIP3   OH2 2635   5.633   1.178   0.605
  897TIP3    H1 2636   5.686   1.224   0.539
  897TIP3    H2 2637   5.697   1.128   0.656
  898TIP3   OH2 2638   3.671   4.718   2.508
  898TIP3    H1 2639   3.722   4.783   2.460
  898TIP3    H2 2640   3.687   4.738   2.600
  899TIP3   OH2 2641   6.347   4.396   2.646
  899TIP3    H1 2642   6.342   4.411   2.551
  899TIP3    H2 2643   6.349   4.484   2.683
  900TIP3   OH2 2644   0.210   3.614   2.085
  900TIP3    H1 2645   0.293   3.627   2.040
  900TIP3    H2 2646   0.217   3.665   2.166
  901TIP3   OH2 2647   5.365   2.208   0.647
  901TIP3    H1 2648   5.314   2.134   0.613
  901TIP3    H2 2649   5.311   2.285   0.628
  902TIP3   OH2 2650   2.973   4.154   3.079
  902TIP3    H1 2651   3.040   4.088   3.063
  902TIP3    H2 2652   3.014   4.237   3.056
  903TIP3   OH2 2653   2.181   4.784   3.251
  903TIP3    H1 2654   2.198   4.717   3.185
  903TIP3    H2 2655   2.144   4.736   3.325
  904TIP3   OH2 2656   8.157   3.777   5.330
  904TIP3    H1 2657   8.247   3.782   5.297
  904TIP3    H2 2658   8.114   3.715   5.272
  905TIP3   OH2 2659   0.106   7.621   2.320
  905TIP3    H1 2660   0.113   7.627   2.416
  905TIP3    H2 2661   0.023   7.664   2.300
  906TIP3   OH2 2662   4.098   3.191   6.003
  906TIP3    H1 2663   4.129   3.141   6.078
  906TIP3    H2 2664   4.173   3.197   5.944
  907TIP3   OH2 2665   5.328   1.896   1.638
  907TIP3    H1 2666   5.397   1.933   1.693
  907TIP3    H2 2667   5.371   1.824   1.591
  908TIP3   OH2 2668   6.580   7.024   0.580
  908TIP3    H1 2669   6.628   6.942   0.584
  908TIP3    H2 2670   6.647   7.092   0.575
  909TIP3   OH2 2671   3.885   4.310   1.265
  909TIP3    H1 2672   3.806   4.273   1.305
  909TIP3    H2 2673   3.876   4.404   1.278
  910TIP3   OH2 2674   3.559   2.191   2.218
  910TIP3    H1 2675   3.499   2.143   2.274
  910TIP3    H2 2676   3.546   2.153   2.131
  911TIP3   OH2 2677   3.362   5.641   3.061
  911TIP3    H1 2678   3.325   5.675   3.143
  911TIP3    H2 2679   3.288   5.598   3.019
  912TIP3   OH2 2680   7.130   4.334   6.559
  912TIP3    H1 2681   7.142   4.379   6.475
  912TIP3    H2 2682   7.046   4.366   6.591
  913TIP3   OH2 2683   6.934   7.324   1.962
  913TIP3    H1 2684   6.921   7.349   1.871
  913TIP3    H2 2685   7.016   7.275   1.962
  914TIP3   OH2 2686   7.148   5.120   1.007
  914TIP3    H1 2687   7.082   5.138   0.939
  914TIP3    H2 2688   7.181   5.206   1.032
  915TIP3   OH2 2689   1.584   2.834   2.077
  915TIP3    H1 2690   1.621   2.839   1.989
  915TIP3    H2 2691   1.653   2.792   2.129
  916TIP3   OH2 2692   7.738   7.513  -0.005
  916TIP3    H1 2693   7.761   7.432   0.041
  916TIP3    H2 2694   7.797   7.578   0.032
  917TIP3   OH2 2695   8.146   1.089   4.445
  917TIP3    H1 2696   8.239   1.112   4.441
  917TIP3    H2 2697   8.120   1.078   4.354
  918TIP3   OH2 2698   1.484   2.101   6.554
  918TIP3    H1 2699   1.491   2.194   6.573
  918TIP3    H2 2700   1.392   2.080   6.571
  919TIP3   OH2 2701   7.623   2.968   2.364
  919TIP3    H1 2702   7.596   2.880   2.339
  919TIP3    H2 2703   7.639   2.963   2.458
  920TIP3   OH2 2704   6.433   2.993   6.388
  920TIP3    H1 2705   6.433   2.897   6.386
  920TIP3    H2 2706   6.473   3.019   6.305
  921TIP3   OH2 2707   6.426   5.495   0.869
  921TIP3    H1 2708   6.465   5.494   0.957
  921TIP3    H2 2709   6.336   5.466   0.882
  922TIP3   OH2 2710   7.298   3.365   4.783
  922TIP3    H1 2711   7.363   3.344   4.716
  922TIP3    H2 2712   7.339   3.434   4.835
  923TIP3   OH2 2713   3.409   4.428   5.349
  923TIP3    H1 2714   3.356   4.440   5.270
  923TIP3    H2 2715   3.485   4.378   5.320
  924TIP3   OH2 2716   0.143   2.627   4.297
  924TIP3    H1 2717   0.092   2.668   4.228
  924TIP3    H2 2718   0.231   2.663   4.286
  925TIP3   OH2 2719   0.157   6.867   6.624
  925TIP3    H1 2720   0.223   6.864   6.694
  925TIP3    H2 2721   0.179   6.946   6.574
  926TIP3   OH2 2722   2.544   6.925   2.765
  926TIP3    H1 2723   2.622   6.969   2.798
  926TIP3    H2 2724   2.569   6.834   2.757
  927TIP3   OH2 2725   5.161   5.954   3.333
  927TIP3    H1 2726   5.160   5.984   3.424
  927TIP3    H2 2727   5.246   5.911   3.322
  928TIP3   OH2 2728   5.040   0.651   4.337
  928TIP3    H1 2729   5.111   0.706   4.372
  928TIP3    H2 2730   5.085   0.586   4.283
  929TIP3   OH2 2731   5.660   4.777   3.726
  929TIP3    H1 2732   5.636   4.832   3.651
  929TIP3    H2 2733   5.750   4.750   3.708
  930TIP3   OH2 2734   1.697   3.692   4.228
  930TIP3    H1 2735   1.637   3.618   4.219
  930TIP3    H2 2736   1.644   3.768   4.205
  931TIP3   OH2 2737   7.301   4.141   6.039
  931TIP3    H1 2738   7.301   4.236   6.022
  931TIP3    H2 2739   7.387   4.124   6.077
  932TIP3   OH2 2740   1.086   6.169   0.527
  932TIP3    H1 2741   1.042   6.084   0.535
  932TIP3    H2 2742   1.036   6.227   0.584
  933TIP3   OH2 2743   4.043   2.815   5.525
  933TIP3    H1 2744   4.055   2.799   5.431
  933TIP3    H2 2745   3.961   2.865   5.529
  934TIP3   OH2 2746   5.954   7.127   2.988
  934TIP3    H1 2747   5.949   7.214   2.949
  934TIP3    H2 2748   6.040   7.093   2.961
  935TIP3   OH2 2749   0.528   4.134   5.566
  935TIP3    H1 2750   0.607   4.188   5.564
  935TIP3    H2 2751   0.461   4.188   5.524
  936TIP3   OH2 2752   2.891   2.185   1.646
  936TIP3    H1 2753   2.815   2.136   1.678
  936TIP3    H2 2754   2.966   2.143   1.689
  937TIP3   OH2 2755   5.798   0.489   6.502
  937TIP3    H1 2756   5.769   0.404   6.536
  937TIP3    H2 2757   5.885   0.471   6.466
  938TIP3   OH2 2758   7.729   1.858   0.230
  938TIP3    H1 2759   7.725   1.904   0.314
  938TIP3    H2 2760   7.646   1.811   0.224
  939TIP3   OH2 2761   4.141   7.668   4.743
  939TIP3    H1 2762   4.072   7.614   4.703
  939TIP3    H2 2763   4.097   7.749   4.767
  940TIP3   OH2 2764   5.046   2.822   2.250
  940TIP3    H1 2765   5.119   2.811   2.188
  940TIP3    H2 2766   4.969   2.794   2.201
  941TIP3   OH2 2767   4.546   2.385   3.611
  941TIP3    H1 2768   4.482   2.433   3.559
  941TIP3    H2 2769   4.542   2.426   3.698
  942TIP3   OH2 2770   0.989   7.436   1.301
  942TIP3    H1 2771   1.083   7.421   1.292
  942TIP3    H2 2772   0.969   7.507   1.240
  943TIP3   OH2 2773   7.434   1.430   3.165
  943TIP3    H1 2774   7.522   1.468   3.157
  943TIP3    H2 2775   7.450   1.338   3.187
  944TIP3   OH2 2776   6.090   2.645   1.984
  944TIP3    H1 2777   6.155   2.630   1.915
  944TIP3    H2 2778   6.017   2.687   1.939
  945TIP3   OH2 2779   6.051   2.341   5.122
  945TIP3    H1 2780   6.073   2.386   5.041
  945TIP3    H2 2781   6.121   2.277   5.134
  946TIP3   OH2 2782   6.830   1.708   3.567
  946TIP3    H1 2783   6.875   1.642   3.514
  946TIP3    H2 2784   6.900   1.769   3.593
  947TIP3   OH2 2785   5.499   3.122   4.263
  947TIP3    H1 2786   5.517   3.216   4.270
  947TIP3    H2 2787   5.531   3.085   4.345
  948TIP3   OH2 2788   7.825   5.385   2.170
  948TIP3    H1 2789   7.902   5.386   2.227
  948TIP3    H2 2790   7.800   5.292   2.166
  949TIP3   OH2 2791   5.668   3.561   3.567
  949TIP3    H1 2792   5.650   3.603   3.651
  949TIP3    H2 2793   5.583   3.559   3.522
  950TIP3   OH2 2794   6.550   1.134   6.318
  950TIP3    H1 2795   6.598   1.079   6.379
  950TIP3    H2 2796   6.577   1.103   6.231
  951TIP3   OH2 2797   4.339   6.899   2.019
  951TIP3    H1 2798   4.394   6.944   1.956
  951TIP3    H2 2799   4.353   6.805   2.002
  952TIP3   OH2 2800   6.380   4.919   4.043
  952TIP3    H1 2801   6.415   4.873   4.119
  952TIP3    H2 2802   6.294   4.950   4.071
  953TIP3   OH2 2803   2.500   3.414   0.423
  953TIP3    H1 2804   2.482   3.339   0.367
  953TIP3    H2 2805   2.572   3.385   0.479
  954TIP3   OH2 2806   6.570   0.386   2.830
  954TIP3    H1 2807   6.540   0.463   2.879
  954TIP3    H2 2808   6.507   0.317   2.852
  955TIP3   OH2 2809   1.846   5.236   2.576
  955TIP3    H1 2810   1.840   5.307   2.511
  955TIP3    H2 2811   1.769   5.247   2.631
  956TIP3   OH2 2812   4.212   7.522   5.161
  956TIP3    H1 2813   4.266   7.595   5.193
  956TIP3    H2 2814   4.252   7.497   5.078
  957TIP3   OH2 2815   4.085   3.563   5.272
  957TIP3    H1 2816   4.091   3.640   5.215
  957TIP3    H2 2817   4.176   3.541   5.292
  958TIP3   OH2 2818   0.745   2.098   5.813
  958TIP3    H1 2819   0.839   2.092   5.825
  958TIP3    H2 2820   0.733   2.166   5.746
  959TIP3   OH2 2821   0.705   3.599   6.099
  959TIP3    H1 2822   0.761   3.636   6.030
  959TIP3    H2 2823   0.629   3.658   6.102
  960TIP3   OH2 2824   5.938   4.780   3.740
  960TIP3    H1 2825   5.937   4.838   3.816
  960TIP3    H2 2826   6.009   4.814   3.685
  961TIP3   OH2 2827   7.391   4.732   3.845
  961TIP3    H1 2828   7.368   4.749   3.937
  961TIP3    H2 2829   7.444   4.652   3.849
  962TIP3   OH2 2830   8.018   2.685   4.634
  962TIP3    H1 2831   8.105   2.661   4.601
  962TIP3    H2 2832   7.971   2.716   4.556
  963TIP3   OH2 2833   1.533   0.148   3.975
  963TIP3    H1 2834   1.531   0.211   4.047
  963TIP3    H2 2835   1.557   0.199   3.898
  964TIP3   OH2 2836   0.237   5.281   0.662
  964TIP3    H1 2837   0.166   5.344   0.655
  964TIP3    H2 2838   0.222   5.220   0.590
  965TIP3   OH2 2839   0.208   5.900   1.367
  965TIP3    H1 2840   0.172   5.830   1.312
  965TIP3    H2 2841   0.204   5.866   1.456
  966TIP3   OH2 2842   5.913   3.227   0.184
  966TIP3    H1 2843   5.827   3.235   0.226
  966TIP3    H2 2844   5.970   3.285   0.234
  967TIP3   OH2 2845   5.895   5.893   5.539
  967TIP3    H1 2846   5.821   5.881   5.598
  967TIP3    H2 2847   5.902   5.810   5.492
  968TIP3   OH2 2848   3.609   3.801   4.032
  968TIP3    H1 2849   3.573   3.809   4.120
  968TIP3    H2 2850   3.533   3.811   3.974
  969TIP3   OH2 2851   7.438   7.257   5.397
  969TIP3    H1 2852   7.378   7.293   5.332
  969TIP3    H2 2853   7.383   7.202   5.453
  970TIP3   OH2 2854   3.232   1.677   1.070
  970TIP3    H1 2855   3.190   1.593   1.089
  970TIP3    H2 2856   3.297   1.688   1.140
  971TIP3   OH2 2857   3.812   4.681   0.461
  971TIP3    H1 2858   3.866   4.614   0.503
  971TIP3    H2 2859   3.764   4.634   0.393
  972TIP3   OH2 2860   7.887   5.069   1.607
  972TIP3    H1 2861   7.915   5.078   1.698
  972TIP3    H2 2862   7.835   4.989   1.605
  973TIP3   OH2 2863   5.918   6.889   2.357
  973TIP3    H1 2864   5.823   6.897   2.345
  973TIP3    H2 2865   5.935   6.795   2.352
  974TIP3   OH2 2866   3.910   7.182   6.740
  974TIP3    H1 2867   3.859   7.122   6.685
  974TIP3    H2 2868   3.982   7.129   6.773
  975TIP3   OH2 2869   2.369   6.491   1.859
  975TIP3    H1 2870   2.437   6.514   1.922
  975TIP3    H2 2871   2.390   6.401   1.833
  976TIP3   OH2 2872   0.652   0.153   4.218
  976TIP3    H1 2873   0.724   0.215   4.232
  976TIP3    H2 2874   0.575   0.200   4.248
  977TIP3   OH2 2875   1.177   2.243   1.382
  977TIP3    H1 2876   1.085   2.245   1.353
  977TIP3    H2 2877   1.216   2.170   1.334
  978TIP3   OH2 2878   7.185   4.823   2.972
  978TIP3    H1 2879   7.187   4.727   2.970
  978TIP3    H2 2880   7.138   4.845   3.052
  979TIP3   OH2 2881   2.370   5.875   0.066
  979TIP3    H1 2882   2.432   5.932   0.022
  979TIP3    H2 2883   2.409   5.787   0.059
  980TIP3   OH2 2884   2.905   6.001   3.729
  980TIP3    H1 2885   2.914   6.090   3.762
  980TIP3    H2 2886   2.866   6.011   3.642
  981TIP3   OH2 2887   1.480   2.183   4.798
  981TIP3    H1 2888   1.473   2.206   4.705
  981TIP3    H2 2889   1.515   2.094   4.798
  982TIP3   OH2 2890   6.393   4.019   2.486
  982TIP3    H1 2891   6.451   4.029   2.561
  982TIP3    H2 2892   6.338   3.944   2.508
  983TIP3   OH2 2893   8.057   7.275   0.708
  983TIP3    H1 2894   8.145   7.308   0.686
  983TIP3    H2 2895   8.038   7.314   0.793
  984TIP3   OH2 2896   0.479   6.736   6.082
  984TIP3    H1 2897   0.456   6.725   6.175
  984TIP3    H2 2898   0.510   6.650   6.055
  985TIP3   OH2 2899   0.410   6.241   5.565
  985TIP3    H1 2900   0.486   6.226   5.622
  985TIP3    H2 2901   0.441   6.303   5.499
  986TIP3   OH2 2902   4.449   3.364   0.424
  986TIP3    H1 2903   4.450   3.272   0.399
  986TIP3    H2 2904   4.485   3.365   0.513
  987TIP3   OH2 2905   5.458   4.304   6.664
  987TIP3    H1 2906   5.506   4.255   6.731
  987TIP3    H2 2907   5.483   4.263   6.581
  988TIP3   OH2 2908   6.111   4.073   5.947
  988TIP3    H1 2909   6.178   4.056   5.881
  988TIP3    H2 2910   6.155   4.058   6.031
  989TIP3   OH2 2911   5.099   2.184   4.116
  989TIP3    H1 2912   5.170   2.164   4.055
  989TIP3    H2 2913   5.060   2.265   4.082
  990TIP3   OH2 2914   1.110   4.995   5.983
  990TIP3    H1 2915   1.078   4.953   6.063
  990TIP3    H2 2916   1.203   5.012   6.000
  991TIP3   OH2 2917   2.069   0.888   0.461
  991TIP3    H1 2918   2.062   0.964   0.519
  991TIP3    H2 2919   1.995   0.898   0.400
  992TIP3   OH2 2920   0.794   5.567   0.380
  992TIP3    H1 2921   0.704   5.583   0.410
  992TIP3    H2 2922   0.828   5.654   0.359
  993TIP3   OH2 2923   2.556   7.553   5.922
  993TIP3    H1 2924   2.634   7.600   5.951
  993TIP3    H2 2925   2.511   7.528   6.003
  994TIP3   OH2 2926   7.542   4.311   3.519
  994TIP3    H1 2927   7.493   4.293   3.439
  994TIP3    H2 2928   7.573   4.226   3.548
  995TIP3   OH2 2929   8.099   6.339   5.527
  995TIP3    H1 2930   8.034   6.410   5.521
  995TIP3    H2 2931   8.166   6.363   5.464
  996TIP3   OH2 2932   4.774   6.957   1.416
  996TIP3    H1 2933   4.687   6.998   1.416
  996TIP3    H2 2934   4.773   6.899   1.492
  997TIP3   OH2 2935   1.639   4.705   6.019
  997TIP3    H1 2936   1.569   4.652   5.982
  997TIP3    H2 2937   1.716   4.649   6.016
  998TIP3   OH2 2938   3.220   1.281   5.775
  998TIP3    H1 2939   3.186   1.370   5.763
  998TIP3    H2 2940   3.221   1.269   5.870
  999TIP3   OH2 2941   5.531   1.099   4.289
  999TIP3    H1 2942   5.524   1.017   4.337
  999TIP3    H2 2943   5.441   1.131   4.284
 1000TIP3   OH2 2944   4.845   3.684   5.867
 1000TIP3    H1 2945   4.763   3.713   5.827
 1000TIP3    H2 2946   4.913   3.731   5.818
 1001TIP3   OH2 2947   1.623   0.010   4.312
 1001TIP3    H1 2948   1.697   0.009   4.251
 1001TIP3    H2 2949   1.582   0.095   4.298
 1002TIP3   OH2 2950   1.098   3.539   5.158
 1002TIP3    H1 2951   1.135   3.598   5.092
 1002TIP3    H2 2952   1.004   3.555   5.154
 1003TIP3   OH2 2953   1.840   5.465   4.806
 1003TIP3    H1 2954   1.839   5.472   4.901
 1003TIP3    H2 2955   1.900   5.393   4.787
 1004TIP3   OH2 2956   5.396   0.629   6.361
 1004TIP3    H1 2957   5.485   0.653   6.335
 1004TIP3    H2 2958   5.354   0.603   6.279
 1005TIP3   OH2 2959   5.203   1.778   5.084
 1005TIP3    H1 2960   5.238   1.719   5.150
 1005TIP3    H2 2961   5.113   1.748   5.070
 1006TIP3   OH2 2962   4.338   5.762   4.852
 1006TIP3    H1 2963   4.307   5.700   4.786
 1006TIP3    H2 2964   4.433   5.749   4.854
 1007TIP3   OH2 2965   6.587   7.052   4.845
 1007TIP3    H1 2966   6.640   7.013   4.915
 1007TIP3    H2 2967   6.627   7.019   4.764
 1008TIP3   OH2 2968   1.152   0.838   3.930
 1008TIP3    H1 2969   1.094   0.801   3.863
 1008TIP3    H2 2970   1.148   0.933   3.916
 1009TIP3   OH2 2971   6.095   6.735   1.842
 1009TIP3    H1 2972   6.173   6.720   1.787
 1009TIP3    H2 2973   6.053   6.649   1.846
 1010TIP3   OH2 2974   0.497   7.295   2.478
 1010TIP3    H1 2975   0.439   7.368   2.454
 1010TIP3    H2 2976   0.581   7.336   2.497
 1011TIP3   OH2 2977   6.771   3.143   2.731
 1011TIP3    H1 2978   6.767   3.120   2.638
 1011TIP3    H2 2979   6.680   3.160   2.755
 1012TIP3   OH2 2980   5.464   0.107   6.481
 1012TIP3    H1 2981   5.375   0.088   6.509
 1012TIP3    H2 2982   5.459   0.118   6.386
 1013TIP3   OH2 2983   2.605   7.512   2.330
 1013TIP3    H1 2984   2.519   7.545   2.358
 1013TIP3    H2 2985   2.597   7.501   2.236
 1014TIP3   OH2 2986   7.426   6.558   0.587
 1014TIP3    H1 2987   7.338   6.530   0.614
 1014TIP3    H2 2988   7.413   6.596   0.500
 1015TIP3   OH2 2989   0.466   3.014   6.746
 1015TIP3    H1 2990   0.514   2.982   6.669
 1015TIP3    H2 2991   0.519   3.087   6.777
 1016TIP3   OH2 2992   4.294   0.430   5.706
 1016TIP3    H1 2993   4.305   0.375   5.629
 1016TIP3    H2 2994   4.319   0.518   5.676
 1017TIP3   OH2 2995   5.159   7.487   5.779
 1017TIP3    H1 2996   5.148   7.576   5.745
 1017TIP3    H2 2997   5.101   7.433   5.724
 1018TIP3   OH2 2998   5.893   6.605   2.319
 1018TIP3    H1 2999   5.858   6.610   2.408
 1018TIP3    H2 3000   5.911   6.512   2.305
 1019TIP3   OH2 3001   6.767   6.251   1.459
 1019TIP3    H1 3002   6.804   6.339   1.452
 1019TIP3    H2 3003   6.842   6.193   1.447
 1020TIP3   OH2 3004   4.749   0.101   2.297
 1020TIP3    H1 3005   4.701   0.105   2.380
 1020TIP3    H2 3006   4.770   0.192   2.277
 1021TIP3   OH2 3007   2.593   2.885   0.562
 1021TIP3    H1 3008   2.580   2.863   0.654
 1021TIP3    H2 3009   2.507   2.914   0.532
 1022TIP3   OH2 3010   7.654   3.794   4.991
 1022TIP3    H1 3011   7.626   3.855   5.059
 1022TIP3    H2 3012   7.634   3.839   4.909
 1023TIP3   OH2 3013   1.891   0.247   0.608
 1023TIP3    H1 3014   1.976   0.254   0.652
 1023TIP3    H2 3015   1.906   0.183   0.538
 1024TIP3   OH2 3016   1.117   1.030   1.982
 1024TIP3    H1 3017   1.109   1.078   1.900
 1024TIP3    H2 3018   1.049   1.066   2.039
 1025TIP3   OH2 3019   2.752   3.745   0.366
 1025TIP3    H1 3020   2.779   3.705   0.449
 1025TIP3    H2 3021   2.659   3.723   0.359
 1026TIP3   OH2 3022   2.861   5.501   2.903
 1026TIP3    H1 3023   2.817   5.422   2.935
 1026TIP3    H2 3024   2.814   5.524   2.823
 1027TIP3   OH2 3025   3.963   7.326   1.366
 1027TIP3    H1 3026   3.973   7.394   1.300
 1027TIP3    H2 3027   3.954   7.373   1.448
 1028TIP3   OH2 3028   5.733   3.100   0.946
 1028TIP3    H1 3029   5.690   3.141   1.021
 1028TIP3    H2 3030   5.821   3.139   0.946
 1029TIP3   OH2 3031   3.029   5.368   2.505
 1029TIP3    H1 3032   3.009   5.460   2.487
 1029TIP3    H2 3033   3.102   5.348   2.447
 1030TIP3   OH2 3034   6.336   3.230   4.579
 1030TIP3    H1 3035   6.317   3.228   4.673
 1030TIP3    H2 3036   6.266   3.282   4.541
 1031TIP3   OH2 3037   4.919   3.181   2.422
 1031TIP3    H1 3038   5.005   3.197   2.383
 1031TIP3    H2 3039   4.869   3.137   2.352
 1032TIP3   OH2 3040   4.432   6.073   0.438
 1032TIP3    H1 3041   4.454   6.040   0.525
 1032TIP3    H2 3042   4.381   6.003   0.398
 1033TIP3   OH2 3043   4.741   3.202   1.085
 1033TIP3    H1 3044   4.705   3.186   0.998
 1033TIP3    H2 3045   4.834   3.219   1.069
 1034TIP3   OH2 3046   5.421   3.919   5.239
 1034TIP3    H1 3047   5.328   3.930   5.259
 1034TIP3    H2 3048   5.440   3.828   5.263
 1035TIP3   OH2 3049   0.880   2.424   0.287
 1035TIP3    H1 3050   0.934   2.430   0.366
 1035TIP3    H2 3051   0.907   2.342   0.246
 1036TIP3   OH2 3052  -0.014   5.220   0.828
 1036TIP3    H1 3053   0.043   5.295   0.842
 1036TIP3    H2 3054   0.043   5.144   0.842
 1037TIP3   OH2 3055   2.234   6.503   2.215
 1037TIP3    H1 3056   2.205   6.487   2.125
 1037TIP3    H2 3057   2.321   6.541   2.205
 1038TIP3   OH2 3058   2.654   1.762   3.400
 1038TIP3    H1 3059   2.704   1.717   3.332
 1038TIP3    H2 3060   2.707   1.839   3.422
 1039TIP3   OH2 3061   4.128   4.975   4.930
 1039TIP3    H1 3062   4.167   4.895   4.965
 1039TIP3    H2 3063   4.036   4.952   4.917
 1040TIP3   OH2 3064   4.784   4.959   3.452
 1040TIP3    H1 3065   4.707   5.011   3.426
 1040TIP3    H2 3066   4.789   4.891   3.385
 1041TIP3   OH2 3067   5.687   1.189   1.453
 1041TIP3    H1 3068   5.757   1.199   1.518
 1041TIP3    H2 3069   5.730   1.148   1.378
 1042TIP3   OH2 3070   1.760   5.877   0.543
 1042TIP3    H1 3071   1.835   5.908   0.493
 1042TIP3    H2 3072   1.712   5.821   0.482
 1043TIP3   OH2 3073   4.346   1.223   4.013
 1043TIP3    H1 3074   4.436   1.223   3.981
 1043TIP3    H2 3075   4.319   1.132   4.009
 1044TIP3   OH2 3076   7.502   6.883   2.389
 1044TIP3    H1 3077   7.523   6.851   2.477
 1044TIP3    H2 3078   7.444   6.958   2.404
 1045TIP3   OH2 3079   1.993   1.011   3.008
 1045TIP3    H1 3080   1.997   1.103   3.033
 1045TIP3    H2 3081   2.060   0.968   3.062
 1046TIP3   OH2 3082   6.371   3.744   3.558
 1046TIP3    H1 3083   6.352   3.793   3.638
 1046TIP3    H2 3084   6.294   3.690   3.544
 1047TIP3   OH2 3085   3.461   6.238   4.985
 1047TIP3    H1 3086   3.516   6.162   5.003
 1047TIP3    H2 3087   3.501   6.280   4.908
 1048TIP3   OH2 3088   4.950   6.268   5.655
 1048TIP3    H1 3089   4.959   6.334   5.724
 1048TIP3    H2 3090   4.954   6.317   5.573
 1049TIP3   OH2 3091   3.711   0.803   3.531
 1049TIP3    H1 3092   3.773   0.841   3.593
 1049TIP3    H2 3093   3.636   0.862   3.533
 1050TIP3   OH2 3094   7.792   2.546   3.027
 1050TIP3    H1 3095   7.736   2.593   3.089
 1050TIP3    H2 3096   7.832   2.615   2.974
 1051TIP3   OH2 3097   4.804   5.617   6.184
 1051TIP3    H1 3098   4.841   5.678   6.249
 1051TIP3    H2 3099   4.716   5.649   6.169
 1052TIP3   OH2 3100   5.871   3.722   3.495
 1052TIP3    H1 3101   5.802   3.658   3.510
 1052TIP3    H2 3102   5.940   3.698   3.558
 1053TIP3   OH2 3103   0.766   7.687   0.903
 1053TIP3    H1 3104   0.815   7.657   0.980
 1053TIP3    H2 3105   0.777   7.616   0.839
 1054TIP3   OH2 3106   7.923   2.369   5.171
 1054TIP3    H1 3107   7.987   2.438   5.150
 1054TIP3    H2 3108   7.971   2.288   5.156
 1055TIP3   OH2 3109   0.907   0.635   0.831
 1055TIP3    H1 3110   0.924   0.562   0.890
 1055TIP3    H2 3111   0.958   0.614   0.753
 1056TIP3   OH2 3112   4.403   4.125   2.302
 1056TIP3    H1 3113   4.493   4.155   2.316
 1056TIP3    H2 3114   4.376   4.168   2.221
 1057TIP3   OH2 3115   5.311   4.988   4.027
 1057TIP3    H1 3116   5.220   4.993   4.000
 1057TIP3    H2 3117   5.319   4.904   4.072
 1058TIP3   OH2 3118   3.786   2.105   5.790
 1058TIP3    H1 3119   3.820   2.171   5.730
 1058TIP3    H2 3120   3.863   2.077   5.841
 1059TIP3   OH2 3121   4.176   3.992   5.460
 1059TIP3    H1 3122   4.256   4.010   5.411
 1059TIP3    H2 3123   4.107   3.997   5.394
 1060TIP3   OH2 3124   6.377   4.979   3.767
 1060TIP3    H1 3125   6.458   4.952   3.725
 1060TIP3    H2 3126   6.396   4.973   3.861
 1061TIP3   OH2 3127   1.956   0.330   3.434
 1061TIP3    H1 3128   1.886   0.386   3.399
 1061TIP3    H2 3129   1.913   0.247   3.453
 1062TIP3   OH2 3130   4.722   7.357   3.172
 1062TIP3    H1 3131   4.660   7.420   3.136
 1062TIP3    H2 3132   4.756   7.400   3.251
 1063TIP3   OH2 3133   8.320   7.251   5.602
 1063TIP3    H1 3134   8.317   7.180   5.538
 1063TIP3    H2 3135   8.236   7.296   5.591
 1064TIP3   OH2 3136   4.375   2.436   2.607
 1064TIP3    H1 3137   4.461   2.428   2.564
 1064TIP3    H2 3138   4.395   2.463   2.696
 1065TIP3   OH2 3139   4.917   7.033   4.490
 1065TIP3    H1 3140   4.883   6.946   4.509
 1065TIP3    H2 3141   4.948   7.066   4.574
 1066TIP3   OH2 3142   6.840   2.496   1.693
 1066TIP3    H1 3143   6.835   2.547   1.774
 1066TIP3    H2 3144   6.795   2.550   1.628
 1067TIP3   OH2 3145   2.239   7.059   3.632
 1067TIP3    H1 3146   2.310   6.997   3.644
 1067TIP3    H2 3147   2.169   7.009   3.591
 1068TIP3   OH2 3148   5.722   6.547   1.021
 1068TIP3    H1 3149   5.775   6.620   0.989
 1068TIP3    H2 3150   5.658   6.531   0.951
 1069TIP3   OH2 3151   2.607   1.336   4.922
 1069TIP3    H1 3152   2.581   1.408   4.864
 1069TIP3    H2 3153   2.643   1.270   4.864
 1070TIP3   OH2 3154   6.656   3.649   5.773
 1070TIP3    H1 3155   6.579   3.630   5.721
 1070TIP3    H2 3156   6.648   3.742   5.795
 1071TIP3   OH2 3157   4.625   0.879   3.634
 1071TIP3    H1 3158   4.534   0.897   3.656
 1071TIP3    H2 3159   4.654   0.816   3.701
 1072TIP3   OH2 3160   2.227   0.994   6.707
 1072TIP3    H1 3161   2.272   1.042   6.776
 1072TIP3    H2 3162   2.265   0.906   6.711
 1073TIP3   OH2 3163   3.576   7.616   4.480
 1073TIP3    H1 3164   3.491   7.643   4.515
 1073TIP3    H2 3165   3.640   7.647   4.544
 1074TIP3   OH2 3166   6.770   1.240   1.543
 1074TIP3    H1 3167   6.857   1.266   1.511
 1074TIP3    H2 3168   6.781   1.148   1.568
 1075TIP3   OH2 3169   6.150   0.612   1.279
 1075TIP3    H1 3170   6.096   0.661   1.217
 1075TIP3    H2 3171   6.210   0.562   1.224
 1076TIP3   OH2 3172   6.851   4.976   3.833
 1076TIP3    H1 3173   6.908   5.003   3.904
 1076TIP3    H2 3174   6.866   4.883   3.823
 1077TIP3   OH2 3175   7.174   6.491   0.485
 1077TIP3    H1 3176   7.192   6.545   0.408
 1077TIP3    H2 3177   7.185   6.401   0.455
 1078TIP3   OH2 3178   6.339   5.202   1.275
 1078TIP3    H1 3179   6.317   5.142   1.347
 1078TIP3    H2 3180   6.255   5.221   1.234
 1079TIP3   OH2 3181   7.207   6.375   2.360
 1079TIP3    H1 3182   7.249   6.316   2.297
 1079TIP3    H2 3183   7.150   6.430   2.306
 1080TIP3   OH2 3184   8.230   3.153   4.932
 1080TIP3    H1 3185   8.203   3.236   4.972
 1080TIP3    H2 3186   8.190   3.154   4.845
 1081TIP3   OH2 3187   4.615   5.759   0.311
 1081TIP3    H1 3188   4.589   5.693   0.376
 1081TIP3    H2 3189   4.558   5.743   0.236
 1082TIP3   OH2 3190   3.506   4.883   1.145
 1082TIP3    H1 3191   3.559   4.910   1.070
 1082TIP3    H2 3192   3.441   4.823   1.108
 1083TIP3   OH2 3193   3.880   6.574   3.255
 1083TIP3    H1 3194   3.851   6.590   3.165
 1083TIP3    H2 3195   3.942   6.502   3.249
 1084TIP3   OH2 3196   8.242   3.850   4.330
 1084TIP3    H1 3197   8.258   3.936   4.291
 1084TIP3    H2 3198   8.157   3.860   4.375
 1085TIP3   OH2 3199   5.443   3.341   3.300
 1085TIP3    H1 3200   5.435   3.366   3.208
 1085TIP3    H2 3201   5.380   3.396   3.346
 1086TIP3   OH2 3202   1.222   3.282   3.812
 1086TIP3    H1 3203   1.205   3.304   3.720
 1086TIP3    H2 3204   1.136   3.257   3.846
 1087TIP3   OH2 3205   5.067   7.568   2.115
 1087TIP3    H1 3206   5.147   7.539   2.159
 1087TIP3    H2 3207   5.004   7.497   2.130
 1088TIP3   OH2 3208   0.735   3.908   5.326
 1088TIP3    H1 3209   0.709   3.830   5.277
 1088TIP3    H2 3210   0.813   3.881   5.374
 1089TIP3   OH2 3211   0.147   5.173   1.087
 1089TIP3    H1 3212   0.155   5.257   1.042
 1089TIP3    H2 3213   0.150   5.196   1.180
 1090TIP3   OH2 3214   3.693   3.899   2.523
 1090TIP3    H1 3215   3.737   3.843   2.587
 1090TIP3    H2 3216   3.687   3.984   2.567
 1091TIP3   OH2 3217   3.623   6.674   3.669
 1091TIP3    H1 3218   3.629   6.580   3.687
 1091TIP3    H2 3219   3.589   6.712   3.750
 1092TIP3   OH2 3220   0.730   7.501   5.387
 1092TIP3    H1 3221   0.764   7.582   5.424
 1092TIP3    H2 3222   0.635   7.510   5.392
 1093TIP3   OH2 3223   0.306   4.462   2.914
 1093TIP3    H1 3224   0.239   4.434   2.851
 1093TIP3    H2 3225   0.289   4.408   2.992
 1094TIP3   OH2 3226   7.202   0.144   4.823
 1094TIP3    H1 3227   7.156   0.225   4.845
 1094TIP3    H2 3228   7.164   0.078   4.881
 1095TIP3   OH2 3229   7.705   6.888   6.511
 1095TIP3    H1 3230   7.655   6.945   6.570
 1095TIP3    H2 3231   7.716   6.940   6.431
 1096TIP3   OH2 3232   5.325   7.732   0.341
 1096TIP3    H1 3233   5.277   7.810   0.312
 1096TIP3    H2 3234   5.386   7.713   0.270
 1097TIP3   OH2 3235   2.780   6.421   2.308
 1097TIP3    H1 3236   2.739   6.345   2.268
 1097TIP3    H2 3237   2.722   6.494   2.286
 1098TIP3   OH2 3238   8.009   6.472   4.943
 1098TIP3    H1 3239   7.922   6.459   4.906
 1098TIP3    H2 3240   8.052   6.532   4.883
 1099TIP3   OH2 3241   2.903   4.640   6.072
 1099TIP3    H1 3242   2.868   4.586   6.001
 1099TIP3    H2 3243   2.931   4.721   6.030
 1100TIP3   OH2 3244   2.038   3.789   5.863
 1100TIP3    H1 3245   2.124   3.802   5.822
 1100TIP3    H2 3246   2.048   3.708   5.914
 1101TIP3   OH2 3247   6.228   2.216   2.407
 1101TIP3    H1 3248   6.271   2.138   2.443
 1101TIP3    H2 3249   6.160   2.237   2.471
 1102TIP3   OH2 3250   0.876   7.004   6.108
 1102TIP3    H1 3251   0.826   7.017   6.028
 1102TIP3    H2 3252   0.849   7.075   6.166
 1103TIP3   OH2 3253   2.815   1.181   6.726
 1103TIP3    H1 3254   2.780   1.224   6.648
 1103TIP3    H2 3255   2.895   1.230   6.747
 1104TIP3   OH2 3256   5.950   6.755   0.912
 1104TIP3    H1 3257   5.995   6.750   0.828
 1104TIP3    H2 3258   6.021   6.760   0.976
 1105TIP3   OH2 3259   0.464   2.051   4.521
 1105TIP3    H1 3260   0.401   2.095   4.464
 1105TIP3    H2 3261   0.453   1.958   4.502
 1106TIP3   OH2 3262   7.435   6.427   6.756
 1106TIP3    H1 3263   7.474   6.467   6.833
 1106TIP3    H2 3264   7.499   6.363   6.726
 1107TIP3   OH2 3265   4.315   7.454   4.902
 1107TIP3    H1 3266   4.384   7.399   4.865
 1107TIP3    H2 3267   4.317   7.534   4.849
 1108TIP3   OH2 3268   2.658   6.915   3.473
 1108TIP3    H1 3269   2.730   6.912   3.535
 1108TIP3    H2 3270   2.579   6.917   3.527
 1109TIP3   OH2 3271   3.825   6.058   6.688
 1109TIP3    H1 3272   3.744   6.060   6.637
 1109TIP3    H2 3273   3.886   6.111   6.637
 1110TIP3   OH2 3274   3.069   2.827   1.673
 1110TIP3    H1 3275   3.063   2.732   1.673
 1110TIP3    H2 3276   3.046   2.853   1.762
 1111TIP3   OH2 3277   2.901   2.550   0.228
 1111TIP3    H1 3278   2.849   2.615   0.276
 1111TIP3    H2 3279   2.975   2.600   0.194
 1112TIP3   OH2 3280   1.878   3.527   4.409
 1112TIP3    H1 3281   1.817   3.455   4.424
 1112TIP3    H2 3282   1.825   3.593   4.364
 1113TIP3   OH2 3283   6.096   2.307   0.066
 1113TIP3    H1 3284   6.055   2.335  -0.016
 1113TIP3    H2 3285   6.084   2.381   0.126
 1114TIP3   OH2 3286   3.260   5.547   0.999
 1114TIP3    H1 3287   3.207   5.618   1.035
 1114TIP3    H2 3288   3.199   5.475   0.984
 1115TIP3   OH2 3289   0.993   5.890   6.648
 1115TIP3    H1 3290   1.021   5.962   6.591
 1115TIP3    H2 3291   1.019   5.918   6.736
 1116TIP3   OH2 3292   4.037   6.134   4.324
 1116TIP3    H1 3293   3.965   6.182   4.283
 1116TIP3    H2 3294   4.001   6.048   4.343
 1117TIP3   OH2 3295   3.146   2.559   6.044
 1117TIP3    H1 3296   3.227   2.518   6.015
 1117TIP3    H2 3297   3.090   2.559   5.966
 1118TIP3   OH2 3298   0.305   6.261   3.623
 1118TIP3    H1 3299   0.209   6.258   3.619
 1118TIP3    H2 3300   0.329   6.184   3.674
 1119TIP3   OH2 3301   0.311   6.111   6.330
 1119TIP3    H1 3302   0.396   6.133   6.367
 1119TIP3    H2 3303   0.330   6.053   6.256
 1120TIP3   OH2 3304   6.115   1.886   5.930
 1120TIP3    H1 3305   6.034   1.885   5.879
 1120TIP3    H2 3306   6.125   1.796   5.960
 1121TIP3   OH2 3307   3.307   4.948   0.420
 1121TIP3    H1 3308   3.314   4.974   0.328
 1121TIP3    H2 3309   3.396   4.921   0.444
 1122TIP3   OH2 3310   1.400   0.931   4.734
 1122TIP3    H1 3311   1.491   0.907   4.720
 1122TIP3    H2 3312   1.372   0.969   4.651
 1123TIP3   OH2 3313   7.779   5.768   3.862
 1123TIP3    H1 3314   7.827   5.695   3.824
 1123TIP3    H2 3315   7.815   5.846   3.819
 1124TIP3   OH2 3316   4.951   1.580   0.629
 1124TIP3    H1 3317   4.873   1.556   0.579
 1124TIP3    H2 3318   4.929   1.560   0.720
 1125TIP3   OH2 3319   5.706   4.388   2.401
 1125TIP3    H1 3320   5.759   4.468   2.410
 1125TIP3    H2 3321   5.620   4.419   2.376
 1126TIP3   OH2 3322   3.870   5.903   2.182
 1126TIP3    H1 3323   3.939   5.876   2.241
 1126TIP3    H2 3324   3.885   5.852   2.102
 1127TIP3   OH2 3325   3.533   5.429   1.880
 1127TIP3    H1 3326   3.468   5.360   1.872
 1127TIP3    H2 3327   3.516   5.487   1.805
 1128TIP3   OH2 3328   7.599   5.661   2.892
 1128TIP3    H1 3329   7.626   5.723   2.824
 1128TIP3    H2 3330   7.658   5.587   2.882
 1129TIP3   OH2 3331   1.058   7.812   2.490
 1129TIP3    H1 3332   1.105   7.860   2.558
 1129TIP3    H2 3333   1.094   7.723   2.494
 1130TIP3   OH2 3334   7.079   6.811   1.999
 1130TIP3    H1 3335   7.047   6.742   1.940
 1130TIP3    H2 3336   7.022   6.886   1.982
 1131TIP3   OH2 3337   0.503   0.172   3.055
 1131TIP3    H1 3338   0.460   0.258   3.057
 1131TIP3    H2 3339   0.596   0.192   3.053
 1132TIP3   OH2 3340   4.851   3.409   0.382
 1132TIP3    H1 3341   4.808   3.448   0.306
 1132TIP3    H2 3342   4.828   3.468   0.454
 1133TIP3   OH2 3343   0.380   3.582   6.759
 1133TIP3    H1 3344   0.295   3.567   6.717
 1133TIP3    H2 3345   0.443   3.541   6.699
 1134TIP3   OH2 3346   0.928   3.646   6.520
 1134TIP3    H1 3347   1.002   3.697   6.487
 1134TIP3    H2 3348   0.872   3.633   6.444
 1135TIP3   OH2 3349   7.101   2.643   2.321
 1135TIP3    H1 3350   7.026   2.670   2.375
 1135TIP3    H2 3351   7.076   2.557   2.287
 1136TIP3   OH2 3352   5.853   2.650   6.783
 1136TIP3    H1 3353   5.799   2.729   6.786
 1136TIP3    H2 3354   5.916   2.666   6.713
 1137TIP3   OH2 3355   2.424   5.129   1.675
 1137TIP3    H1 3356   2.350   5.075   1.703
 1137TIP3    H2 3357   2.497   5.068   1.670
 1138TIP3   OH2 3358   3.447   6.535   0.246
 1138TIP3    H1 3359   3.458   6.503   0.156
 1138TIP3    H2 3360   3.503   6.612   0.251
 1139TIP3   OH2 3361   2.387   3.646   5.575
 1139TIP3    H1 3362   2.391   3.690   5.660
 1139TIP3    H2 3363   2.467   3.673   5.530
 1140TIP3   OH2 3364   4.149   6.860   4.889
 1140TIP3    H1 3365   4.076   6.898   4.940
 1140TIP3    H2 3366   4.189   6.935   4.845
 1141TIP3   OH2 3367   0.774   5.621   5.316
 1141TIP3    H1 3368   0.824   5.658   5.390
 1141TIP3    H2 3369   0.697   5.677   5.309
 1142TIP3   OH2 3370   7.999   1.148   6.414
 1142TIP3    H1 3371   7.971   1.205   6.486
 1142TIP3    H2 3372   8.092   1.132   6.430
 1143TIP3   OH2 3373   1.657   4.958   5.277
 1143TIP3    H1 3374   1.690   4.929   5.362
 1143TIP3    H2 3375   1.632   4.877   5.233
 1144TIP3   OH2 3376   5.671   2.665   3.169
 1144TIP3    H1 3377   5.603   2.620   3.119
 1144TIP3    H2 3378   5.680   2.750   3.127
 1145TIP3   OH2 3379   4.303   2.954   6.435
 1145TIP3    H1 3380   4.360   2.984   6.506
 1145TIP3    H2 3381   4.323   2.860   6.426
 1146TIP3   OH2 3382   1.414   5.047   5.990
 1146TIP3    H1 3383   1.510   5.046   5.997
 1146TIP3    H2 3384   1.394   4.972   5.935
 1147TIP3   OH2 3385   5.340   1.545   5.924
 1147TIP3    H1 3386   5.315   1.617   5.867
 1147TIP3    H2 3387   5.269   1.538   5.988
 1148TIP3   OH2 3388   3.637   4.101   3.616
 1148TIP3    H1 3389   3.677   4.016   3.596
 1148TIP3    H2 3390   3.545   4.081   3.635
 1149TIP3   OH2 3391   1.603   3.153   4.253
 1149TIP3    H1 3392   1.688   3.109   4.255
 1149TIP3    H2 3393   1.591   3.176   4.161
 1150TIP3   OH2 3394   2.018   6.264   3.749
 1150TIP3    H1 3395   2.006   6.194   3.685
 1150TIP3    H2 3396   1.986   6.343   3.706
 1151TIP3   OH2 3397   5.323   1.120   5.799
 1151TIP3    H1 3398   5.283   1.048   5.749
 1151TIP3    H2 3399   5.343   1.081   5.884
 1152TIP3   OH2 3400   0.572   1.347   2.552
 1152TIP3    H1 3401   0.482   1.361   2.521
 1152TIP3    H2 3402   0.604   1.435   2.570
 1153TIP3   OH2 3403   1.291   0.136   4.892
 1153TIP3    H1 3404   1.345   0.149   4.815
 1153TIP3    H2 3405   1.278   0.042   4.897
 1154TIP3   OH2 3406   4.936   1.210   3.583
 1154TIP3    H1 3407   4.891   1.193   3.666
 1154TIP3    H2 3408   4.900   1.294   3.553
 1155TIP3   OH2 3409   3.904   0.123   6.309
 1155TIP3    H1 3410   3.855   0.069   6.246
 1155TIP3    H2 3411   3.969   0.063   6.346
 1156TIP3   OH2 3412   6.721   0.315   1.187
 1156TIP3    H1 3413   6.799   0.276   1.148
 1156TIP3    H2 3414   6.755   0.377   1.252
 1157TIP3   OH2 3415   1.439   4.631   0.634
 1157TIP3    H1 3416   1.374   4.655   0.568
 1157TIP3    H2 3417   1.393   4.570   0.692
 1158TIP3   OH2 3418   4.079   1.058   2.943
 1158TIP3    H1 3419   4.015   1.068   3.013
 1158TIP3    H2 3420   4.090   1.147   2.908
 1159TIP3   OH2 3421   5.592   7.699   3.375
 1159TIP3    H1 3422   5.644   7.721   3.452
 1159TIP3    H2 3423   5.657   7.675   3.309
 1160TIP3   OH2 3424   3.913   1.755   2.043
 1160TIP3    H1 3425   3.935   1.755   1.950
 1160TIP3    H2 3426   3.846   1.822   2.052
 1161TIP3   OH2 3427   0.950   2.396   1.960
 1161TIP3    H1 3428   0.952   2.308   1.921
 1161TIP3    H2 3429   0.912   2.383   2.047
 1162TIP3   OH2 3430   5.201   0.038   0.682
 1162TIP3    H1 3431   5.216   0.068   0.772
 1162TIP3    H2 3432   5.192  -0.057   0.690
 1163TIP3   OH2 3433   1.861   5.284   1.806
 1163TIP3    H1 3434   1.816   5.201   1.822
 1163TIP3    H2 3435   1.801   5.350   1.838
 1164TIP3   OH2 3436   2.283   4.335   6.488
 1164TIP3    H1 3437   2.242   4.251   6.471
 1164TIP3    H2 3438   2.301   4.334   6.582
 1165TIP3   OH2 3439   3.426   2.325   3.915
 1165TIP3    H1 3440   3.373   2.258   3.960
 1165TIP3    H2 3441   3.425   2.400   3.975
 1166TIP3   OH2 3442   5.481   3.034   5.436
 1166TIP3    H1 3443   5.465   2.967   5.503
 1166TIP3    H2 3444   5.526   2.987   5.365
 1167TIP3   OH2 3445   6.296   0.504   1.939
 1167TIP3    H1 3446   6.355   0.510   1.864
 1167TIP3    H2 3447   6.241   0.582   1.934
 1168TIP3   OH2 3448   1.786   6.443   1.671
 1168TIP3    H1 3449   1.882   6.441   1.660
 1168TIP3    H2 3450   1.773   6.420   1.763
 1169TIP3   OH2 3451   6.921   4.561   3.165
 1169TIP3    H1 3452   6.834   4.519   3.165
 1169TIP3    H2 3453   6.902   4.655   3.169
 1170TIP3   OH2 3454   7.044   4.639  -0.033
 1170TIP3    H1 3455   6.974   4.609   0.026
 1170TIP3    H2 3456   7.125   4.626   0.017
 1171TIP3   OH2 3457   3.401   7.073   4.387
 1171TIP3    H1 3458   3.473   7.072   4.324
 1171TIP3    H2 3459   3.382   7.166   4.399
 1172TIP3   OH2 3460   4.794   0.293   3.285
 1172TIP3    H1 3461   4.824   0.214   3.330
 1172TIP3    H2 3462   4.732   0.333   3.345
 1173TIP3   OH2 3463   6.087   3.978   4.660
 1173TIP3    H1 3464   6.078   3.942   4.749
 1173TIP3    H2 3465   6.147   3.918   4.616
 1174TIP3   OH2 3466   6.558   4.704   1.683
 1174TIP3    H1 3467   6.512   4.700   1.599
 1174TIP3    H2 3468   6.589   4.794   1.689
 1175TIP3   OH2 3469   3.938   7.671   1.907
 1175TIP3    H1 3470   3.936   7.576   1.906
 1175TIP3    H2 3471   3.864   7.696   1.963
 1176TIP3   OH2 3472   3.058   1.159   2.154
 1176TIP3    H1 3473   3.028   1.234   2.103
 1176TIP3    H2 3474   3.154   1.164   2.149
 1177TIP3   OH2 3475   5.050   2.592   0.141
 1177TIP3    H1 3476   5.033   2.587   0.047
 1177TIP3    H2 3477   4.963   2.598   0.181
 1178TIP3   OH2 3478   1.915   0.830   4.056
 1178TIP3    H1 3479   1.953   0.796   4.137
 1178TIP3    H2 3480   1.847   0.891   4.086
 1179TIP3   OH2 3481   4.784   3.601   6.544
 1179TIP3    H1 3482   4.837   3.549   6.483
 1179TIP3    H2 3483   4.847   3.634   6.608
 1180TIP3   OH2 3484   0.055   5.514   3.170
 1180TIP3    H1 3485   0.080   5.591   3.120
 1180TIP3    H2 3486   0.071   5.538   3.261
 1181TIP3   OH2 3487   5.521   5.288   6.222
 1181TIP3    H1 3488   5.432   5.323   6.221
 1181TIP3    H2 3489   5.554   5.310   6.310
 1182TIP3   OH2 3490   3.947   5.664   3.312
 1182TIP3    H1 3491   3.855   5.665   3.341
 1182TIP3    H2 3492   3.983   5.584   3.350
 1183TIP3   OH2 3493   0.097   2.156   1.594
 1183TIP3    H1 3494   0.005   2.129   1.589
 1183TIP3    H2 3495   0.118   2.183   1.505
 1184TIP3   OH2 3496   2.539   0.662   3.541
 1184TIP3    H1 3497   2.468   0.630   3.486
 1184TIP3    H2 3498   2.607   0.595   3.535
 1185TIP3   OH2 3499   3.385   2.077   4.319
 1185TIP3    H1 3500   3.425   2.155   4.357
 1185TIP3    H2 3501   3.297   2.074   4.356
 1186TIP3   OH2 3502   7.931   5.729   1.771
 1186TIP3    H1 3503   7.968   5.817   1.770
 1186TIP3    H2 3504   7.887   5.722   1.855
 1187TIP3   OH2 3505   4.326   6.429   3.107
 1187TIP3    H1 3506   4.314   6.508   3.159
 1187TIP3    H2 3507   4.406   6.389   3.142
 1188TIP3   OH2 3508   4.607   2.881   3.134
 1188TIP3    H1 3509   4.580   2.939   3.063
 1188TIP3    H2 3510   4.648   2.939   3.198
 1189TIP3   OH2 3511   5.121   2.819   6.098
 1189TIP3    H1 3512   5.180   2.842   6.169
 1189TIP3    H2 3513   5.052   2.885   6.101
 1190TIP3   OH2 3514   7.176   4.498   4.135
 1190TIP3    H1 3515   7.147   4.468   4.049
 1190TIP3    H2 3516   7.262   4.536   4.119
 1191TIP3   OH2 3517   5.297   5.644   0.458
 1191TIP3    H1 3518   5.203   5.626   0.460
 1191TIP3    H2 3519   5.305   5.733   0.493
 1192TIP3   OH2 3520   3.567   4.979   6.035
 1192TIP3    H1 3521   3.640   4.940   5.988
 1192TIP3    H2 3522   3.573   4.942   6.123
 1193TIP3   OH2 3523   4.457   5.606   5.065
 1193TIP3    H1 3524   4.532   5.549   5.050
 1193TIP3    H2 3525   4.398   5.589   4.991
 1194TIP3   OH2 3526   1.720   5.209   5.141
 1194TIP3    H1 3527   1.714   5.134   5.201
 1194TIP3    H2 3528   1.699   5.173   5.056
 1195TIP3   OH2 3529   7.467   7.014   0.503
 1195TIP3    H1 3530   7.380   7.053   0.512
 1195TIP3    H2 3531   7.462   6.960   0.424
 1196TIP3   OH2 3532   0.048   0.793   2.335
 1196TIP3    H1 3533  -0.006   0.715   2.341
 1196TIP3    H2 3534   0.120   0.768   2.277
 1197TIP3   OH2 3535   0.497   4.052   4.781
 1197TIP3    H1 3536   0.421   4.106   4.758
 1197TIP3    H2 3537   0.552   4.109   4.835
 1198TIP3   OH2 3538   1.671   3.790   5.284
 1198TIP3    H1 3539   1.697   3.700   5.261
 1198TIP3    H2 3540   1.579   3.783   5.309
 1199TIP3   OH2 3541   2.087   4.050   0.859
 1199TIP3    H1 3542   2.123   4.137   0.875
 1199TIP3    H2 3543   2.160   4.000   0.822
 1200TIP3   OH2 3544   8.200   0.563   3.696
 1200TIP3    H1 3545   8.284   0.582   3.736
 1200TIP3    H2 3546   8.136   0.609   3.750
 1201TIP3   OH2 3547   2.408   5.267   0.727
 1201TIP3    H1 3548   2.379   5.209   0.797
 1201TIP3    H2 3549   2.490   5.305   0.759
 1202TIP3   OH2 3550   7.688   3.203   0.399
 1202TIP3    H1 3551   7.597   3.231   0.400
 1202TIP3    H2 3552   7.718   3.216   0.489
 1203TIP3   OH2 3553   2.492   6.207   2.568
 1203TIP3    H1 3554   2.408   6.161   2.559
 1203TIP3    H2 3555   2.500   6.256   2.486
 1204TIP3   OH2 3556   2.116   5.394   2.289
 1204TIP3    H1 3557   2.047   5.330   2.275
 1204TIP3    H2 3558   2.094   5.466   2.229
 1205TIP3   OH2 3559   2.701   5.646   4.404
 1205TIP3    H1 3560   2.757   5.670   4.478
 1205TIP3    H2 3561   2.654   5.727   4.383
 1206TIP3   OH2 3562   4.233   0.603   0.160
 1206TIP3    H1 3563   4.317   0.648   0.169
 1206TIP3    H2 3564   4.167   0.673   0.166
 1207TIP3   OH2 3565   0.727   2.832   2.641
 1207TIP3    H1 3566   0.778   2.877   2.708
 1207TIP3    H2 3567   0.664   2.898   2.610
 1208TIP3   OH2 3568   4.503   1.632   6.518
 1208TIP3    H1 3569   4.501   1.626   6.423
 1208TIP3    H2 3570   4.471   1.547   6.548
 1209TIP3   OH2 3571   2.523   5.682   6.752
 1209TIP3    H1 3572   2.551   5.598   6.787
 1209TIP3    H2 3573   2.445   5.663   6.700
 1210TIP3   OH2 3574   7.293   3.008   1.665
 1210TIP3    H1 3575   7.213   3.045   1.629
 1210TIP3    H2 3576   7.304   2.924   1.620
 1211TIP3   OH2 3577   0.754   5.311   1.286
 1211TIP3    H1 3578   0.846   5.312   1.260
 1211TIP3    H2 3579   0.737   5.220   1.311
 1212TIP3   OH2 3580   3.697   1.130   1.901
 1212TIP3    H1 3581   3.786   1.106   1.927
 1212TIP3    H2 3582   3.708   1.173   1.816
 1213TIP3   OH2 3583   3.910   1.554   2.208
 1213TIP3    H1 3584   3.879   1.579   2.295
 1213TIP3    H2 3585   3.918   1.636   2.160
 1214TIP3   OH2 3586   2.233   0.922   2.240
 1214TIP3    H1 3587   2.262   0.954   2.326
 1214TIP3    H2 3588   2.310   0.881   2.202
 1215TIP3   OH2 3589   5.930   4.192   0.676
 1215TIP3    H1 3590   5.977   4.275   0.675
 1215TIP3    H2 3591   5.844   4.214   0.711
 1216TIP3   OH2 3592   0.272   7.462   5.779
 1216TIP3    H1 3593   0.239   7.429   5.863
 1216TIP3    H2 3594   0.343   7.402   5.756
 1217TIP3   OH2 3595   6.223   1.812   4.327
 1217TIP3    H1 3596   6.219   1.821   4.422
 1217TIP3    H2 3597   6.306   1.768   4.311
 1218TIP3   OH2 3598   5.128   2.878   6.376
 1218TIP3    H1 3599   5.124   2.782   6.374
 1218TIP3    H2 3600   5.056   2.903   6.434
 1219TIP3   OH2 3601   1.350   7.151   1.488
 1219TIP3    H1 3602   1.292   7.076   1.496
 1219TIP3    H2 3603   1.419   7.122   1.429
 1220TIP3   OH2 3604   6.003   7.073   5.314
 1220TIP3    H1 3605   5.966   7.142   5.370
 1220TIP3    H2 3606   6.080   7.042   5.362
 1221TIP3   OH2 3607   7.848   7.789   0.087
 1221TIP3    H1 3608   7.857   7.751   0.175
 1221TIP3    H2 3609   7.889   7.875   0.093
 1222TIP3   OH2 3610   6.508   1.819   6.097
 1222TIP3    H1 3611   6.468   1.754   6.039
 1222TIP3    H2 3612   6.464   1.808   6.181
 1223TIP3   OH2 3613   1.931   7.014   1.980
 1223TIP3    H1 3614   2.014   7.061   1.972
 1223TIP3    H2 3615   1.866   7.083   1.993
 1224TIP3   OH2 3616   7.832   1.937   1.567
 1224TIP3    H1 3617   7.839   1.871   1.635
 1224TIP3    H2 3618   7.807   2.017   1.613
 1225TIP3   OH2 3619   0.969   2.508   0.543
 1225TIP3    H1 3620   0.925   2.569   0.602
 1225TIP3    H2 3621   1.061   2.512   0.568
 1226TIP3   OH2 3622   0.779   2.412   4.298
 1226TIP3    H1 3623   0.721   2.488   4.293
 1226TIP3    H2 3624   0.809   2.411   4.389
 1227TIP3   OH2 3625   5.372   6.443   3.961
 1227TIP3    H1 3626   5.341   6.361   3.998
 1227TIP3    H2 3627   5.303   6.506   3.981
 1228TIP3   OH2 3628   2.498   3.117   1.447
 1228TIP3    H1 3629   2.451   3.054   1.503
 1228TIP3    H2 3630   2.588   3.114   1.478
 1229TIP3   OH2 3631   0.753   7.247   1.922
 1229TIP3    H1 3632   0.702   7.175   1.885
 1229TIP3    H2 3633   0.817   7.204   1.979
 1230TIP3   OH2 3634   3.346   6.431   6.074
 1230TIP3    H1 3635   3.421   6.477   6.110
 1230TIP3    H2 3636   3.351   6.446   5.980
 1231TIP3   OH2 3637   7.988   4.367   5.794
 1231TIP3    H1 3638   8.010   4.274   5.793
 1231TIP3    H2 3639   7.894   4.369   5.809
 1232TIP3   OH2 3640   2.323   3.466   0.730
 1232TIP3    H1 3641   2.263   3.391   0.727
 1232TIP3    H2 3642   2.296   3.515   0.808
 1233TIP3   OH2 3643   2.546   5.624   3.123
 1233TIP3    H1 3644   2.617   5.582   3.171
 1233TIP3    H2 3645   2.532   5.707   3.171
 1234TIP3   OH2 3646   5.222   7.747   2.867
 1234TIP3    H1 3647   5.306   7.783   2.839
 1234TIP3    H2 3648   5.237   7.718   2.957
 1235TIP3   OH2 3649   4.743   3.254   5.361
 1235TIP3    H1 3650   4.749   3.332   5.305
 1235TIP3    H2 3651   4.822   3.257   5.415
 1236TIP3   OH2 3652   1.871   2.995   1.035
 1236TIP3    H1 3653   1.921   3.035   1.105
 1236TIP3    H2 3654   1.936   2.948   0.982
 1237TIP3   OH2 3655   1.671   1.168   0.637
 1237TIP3    H1 3656   1.580   1.187   0.659
 1237TIP3    H2 3657   1.678   1.189   0.544
 1238TIP3   OH2 3658   2.360   0.384   0.837
 1238TIP3    H1 3659   2.378   0.478   0.837
 1238TIP3    H2 3660   2.353   0.361   0.745
 1239TIP3   OH2 3661   6.506   5.200   1.789
 1239TIP3    H1 3662   6.479   5.217   1.698
 1239TIP3    H2 3663   6.598   5.173   1.781
 1240TIP3   OH2 3664   1.275   5.513   3.629
 1240TIP3    H1 3665   1.314   5.502   3.542
 1240TIP3    H2 3666   1.212   5.442   3.637
 1241TIP3   OH2 3667   8.010   6.740   3.342
 1241TIP3    H1 3668   7.982   6.830   3.361
 1241TIP3    H2 3669   7.928   6.691   3.332
 1242TIP3   OH2 3670   6.172   5.373   5.936
 1242TIP3    H1 3671   6.238   5.428   5.977
 1242TIP3    H2 3672   6.103   5.364   6.002
 1243TIP3   OH2 3673   0.773   0.449   2.296
 1243TIP3    H1 3674   0.852   0.483   2.255
 1243TIP3    H2 3675   0.790   0.356   2.307
 1244TIP3   OH2 3676   2.447   2.577   1.799
 1244TIP3    H1 3677   2.501   2.602   1.724
 1244TIP3    H2 3678   2.384   2.648   1.808
 1245TIP3   OH2 3679   6.870   1.332   3.900
 1245TIP3    H1 3680   6.846   1.383   3.977
 1245TIP3    H2 3681   6.852   1.391   3.826
 1246TIP3   OH2 3682   1.036   3.210   2.074
 1246TIP3    H1 3683   1.044   3.305   2.073
 1246TIP3    H2 3684   1.115   3.179   2.030
 1247TIP3   OH2 3685   4.099   7.346   3.128
 1247TIP3    H1 3686   4.069   7.318   3.215
 1247TIP3    H2 3687   4.022   7.383   3.087
 1248TIP3   OH2 3688   6.790   3.420   2.353
 1248TIP3    H1 3689   6.708   3.404   2.307
 1248TIP3    H2 3690   6.837   3.337   2.349
 1249TIP3   OH2 3691   8.070   0.300   3.863
 1249TIP3    H1 3692   8.132   0.361   3.823
 1249TIP3    H2 3693   7.987   0.346   3.862
 1250TIP3   OH2 3694   2.252   0.390   4.631
 1250TIP3    H1 3695   2.325   0.335   4.602
 1250TIP3    H2 3696   2.241   0.454   4.560
 1251TIP3   OH2 3697   3.834   0.598   0.451
 1251TIP3    H1 3698   3.869   0.612   0.539
 1251TIP3    H2 3699   3.842   0.683   0.408
 1252TIP3   OH2 3700   1.381   6.524   6.045
 1252TIP3    H1 3701   1.341   6.500   5.961
 1252TIP3    H2 3702   1.436   6.449   6.067
 1253TIP3   OH2 3703   2.607   1.959   1.990
 1253TIP3    H1 3704   2.700   1.982   1.993
 1253TIP3    H2 3705   2.607   1.863   1.980
 1254TIP3   OH2 3706   3.292   0.434   3.502
 1254TIP3    H1 3707   3.243   0.510   3.471
 1254TIP3    H2 3708   3.266   0.363   3.444
 1255TIP3   OH2 3709   7.782   2.893   0.100
 1255TIP3    H1 3710   7.789   2.911   0.006
 1255TIP3    H2 3711   7.695   2.854   0.111
 1256TIP3   OH2 3712   2.242   6.138   2.560
 1256TIP3    H1 3713   2.234   6.227   2.526
 1256TIP3    H2 3714   2.192   6.084   2.498
 1257TIP3   OH2 3715   6.498   0.479   6.353
 1257TIP3    H1 3716   6.575   0.439   6.312
 1257TIP3    H2 3717   6.511   0.573   6.340
 1258TIP3   OH2 3718   2.709   2.832   1.470
 1258TIP3    H1 3719   2.731   2.917   1.507
 1258TIP3    H2 3720   2.792   2.798   1.438
 1259TIP3   OH2 3721   5.047   4.234   6.114
 1259TIP3    H1 3722   5.012   4.323   6.111
 1259TIP3    H2 3723   4.988   4.182   6.060
 1260TIP3   OH2 3724   0.656   1.554   6.620
 1260TIP3    H1 3725   0.622   1.469   6.590
 1260TIP3    H2 3726   0.579   1.612   6.618
 1261TIP3   OH2 3727   0.843   0.998   3.936
 1261TIP3    H1 3728   0.930   1.033   3.923
 1261TIP3    H2 3729   0.856   0.903   3.943
 1262TIP3   OH2 3730   0.370   1.716   0.028
 1262TIP3    H1 3731   0.420   1.736   0.107
 1262TIP3    H2 3732   0.343   1.801  -0.006
 1263TIP3   OH2 3733   4.902   4.865   4.039
 1263TIP3    H1 3734   4.831   4.814   4.078
 1263TIP3    H2 3735   4.966   4.874   4.109
 1264TIP3   OH2 3736   0.800   1.424   4.515
 1264TIP3    H1 3737   0.853   1.353   4.549
 1264TIP3    H2 3738   0.716   1.383   4.492
 1265TIP3   OH2 3739   6.380   3.572   1.884
 1265TIP3    H1 3740   6.285   3.560   1.893
 1265TIP3    H2 3741   6.412   3.579   1.973
 1266TIP3   OH2 3742   2.109   4.887   5.939
 1266TIP3    H1 3743   2.040   4.856   5.998
 1266TIP3    H2 3744   2.178   4.821   5.947
 1267TIP3   OH2 3745   2.199   0.795   2.714
 1267TIP3    H1 3746   2.198   0.726   2.648
 1267TIP3    H2 3747   2.110   0.830   2.713
 1268TIP3   OH2 3748   4.711   5.834   2.322
 1268TIP3    H1 3749   4.785   5.889   2.294
 1268TIP3    H2 3750   4.744   5.744   2.314
 1269TIP3   OH2 3751   3.177   6.056   4.465
 1269TIP3    H1 3752   3.117   6.012   4.525
 1269TIP3    H2 3753   3.150   6.148   4.467
 1270TIP3   OH2 3754   3.113   5.549   3.012
 1270TIP3    H1 3755   3.023   5.568   2.986
 1270TIP3    H2 3756   3.137   5.472   2.960
 1271TIP3   OH2 3757   6.807   4.368   0.018
 1271TIP3    H1 3758   6.895   4.341   0.045
 1271TIP3    H2 3759   6.805   4.462   0.037
 1272TIP3   OH2 3760   2.582   3.144   1.041
 1272TIP3    H1 3761   2.627   3.070   1.083
 1272TIP3    H2 3762   2.632   3.220   1.070
 1273TIP3   OH2 3763   1.283   6.652   2.586
 1273TIP3    H1 3764   1.196   6.685   2.563
 1273TIP3    H2 3765   1.336   6.666   2.508
 1274TIP3   OH2 3766   3.916   1.751   1.079
 1274TIP3    H1 3767   3.983   1.709   1.027
 1274TIP3    H2 3768   3.876   1.815   1.020
 1275TIP3   OH2 3769   3.388   3.036   2.876
 1275TIP3    H1 3770   3.324   3.100   2.908
 1275TIP3    H2 3771   3.459   3.040   2.939
 1276TIP3   OH2 3772   5.731   3.249   2.732
 1276TIP3    H1 3773   5.656   3.198   2.760
 1276TIP3    H2 3774   5.807   3.200   2.763
 1277TIP3   OH2 3775   4.307   6.351   4.346
 1277TIP3    H1 3776   4.372   6.421   4.337
 1277TIP3    H2 3777   4.343   6.278   4.296
 1278TIP3   OH2 3778   0.210   1.245   1.946
 1278TIP3    H1 3779   0.260   1.174   1.906
 1278TIP3    H2 3780   0.124   1.207   1.966
 1279TIP3   OH2 3781   6.203   5.619   4.508
 1279TIP3    H1 3782   6.147   5.643   4.582
 1279TIP3    H2 3783   6.187   5.526   4.495
 1280TIP3   OH2 3784   3.885   4.514   3.638
 1280TIP3    H1 3785   3.917   4.541   3.725
 1280TIP3    H2 3786   3.871   4.420   3.646
 1281TIP3   OH2 3787   3.462   1.392   0.082
 1281TIP3    H1 3788   3.438   1.418   0.171
 1281TIP3    H2 3789   3.477   1.474   0.036
 1282TIP3   OH2 3790   0.617   4.752   2.928
 1282TIP3    H1 3791   0.637   4.673   2.978
 1282TIP3    H2 3792   0.524   4.744   2.907
 1283TIP3   OH2 3793   6.853   5.753   0.186
 1283TIP3    H1 3794   6.797   5.719   0.256
 1283TIP3    H2 3795   6.792   5.786   0.120
 1284TIP3   OH2 3796   6.185   1.471   3.503
 1284TIP3    H1 3797   6.280   1.475   3.511
 1284TIP3    H2 3798   6.165   1.534   3.434
 1285TIP3   OH2 3799   6.099   1.843   0.512
 1285TIP3    H1 3800   6.027   1.894   0.549
 1285TIP3    H2 3801   6.164   1.909   0.486
 1286TIP3   OH2 3802   2.265   0.133   4.883
 1286TIP3    H1 3803   2.285   0.148   4.975
 1286TIP3    H2 3804   2.306   0.206   4.837
 1287TIP3   OH2 3805   5.823   3.472   2.147
 1287TIP3    H1 3806   5.747   3.442   2.196
 1287TIP3    H2 3807   5.792   3.549   2.099
 1288TIP3   OH2 3808   6.484   0.782   5.794
 1288TIP3    H1 3809   6.561   0.732   5.822
 1288TIP3    H2 3810   6.520   0.856   5.746
 1289TIP3   OH2 3811   2.516   6.013   6.405
 1289TIP3    H1 3812   2.480   6.031   6.492
 1289TIP3    H2 3813   2.451   6.047   6.344
 1290TIP3   OH2 3814   7.426   4.867   0.450
 1290TIP3    H1 3815   7.437   4.801   0.518
 1290TIP3    H2 3816   7.378   4.823   0.380
 1291TIP3   OH2 3817   6.708   0.154   4.544
 1291TIP3    H1 3818   6.624   0.154   4.590
 1291TIP3    H2 3819   6.706   0.235   4.492
 1292TIP3   OH2 3820   2.138   3.925   1.709
 1292TIP3    H1 3821   2.127   3.925   1.804
 1292TIP3    H2 3822   2.226   3.961   1.695
 1293TIP3   OH2 3823   4.434   2.383   2.225
 1293TIP3    H1 3824   4.492   2.314   2.191
 1293TIP3    H2 3825   4.431   2.368   2.319
 1294TIP3   OH2 3826   2.275   1.788   4.624
 1294TIP3    H1 3827   2.210   1.857   4.638
 1294TIP3    H2 3828   2.274   1.773   4.530
 1295TIP3   OH2 3829   6.187   6.871   6.063
 1295TIP3    H1 3830   6.147   6.860   5.977
 1295TIP3    H2 3831   6.235   6.790   6.078
 1296TIP3   OH2 3832   5.222   7.341   6.427
 1296TIP3    H1 3833   5.315   7.318   6.426
 1296TIP3    H2 3834   5.180   7.266   6.469
 1297TIP3   OH2 3835   8.234   1.302   1.331
 1297TIP3    H1 3836   8.279   1.276   1.251
 1297TIP3    H2 3837   8.254   1.233   1.394
 1298TIP3   OH2 3838   0.832   6.516   3.648
 1298TIP3    H1 3839   0.776   6.491   3.721
 1298TIP3    H2 3840   0.800   6.465   3.574
 1299TIP3   OH2 3841   7.720   3.320   4.268
 1299TIP3    H1 3842   7.703   3.412   4.290
 1299TIP3    H2 3843   7.790   3.294   4.329
 1300TIP3   OH2 3844   4.619   6.194   1.140
 1300TIP3    H1 3845   4.614   6.146   1.057
 1300TIP3    H2 3846   4.553   6.153   1.195
 1301TIP3   OH2 3847   7.974   6.229   2.587
 1301TIP3    H1 3848   7.932   6.296   2.533
 1301TIP3    H2 3849   8.010   6.277   2.661
 1302TIP3   OH2 3850   4.502   4.011   3.890
 1302TIP3    H1 3851   4.537   4.094   3.921
 1302TIP3    H2 3852   4.501   3.955   3.967
 1303TIP3   OH2 3853   2.385   0.762   0.999
 1303TIP3    H1 3854   2.402   0.758   0.905
 1303TIP3    H2 3855   2.297   0.798   1.006
 1304TIP3   OH2 3856   0.077   5.750   2.993
 1304TIP3    H1 3857   0.094   5.842   2.971
 1304TIP3    H2 3858   0.032   5.715   2.916
 1305TIP3   OH2 3859   5.917   4.430   2.002
 1305TIP3    H1 3860   5.994   4.410   2.055
 1305TIP3    H2 3861   5.859   4.356   2.016
 1306TIP3   OH2 3862   6.209   2.985   3.842
 1306TIP3    H1 3863   6.239   2.910   3.790
 1306TIP3    H2 3864   6.133   3.018   3.794
 1307TIP3   OH2 3865   6.358   2.057   5.717
 1307TIP3    H1 3866   6.428   2.038   5.778
 1307TIP3    H2 3867   6.294   2.108   5.768
 1308TIP3   OH2 3868   6.386   4.654   3.935
 1308TIP3    H1 3869   6.386   4.742   3.898
 1308TIP3    H2 3870   6.413   4.665   4.026
 1309TIP3   OH2 3871   4.153   7.608   5.941
 1309TIP3    H1 3872   4.216   7.560   5.889
 1309TIP3    H2 3873   4.188   7.697   5.946
 1310TIP3   OH2 3874   3.539   1.600   1.305
 1310TIP3    H1 3875   3.627   1.637   1.301
 1310TIP3    H2 3876   3.547   1.515   1.260
 1311TIP3   OH2 3877   7.146   3.916   6.223
 1311TIP3    H1 3878   7.179   3.828   6.203
 1311TIP3    H2 3879   7.051   3.909   6.207
 1312TIP3   OH2 3880   4.260   0.049   2.274
 1312TIP3    H1 3881   4.188   0.020   2.218
 1312TIP3    H2 3882   4.339   0.036   2.221
 1313TIP3   OH2 3883   0.812   0.928   4.667
 1313TIP3    H1 3884   0.791   0.884   4.749
 1313TIP3    H2 3885   0.862   1.005   4.694
 1314TIP3   OH2 3886   3.818   1.702   5.744
 1314TIP3    H1 3887   3.821   1.787   5.699
 1314TIP3    H2 3888   3.788   1.723   5.833
 1315TIP3   OH2 3889   4.917   0.827   5.583
 1315TIP3    H1 3890   4.987   0.769   5.554
 1315TIP3    H2 3891   4.837   0.778   5.565
 1316TIP3   OH2 3892   4.126   3.409   6.691
 1316TIP3    H1 3893   4.042   3.419   6.647
 1316TIP3    H2 3894   4.171   3.492   6.676
 1317TIP3   OH2 3895   6.429   3.182   4.879
 1317TIP3    H1 3896   6.493   3.124   4.838
 1317TIP3    H2 3897   6.418   3.146   4.967
 1318TIP3   OH2 3898   3.866   5.257   1.779
 1318TIP3    H1 3899   3.887   5.221   1.865
 1318TIP3    H2 3900   3.776   5.232   1.763
 1319TIP3   OH2 3901   6.814   4.946   4.855
 1319TIP3    H1 3902   6.898   4.990   4.842
 1319TIP3    H2 3903   6.826   4.859   4.818
 1320TIP3   OH2 3904   0.012   4.176   1.209
 1320TIP3    H1 3905   0.022   4.154   1.116
 1320TIP3    H2 3906   0.102   4.179   1.243
 1321TIP3   OH2 3907   3.410   6.625   5.078
 1321TIP3    H1 3908   3.465   6.567   5.025
 1321TIP3    H2 3909   3.386   6.697   5.020
 1322TIP3   OH2 3910   5.711   0.104   3.736
 1322TIP3    H1 3911   5.658   0.148   3.670
 1322TIP3    H2 3912   5.790   0.076   3.690
 1323TIP3   OH2 3913   0.212   5.182   2.891
 1323TIP3    H1 3914   0.133   5.197   2.943
 1323TIP3    H2 3915   0.230   5.266   2.849
 1324TIP3   OH2 3916   3.643   3.820   5.480
 1324TIP3    H1 3917   3.631   3.880   5.554
 1324TIP3    H2 3918   3.737   3.803   5.478
 1325TIP3   OH2 3919   1.173   3.070   5.075
 1325TIP3    H1 3920   1.078   3.074   5.081
 1325TIP3    H2 3921   1.202   3.155   5.109
 1326TIP3   OH2 3922   8.109   2.477   2.903
 1326TIP3    H1 3923   8.192   2.509   2.868
 1326TIP3    H2 3924   8.055   2.461   2.825
 1327TIP3   OH2 3925   5.850   3.317   4.536
 1327TIP3    H1 3926   5.762   3.351   4.520
 1327TIP3    H2 3927   5.859   3.316   4.632
 1328TIP3   OH2 3928   6.447   1.478   3.259
 1328TIP3    H1 3929   6.514   1.431   3.210
 1328TIP3    H2 3930   6.434   1.425   3.338
 1329TIP3   OH2 3931   4.153   6.118   4.722
 1329TIP3    H1 3932   4.228   6.138   4.666
 1329TIP3    H2 3933   4.079   6.162   4.679
 1330TIP3   OH2 3934   0.133   7.281   2.572
 1330TIP3    H1 3935   0.052   7.238   2.597
 1330TIP3    H2 3936   0.158   7.333   2.648
 1331TIP3   OH2 3937   4.692   6.609   3.486
 1331TIP3    H1 3938   4.655   6.621   3.574
 1331TIP3    H2 3939   4.618   6.619   3.427
 1332TIP3   OH2 3940   1.779   0.016   1.223
 1332TIP3    H1 3941   1.702   0.022   1.166
 1332TIP3    H2 3942   1.767   0.086   1.287
 1333TIP3   OH2 3943   7.134   4.963   4.353
 1333TIP3    H1 3944   7.152   4.951   4.260
 1333TIP3    H2 3945   7.180   5.044   4.376
 1334TIP3   OH2 3946   5.184   4.058   4.215
 1334TIP3    H1 3947   5.196   4.028   4.305
 1334TIP3    H2 3948   5.247   4.005   4.164
 1335TIP3   OH2 3949   2.536   2.318   2.403
 1335TIP3    H1 3950   2.509   2.227   2.389
 1335TIP3    H2 3951   2.490   2.367   2.334
 1336TIP3   OH2 3952   3.745   6.089   5.067
 1336TIP3    H1 3953   3.738   6.184   5.066
 1336TIP3    H2 3954   3.730   6.065   5.159
 1337TIP3   OH2 3955   7.620   5.546   5.517
 1337TIP3    H1 3956   7.620   5.595   5.599
 1337TIP3    H2 3957   7.713   5.529   5.500
 1338TIP3   OH2 3958   6.453   0.075   0.180
 1338TIP3    H1 3959   6.360   0.057   0.194
 1338TIP3    H2 3960   6.462   0.085   0.085
 1339TIP3   OH2 3961   7.451   4.559   5.531
 1339TIP3    H1 3962   7.517   4.567   5.600
 1339TIP3    H2 3963   7.489   4.602   5.455
 1340TIP3   OH2 3964   2.652   3.253   5.511
 1340TIP3    H1 3965   2.699   3.305   5.576
 1340TIP3    H2 3966   2.566   3.295   5.504
 1341TIP3   OH2 3967   6.880   5.380   5.772
 1341TIP3    H1 3968   6.868   5.419   5.858
 1341TIP3    H2 3969   6.850   5.289   5.783
 1342TIP3   OH2 3970   7.369   2.968   6.224
 1342TIP3    H1 3971   7.315   2.958   6.145
 1342TIP3    H2 3972   7.419   2.887   6.229
 1343TIP3   OH2 3973   6.081   6.252   4.651
 1343TIP3    H1 3974   6.055   6.322   4.591
 1343TIP3    H2 3975   6.026   6.178   4.626
 1344TIP3   OH2 3976   3.478   5.510   0.635
 1344TIP3    H1 3977   3.555   5.531   0.688
 1344TIP3    H2 3978   3.445   5.428   0.673
 1345TIP3   OH2 3979   2.522   3.699   5.217
 1345TIP3    H1 3980   2.568   3.738   5.143
 1345TIP3    H2 3981   2.446   3.755   5.230
 1346TIP3   OH2 3982   7.561   2.704   2.266
 1346TIP3    H1 3983   7.563   2.622   2.315
 1346TIP3    H2 3984   7.637   2.700   2.209
 1347TIP3   OH2 3985   4.770   3.530   4.636
 1347TIP3    H1 3986   4.820   3.454   4.606
 1347TIP3    H2 3987   4.771   3.590   4.561
 1348TIP3   OH2 3988   2.943   2.990   6.528
 1348TIP3    H1 3989   2.877   3.053   6.499
 1348TIP3    H2 3990   2.960   2.937   6.450
 1349TIP3   OH2 3991   7.641   0.532   1.459
 1349TIP3    H1 3992   7.641   0.586   1.538
 1349TIP3    H2 3993   7.556   0.550   1.418
 1350TIP3   OH2 3994   3.981   6.327   1.642
 1350TIP3    H1 3995   4.039   6.402   1.657
 1350TIP3    H2 3996   3.922   6.327   1.716
 1351TIP3   OH2 3997   2.852   4.998   6.297
 1351TIP3    H1 3998   2.936   5.042   6.281
 1351TIP3    H2 3999   2.807   5.003   6.213
 1352TIP3   OH2 4000   1.045   3.247   1.673
 1352TIP3    H1 4001   0.996   3.293   1.741
 1352TIP3    H2 4002   1.083   3.317   1.619
 1353TIP3   OH2 4003   7.968   4.765   2.565
 1353TIP3    H1 4004   7.945   4.775   2.657
 1353TIP3    H2 4005   7.968   4.671   2.550
 1354TIP3   OH2 4006   4.897   7.250   3.351
 1354TIP3    H1 4007   4.872   7.333   3.391
 1354TIP3    H2 4008   4.845   7.245   3.271
 1355TIP3   OH2 4009   3.845   3.637   6.706
 1355TIP3    H1 4010   3.872   3.596   6.788
 1355TIP3    H2 4011   3.911   3.610   6.642
 1356TIP3   OH2 4012   1.962   2.966   3.912
 1356TIP3    H1 4013   2.029   3.011   3.861
 1356TIP3    H2 4014   2.009   2.898   3.960
 1357TIP3   OH2 4015   5.305   1.099   4.505
 1357TIP3    H1 4016   5.243   1.155   4.552
 1357TIP3    H2 4017   5.390   1.122   4.541
 1358TIP3   OH2 4018   8.157   2.371   3.850
 1358TIP3    H1 4019   8.172   2.465   3.860
 1358TIP3    H2 4020   8.216   2.330   3.914
 1359TIP3   OH2 4021   2.565   0.080   0.258
 1359TIP3    H1 4022   2.570   0.160   0.206
 1359TIP3    H2 4023   2.656   0.055   0.273
 1360TIP3   OH2 4024   1.729   5.673   5.759
 1360TIP3    H1 4025   1.678   5.689   5.680
 1360TIP3    H2 4026   1.678   5.609   5.808
 1361TIP3   OH2 4027   5.781   3.347   4.160
 1361TIP3    H1 4028   5.784   3.421   4.100
 1361TIP3    H2 4029   5.694   3.352   4.201
 1362TIP3   OH2 4030   5.441   1.240   4.827
 1362TIP3    H1 4031   5.461   1.307   4.762
 1362TIP3    H2 4032   5.474   1.276   4.909
 1363TIP3   OH2 4033   0.701   4.544   3.111
 1363TIP3    H1 4034   0.638   4.491   3.160
 1363TIP3    H2 4035   0.780   4.544   3.166
 1364TIP3   OH2 4036   8.143   4.791   0.745
 1364TIP3    H1 4037   8.107   4.859   0.802
 1364TIP3    H2 4038   8.137   4.828   0.657
 1365TIP3   OH2 4039   3.520   2.006   3.040
 1365TIP3    H1 4040   3.467   1.927   3.045
 1365TIP3    H2 4041   3.607   1.976   3.013
 1366TIP3   OH2 4042   7.985   5.260   3.882
 1366TIP3    H1 4043   8.022   5.229   3.965
 1366TIP3    H2 4044   8.062   5.276   3.827
 1367TIP3   OH2 4045   1.401   3.578   2.306
 1367TIP3    H1 4046   1.349   3.653   2.333
 1367TIP3    H2 4047   1.473   3.575   2.370
 1368TIP3   OH2 4048   6.102   6.288   3.591
 1368TIP3    H1 4049   6.034   6.306   3.526
 1368TIP3    H2 4050   6.177   6.341   3.563
 1369TIP3   OH2 4051   3.926   3.346   6.179
 1369TIP3    H1 4052   3.980   3.342   6.100
 1369TIP3    H2 4053   3.846   3.298   6.155
 1370TIP3   OH2 4054   3.119   6.717   1.718
 1370TIP3    H1 4055   3.114   6.640   1.662
 1370TIP3    H2 4056   3.162   6.783   1.664
 1371TIP3   OH2 4057   0.998   0.803   0.168
 1371TIP3    H1 4058   1.034   0.861   0.100
 1371TIP3    H2 4059   1.039   0.833   0.249
 1372TIP3   OH2 4060   6.935   4.530   1.990
 1372TIP3    H1 4061   7.000   4.460   1.988
 1372TIP3    H2 4062   6.976   4.602   1.941
 1373TIP3   OH2 4063   5.313   3.293   6.681
 1373TIP3    H1 4064   5.286   3.314   6.770
 1373TIP3    H2 4065   5.306   3.376   6.634
 1374TIP3   OH2 4066   4.449   4.710   6.700
 1374TIP3    H1 4067   4.415   4.624   6.724
 1374TIP3    H2 4068   4.498   4.739   6.778
 1375TIP3   OH2 4069   7.078   3.313   4.572
 1375TIP3    H1 4070   7.128   3.372   4.629
 1375TIP3    H2 4071   7.072   3.231   4.621
 1376TIP3   OH2 4072   7.182   6.752   2.486
 1376TIP3    H1 4073   7.145   6.804   2.415
 1376TIP3    H2 4074   7.240   6.690   2.441
 1377TIP3   OH2 4075   6.208   1.535   1.136
 1377TIP3    H1 4076   6.202   1.499   1.225
 1377TIP3    H2 4077   6.301   1.551   1.123
 1378TIP3   OH2 4078   4.111   7.753   2.105
 1378TIP3    H1 4079   4.056   7.785   2.176
 1378TIP3    H2 4080   4.051   7.734   2.034
 1379TIP3   OH2 4081   4.032   5.683   4.570
 1379TIP3    H1 4082   4.037   5.643   4.483
 1379TIP3    H2 4083   4.121   5.678   4.603
 1380TIP3   OH2 4084   8.275   0.711   0.023
 1380TIP3    H1 4085   8.331   0.698  -0.054
 1380TIP3    H2 4086   8.269   0.624   0.063
 1381TIP3   OH2 4087   2.620   2.297   0.387
 1381TIP3    H1 4088   2.617   2.325   0.296
 1381TIP3    H2 4089   2.666   2.213   0.386
 1382TIP3   OH2 4090   4.726   6.437   4.370
 1382TIP3    H1 4091   4.734   6.349   4.408
 1382TIP3    H2 4092   4.737   6.424   4.276
 1383TIP3   OH2 4093   5.455   1.435   1.034
 1383TIP3    H1 4094   5.444   1.400   0.945
 1383TIP3    H2 4095   5.371   1.418   1.077
 1384TIP3   OH2 4096   3.397   5.268   0.729
 1384TIP3    H1 4097   3.304   5.253   0.710
 1384TIP3    H2 4098   3.405   5.252   0.823
 1385TIP3   OH2 4099   0.792   2.059   4.083
 1385TIP3    H1 4100   0.734   2.097   4.149
 1385TIP3    H2 4101   0.880   2.070   4.120
 1386TIP3   OH2 4102   7.462   6.655   4.243
 1386TIP3    H1 4103   7.508   6.738   4.252
 1386TIP3    H2 4104   7.530   6.589   4.246
 1387TIP3   OH2 4105   5.025   6.440   1.565
 1387TIP3    H1 4106   4.986   6.352   1.567
 1387TIP3    H2 4107   5.119   6.424   1.571
 1388TIP3   OH2 4108   1.093   6.096   5.366
 1388TIP3    H1 4109   1.129   6.181   5.341
 1388TIP3    H2 4110   1.055   6.061   5.285
 1389TIP3   OH2 4111   3.744   0.202   5.382
 1389TIP3    H1 4112   3.792   0.165   5.308
 1389TIP3    H2 4113   3.653   0.201   5.353
 1390TIP3   OH2 4114   8.225   4.670   1.385
 1390TIP3    H1 4115   8.230   4.579   1.356
 1390TIP3    H2 4116   8.275   4.672   1.467
 1391TIP3   OH2 4117   4.373   7.580   1.390
 1391TIP3    H1 4118   4.384   7.507   1.452
 1391TIP3    H2 4119   4.400   7.544   1.306
 1392TIP3   OH2 4120   5.574   3.975   2.621
 1392TIP3    H1 4121   5.651   4.026   2.649
 1392TIP3    H2 4122   5.610   3.894   2.585
 1393TIP3   OH2 4123   6.415   0.176   6.403
 1393TIP3    H1 4124   6.380   0.230   6.332
 1393TIP3    H2 4125   6.366   0.205   6.480
 1394TIP3   OH2 4126   7.215   5.195   4.469
 1394TIP3    H1 4127   7.213   5.250   4.391
 1394TIP3    H2 4128   7.160   5.242   4.532
 1395TIP3   OH2 4129   2.408   5.011   4.758
 1395TIP3    H1 4130   2.344   5.062   4.806
 1395TIP3    H2 4131   2.459   4.966   4.825
 1396TIP3   OH2 4132   0.565   4.133   0.362
 1396TIP3    H1 4133   0.491   4.188   0.388
 1396TIP3    H2 4134   0.539   4.044   0.388
 1397TIP3   OH2 4135   3.909   7.257   6.381
 1397TIP3    H1 4136   4.001   7.266   6.407
 1397TIP3    H2 4137   3.910   7.268   6.286
 1398TIP3   OH2 4138   5.765   6.683   2.573
 1398TIP3    H1 4139   5.675   6.708   2.556
 1398TIP3    H2 4140   5.790   6.732   2.652
 1399TIP3   OH2 4141   7.565   7.267   3.378
 1399TIP3    H1 4142   7.559   7.355   3.413
 1399TIP3    H2 4143   7.478   7.249   3.342
 1400TIP3   OH2 4144   2.416   7.391   1.403
 1400TIP3    H1 4145   2.335   7.439   1.384
 1400TIP3    H2 4146   2.483   7.435   1.350
 1401TIP3   OH2 4147   5.588   0.486   5.555
 1401TIP3    H1 4148   5.549   0.445   5.478
 1401TIP3    H2 4149   5.570   0.579   5.545
 1402TIP3   OH2 4150   1.417   0.753   4.346
 1402TIP3    H1 4151   1.334   0.788   4.378
 1402TIP3    H2 4152   1.478   0.769   4.418
 1403TIP3   OH2 4153   0.722   1.527   0.402
 1403TIP3    H1 4154   0.769   1.444   0.399
 1403TIP3    H2 4155   0.781   1.587   0.446
 1404TIP3   OH2 4156   0.874   4.571   6.171
 1404TIP3    H1 4157   0.860   4.629   6.096
 1404TIP3    H2 4158   0.846   4.623   6.247
 1405TIP3   OH2 4159   4.299   5.018   3.321
 1405TIP3    H1 4160   4.363   5.078   3.360
 1405TIP3    H2 4161   4.316   5.022   3.227
 1406TIP3   OH2 4162   2.080   6.554   2.740
 1406TIP3    H1 4163   2.022   6.588   2.672
 1406TIP3    H2 4164   2.024   6.498   2.794
 1407TIP3   OH2 4165   0.650   1.932   6.233
 1407TIP3    H1 4166   0.565   1.977   6.237
 1407TIP3    H2 4167   0.681   1.948   6.144
 1408TIP3   OH2 4168   0.343   1.118   3.517
 1408TIP3    H1 4169   0.259   1.155   3.491
 1408TIP3    H2 4170   0.370   1.173   3.592
 1409TIP3   OH2 4171   0.802   2.239   3.009
 1409TIP3    H1 4172   0.804   2.317   2.953
 1409TIP3    H2 4173   0.738   2.182   2.966
 1410TIP3   OH2 4174   3.307   4.240   6.265
 1410TIP3    H1 4175   3.314   4.292   6.345
 1410TIP3    H2 4176   3.356   4.160   6.284
 1411TIP3   OH2 4177   6.840   0.971   2.453
 1411TIP3    H1 4178   6.869   1.007   2.537
 1411TIP3    H2 4179   6.915   0.920   2.422
 1412TIP3   OH2 4180   4.989   7.434   1.543
 1412TIP3    H1 4181   4.982   7.489   1.621
 1412TIP3    H2 4182   5.061   7.373   1.563
 1413TIP3   OH2 4183   4.094   6.028   0.738
 1413TIP3    H1 4184   4.075   6.019   0.831
 1413TIP3    H2 4185   4.190   6.024   0.732
 1414TIP3   OH2 4186   1.641   4.818   4.109
 1414TIP3    H1 4187   1.598   4.825   4.195
 1414TIP3    H2 4188   1.723   4.773   4.127
 1415TIP3   OH2 4189   7.162   0.839   4.828
 1415TIP3    H1 4190   7.091   0.863   4.887
 1415TIP3    H2 4191   7.156   0.902   4.756
 1416TIP3   OH2 4192   6.569   4.739   0.006
 1416TIP3    H1 4193   6.596   4.686  -0.069
 1416TIP3    H2 4194   6.562   4.677   0.078
 1417TIP3   OH2 4195   5.264   2.556   1.610
 1417TIP3    H1 4196   5.231   2.466   1.617
 1417TIP3    H2 4197   5.189   2.607   1.581
 1418TIP3   OH2 4198   6.112   6.117   2.102
 1418TIP3    H1 4199   6.192   6.115   2.050
 1418TIP3    H2 4200   6.094   6.211   2.115
 1419TIP3   OH2 4201   3.978   3.335   0.028
 1419TIP3    H1 4202   4.023   3.410   0.068
 1419TIP3    H2 4203   4.023   3.258   0.062
 1420TIP3   OH2 4204   3.204   0.964   1.198
 1420TIP3    H1 4205   3.186   0.990   1.108
 1420TIP3    H2 4206   3.176   1.039   1.251
 1421TIP3   OH2 4207   3.699   4.524   4.148
 1421TIP3    H1 4208   3.620   4.482   4.115
 1421TIP3    H2 4209   3.746   4.453   4.193
 1422TIP3   OH2 4210   0.379   1.366   2.938
 1422TIP3    H1 4211   0.357   1.336   3.026
 1422TIP3    H2 4212   0.401   1.459   2.949
 1423TIP3   OH2 4213   3.279   2.679   5.010
 1423TIP3    H1 4214   3.284   2.632   4.927
 1423TIP3    H2 4215   3.249   2.614   5.074
 1424TIP3   OH2 4216   4.773   2.253   4.885
 1424TIP3    H1 4217   4.771   2.164   4.851
 1424TIP3    H2 4218   4.788   2.308   4.808
 1425TIP3   OH2 4219   1.521   7.414   5.953
 1425TIP3    H1 4220   1.521   7.402   5.858
 1425TIP3    H2 4221   1.429   7.405   5.978
 1426TIP3   OH2 4222   7.435   1.343   6.626
 1426TIP3    H1 4223   7.520   1.315   6.661
 1426TIP3    H2 4224   7.384   1.367   6.703
 1427TIP3   OH2 4225   3.034   6.226   1.475
 1427TIP3    H1 4226   2.965   6.199   1.415
 1427TIP3    H2 4227   3.108   6.248   1.418
 1428TIP3   OH2 4228   4.622   4.611   2.815
 1428TIP3    H1 4229   4.622   4.703   2.839
 1428TIP3    H2 4230   4.552   4.603   2.751
 1429TIP3   OH2 4231   3.396   0.153   1.962
 1429TIP3    H1 4232   3.305   0.123   1.954
 1429TIP3    H2 4233   3.436   0.091   2.023
 1430TIP3   OH2 4234   7.994   7.204   3.061
 1430TIP3    H1 4235   7.900   7.218   3.069
 1430TIP3    H2 4236   8.032   7.253   3.134
 1431TIP3   OH2 4237   4.117   7.107   1.920
 1431TIP3    H1 4238   4.146   7.112   2.011
 1431TIP3    H2 4239   4.175   7.044   1.879
 1432TIP3   OH2 4240   5.655   3.324   0.739
 1432TIP3    H1 4241   5.703   3.329   0.656
 1432TIP3    H2 4242   5.721   3.337   0.806
 1433TIP3   OH2 4243   7.761   7.729   3.777
 1433TIP3    H1 4244   7.821   7.745   3.850
 1433TIP3    H2 4245   7.775   7.637   3.754
 1434TIP3   OH2 4246   3.810   3.289   6.564
 1434TIP3    H1 4247   3.810   3.270   6.658
 1434TIP3    H2 4248   3.882   3.236   6.530
 1435TIP3   OH2 4249   1.686   0.891   6.007
 1435TIP3    H1 4250   1.680   0.872   5.913
 1435TIP3    H2 4251   1.741   0.969   6.011
 1436TIP3   OH2 4252   7.524   4.887   4.070
 1436TIP3    H1 4253   7.446   4.917   4.117
 1436TIP3    H2 4254   7.553   4.811   4.120
 1437TIP3   OH2 4255   1.581   7.517   3.380
 1437TIP3    H1 4256   1.591   7.438   3.327
 1437TIP3    H2 4257   1.488   7.539   3.373
 1438TIP3   OH2 4258   6.019   4.101   4.354
 1438TIP3    H1 4259   6.107   4.104   4.315
 1438TIP3    H2 4260   6.023   4.029   4.416
 1439TIP3   OH2 4261   7.882   2.467   1.653
 1439TIP3    H1 4262   7.797   2.500   1.682
 1439TIP3    H2 4263   7.925   2.542   1.613
 1440TIP3   OH2 4264   3.010   3.494   2.945
 1440TIP3    H1 4265   3.079   3.559   2.964
 1440TIP3    H2 4266   2.969   3.478   3.030
 1441TIP3   OH2 4267   4.266   2.776   3.572
 1441TIP3    H1 4268   4.279   2.794   3.479
 1441TIP3    H2 4269   4.319   2.843   3.617
 1442TIP3   OH2 4270   4.060   4.615   5.227
 1442TIP3    H1 4271   3.969   4.606   5.256
 1442TIP3    H2 4272   4.078   4.708   5.234
 1443TIP3   OH2 4273   2.615   7.769   6.257
 1443TIP3    H1 4274   2.528   7.801   6.232
 1443TIP3    H2 4275   2.662   7.759   6.175
 1444TIP3   OH2 4276   5.701   7.414   2.119
 1444TIP3    H1 4277   5.685   7.320   2.127
 1444TIP3    H2 4278   5.620   7.455   2.149
 1445TIP3   OH2 4279   5.507   2.529   1.957
 1445TIP3    H1 4280   5.493   2.556   2.048
 1445TIP3    H2 4281   5.495   2.610   1.907
 1446TIP3   OH2 4282   7.848   2.503   3.807
 1446TIP3    H1 4283   7.898   2.573   3.849
 1446TIP3    H2 4284   7.811   2.545   3.729
 1447TIP3   OH2 4285   8.066   2.740   3.238
 1447TIP3    H1 4286   7.993   2.764   3.180
 1447TIP3    H2 4287   8.066   2.645   3.238
 1448TIP3   OH2 4288   5.110   7.177   2.048
 1448TIP3    H1 4289   5.055   7.238   2.098
 1448TIP3    H2 4290   5.199   7.198   2.075
 1449TIP3   OH2 4291   3.841   3.610   6.208
 1449TIP3    H1 4292   3.880   3.528   6.178
 1449TIP3    H2 4293   3.761   3.583   6.253
 1450TIP3   OH2 4294   4.887   1.926   4.793
 1450TIP3    H1 4295   4.896   1.834   4.817
 1450TIP3    H2 4296   4.793   1.944   4.803
 1451TIP3   OH2 4297   4.346   1.962   1.989
 1451TIP3    H1 4298   4.346   1.880   1.940
 1451TIP3    H2 4299   4.253   1.985   1.998
 1452TIP3   OH2 4300   1.308   5.607   3.142
 1452TIP3    H1 4301   1.214   5.626   3.142
 1452TIP3    H2 4302   1.348   5.680   3.189
 1453TIP3   OH2 4303   6.646   4.397   3.113
 1453TIP3    H1 4304   6.571   4.454   3.100
 1453TIP3    H2 4305   6.633   4.325   3.052
 1454TIP3   OH2 4306   4.556   6.905   3.791
 1454TIP3    H1 4307   4.487   6.893   3.856
 1454TIP3    H2 4308   4.632   6.934   3.841
 1455TIP3   OH2 4309   3.305   2.700   0.675
 1455TIP3    H1 4310   3.383   2.689   0.729
 1455TIP3    H2 4311   3.314   2.786   0.636
 1456TIP3   OH2 4312   5.702   4.453   3.101
 1456TIP3    H1 4313   5.769   4.498   3.049
 1456TIP3    H2 4314   5.747   4.431   3.183
 1457TIP3   OH2 4315   1.614   1.620   4.374
 1457TIP3    H1 4316   1.606   1.533   4.413
 1457TIP3    H2 4317   1.525   1.655   4.377
 1458TIP3   OH2 4318   2.888   5.543   4.223
 1458TIP3    H1 4319   2.814   5.598   4.249
 1458TIP3    H2 4320   2.964   5.586   4.262
 1459TIP3   OH2 4321   0.605   1.604   6.100
 1459TIP3    H1 4322   0.511   1.607   6.082
 1459TIP3    H2 4323   0.616   1.528   6.157
 1460TIP3   OH2 4324   3.996   2.979   1.822
 1460TIP3    H1 4325   4.025   2.936   1.903
 1460TIP3    H2 4326   4.057   3.052   1.810
 1461TIP3   OH2 4327   1.186   3.130   2.467
 1461TIP3    H1 4328   1.100   3.097   2.440
 1461TIP3    H2 4329   1.238   3.132   2.387
 1462TIP3   OH2 4330   0.477   2.419   5.239
 1462TIP3    H1 4331   0.497   2.501   5.283
 1462TIP3    H2 4332   0.522   2.425   5.155
 1463TIP3   OH2 4333   4.973   1.528   5.793
 1463TIP3    H1 4334   5.003   1.441   5.768
 1463TIP3    H2 4335   5.052   1.582   5.793
 1464TIP3   OH2 4336   3.119   4.641   1.716
 1464TIP3    H1 4337   3.027   4.617   1.728
 1464TIP3    H2 4338   3.165   4.558   1.706
 1465TIP3   OH2 4339   6.118   6.738   0.687
 1465TIP3    H1 4340   6.083   6.682   0.618
 1465TIP3    H2 4341   6.128   6.824   0.646
 1466TIP3   OH2 4342   0.904   3.079   0.215
 1466TIP3    H1 4343   0.969   3.148   0.209
 1466TIP3    H2 4344   0.919   3.024   0.138
 1467TIP3   OH2 4345   3.185   4.029   6.686
 1467TIP3    H1 4346   3.186   4.113   6.733
 1467TIP3    H2 4347   3.255   4.036   6.622
 1468TIP3   OH2 4348   7.636   1.541   1.449
 1468TIP3    H1 4349   7.630   1.636   1.457
 1468TIP3    H2 4350   7.572   1.508   1.512
 1469TIP3   OH2 4351   2.199   5.888   3.075
 1469TIP3    H1 4352   2.238   5.809   3.038
 1469TIP3    H2 4353   2.197   5.951   3.003
 1470TIP3   OH2 4354   4.130   5.933   4.895
 1470TIP3    H1 4355   4.151   5.992   4.823
 1470TIP3    H2 4356   4.201   5.868   4.893
 1471TIP3   OH2 4357   0.498   3.705   1.874
 1471TIP3    H1 4358   0.556   3.759   1.820
 1471TIP3    H2 4359   0.418   3.756   1.882
 1472TIP3   OH2 4360   4.121   1.780   3.385
 1472TIP3    H1 4361   4.030   1.774   3.355
 1472TIP3    H2 4362   4.164   1.838   3.322
 1473TIP3   OH2 4363   2.161   2.703   1.536
 1473TIP3    H1 4364   2.226   2.634   1.524
 1473TIP3    H2 4365   2.212   2.781   1.558
 1474TIP3   OH2 4366   5.924   4.763   6.452
 1474TIP3    H1 4367   5.929   4.857   6.434
 1474TIP3    H2 4368   5.830   4.746   6.464
 1475TIP3   OH2 4369   8.245   0.214   0.343
 1475TIP3    H1 4370   8.284   0.198   0.257
 1475TIP3    H2 4371   8.153   0.192   0.331
 1476TIP3   OH2 4372   5.745   0.279   4.218
 1476TIP3    H1 4373   5.772   0.370   4.224
 1476TIP3    H2 4374   5.802   0.233   4.280
 1477TIP3   OH2 4375   0.541   3.921   2.341
 1477TIP3    H1 4376   0.497   4.006   2.332
 1477TIP3    H2 4377   0.586   3.908   2.257
 1478TIP3   OH2 4378   1.839   2.390   5.445
 1478TIP3    H1 4379   1.777   2.380   5.373
 1478TIP3    H2 4380   1.913   2.436   5.407
 1479TIP3   OH2 4381   7.702   0.836   1.896
 1479TIP3    H1 4382   7.648   0.906   1.859
 1479TIP3    H2 4383   7.650   0.802   1.970
 1480TIP3   OH2 4384   5.165   3.702   4.244
 1480TIP3    H1 4385   5.160   3.609   4.224
 1480TIP3    H2 4386   5.126   3.745   4.168
 1481TIP3   OH2 4387   0.053   6.788   1.822
 1481TIP3    H1 4388   0.067   6.738   1.741
 1481TIP3    H2 4389   0.086   6.875   1.803
 1482TIP3   OH2 4390   1.561   7.649   1.719
 1482TIP3    H1 4391   1.531   7.739   1.705
 1482TIP3    H2 4392   1.531   7.627   1.807
 1483TIP3   OH2 4393   5.516   6.041   2.827
 1483TIP3    H1 4394   5.560   6.014   2.908
 1483TIP3    H2 4395   5.424   6.053   2.852
 1484TIP3   OH2 4396   1.367   4.070   4.401
 1484TIP3    H1 4397   1.306   4.131   4.443
 1484TIP3    H2 4398   1.358   4.087   4.307
 1485TIP3   OH2 4399   5.919   6.863   4.224
 1485TIP3    H1 4400   5.940   6.817   4.143
 1485TIP3    H2 4401   5.828   6.890   4.214
 1486TIP3   OH2 4402   3.167   0.857   6.039
 1486TIP3    H1 4403   3.246   0.879   6.087
 1486TIP3    H2 4404   3.098   0.858   6.106
 1487TIP3   OH2 4405   4.886   0.999   0.027
 1487TIP3    H1 4406   4.860   1.008   0.119
 1487TIP3    H2 4407   4.815   0.947  -0.012
 1488TIP3   OH2 4408   4.991   3.148   4.842
 1488TIP3    H1 4409   4.942   3.174   4.921
 1488TIP3    H2 4410   5.059   3.089   4.874
 1489TIP3   OH2 4411   6.357   3.945   3.060
 1489TIP3    H1 4412   6.380   3.883   3.130
 1489TIP3    H2 4413   6.406   3.915   2.984
 1490TIP3   OH2 4414   7.280   7.241   0.201
 1490TIP3    H1 4415   7.296   7.273   0.113
 1490TIP3    H2 4416   7.353   7.276   0.253
 1491TIP3   OH2 4417   0.179   5.165   1.396
 1491TIP3    H1 4418   0.142   5.205   1.475
 1491TIP3    H2 4419   0.214   5.081   1.426
 1492TIP3   OH2 4420   0.263   4.887   1.445
 1492TIP3    H1 4421   0.340   4.836   1.421
 1492TIP3    H2 4422   0.205   4.825   1.488
 1493TIP3   OH2 4423   3.673   1.860   2.699
 1493TIP3    H1 4424   3.767   1.878   2.712
 1493TIP3    H2 4425   3.629   1.938   2.733
 1494TIP3   OH2 4426   5.511   6.781   2.538
 1494TIP3    H1 4427   5.459   6.841   2.591
 1494TIP3    H2 4428   5.447   6.731   2.488
 1495TIP3   OH2 4429   8.020   2.134   4.174
 1495TIP3    H1 4430   8.043   2.092   4.091
 1495TIP3    H2 4431   7.989   2.221   4.149
 1496TIP3   OH2 4432   6.934   1.840   4.100
 1496TIP3    H1 4433   6.937   1.932   4.073
 1496TIP3    H2 4434   6.896   1.794   4.025
 1497TIP3   OH2 4435   8.247   0.292   1.490
 1497TIP3    H1 4436   8.224   0.202   1.468
 1497TIP3    H2 4437   8.257   0.291   1.585
 1498TIP3   OH2 4438   0.638   2.411   5.760
 1498TIP3    H1 4439   0.659   2.345   5.694
 1498TIP3    H2 4440   0.723   2.435   5.797
 1499TIP3   OH2 4441   1.840   5.555   2.957
 1499TIP3    H1 4442   1.819   5.560   2.864
 1499TIP3    H2 4443   1.770   5.502   2.994
 1500TIP3   OH2 4444   0.900   3.103   0.699
 1500TIP3    H1 4445   0.984   3.140   0.671
 1500TIP3    H2 4446   0.835   3.147   0.645
 1501TIP3   OH2 4447   4.955   0.284   3.607
 1501TIP3    H1 4448   4.947   0.363   3.553
 1501TIP3    H2 4449   4.996   0.314   3.688
 1502TIP3   OH2 4450   6.705   2.170   4.563
 1502TIP3    H1 4451   6.667   2.230   4.627
 1502TIP3    H2 4452   6.728   2.226   4.489
 1503TIP3   OH2 4453   2.149   2.892   0.115
 1503TIP3    H1 4454   2.234   2.856   0.091
 1503TIP3    H2 4455   2.169   2.973   0.161
 1504TIP3   OH2 4456   1.376   7.142   5.892
 1504TIP3    H1 4457   1.302   7.088   5.919
 1504TIP3    H2 4458   1.369   7.221   5.947
 1505TIP3   OH2 4459   2.300   2.973   4.782
 1505TIP3    H1 4460   2.242   3.047   4.765
 1505TIP3    H2 4461   2.387   3.012   4.788
 1506TIP3   OH2 4462   2.545   4.182   1.049
 1506TIP3    H1 4463   2.617   4.120   1.064
 1506TIP3    H2 4464   2.506   4.194   1.136
 1507TIP3   OH2 4465   0.625   2.090   5.331
 1507TIP3    H1 4466   0.657   2.151   5.265
 1507TIP3    H2 4467   0.702   2.036   5.353
 1508TIP3   OH2 4468   0.370   7.069   2.371
 1508TIP3    H1 4469   0.406   7.152   2.404
 1508TIP3    H2 4470   0.354   7.017   2.449
 1509TIP3   OH2 4471   7.054   2.485   0.658
 1509TIP3    H1 4472   7.134   2.522   0.619
 1509TIP3    H2 4473   7.073   2.481   0.752
 1510TIP3   OH2 4474   0.149   1.795   0.666
 1510TIP3    H1 4475   0.079   1.821   0.606
 1510TIP3    H2 4476   0.104   1.779   0.749
 1511TIP3   OH2 4477   4.865   2.087   1.968
 1511TIP3    H1 4478   4.890   2.013   2.023
 1511TIP3    H2 4479   4.935   2.094   1.903
 1512TIP3   OH2 4480   0.888   1.599   5.466
 1512TIP3    H1 4481   0.908   1.630   5.554
 1512TIP3    H2 4482   0.962   1.627   5.413
 1513TIP3   OH2 4483   7.467   1.472   1.641
 1513TIP3    H1 4484   7.425   1.540   1.694
 1513TIP3    H2 4485   7.456   1.392   1.692
 1514TIP3   OH2 4486   7.659   7.233   0.519
 1514TIP3    H1 4487   7.719   7.183   0.575
 1514TIP3    H2 4488   7.575   7.188   0.528
 1515TIP3   OH2 4489   7.680   5.428   2.743
 1515TIP3    H1 4490   7.690   5.343   2.785
 1515TIP3    H2 4491   7.686   5.410   2.649
 1516TIP3   OH2 4492   0.532   6.177   6.127
 1516TIP3    H1 4493   0.464   6.127   6.081
 1516TIP3    H2 4494   0.571   6.113   6.187
 1517TIP3   OH2 4495   6.893   0.458   3.245
 1517TIP3    H1 4496   6.963   0.393   3.238
 1517TIP3    H2 4497   6.848   0.437   3.327
 1518TIP3   OH2 4498   6.855   1.114   5.147
 1518TIP3    H1 4499   6.884   1.167   5.222
 1518TIP3    H2 4500   6.787   1.057   5.184
 1519TIP3   OH2 4501   2.848   1.195   1.504
 1519TIP3    H1 4502   2.817   1.170   1.417
 1519TIP3    H2 4503   2.807   1.280   1.520
 1520TIP3   OH2 4504   0.654   3.163   2.337
 1520TIP3    H1 4505   0.733   3.204   2.373
 1520TIP3    H2 4506   0.581   3.210   2.379
 1521TIP3   OH2 4507   0.238   3.702   3.882
 1521TIP3    H1 4508   0.212   3.617   3.917
 1521TIP3    H2 4509   0.157   3.739   3.845
 1522TIP3   OH2 4510   5.884   3.736   4.547
 1522TIP3    H1 4511   5.812   3.710   4.605
 1522TIP3    H2 4512   5.886   3.831   4.552
 1523TIP3   OH2 4513   1.796   4.401   0.792
 1523TIP3    H1 4514   1.890   4.408   0.774
 1523TIP3    H2 4515   1.763   4.342   0.724
 1524TIP3   OH2 4516   4.643   4.358   6.064
 1524TIP3    H1 4517   4.550   4.348   6.047
 1524TIP3    H2 4518   4.650   4.371   6.159
 1525TIP3   OH2 4519   3.522   4.370   3.508
 1525TIP3    H1 4520   3.569   4.311   3.449
 1525TIP3    H2 4521   3.446   4.319   3.537
 1526TIP3   OH2 4522   5.966   7.718   5.262
 1526TIP3    H1 4523   5.981   7.798   5.311
 1526TIP3    H2 4524   6.038   7.660   5.287
 1527TIP3   OH2 4525   2.019   4.110   4.327
 1527TIP3    H1 4526   1.928   4.081   4.319
 1527TIP3    H2 4527   2.014   4.193   4.373
 1528TIP3   OH2 4528   1.572   1.363   6.107
 1528TIP3    H1 4529   1.505   1.371   6.040
 1528TIP3    H2 4530   1.645   1.415   6.074
 1529TIP3   OH2 4531   7.247   4.788   0.261
 1529TIP3    H1 4532   7.221   4.700   0.290
 1529TIP3    H2 4533   7.165   4.837   0.257
 1530TIP3   OH2 4534   3.935   3.981   1.646
 1530TIP3    H1 4535   4.019   4.028   1.645
 1530TIP3    H2 4536   3.885   4.025   1.715
 1531TIP3   OH2 4537   7.636   0.404   2.244
 1531TIP3    H1 4538   7.592   0.488   2.259
 1531TIP3    H2 4539   7.676   0.382   2.328
 1532TIP3   OH2 4540   4.766   2.044   0.405
 1532TIP3    H1 4541   4.722   2.127   0.422
 1532TIP3    H2 4542   4.836   2.067   0.343
 1533TIP3   OH2 4543   5.566   1.311   4.102
 1533TIP3    H1 4544   5.550   1.262   4.183
 1533TIP3    H2 4545   5.631   1.259   4.055
 1534TIP3   OH2 4546   6.549   4.797   5.878
 1534TIP3    H1 4547   6.518   4.716   5.919
 1534TIP3    H2 4548   6.559   4.858   5.951
 1535TIP3   OH2 4549   0.495   1.989   1.844
 1535TIP3    H1 4550   0.473   2.073   1.804
 1535TIP3    H2 4551   0.478   2.002   1.937
 1536TIP3   OH2 4552   5.325   7.733   4.490
 1536TIP3    H1 4553   5.341   7.692   4.405
 1536TIP3    H2 4554   5.371   7.677   4.553
 1537TIP3   OH2 4555   5.232   3.535   3.595
 1537TIP3    H1 4556   5.292   3.578   3.533
 1537TIP3    H2 4557   5.149   3.580   3.582
 1538TIP3   OH2 4558   2.103   5.224   5.421
 1538TIP3    H1 4559   2.034   5.285   5.450
 1538TIP3    H2 4560   2.149   5.272   5.352
 1539TIP3   OH2 4561   1.346   5.230   6.189
 1539TIP3    H1 4562   1.346   5.182   6.106
 1539TIP3    H2 4563   1.418   5.192   6.239
 1540TIP3   OH2 4564   2.292   7.320   6.196
 1540TIP3    H1 4565   2.209   7.355   6.166
 1540TIP3    H2 4566   2.354   7.393   6.186
 1541TIP3   OH2 4567   1.747   6.112   1.341
 1541TIP3    H1 4568   1.715   6.184   1.286
 1541TIP3    H2 4569   1.707   6.033   1.304
 1542TIP3   OH2 4570   7.116   5.682   3.369
 1542TIP3    H1 4571   7.199   5.679   3.322
 1542TIP3    H2 4572   7.067   5.607   3.337
 1543TIP3   OH2 4573   3.470   7.126   2.473
 1543TIP3    H1 4574   3.497   7.101   2.385
 1543TIP3    H2 4575   3.407   7.059   2.499
 1544TIP3   OH2 4576   0.129   4.741   5.516
 1544TIP3    H1 4577   0.054   4.747   5.457
 1544TIP3    H2 4578   0.187   4.812   5.489
 1545TIP3   OH2 4579   1.145   3.740   2.129
 1545TIP3    H1 4580   1.219   3.785   2.088
 1545TIP3    H2 4581   1.173   3.726   2.220
 1546TIP3   OH2 4582   1.476   7.207   0.061
 1546TIP3    H1 4583   1.434   7.187  -0.023
 1546TIP3    H2 4584   1.498   7.300   0.056
 1547TIP3   OH2 4585   4.443   3.595   6.162
 1547TIP3    H1 4586   4.513   3.634   6.110
 1547TIP3    H2 4587   4.484   3.570   6.245
 1548TIP3   OH2 4588   0.386   2.779   5.452
 1548TIP3    H1 4589   0.323   2.833   5.404
 1548TIP3    H2 4590   0.368   2.797   5.544
 1549TIP3   OH2 4591   4.585   6.395   2.980
 1549TIP3    H1 4592   4.623   6.307   2.978
 1549TIP3    H2 4593   4.596   6.423   3.071
 1550TIP3   OH2 4594   0.123   7.165   3.313
 1550TIP3    H1 4595   0.047   7.109   3.295
 1550TIP3    H2 4596   0.164   7.178   3.228
 1551TIP3   OH2 4597   3.362   6.494   1.610
 1551TIP3    H1 4598   3.274   6.504   1.574
 1551TIP3    H2 4599   3.400   6.581   1.605
 1552TIP3   OH2 4600   5.704   1.696   4.731
 1552TIP3    H1 4601   5.727   1.710   4.822
 1552TIP3    H2 4602   5.689   1.784   4.695
 1553TIP3   OH2 4603   2.186   0.286   2.836
 1553TIP3    H1 4604   2.168   0.192   2.838
 1553TIP3    H2 4605   2.140   0.321   2.912
 1554TIP3   OH2 4606   4.471   3.007   3.631
 1554TIP3    H1 4607   4.417   3.039   3.559
 1554TIP3    H2 4608   4.535   3.076   3.646
 1555TIP3   OH2 4609   1.654   0.833   4.632
 1555TIP3    H1 4610   1.635   0.739   4.633
 1555TIP3    H2 4611   1.747   0.838   4.613
 1556TIP3   OH2 4612   6.615   3.596   0.666
 1556TIP3    H1 4613   6.640   3.596   0.574
 1556TIP3    H2 4614   6.597   3.688   0.686
 1557TIP3   OH2 4615   5.752   3.969   3.565
 1557TIP3    H1 4616   5.822   3.918   3.524
 1557TIP3    H2 4617   5.675   3.952   3.510
 1558TIP3   OH2 4618   5.039   6.368   3.339
 1558TIP3    H1 4619   5.127   6.331   3.336
 1558TIP3    H2 4620   5.026   6.394   3.430
 1559TIP3   OH2 4621   0.163   3.852   0.606
 1559TIP3    H1 4622   0.120   3.914   0.665
 1559TIP3    H2 4623   0.105   3.847   0.530
 1560TIP3   OH2 4624   4.032   2.771   0.956
 1560TIP3    H1 4625   4.021   2.687   1.000
 1560TIP3    H2 4626   4.048   2.834   1.027
 1561TIP3   OH2 4627   7.770   6.718   1.676
 1561TIP3    H1 4628   7.714   6.661   1.623
 1561TIP3    H2 4629   7.755   6.805   1.640
 1562TIP3   OH2 4630   1.119   1.355   1.301
 1562TIP3    H1 4631   1.161   1.296   1.238
 1562TIP3    H2 4632   1.181   1.361   1.373
 1563TIP3   OH2 4633   1.676   5.325   1.550
 1563TIP3    H1 4634   1.648   5.306   1.461
 1563TIP3    H2 4635   1.704   5.240   1.585
 1564TIP3   OH2 4636   1.584   5.747   2.421
 1564TIP3    H1 4637   1.586   5.805   2.345
 1564TIP3    H2 4638   1.653   5.781   2.478
 1565TIP3   OH2 4639   5.717   0.249   1.485
 1565TIP3    H1 4640   5.739   0.342   1.482
 1565TIP3    H2 4641   5.747   0.219   1.570
 1566TIP3   OH2 4642   3.662   0.559   2.467
 1566TIP3    H1 4643   3.639   0.645   2.503
 1566TIP3    H2 4644   3.697   0.578   2.380
 1567TIP3   OH2 4645   0.345   3.200   0.203
 1567TIP3    H1 4646   0.265   3.220   0.154
 1567TIP3    H2 4647   0.357   3.275   0.261
 1568TIP3   OH2 4648   7.954   6.240   1.515
 1568TIP3    H1 4649   8.009   6.283   1.448
 1568TIP3    H2 4650   7.959   6.147   1.493
 1569TIP3   OH2 4651   6.645   1.361   2.903
 1569TIP3    H1 4652   6.728   1.331   2.865
 1569TIP3    H2 4653   6.590   1.383   2.827
 1570TIP3   OH2 4654   6.396   7.703   6.389
 1570TIP3    H1 4655   6.402   7.668   6.300
 1570TIP3    H2 4656   6.385   7.797   6.377
 1571TIP3   OH2 4657   1.823   2.156   0.877
 1571TIP3    H1 4658   1.812   2.076   0.928
 1571TIP3    H2 4659   1.769   2.142   0.799
 1572TIP3   OH2 4660   3.541   3.071   4.571
 1572TIP3    H1 4661   3.580   3.145   4.617
 1572TIP3    H2 4662   3.467   3.109   4.523
 1573TIP3   OH2 4663   5.565   2.103   2.762
 1573TIP3    H1 4664   5.620   2.136   2.691
 1573TIP3    H2 4665   5.490   2.063   2.718
 1574TIP3   OH2 4666   5.885   1.555   1.350
 1574TIP3    H1 4667   5.816   1.527   1.290
 1574TIP3    H2 4668   5.963   1.507   1.321
 1575TIP3   OH2 4669   5.332   4.640   0.696
 1575TIP3    H1 4670   5.348   4.677   0.609
 1575TIP3    H2 4671   5.319   4.716   0.753
 1576TIP3   OH2 4672   6.114   2.584   6.112
 1576TIP3    H1 4673   6.077   2.590   6.200
 1576TIP3    H2 4674   6.171   2.507   6.115
 1577TIP3   OH2 4675   7.251   3.175   5.174
 1577TIP3    H1 4676   7.223   3.148   5.262
 1577TIP3    H2 4677   7.216   3.263   5.164
 1578TIP3   OH2 4678   1.141   2.662   1.551
 1578TIP3    H1 4679   1.140   2.698   1.463
 1578TIP3    H2 4680   1.186   2.578   1.542
 1579TIP3   OH2 4681   4.190   6.099   6.097
 1579TIP3    H1 4682   4.149   6.031   6.151
 1579TIP3    H2 4683   4.236   6.050   6.028
 1580TIP3   OH2 4684   2.804   6.765   4.086
 1580TIP3    H1 4685   2.760   6.683   4.062
 1580TIP3    H2 4686   2.844   6.747   4.171
 1581TIP3   OH2 4687   3.419   6.902   6.370
 1581TIP3    H1 4688   3.409   6.850   6.450
 1581TIP3    H2 4689   3.398   6.841   6.300
 1582TIP3   OH2 4690   6.372   6.232   2.293
 1582TIP3    H1 4691   6.329   6.315   2.311
 1582TIP3    H2 4692   6.392   6.195   2.379
 1583TIP3   OH2 4693   6.825   4.194   3.288
 1583TIP3    H1 4694   6.809   4.133   3.360
 1583TIP3    H2 4695   6.739   4.230   3.268
 1584TIP3   OH2 4696   4.522   0.101   3.397
 1584TIP3    H1 4697   4.482   0.053   3.469
 1584TIP3    H2 4698   4.555   0.181   3.437
 1585TIP3   OH2 4699   2.932   2.699   1.913
 1585TIP3    H1 4700   2.917   2.638   1.985
 1585TIP3    H2 4701   2.942   2.642   1.836
 1586TIP3   OH2 4702   7.737   2.482   6.785
 1586TIP3    H1 4703   7.790   2.512   6.711
 1586TIP3    H2 4704   7.686   2.409   6.749
 1587TIP3   OH2 4705   2.826   7.691   5.997
 1587TIP3    H1 4706   2.867   7.618   5.950
 1587TIP3    H2 4707   2.895   7.756   6.006
 1588TIP3   OH2 4708   1.084   4.060   6.482
 1588TIP3    H1 4709   1.137   4.102   6.549
 1588TIP3    H2 4710   1.147   4.028   6.418
 1589TIP3   OH2 4711   5.571   1.941   0.817
 1589TIP3    H1 4712   5.514   1.865   0.803
 1589TIP3    H2 4713   5.647   1.905   0.864
 1590TIP3   OH2 4714   7.492   4.772   4.404
 1590TIP3    H1 4715   7.501   4.678   4.390
 1590TIP3    H2 4716   7.582   4.804   4.406
 1591TIP3   OH2 4717   3.500   7.314   3.212
 1591TIP3    H1 4718   3.423   7.356   3.174
 1591TIP3    H2 4719   3.497   7.224   3.180
 1592TIP3   OH2 4720   3.143   1.380   1.752
 1592TIP3    H1 4721   3.232   1.360   1.722
 1592TIP3    H2 4722   3.136   1.476   1.743
 1593TIP3   OH2 4723   2.247   3.221   1.514
 1593TIP3    H1 4724   2.339   3.200   1.500
 1593TIP3    H2 4725   2.228   3.190   1.602
 1594TIP3   OH2 4726   6.274   0.377   4.652
 1594TIP3    H1 4727   6.211   0.447   4.634
 1594TIP3    H2 4728   6.224   0.296   4.642
 1595TIP3   OH2 4729   7.786   2.134   2.156
 1595TIP3    H1 4730   7.800   2.106   2.065
 1595TIP3    H2 4731   7.864   2.186   2.177
 1596TIP3   OH2 4732   0.403   2.037   6.157
 1596TIP3    H1 4733   0.440   1.990   6.083
 1596TIP3    H2 4734   0.363   1.968   6.211
 1597TIP3   OH2 4735   2.226   5.830   4.158
 1597TIP3    H1 4736   2.294   5.793   4.214
 1597TIP3    H2 4737   2.272   5.860   4.080
 1598TIP3   OH2 4738   5.870   3.968   2.247
 1598TIP3    H1 4739   5.921   3.943   2.170
 1598TIP3    H2 4740   5.803   3.901   2.255
 1599TIP3   OH2 4741   0.433   5.889   1.963
 1599TIP3    H1 4742   0.496   5.905   1.893
 1599TIP3    H2 4743   0.348   5.909   1.924
 1600TIP3   OH2 4744   5.971   5.882   0.316
 1600TIP3    H1 4745   6.064   5.894   0.337
 1600TIP3    H2 4746   5.935   5.835   0.391
 1601TIP3   OH2 4747   4.204   6.567   5.102
 1601TIP3    H1 4748   4.208   6.588   5.008
 1601TIP3    H2 4749   4.208   6.652   5.146
 1602TIP3   OH2 4750   5.516   4.137   5.469
 1602TIP3    H1 4751   5.480   4.117   5.555
 1602TIP3    H2 4752   5.445   4.116   5.408
 1603TIP3   OH2 4753   1.221   1.548   4.307
 1603TIP3    H1 4754   1.136   1.592   4.313
 1603TIP3    H2 4755   1.208   1.463   4.349
 1604TIP3   OH2 4756   5.696   7.208   1.085
 1604TIP3    H1 4757   5.722   7.285   1.136
 1604TIP3    H2 4758   5.770   7.148   1.094
 1605TIP3   OH2 4759   3.809   1.621   2.460
 1605TIP3    H1 4760   3.718   1.597   2.477
 1605TIP3    H2 4761   3.807   1.715   2.443
 1606TIP3   OH2 4762   2.579   7.137   0.550
 1606TIP3    H1 4763   2.562   7.043   0.545
 1606TIP3    H2 4764   2.646   7.153   0.483
 1607TIP3   OH2 4765   7.878   7.116   2.117
 1607TIP3    H1 4766   7.840   7.059   2.184
 1607TIP3    H2 4767   7.855   7.074   2.034
 1608TIP3   OH2 4768   6.510   1.120   1.511
 1608TIP3    H1 4769   6.494   1.161   1.596
 1608TIP3    H2 4770   6.571   1.179   1.467
 1609TIP3   OH2 4771   1.923   3.666   6.174
 1609TIP3    H1 4772   1.837   3.691   6.142
 1609TIP3    H2 4773   1.959   3.610   6.106
 1610TIP3   OH2 4774   1.587   1.622   1.942
 1610TIP3    H1 4775   1.564   1.556   2.007
 1610TIP3    H2 4776   1.504   1.663   1.918
 1611TIP3   OH2 4777   3.260   5.416   2.299
 1611TIP3    H1 4778   3.318   5.453   2.233
 1611TIP3    H2 4779   3.272   5.473   2.375
 1612TIP3   OH2 4780   5.725   5.943   3.784
 1612TIP3    H1 4781   5.803   5.892   3.762
 1612TIP3    H2 4782   5.736   5.965   3.876
 1613TIP3   OH2 4783   3.331   7.126   3.840
 1613TIP3    H1 4784   3.276   7.199   3.815
 1613TIP3    H2 4785   3.307   7.055   3.780
 1614TIP3   OH2 4786   1.745   6.965   0.124
 1614TIP3    H1 4787   1.683   6.893   0.124
 1614TIP3    H2 4788   1.764   6.981   0.217
 1615TIP3   OH2 4789   3.510   0.934   1.863
 1615TIP3    H1 4790   3.557   1.014   1.886
 1615TIP3    H2 4791   3.571   0.863   1.882
 1616TIP3   OH2 4792   5.407   4.945   4.896
 1616TIP3    H1 4793   5.467   4.926   4.968
 1616TIP3    H2 4794   5.367   4.861   4.874
 1617TIP3   OH2 4795   7.738   6.941   3.169
 1617TIP3    H1 4796   7.721   6.955   3.076
 1617TIP3    H2 4797   7.651   6.930   3.207
 1618TIP3   OH2 4798   6.908   0.294   4.132
 1618TIP3    H1 4799   6.878   0.336   4.052
 1618TIP3    H2 4800   6.892   0.201   4.119
 1619TIP3   OH2 4801   0.791   4.553   1.748
 1619TIP3    H1 4802   0.873   4.517   1.713
 1619TIP3    H2 4803   0.766   4.493   1.818
 1620TIP3   OH2 4804   1.852   7.613   0.957
 1620TIP3    H1 4805   1.931   7.656   0.990
 1620TIP3    H2 4806   1.850   7.635   0.864
 1621TIP3   OH2 4807   6.973   3.552   3.711
 1621TIP3    H1 4808   6.981   3.638   3.751
 1621TIP3    H2 4809   6.880   3.543   3.692
 1622TIP3   OH2 4810   0.618   6.138   2.028
 1622TIP3    H1 4811   0.632   6.112   2.119
 1622TIP3    H2 4812   0.621   6.234   2.030
 1623TIP3   OH2 4813   8.198   5.778   1.668
 1623TIP3    H1 4814   8.184   5.775   1.574
 1623TIP3    H2 4815   8.152   5.857   1.697
 1624TIP3   OH2 4816   8.142   2.364   2.416
 1624TIP3    H1 4817   8.234   2.341   2.413
 1624TIP3    H2 4818   8.112   2.333   2.501
 1625TIP3   OH2 4819   7.069   2.216   3.678
 1625TIP3    H1 4820   7.085   2.269   3.599
 1625TIP3    H2 4821   6.979   2.239   3.703
 1626TIP3   OH2 4822   7.835   7.288   1.149
 1626TIP3    H1 4823   7.817   7.342   1.072
 1626TIP3    H2 4824   7.816   7.345   1.224
 1627TIP3   OH2 4825   0.114   5.656   0.647
 1627TIP3    H1 4826   0.073   5.611   0.572
 1627TIP3    H2 4827   0.112   5.749   0.623
 1628TIP3   OH2 4828   4.887   1.919   5.067
 1628TIP3    H1 4829   4.875   2.007   5.103
 1628TIP3    H2 4830   4.910   1.933   4.975
 1629TIP3   OH2 4831   7.558   5.790   6.233
 1629TIP3    H1 4832   7.536   5.800   6.326
 1629TIP3    H2 4833   7.617   5.863   6.214
 1630TIP3   OH2 4834   2.884   1.050   3.517
 1630TIP3    H1 4835   2.843   1.136   3.507
 1630TIP3    H2 4836   2.811   0.988   3.507
 1631TIP3   OH2 4837   1.855   5.361   2.187
 1631TIP3    H1 4838   1.871   5.447   2.150
 1631TIP3    H2 4839   1.785   5.375   2.252
 1632TIP3   OH2 4840   5.505   3.066   1.720
 1632TIP3    H1 4841   5.454   2.986   1.736
 1632TIP3    H2 4842   5.469   3.102   1.639
 1633TIP3   OH2 4843   7.577   3.448   1.408
 1633TIP3    H1 4844   7.528   3.437   1.489
 1633TIP3    H2 4845   7.576   3.361   1.368
 1634TIP3   OH2 4846   7.993   1.968   2.318
 1634TIP3    H1 4847   8.025   2.029   2.252
 1634TIP3    H2 4848   7.899   1.981   2.320
 1635TIP3   OH2 4849   5.264   3.988   1.095
 1635TIP3    H1 4850   5.233   4.032   1.174
 1635TIP3    H2 4851   5.257   4.055   1.027
 1636TIP3   OH2 4852   0.445   0.342   4.303
 1636TIP3    H1 4853   0.354   0.333   4.331
 1636TIP3    H2 4854   0.460   0.436   4.299
 1637TIP3   OH2 4855   5.461   1.023   0.465
 1637TIP3    H1 4856   5.513   1.074   0.527
 1637TIP3    H2 4857   5.497   1.046   0.379
 1638TIP3   OH2 4858   8.035   4.132   1.778
 1638TIP3    H1 4859   8.109   4.083   1.742
 1638TIP3    H2 4860   8.019   4.092   1.864
 1639TIP3   OH2 4861   4.755   4.243   3.021
 1639TIP3    H1 4862   4.687   4.299   3.058
 1639TIP3    H2 4863   4.751   4.163   3.073
 1640TIP3   OH2 4864   5.236   6.048   2.877
 1640TIP3    H1 4865   5.203   6.107   2.809
 1640TIP3    H2 4866   5.167   5.982   2.887
 1641TIP3   OH2 4867   3.419   4.108   1.871
 1641TIP3    H1 4868   3.404   4.070   1.784
 1641TIP3    H2 4869   3.445   4.033   1.925
 1642TIP3   OH2 4870   4.734   1.595   2.524
 1642TIP3    H1 4871   4.743   1.615   2.617
 1642TIP3    H2 4872   4.792   1.658   2.480
 1643TIP3   OH2 4873   0.967   1.559   6.130
 1643TIP3    H1 4874   0.906   1.590   6.063
 1643TIP3    H2 4875   0.962   1.625   6.199
 1644TIP3   OH2 4876   3.542   3.532   5.548
 1644TIP3    H1 4877   3.552   3.620   5.511
 1644TIP3    H2 4878   3.492   3.545   5.628
 1645TIP3   OH2 4879   0.574   1.573   4.809
 1645TIP3    H1 4880   0.648   1.513   4.804
 1645TIP3    H2 4881   0.613   1.656   4.838
 1646TIP3   OH2 4882   0.292   4.179   3.465
 1646TIP3    H1 4883   0.357   4.229   3.514
 1646TIP3    H2 4884   0.225   4.156   3.530
 1647TIP3   OH2 4885   2.994   1.093   5.200
 1647TIP3    H1 4886   3.001   1.042   5.281
 1647TIP3    H2 4887   2.918   1.149   5.213
 1648TIP3   OH2 4888   4.718   1.796   5.532
 1648TIP3    H1 4889   4.805   1.829   5.552
 1648TIP3    H2 4890   4.710   1.717   5.586
 1649TIP3   OH2 4891   7.865   3.820   4.236
 1649TIP3    H1 4892   7.912   3.860   4.310
 1649TIP3    H2 4893   7.824   3.742   4.273
 1650TIP3   OH2 4894   1.957   7.740   6.118
 1650TIP3    H1 4895   1.894   7.668   6.108
 1650TIP3    H2 4896   1.954   7.786   6.034
 1651TIP3   OH2 4897   4.947   2.129   0.229
 1651TIP3    H1 4898   4.979   2.056   0.176
 1651TIP3    H2 4899   5.017   2.194   0.224
 1652TIP3   OH2 4900   4.196   0.112   5.529
 1652TIP3    H1 4901   4.153   0.028   5.512
 1652TIP3    H2 4902   4.125   0.170   5.556
 1653TIP3   OH2 4903   7.724   0.079   0.090
 1653TIP3    H1 4904   7.745   0.116   0.175
 1653TIP3    H2 4905   7.808   0.064   0.048
 1654TIP3   OH2 4906   4.871   6.329   2.559
 1654TIP3    H1 4907   4.815   6.400   2.590
 1654TIP3    H2 4908   4.809   6.263   2.527
 1655TIP3   OH2 4909   6.053   3.646   3.010
 1655TIP3    H1 4910   6.077   3.694   3.090
 1655TIP3    H2 4911   5.989   3.702   2.967
 1656TIP3   OH2 4912   0.825   4.205   6.759
 1656TIP3    H1 4913   0.843   4.118   6.722
 1656TIP3    H2 4914   0.754   4.240   6.705
 1657TIP3   OH2 4915   1.382   5.696   1.792
 1657TIP3    H1 4916   1.329   5.629   1.749
 1657TIP3    H2 4917   1.410   5.754   1.722
 1658TIP3   OH2 4918   6.723   7.257   1.685
 1658TIP3    H1 4919   6.653   7.300   1.734
 1658TIP3    H2 4920   6.708   7.285   1.594
 1659TIP3   OH2 4921   8.149   0.996   3.556
 1659TIP3    H1 4922   8.206   0.935   3.602
 1659TIP3    H2 4923   8.172   0.985   3.464
 1660TIP3   OH2 4924   7.019   2.871   6.199
 1660TIP3    H1 4925   7.074   2.914   6.135
 1660TIP3    H2 4926   7.074   2.861   6.276
 1661TIP3   OH2 4927   7.989   2.460   3.214
 1661TIP3    H1 4928   7.916   2.398   3.221
 1661TIP3    H2 4929   7.984   2.494   3.125
 1662TIP3   OH2 4930   1.347   3.755   3.788
 1662TIP3    H1 4931   1.439   3.753   3.763
 1662TIP3    H2 4932   1.345   3.717   3.875
 1663TIP3   OH2 4933   4.625   5.815   1.522
 1663TIP3    H1 4934   4.684   5.745   1.550
 1663TIP3    H2 4935   4.682   5.882   1.485
 1664TIP3   OH2 4936   5.383   1.441   0.414
 1664TIP3    H1 4937   5.339   1.363   0.380
 1664TIP3    H2 4938   5.414   1.487   0.336
 1665TIP3   OH2 4939   6.978   1.232   4.859
 1665TIP3    H1 4940   7.060   1.218   4.906
 1665TIP3    H2 4941   6.973   1.327   4.847
 1666TIP3   OH2 4942   0.967   4.006   0.161
 1666TIP3    H1 4943   0.981   4.100   0.162
 1666TIP3    H2 4944   0.975   3.982   0.068
 1667TIP3   OH2 4945   7.710   2.913   6.616
 1667TIP3    H1 4946   7.786   2.881   6.664
 1667TIP3    H2 4947   7.655   2.953   6.683
 1668TIP3   OH2 4948   6.396   5.478   5.407
 1668TIP3    H1 4949   6.410   5.522   5.323
 1668TIP3    H2 4950   6.353   5.544   5.461
 1669TIP3   OH2 4951   6.900   2.967   6.580
 1669TIP3    H1 4952   6.896   2.876   6.610
 1669TIP3    H2 4953   6.980   2.971   6.528
 1670TIP3   OH2 4954   4.868   5.474   3.622
 1670TIP3    H1 4955   4.907   5.387   3.628
 1670TIP3    H2 4956   4.834   5.479   3.533
 1671TIP3   OH2 4957   0.904   3.061   1.160
 1671TIP3    H1 4958   0.935   3.026   1.244
 1671TIP3    H2 4959   0.851   2.991   1.123
 1672TIP3   OH2 4960   1.013   4.662   1.470
 1672TIP3    H1 4961   0.999   4.599   1.541
 1672TIP3    H2 4962   1.105   4.688   1.480
 1673TIP3   OH2 4963   2.798   3.384   1.615
 1673TIP3    H1 4964   2.870   3.370   1.678
 1673TIP3    H2 4965   2.750   3.301   1.616
 1674TIP3   OH2 4966   6.839   2.136   2.792
 1674TIP3    H1 4967   6.886   2.219   2.798
 1674TIP3    H2 4968   6.904   2.074   2.758
 1675TIP3   OH2 4969   1.829   7.669   4.734
 1675TIP3    H1 4970   1.809   7.717   4.814
 1675TIP3    H2 4971   1.880   7.730   4.680
 1676TIP3   OH2 4972   6.391   0.910   6.044
 1676TIP3    H1 4973   6.453   0.984   6.042
 1676TIP3    H2 4974   6.414   0.858   5.967
 1677TIP3   OH2 4975   6.330   2.830   1.747
 1677TIP3    H1 4976   6.250   2.796   1.705
 1677TIP3    H2 4977   6.342   2.916   1.709
 1678TIP3   OH2 4978   5.178   0.178   3.420
 1678TIP3    H1 4979   5.132   0.242   3.475
 1678TIP3    H2 4980   5.229   0.231   3.358
 1679TIP3   OH2 4981   2.795   2.410   2.423
 1679TIP3    H1 4982   2.702   2.391   2.414
 1679TIP3    H2 4983   2.810   2.413   2.518
 1680TIP3   OH2 4984   5.792   6.388   2.538
 1680TIP3    H1 4985   5.775   6.465   2.591
 1680TIP3    H2 4986   5.725   6.324   2.565
 1681TIP3   OH2 4987   5.449   6.199   5.705
 1681TIP3    H1 4988   5.414   6.281   5.740
 1681TIP3    H2 4989   5.374   6.141   5.700
 1682TIP3   OH2 4990   7.290   1.373   0.115
 1682TIP3    H1 4991   7.210   1.386   0.166
 1682TIP3    H2 4992   7.302   1.278   0.112
 1683TIP3   OH2 4993   7.007   6.180   3.950
 1683TIP3    H1 4994   7.021   6.099   4.000
 1683TIP3    H2 4995   6.994   6.150   3.860
 1684TIP3   OH2 4996   7.504   4.663   2.264
 1684TIP3    H1 4997   7.587   4.673   2.311
 1684TIP3    H2 4998   7.520   4.706   2.179
 1685TIP3   OH2 4999   7.318   7.793   0.762
 1685TIP3    H1 5000   7.313   7.888   0.761
 1685TIP3    H2 5001   7.226   7.764   0.763
 1686TIP3   OH2 5002   7.265   6.082   3.475
 1686TIP3    H1 5003   7.270   6.035   3.391
 1686TIP3    H2 5004   7.335   6.043   3.528
 1687TIP3   OH2 5005   0.685   2.235  -0.002
 1687TIP3    H1 5006   0.722   2.170  -0.061
 1687TIP3    H2 5007   0.644   2.184   0.068
 1688TIP3   OH2 5008   4.262   2.978   2.092
 1688TIP3    H1 5009   4.288   2.975   1.999
 1688TIP3    H2 5010   4.332   3.028   2.135
 1689TIP3   OH2 5011   5.634   4.550   0.333
 1689TIP3    H1 5012   5.669   4.482   0.390
 1689TIP3    H2 5013   5.541   4.528   0.324
 1690TIP3   OH2 5014   8.110   0.201   2.978
 1690TIP3    H1 5015   8.114   0.216   2.883
 1690TIP3    H2 5016   8.027   0.155   2.991
 1691TIP3   OH2 5017   6.526   1.928   0.240
 1691TIP3    H1 5018   6.597   1.865   0.256
 1691TIP3    H2 5019   6.571   2.006   0.208
 1692TIP3   OH2 5020   8.035   6.955   1.402
 1692TIP3    H1 5021   7.984   6.946   1.483
 1692TIP3    H2 5022   8.010   7.041   1.367
 1693TIP3   OH2 5023   7.836   1.267   0.936
 1693TIP3    H1 5024   7.754   1.266   0.986
 1693TIP3    H2 5025   7.844   1.178   0.902
 1694TIP3   OH2 5026   6.292   3.101   2.831
 1694TIP3    H1 5027   6.354   3.079   2.761
 1694TIP3    H2 5028   6.340   3.159   2.889
 1695TIP3   OH2 5029   8.133   7.073   2.212
 1695TIP3    H1 5030   8.045   7.094   2.181
 1695TIP3    H2 5031   8.191   7.129   2.161
 1696TIP3   OH2 5032   3.740   3.958   1.226
 1696TIP3    H1 5033   3.724   4.013   1.150
 1696TIP3    H2 5034   3.656   3.953   1.271
 1697TIP3   OH2 5035   1.342   3.612   0.023
 1697TIP3    H1 5036   1.371   3.674  -0.044
 1697TIP3    H2 5037   1.417   3.554   0.036
 1698TIP3   OH2 5038   8.218   3.745   4.609
 1698TIP3    H1 5039   8.229   3.715   4.519
 1698TIP3    H2 5040   8.306   3.774   4.635
 1699TIP3   OH2 5041   3.135   5.703   5.255
 1699TIP3    H1 5042   3.221   5.717   5.214
 1699TIP3    H2 5043   3.135   5.610   5.279
 1700TIP3   OH2 5044   7.736   0.102   0.608
 1700TIP3    H1 5045   7.652   0.115   0.653
 1700TIP3    H2 5046   7.797   0.160   0.653
 1701TIP3   OH2 5047   0.957   1.135   2.401
 1701TIP3    H1 5048   0.868   1.113   2.430
 1701TIP3    H2 5049   1.008   1.056   2.420
 1702TIP3   OH2 5050   5.774   7.708   4.773
 1702TIP3    H1 5051   5.795   7.753   4.855
 1702TIP3    H2 5052   5.732   7.626   4.800
 1703TIP3   OH2 5053   3.338   5.944   0.205
 1703TIP3    H1 5054   3.365   5.866   0.156
 1703TIP3    H2 5055   3.302   5.909   0.287
 1704TIP3   OH2 5056   8.163   7.208   4.546
 1704TIP3    H1 5057   8.151   7.224   4.640
 1704TIP3    H2 5058   8.079   7.230   4.507
 1705TIP3   OH2 5059   3.581   4.471   5.857
 1705TIP3    H1 5060   3.510   4.500   5.914
 1705TIP3    H2 5061   3.598   4.380   5.884
 1706TIP3   OH2 5062   2.083   6.222   2.187
 1706TIP3    H1 5063   2.114   6.310   2.166
 1706TIP3    H2 5064   2.046   6.230   2.275
 1707TIP3   OH2 5065   5.257   3.853   2.771
 1707TIP3    H1 5066   5.176   3.847   2.821
 1707TIP3    H2 5067   5.233   3.901   2.692
 1708TIP3   OH2 5068   4.191   4.422   0.803
 1708TIP3    H1 5069   4.285   4.430   0.787
 1708TIP3    H2 5070   4.184   4.407   0.897
 1709TIP3   OH2 5071   1.839   4.202   0.620
 1709TIP3    H1 5072   1.815   4.239   0.535
 1709TIP3    H2 5073   1.935   4.201   0.620
 1710TIP3   OH2 5074   1.064   0.330   6.227
 1710TIP3    H1 5075   1.049   0.261   6.162
 1710TIP3    H2 5076   1.140   0.378   6.194
 1711TIP3   OH2 5077   0.666   1.651   4.521
 1711TIP3    H1 5078   0.703   1.564   4.507
 1711TIP3    H2 5079   0.672   1.664   4.616
 1712TIP3   OH2 5080   2.417   3.826   4.052
 1712TIP3    H1 5081   2.458   3.802   3.969
 1712TIP3    H2 5082   2.327   3.849   4.029
 1713TIP3   OH2 5083   0.433   7.258   0.681
 1713TIP3    H1 5084   0.450   7.332   0.623
 1713TIP3    H2 5085   0.519   7.233   0.713
 1714TIP3   OH2 5086   2.100   4.772   0.387
 1714TIP3    H1 5087   2.132   4.852   0.346
 1714TIP3    H2 5088   2.150   4.702   0.346
 1715TIP3   OH2 5089   1.057   3.842   0.935
 1715TIP3    H1 5090   1.005   3.913   0.974
 1715TIP3    H2 5091   1.037   3.765   0.989
 1716TIP3   OH2 5092   0.502   1.659   3.254
 1716TIP3    H1 5093   0.469   1.600   3.186
 1716TIP3    H2 5094   0.541   1.732   3.205
 1717TIP3   OH2 5095   0.981   6.066   1.476
 1717TIP3    H1 5096   0.904   6.107   1.438
 1717TIP3    H2 5097   1.039   6.138   1.498
 1718TIP3   OH2 5098   1.458   6.684   2.362
 1718TIP3    H1 5099   1.462   6.669   2.267
 1718TIP3    H2 5100   1.532   6.742   2.380
 1719TIP3   OH2 5101   3.843   5.164   5.994
 1719TIP3    H1 5102   3.840   5.074   5.963
 1719TIP3    H2 5103   3.935   5.181   6.012
 1720TIP3   OH2 5104   0.330   2.668   6.550
 1720TIP3    H1 5105   0.400   2.733   6.547
 1720TIP3    H2 5106   0.277   2.686   6.472
 1721TIP3   OH2 5107   6.028   3.148   0.816
 1721TIP3    H1 5108   5.999   3.119   0.729
 1721TIP3    H2 5109   5.994   3.237   0.823
 1722TIP3   OH2 5110   2.098   3.171   6.101
 1722TIP3    H1 5111   2.132   3.192   6.188
 1722TIP3    H2 5112   2.100   3.076   6.096
 1723TIP3   OH2 5113   0.565   2.798   3.460
 1723TIP3    H1 5114   0.651   2.771   3.428
 1723TIP3    H2 5115   0.534   2.724   3.512
 1724TIP3   OH2 5116   6.671   6.812   3.576
 1724TIP3    H1 5117   6.617   6.850   3.507
 1724TIP3    H2 5118   6.621   6.738   3.608
 1725TIP3   OH2 5119   0.510   3.663   2.527
 1725TIP3    H1 5120   0.418   3.637   2.522
 1725TIP3    H2 5121   0.533   3.653   2.619
 1726TIP3   OH2 5122   1.419   4.527   6.018
 1726TIP3    H1 5123   1.380   4.493   5.937
 1726TIP3    H2 5124   1.345   4.537   6.078
 1727TIP3   OH2 5125   5.688   1.722   4.200
 1727TIP3    H1 5126   5.690   1.683   4.113
 1727TIP3    H2 5127   5.778   1.750   4.216
 1728TIP3   OH2 5128   6.985   1.989   6.502
 1728TIP3    H1 5129   6.951   1.928   6.567
 1728TIP3    H2 5130   6.932   2.068   6.513
 1729TIP3   OH2 5131   4.867   2.289   6.605
 1729TIP3    H1 5132   4.889   2.255   6.692
 1729TIP3    H2 5133   4.829   2.215   6.559
 1730TIP3   OH2 5134   0.796   5.179   5.605
 1730TIP3    H1 5135   0.814   5.085   5.602
 1730TIP3    H2 5136   0.878   5.218   5.637
 1731TIP3   OH2 5137   5.376   4.602   4.630
 1731TIP3    H1 5138   5.428   4.579   4.707
 1731TIP3    H2 5139   5.289   4.566   4.649
 1732TIP3   OH2 5140   0.135   2.440   2.132
 1732TIP3    H1 5141   0.084   2.485   2.065
 1732TIP3    H2 5142   0.207   2.398   2.085
 1733TIP3   OH2 5143   2.825   5.260   2.171
 1733TIP3    H1 5144   2.823   5.219   2.085
 1733TIP3    H2 5145   2.797   5.192   2.231
 1734TIP3   OH2 5146   3.988   2.879   4.860
 1734TIP3    H1 5147   4.026   2.854   4.776
 1734TIP3    H2 5148   3.896   2.899   4.840
 1735TIP3   OH2 5149   6.399   2.489   3.534
 1735TIP3    H1 5150   6.325   2.530   3.577
 1735TIP3    H2 5151   6.412   2.539   3.453
 1736TIP3   OH2 5152   3.613   5.341   6.161
 1736TIP3    H1 5153   3.535   5.348   6.106
 1736TIP3    H2 5154   3.671   5.282   6.113
 1737TIP3   OH2 5155   7.116   5.646   3.992
 1737TIP3    H1 5156   7.046   5.596   4.034
 1737TIP3    H2 5157   7.094   5.645   3.899
 1738TIP3   OH2 5158   2.063   7.448   0.035
 1738TIP3    H1 5159   2.099   7.523  -0.011
 1738TIP3    H2 5160   1.987   7.482   0.081
 1739TIP3   OH2 5161   0.289   0.833   5.422
 1739TIP3    H1 5162   0.332   0.894   5.363
 1739TIP3    H2 5163   0.196   0.837   5.398
 1740TIP3   OH2 5164   1.922   4.359   1.104
 1740TIP3    H1 5165   1.852   4.399   1.156
 1740TIP3    H2 5166   1.945   4.426   1.040
 1741TIP3   OH2 5167   7.395   4.165   1.794
 1741TIP3    H1 5168   7.372   4.236   1.735
 1741TIP3    H2 5169   7.359   4.191   1.879
 1742TIP3   OH2 5170   0.611   2.992   0.942
 1742TIP3    H1 5171   0.680   2.927   0.959
 1742TIP3    H2 5172   0.538   2.964   0.996
 1743TIP3   OH2 5173   5.919   5.893   4.182
 1743TIP3    H1 5174   5.866   5.833   4.235
 1743TIP3    H2 5175   6.008   5.857   4.188
 1744TIP3   OH2 5176   0.065   5.340   2.523
 1744TIP3    H1 5177   0.108   5.271   2.574
 1744TIP3    H2 5178   0.103   5.422   2.556
 1745TIP3   OH2 5179   7.384   6.817   5.276
 1745TIP3    H1 5180   7.480   6.823   5.281
 1745TIP3    H2 5181   7.361   6.746   5.336
 1746TIP3   OH2 5182   2.165   0.334   6.639
 1746TIP3    H1 5183   2.168   0.266   6.706
 1746TIP3    H2 5184   2.072   0.346   6.621
 1747TIP3   OH2 5185   4.862   2.631   3.660
 1747TIP3    H1 5186   4.811   2.550   3.656
 1747TIP3    H2 5187   4.806   2.692   3.708
 1748TIP3   OH2 5188   2.297   6.829   3.240
 1748TIP3    H1 5189   2.311   6.829   3.335
 1748TIP3    H2 5190   2.222   6.886   3.227
 1749TIP3   OH2 5191   4.935   0.908   2.987
 1749TIP3    H1 5192   4.930   0.816   2.962
 1749TIP3    H2 5193   4.940   0.907   3.083
 1750TIP3   OH2 5194   2.774   4.430   6.249
 1750TIP3    H1 5195   2.815   4.505   6.292
 1750TIP3    H2 5196   2.844   4.390   6.197
 1751TIP3   OH2 5197   4.684   5.366   3.051
 1751TIP3    H1 5198   4.682   5.402   2.962
 1751TIP3    H2 5199   4.772   5.329   3.059
 1752TIP3   OH2 5200   1.469   0.923   1.866
 1752TIP3    H1 5201   1.503   0.989   1.927
 1752TIP3    H2 5202   1.422   0.861   1.922
 1753TIP3   OH2 5203   0.985   0.310   2.519
 1753TIP3    H1 5204   0.907   0.271   2.481
 1753TIP3    H2 5205   0.992   0.269   2.606
 1754TIP3   OH2 5206   0.982   7.680   1.816
 1754TIP3    H1 5207   0.930   7.600   1.802
 1754TIP3    H2 5208   0.970   7.731   1.736
 1755TIP3   OH2 5209   8.145   7.473   5.396
 1755TIP3    H1 5210   8.203   7.494   5.468
 1755TIP3    H2 5211   8.202   7.435   5.329
 1756TIP3   OH2 5212   4.116   3.900   1.869
 1756TIP3    H1 5213   4.117   3.970   1.803
 1756TIP3    H2 5214   4.123   3.945   1.953
 1757TIP3   OH2 5215   0.101   0.051   6.541
 1757TIP3    H1 5216   0.112   0.014   6.629
 1757TIP3    H2 5217   0.026   0.110   6.549
 1758TIP3   OH2 5218   7.278   4.351   2.235
 1758TIP3    H1 5219   7.262   4.317   2.147
 1758TIP3    H2 5220   7.264   4.275   2.292
 1759TIP3   OH2 5221   4.555   1.911   5.331
 1759TIP3    H1 5222   4.616   1.887   5.401
 1759TIP3    H2 5223   4.497   1.976   5.371
 1760TIP3   OH2 5224   0.377   7.336   3.740
 1760TIP3    H1 5225   0.377   7.292   3.825
 1760TIP3    H2 5226   0.285   7.336   3.713
 1761TIP3   OH2 5227   3.169   2.700   1.020
 1761TIP3    H1 5228   3.256   2.671   1.049
 1761TIP3    H2 5229   3.129   2.737   1.099
 1762TIP3   OH2 5230   7.039   7.409   5.044
 1762TIP3    H1 5231   6.995   7.350   4.983
 1762TIP3    H2 5232   7.034   7.495   5.002
 1763TIP3   OH2 5233   4.629   0.646   3.040
 1763TIP3    H1 5234   4.723   0.659   3.056
 1763TIP3    H2 5235   4.604   0.721   2.985
 1764TIP3   OH2 5236   1.708   6.533   5.582
 1764TIP3    H1 5237   1.734   6.570   5.666
 1764TIP3    H2 5238   1.724   6.439   5.592
 1765TIP3   OH2 5239   0.131   4.581   4.373
 1765TIP3    H1 5240   0.093   4.536   4.449
 1765TIP3    H2 5241   0.210   4.623   4.407
 1766TIP3   OH2 5242   4.958   2.980   2.747
 1766TIP3    H1 5243   4.870   2.999   2.714
 1766TIP3    H2 5244   4.963   3.027   2.830
 1767TIP3   OH2 5245   6.813   4.439   3.543
 1767TIP3    H1 5246   6.749   4.374   3.571
 1767TIP3    H2 5247   6.811   4.435   3.447
 1768TIP3   OH2 5248   3.979   0.087   2.698
 1768TIP3    H1 5249   3.902   0.107   2.750
 1768TIP3    H2 5250   4.048   0.071   2.762
 1769TIP3   OH2 5251   6.656   4.610   0.827
 1769TIP3    H1 5252   6.647   4.700   0.861
 1769TIP3    H2 5253   6.731   4.574   0.875
 1770TIP3   OH2 5254   7.686   2.593   0.217
 1770TIP3    H1 5255   7.637   2.669   0.185
 1770TIP3    H2 5256   7.758   2.631   0.268
 1771TIP3   OH2 5257   7.146   4.509   1.819
 1771TIP3    H1 5258   7.200   4.581   1.851
 1771TIP3    H2 5259   7.122   4.535   1.730
 1772TIP3   OH2 5260   8.107   6.726   0.790
 1772TIP3    H1 5261   8.112   6.816   0.823
 1772TIP3    H2 5262   8.157   6.727   0.709
 1773TIP3   OH2 5263   4.763   1.043   0.648
 1773TIP3    H1 5264   4.778   0.988   0.571
 1773TIP3    H2 5265   4.736   0.982   0.716
 1774TIP3   OH2 5266   6.455   2.895   6.703
 1774TIP3    H1 5267   6.426   2.959   6.769
 1774TIP3    H2 5268   6.421   2.928   6.620
 1775TIP3   OH2 5269   8.033   7.623   1.033
 1775TIP3    H1 5270   7.959   7.652   0.980
 1775TIP3    H2 5271   8.059   7.539   0.995
 1776TIP3   OH2 5272   7.692   6.582   2.267
 1776TIP3    H1 5273   7.776   6.580   2.221
 1776TIP3    H2 5274   7.694   6.663   2.318
 1777TIP3   OH2 5275   4.760   2.067   1.390
 1777TIP3    H1 5276   4.734   2.142   1.443
 1777TIP3    H2 5277   4.678   2.025   1.365
 1778TIP3   OH2 5278   0.776   5.855   5.078
 1778TIP3    H1 5279   0.694   5.871   5.125
 1778TIP3    H2 5280   0.805   5.941   5.049
 1779TIP3   OH2 5281   5.229   5.185   4.479
 1779TIP3    H1 5282   5.255   5.185   4.387
 1779TIP3    H2 5283   5.297   5.134   4.523
 1780TIP3   OH2 5284   8.110   6.971   4.893
 1780TIP3    H1 5285   8.068   7.056   4.881
 1780TIP3    H2 5286   8.105   6.929   4.807
 1781TIP3   OH2 5287   3.908   6.027   2.492
 1781TIP3    H1 5288   3.824   5.999   2.455
 1781TIP3    H2 5289   3.912   5.983   2.577
 1782TIP3   OH2 5290   3.794   7.427   0.849
 1782TIP3    H1 5291   3.864   7.371   0.816
 1782TIP3    H2 5292   3.786   7.405   0.942
 1783TIP3   OH2 5293   4.227   4.052   5.729
 1783TIP3    H1 5294   4.246   4.145   5.743
 1783TIP3    H2 5295   4.216   4.043   5.635
 1784TIP3   OH2 5296   3.327   5.062   2.016
 1784TIP3    H1 5297   3.339   5.135   1.954
 1784TIP3    H2 5298   3.394   5.076   2.083
 1785TIP3   OH2 5299   6.915   5.955   5.576
 1785TIP3    H1 5300   6.904   5.972   5.670
 1785TIP3    H2 5301   6.852   5.886   5.557
 1786TIP3   OH2 5302   7.407   2.792   1.147
 1786TIP3    H1 5303   7.490   2.753   1.119
 1786TIP3    H2 5304   7.364   2.818   1.066
 1787TIP3   OH2 5305   6.075   4.901   4.096
 1787TIP3    H1 5306   6.086   4.955   4.175
 1787TIP3    H2 5307   6.071   4.963   4.024
 1788TIP3   OH2 5308   7.396   5.781   4.890
 1788TIP3    H1 5309   7.442   5.773   4.974
 1788TIP3    H2 5310   7.453   5.837   4.837
 1789TIP3   OH2 5311   7.509   2.382   1.965
 1789TIP3    H1 5312   7.515   2.295   2.004
 1789TIP3    H2 5313   7.446   2.429   2.021
 1790TIP3   OH2 5314   4.990   1.828   0.496
 1790TIP3    H1 5315   4.981   1.737   0.523
 1790TIP3    H2 5316   4.949   1.831   0.410
 1791TIP3   OH2 5317   4.434   6.267   2.474
 1791TIP3    H1 5318   4.430   6.180   2.434
 1791TIP3    H2 5319   4.408   6.253   2.565
 1792TIP3   OH2 5320   2.798   1.706   5.978
 1792TIP3    H1 5321   2.772   1.773   6.040
 1792TIP3    H2 5322   2.880   1.671   6.012
 1793TIP3   OH2 5323   4.277   1.977   0.797
 1793TIP3    H1 5324   4.206   2.014   0.743
 1793TIP3    H2 5325   4.233   1.912   0.852
 1794TIP3   OH2 5326   0.969   3.789   2.485
 1794TIP3    H1 5327   0.890   3.736   2.473
 1794TIP3    H2 5328   0.981   3.792   2.580
 1795TIP3   OH2 5329   0.367   5.679   1.073
 1795TIP3    H1 5330   0.410   5.632   1.144
 1795TIP3    H2 5331   0.362   5.614   1.002
 1796TIP3   OH2 5332   3.600   4.061   0.170
 1796TIP3    H1 5333   3.568   3.974   0.193
 1796TIP3    H2 5334   3.693   4.048   0.150
 1797TIP3   OH2 5335   3.376   1.843   2.295
 1797TIP3    H1 5336   3.305   1.779   2.293
 1797TIP3    H2 5337   3.392   1.864   2.204
 1798TIP3   OH2 5338   2.313   1.401   3.119
 1798TIP3    H1 5339   2.247   1.334   3.140
 1798TIP3    H2 5340   2.345   1.377   3.032
 1799TIP3   OH2 5341   3.939   6.932   5.037
 1799TIP3    H1 5342   3.890   6.875   5.096
 1799TIP3    H2 5343   3.996   6.984   5.094
 1800TIP3   OH2 5344   3.814   7.271   2.101
 1800TIP3    H1 5345   3.826   7.237   2.190
 1800TIP3    H2 5346   3.741   7.219   2.066
 1801TIP3   OH2 5347   7.891   5.785   0.748
 1801TIP3    H1 5348   7.893   5.751   0.838
 1801TIP3    H2 5349   7.967   5.844   0.743
 1802TIP3   OH2 5350   3.396   7.344   1.252
 1802TIP3    H1 5351   3.307   7.335   1.216
 1802TIP3    H2 5352   3.388   7.412   1.318
 1803TIP3   OH2 5353   6.099   5.333   1.962
 1803TIP3    H1 5354   6.089   5.313   1.869
 1803TIP3    H2 5355   6.011   5.325   1.998
 1804TIP3   OH2 5356   1.576   2.392   5.880
 1804TIP3    H1 5357   1.600   2.441   5.959
 1804TIP3    H2 5358   1.633   2.427   5.812
 1805TIP3   OH2 5359   1.242   7.601   2.520
 1805TIP3    H1 5360   1.300   7.659   2.569
 1805TIP3    H2 5361   1.204   7.543   2.586
 1806TIP3   OH2 5362   7.205   1.097   6.250
 1806TIP3    H1 5363   7.225   1.092   6.156
 1806TIP3    H2 5364   7.231   1.012   6.285
 1807TIP3   OH2 5365   0.593   7.096   0.085
 1807TIP3    H1 5366   0.605   7.162   0.154
 1807TIP3    H2 5367   0.556   7.145   0.011
 1808TIP3   OH2 5368   7.676   4.607   5.703
 1808TIP3    H1 5369   7.699   4.532   5.758
 1808TIP3    H2 5370   7.713   4.683   5.749
 1809TIP3   OH2 5371   8.226   0.868   3.066
 1809TIP3    H1 5372   8.224   0.773   3.068
 1809TIP3    H2 5373   8.148   0.894   3.018
 1810TIP3   OH2 5374   8.064   1.435   0.829
 1810TIP3    H1 5375   7.983   1.385   0.828
 1810TIP3    H2 5376   8.126   1.384   0.777
 1811TIP3   OH2 5377   3.853   2.392   4.271
 1811TIP3    H1 5378   3.916   2.440   4.215
 1811TIP3    H2 5379   3.807   2.461   4.319
 1812TIP3   OH2 5380   2.168   0.675   4.819
 1812TIP3    H1 5381   2.241   0.719   4.776
 1812TIP3    H2 5382   2.096   0.680   4.755
 1813TIP3   OH2 5383   0.972   1.563   3.806
 1813TIP3    H1 5384   0.896   1.589   3.754
 1813TIP3    H2 5385   0.937   1.551   3.895
 1814TIP3   OH2 5386   5.074   3.965   5.118
 1814TIP3    H1 5387   5.108   4.039   5.068
 1814TIP3    H2 5388   5.116   3.972   5.203
 1815TIP3   OH2 5389   2.150   3.162   0.176
 1815TIP3    H1 5390   2.131   3.199   0.089
 1815TIP3    H2 5391   2.076   3.190   0.230
 1816TIP3   OH2 5392   1.202   5.067   1.342
 1816TIP3    H1 5393   1.284   5.018   1.340
 1816TIP3    H2 5394   1.225   5.153   1.309
 1817TIP3   OH2 5395   0.382   6.171   1.832
 1817TIP3    H1 5396   0.383   6.144   1.924
 1817TIP3    H2 5397   0.415   6.094   1.785
 1818TIP3   OH2 5398   4.759   3.568   0.188
 1818TIP3    H1 5399   4.756   3.662   0.206
 1818TIP3    H2 5400   4.672   3.548   0.152
 1819TIP3   OH2 5401   0.194   6.532   4.673
 1819TIP3    H1 5402   0.183   6.601   4.739
 1819TIP3    H2 5403   0.273   6.485   4.701
 1820TIP3   OH2 5404   0.976   5.204   4.613
 1820TIP3    H1 5405   0.967   5.136   4.546
 1820TIP3    H2 5406   0.943   5.283   4.572
 1821TIP3   OH2 5407   6.346   4.180   5.358
 1821TIP3    H1 5408   6.388   4.156   5.275
 1821TIP3    H2 5409   6.419   4.196   5.418
 1822TIP3   OH2 5410   6.513   7.463   6.399
 1822TIP3    H1 5411   6.488   7.551   6.424
 1822TIP3    H2 5412   6.460   7.443   6.322
 1823TIP3   OH2 5413   5.551   0.621   4.851
 1823TIP3    H1 5414   5.498   0.552   4.811
 1823TIP3    H2 5415   5.636   0.614   4.808
 1824TIP3   OH2 5416   0.096   4.817   1.140
 1824TIP3    H1 5417   0.148   4.852   1.068
 1824TIP3    H2 5418   0.158   4.805   1.211
 1825TIP3   OH2 5419   5.929   6.964   5.059
 1825TIP3    H1 5420   6.005   6.945   5.005
 1825TIP3    H2 5421   5.960   7.027   5.123
 1826TIP3   OH2 5422   2.084   1.832   1.026
 1826TIP3    H1 5423   2.009   1.806   0.973
 1826TIP3    H2 5424   2.159   1.788   0.984
 1827TIP3   OH2 5425   3.316   0.771   1.017
 1827TIP3    H1 5426   3.266   0.821   1.082
 1827TIP3    H2 5427   3.397   0.820   1.007
 1828TIP3   OH2 5428   7.541   5.225   4.687
 1828TIP3    H1 5429   7.582   5.248   4.771
 1828TIP3    H2 5430   7.599   5.160   4.649
 1829TIP3   OH2 5431   5.464   5.150   3.338
 1829TIP3    H1 5432   5.501   5.070   3.375
 1829TIP3    H2 5433   5.500   5.154   3.249
 1830TIP3   OH2 5434   0.922   1.735   5.717
 1830TIP3    H1 5435   1.017   1.740   5.729
 1830TIP3    H2 5436   0.894   1.669   5.781
 1831TIP3   OH2 5437   6.632   7.637   6.124
 1831TIP3    H1 5438   6.632   7.583   6.045
 1831TIP3    H2 5439   6.545   7.626   6.161
 1832TIP3   OH2 5440   7.030   1.184   1.997
 1832TIP3    H1 5441   7.048   1.239   1.921
 1832TIP3    H2 5442   6.986   1.106   1.960
 1833TIP3   OH2 5443   6.606   2.477   2.335
 1833TIP3    H1 5444   6.689   2.463   2.289
 1833TIP3    H2 5445   6.606   2.409   2.404
 1834TIP3   OH2 5446   0.345   2.186   2.915
 1834TIP3    H1 5447   0.381   2.160   3.000
 1834TIP3    H2 5448   0.334   2.103   2.867
 1835TIP3   OH2 5449   2.174   4.983   6.451
 1835TIP3    H1 5450   2.231   5.036   6.507
 1835TIP3    H2 5451   2.093   5.033   6.444
 1836TIP3   OH2 5452   6.691   4.315   1.109
 1836TIP3    H1 5453   6.637   4.287   1.183
 1836TIP3    H2 5454   6.739   4.236   1.083
 1837TIP3   OH2 5455   0.382   7.492   6.408
 1837TIP3    H1 5456   0.384   7.558   6.478
 1837TIP3    H2 5457   0.336   7.418   6.446
 1838TIP3   OH2 5458   3.890   4.965   4.007
 1838TIP3    H1 5459   3.825   4.998   3.944
 1838TIP3    H2 5460   3.959   4.928   3.952
 1839TIP3   OH2 5461   8.196   1.807   2.417
 1839TIP3    H1 5462   8.123   1.858   2.383
 1839TIP3    H2 5463   8.265   1.817   2.351
 1840TIP3   OH2 5464   3.158   6.993   1.934
 1840TIP3    H1 5465   3.143   7.036   1.850
 1840TIP3    H2 5466   3.169   6.900   1.912
 1841TIP3   OH2 5467   0.541   3.517   0.894
 1841TIP3    H1 5468   0.583   3.431   0.893
 1841TIP3    H2 5469   0.540   3.542   0.987
 1842TIP3   OH2 5470   2.418   5.388   5.185
 1842TIP3    H1 5471   2.322   5.391   5.186
 1842TIP3    H2 5472   2.443   5.454   5.120
 1843TIP3   OH2 5473   6.315   2.165   1.025
 1843TIP3    H1 5474   6.259   2.242   1.020
 1843TIP3    H2 5475   6.359   2.162   0.940
 1844TIP3   OH2 5476   6.541   3.361   2.292
 1844TIP3    H1 5477   6.547   3.388   2.200
 1844TIP3    H2 5478   6.470   3.415   2.328
 1845TIP3   OH2 5479   2.435   0.171   1.755
 1845TIP3    H1 5480   2.441   0.080   1.724
 1845TIP3    H2 5481   2.507   0.180   1.817
 1846TIP3   OH2 5482   7.022   4.228   3.884
 1846TIP3    H1 5483   7.025   4.322   3.866
 1846TIP3    H2 5484   6.966   4.220   3.962
 1847TIP3   OH2 5485   3.227   2.644   1.988
 1847TIP3    H1 5486   3.164   2.577   1.959
 1847TIP3    H2 5487   3.285   2.597   2.048
 1848TIP3   OH2 5488   4.947   3.993   4.766
 1848TIP3    H1 5489   4.994   3.915   4.793
 1848TIP3    H2 5490   4.972   4.006   4.674
 1849TIP3   OH2 5491   4.903   1.838   4.529
 1849TIP3    H1 5492   4.911   1.874   4.618
 1849TIP3    H2 5493   4.850   1.760   4.540
 1850TIP3   OH2 5494   6.211   7.611   5.332
 1850TIP3    H1 5495   6.259   7.531   5.311
 1850TIP3    H2 5496   6.279   7.676   5.352
 1851TIP3   OH2 5497   0.053   3.131   4.402
 1851TIP3    H1 5498   0.106   3.051   4.401
 1851TIP3    H2 5499   0.105   3.194   4.352
 1852TIP3   OH2 5500   4.850   4.612   2.313
 1852TIP3    H1 5501   4.931   4.579   2.351
 1852TIP3    H2 5502   4.824   4.684   2.370
 1853TIP3   OH2 5503   7.324   5.612   2.907
 1853TIP3    H1 5504   7.414   5.642   2.898
 1853TIP3    H2 5505   7.280   5.645   2.829
 1854TIP3   OH2 5506   8.276   4.760   2.081
 1854TIP3    H1 5507   8.275   4.855   2.076
 1854TIP3    H2 5508   8.201   4.732   2.028
 1855TIP3   OH2 5509   6.131   6.935   4.858
 1855TIP3    H1 5510   6.194   6.934   4.930
 1855TIP3    H2 5511   6.185   6.947   4.780
 1856TIP3   OH2 5512   7.499   4.199   2.533
 1856TIP3    H1 5513   7.564   4.222   2.600
 1856TIP3    H2 5514   7.435   4.271   2.537
 1857TIP3   OH2 5515   3.915   6.011   6.293
 1857TIP3    H1 5516   3.981   5.993   6.361
 1857TIP3    H2 5517   3.922   6.105   6.277
 1858TIP3   OH2 5518   3.404   2.822   6.694
 1858TIP3    H1 5519   3.328   2.880   6.682
 1858TIP3    H2 5520   3.371   2.752   6.751
 1859TIP3   OH2 5521   2.548   1.081   5.883
 1859TIP3    H1 5522   2.562   1.008   5.822
 1859TIP3    H2 5523   2.493   1.044   5.952
 1860TIP3   OH2 5524   3.418   7.656   6.413
 1860TIP3    H1 5525   3.403   7.562   6.404
 1860TIP3    H2 5526   3.499   7.673   6.364
 1861TIP3   OH2 5527   3.426   2.274   6.298
 1861TIP3    H1 5528   3.439   2.355   6.249
 1861TIP3    H2 5529   3.459   2.205   6.240
 1862TIP3   OH2 5530   3.436   5.169   5.896
 1862TIP3    H1 5531   3.483   5.104   5.947
 1862TIP3    H2 5532   3.504   5.217   5.849
 1863TIP3   OH2 5533   5.299   1.333   6.636
 1863TIP3    H1 5534   5.257   1.265   6.584
 1863TIP3    H2 5535   5.383   1.350   6.591
 1864TIP3   OH2 5536   5.405   5.208   4.972
 1864TIP3    H1 5537   5.423   5.127   4.925
 1864TIP3    H2 5538   5.444   5.277   4.918
 1865TIP3   OH2 5539   4.081   0.081   3.235
 1865TIP3    H1 5540   4.162   0.130   3.223
 1865TIP3    H2 5541   4.026   0.138   3.289
 1866TIP3   OH2 5542   2.525   6.141   0.572
 1866TIP3    H1 5543   2.471   6.124   0.650
 1866TIP3    H2 5544   2.515   6.062   0.519
 1867TIP3   OH2 5545   4.229   7.435   4.119
 1867TIP3    H1 5546   4.256   7.418   4.209
 1867TIP3    H2 5547   4.246   7.352   4.073
 1868TIP3   OH2 5548   0.293   5.322   3.515
 1868TIP3    H1 5549   0.228   5.252   3.509
 1868TIP3    H2 5550   0.248   5.394   3.559
 1869TIP3   OH2 5551   6.151   3.868   5.362
 1869TIP3    H1 5552   6.135   3.798   5.424
 1869TIP3    H2 5553   6.223   3.836   5.307
 1870TIP3   OH2 5554   6.090   1.895   2.873
 1870TIP3    H1 5555   6.165   1.930   2.919
 1870TIP3    H2 5556   6.082   1.805   2.905
 1871TIP3   OH2 5557   5.316   6.646   2.409
 1871TIP3    H1 5558   5.359   6.586   2.347
 1871TIP3    H2 5559   5.277   6.713   2.353
 1872TIP3   OH2 5560   0.610   7.057   1.181
 1872TIP3    H1 5561   0.695   7.057   1.223
 1872TIP3    H2 5562   0.614   7.130   1.119
 1873TIP3   OH2 5563   8.107   4.154   0.384
 1873TIP3    H1 5564   8.154   4.172   0.303
 1873TIP3    H2 5565   8.168   4.179   0.453
 1874TIP3   OH2 5566   0.797   4.557   6.792
 1874TIP3    H1 5567   0.760   4.561   6.704
 1874TIP3    H2 5568   0.874   4.501   6.784
 1875TIP3   OH2 5569   1.181   7.352   5.474
 1875TIP3    H1 5570   1.120   7.280   5.491
 1875TIP3    H2 5571   1.160   7.418   5.540
 1876TIP3   OH2 5572   6.986   1.472   5.686
 1876TIP3    H1 5573   6.943   1.550   5.651
 1876TIP3    H2 5574   6.915   1.412   5.706
 1877TIP3   OH2 5575   7.787   1.240   0.295
 1877TIP3    H1 5576   7.706   1.289   0.299
 1877TIP3    H2 5577   7.853   1.304   0.270
 1878TIP3   OH2 5578   4.277   7.564   1.988
 1878TIP3    H1 5579   4.246   7.482   1.951
 1878TIP3    H2 5580   4.331   7.603   1.920
 1879TIP3   OH2 5581   5.415   4.544   6.312
 1879TIP3    H1 5582   5.488   4.566   6.253
 1879TIP3    H2 5583   5.340   4.533   6.254
 1880TIP3   OH2 5584   2.171   2.635   1.126
 1880TIP3    H1 5585   2.085   2.639   1.167
 1880TIP3    H2 5586   2.198   2.544   1.135
 1881TIP3   OH2 5587   5.739   7.305   2.648
 1881TIP3    H1 5588   5.675   7.239   2.622
 1881TIP3    H2 5589   5.710   7.333   2.735
 1882TIP3   OH2 5590   4.331   1.957   5.514
 1882TIP3    H1 5591   4.389   2.032   5.527
 1882TIP3    H2 5592   4.243   1.993   5.518
 1883TIP3   OH2 5593   2.900   7.149   0.827
 1883TIP3    H1 5594   2.921   7.134   0.735
 1883TIP3    H2 5595   2.820   7.202   0.825
 1884TIP3   OH2 5596   3.373   7.504   3.898
 1884TIP3    H1 5597   3.446   7.442   3.891
 1884TIP3    H2 5598   3.299   7.458   3.859
 1885TIP3   OH2 5599   5.862   1.604   0.938
 1885TIP3    H1 5600   5.956   1.618   0.926
 1885TIP3    H2 5601   5.827   1.691   0.958
 1886TIP3   OH2 5602   4.813   2.048   3.361
 1886TIP3    H1 5603   4.808   2.121   3.423
 1886TIP3    H2 5604   4.737   2.060   3.304
 1887TIP3   OH2 5605   3.536   3.632   3.125
 1887TIP3    H1 5606   3.506   3.573   3.194
 1887TIP3    H2 5607   3.574   3.574   3.059
 1888TIP3   OH2 5608   0.222   1.683   3.419
 1888TIP3    H1 5609   0.262   1.602   3.449
 1888TIP3    H2 5610   0.149   1.698   3.480
 1889TIP3   OH2 5611   4.546   4.767   5.298
 1889TIP3    H1 5612   4.622   4.803   5.342
 1889TIP3    H2 5613   4.539   4.677   5.330
 1890TIP3   OH2 5614   2.448   1.833   0.028
 1890TIP3    H1 5615   2.437   1.797   0.116
 1890TIP3    H2 5616   2.395   1.776  -0.028
 1891TIP3   OH2 5617   3.591   5.719   3.199
 1891TIP3    H1 5618   3.498   5.702   3.180
 1891TIP3    H2 5619   3.589   5.794   3.259
 1892TIP3   OH2 5620   5.369   6.050   0.349
 1892TIP3    H1 5621   5.406   6.089   0.269
 1892TIP3    H2 5622   5.358   6.124   0.408
 1893TIP3   OH2 5623   3.285   3.307   1.139
 1893TIP3    H1 5624   3.380   3.318   1.133
 1893TIP3    H2 5625   3.249   3.389   1.107
 1894TIP3   OH2 5626   6.915   1.578   2.711
 1894TIP3    H1 5627   6.945   1.555   2.623
 1894TIP3    H2 5628   6.828   1.616   2.697
 1895TIP3   OH2 5629   7.665   3.348   5.083
 1895TIP3    H1 5630   7.570   3.357   5.082
 1895TIP3    H2 5631   7.681   3.264   5.039
 1896TIP3   OH2 5632   4.914   3.971   6.003
 1896TIP3    H1 5633   5.009   3.956   6.003
 1896TIP3    H2 5634   4.884   3.932   5.921
 1897TIP3   OH2 5635   2.454   7.571   0.329
 1897TIP3    H1 5636   2.432   7.498   0.387
 1897TIP3    H2 5637   2.527   7.615   0.373
 1898TIP3   OH2 5638   3.830   4.097   1.883
 1898TIP3    H1 5639   3.768   4.163   1.850
 1898TIP3    H2 5640   3.859   4.131   1.968
 1899TIP3   OH2 5641   0.316   5.396   3.945
 1899TIP3    H1 5642   0.395   5.341   3.937
 1899TIP3    H2 5643   0.350   5.482   3.971
 1900TIP3   OH2 5644   7.914   2.253   3.671
 1900TIP3    H1 5645   7.848   2.299   3.723
 1900TIP3    H2 5646   7.996   2.268   3.717
 1901TIP3   OH2 5647   2.740   6.022   5.510
 1901TIP3    H1 5648   2.713   6.014   5.601
 1901TIP3    H2 5649   2.659   6.041   5.463
 1902TIP3   OH2 5650   3.140   6.489   0.260
 1902TIP3    H1 5651   3.206   6.442   0.209
 1902TIP3    H2 5652   3.091   6.421   0.306
 1903TIP3   OH2 5653   6.304   1.339   6.038
 1903TIP3    H1 5654   6.311   1.297   5.952
 1903TIP3    H2 5655   6.276   1.268   6.096
 1904TIP3   OH2 5656   5.176   0.860   0.219
 1904TIP3    H1 5657   5.168   0.891   0.309
 1904TIP3    H2 5658   5.215   0.934   0.172
 1905TIP3   OH2 5659   7.967   2.691   0.743
 1905TIP3    H1 5660   7.946   2.631   0.672
 1905TIP3    H2 5661   7.971   2.777   0.701
 1906TIP3   OH2 5662   4.308   7.416   4.414
 1906TIP3    H1 5663   4.390   7.430   4.366
 1906TIP3    H2 5664   4.320   7.465   4.496
 1907TIP3   OH2 5665   6.855   5.101   0.557
 1907TIP3    H1 5666   6.767   5.085   0.524
 1907TIP3    H2 5667   6.903   5.021   0.536
 1908TIP3   OH2 5668   3.067   2.023   4.712
 1908TIP3    H1 5669   2.975   2.002   4.693
 1908TIP3    H2 5670   3.063   2.080   4.788
 1909TIP3   OH2 5671   4.652   7.626   4.110
 1909TIP3    H1 5672   4.628   7.696   4.171
 1909TIP3    H2 5673   4.630   7.661   4.024
 1910TIP3   OH2 5674   4.266   0.719   5.915
 1910TIP3    H1 5675   4.323   0.727   5.992
 1910TIP3    H2 5676   4.204   0.650   5.938
 1911TIP3   OH2 5677   4.307   2.035   2.719
 1911TIP3    H1 5678   4.244   1.982   2.670
 1911TIP3    H2 5679   4.253   2.101   2.763
 1912TIP3   OH2 5680   3.977   1.625   6.256
 1912TIP3    H1 5681   3.957   1.607   6.164
 1912TIP3    H2 5682   3.994   1.719   6.259
 1913TIP3   OH2 5683   5.080   0.538   2.559
 1913TIP3    H1 5684   5.061   0.469   2.495
 1913TIP3    H2 5685   5.007   0.599   2.551
 1914TIP3   OH2 5686   3.788   0.416   4.038
 1914TIP3    H1 5687   3.798   0.327   4.003
 1914TIP3    H2 5688   3.717   0.454   3.987
 1915TIP3   OH2 5689   7.091   6.894   0.978
 1915TIP3    H1 5690   7.106   6.872   0.887
 1915TIP3    H2 5691   7.154   6.841   1.027
 1916TIP3   OH2 5692   7.801   7.129   2.535
 1916TIP3    H1 5693   7.770   7.217   2.555
 1916TIP3    H2 5694   7.882   7.142   2.487
 1917TIP3   OH2 5695   2.643   3.627   5.445
 1917TIP3    H1 5696   2.693   3.709   5.457
 1917TIP3    H2 5697   2.611   3.632   5.355
 1918TIP3   OH2 5698   3.915   0.635   0.708
 1918TIP3    H1 5699   3.869   0.629   0.792
 1918TIP3    H2 5700   4.000   0.594   0.724
 1919TIP3   OH2 5701   4.519   6.124   5.667
 1919TIP3    H1 5702   4.602   6.078   5.679
 1919TIP3    H2 5703   4.507   6.128   5.573
 1920TIP3   OH2 5704   4.462   1.212   1.842
 1920TIP3    H1 5705   4.424   1.283   1.894
 1920TIP3    H2 5706   4.555   1.234   1.836
 1921TIP3   OH2 5707   0.467   0.797   0.516
 1921TIP3    H1 5708   0.518   0.803   0.597
 1921TIP3    H2 5709   0.525   0.835   0.449
 1922TIP3   OH2 5710   7.280   6.135   6.620
 1922TIP3    H1 5711   7.214   6.180   6.568
 1922TIP3    H2 5712   7.360   6.139   6.567
 1923TIP3   OH2 5713   4.069   2.393   2.664
 1923TIP3    H1 5714   4.099   2.435   2.584
 1923TIP3    H2 5715   4.011   2.323   2.634
 1924TIP3   OH2 5716   5.525   6.909   5.219
 1924TIP3    H1 5717   5.588   6.915   5.291
 1924TIP3    H2 5718   5.519   6.998   5.185
 1925TIP3   OH2 5719   2.770   2.576   0.841
 1925TIP3    H1 5720   2.852   2.597   0.796
 1925TIP3    H2 5721   2.708   2.557   0.770
 1926TIP3   OH2 5722   7.927   1.221   4.535
 1926TIP3    H1 5723   7.974   1.273   4.601
 1926TIP3    H2 5724   7.993   1.162   4.500
 1927TIP3   OH2 5725   6.600   7.178   1.420
 1927TIP3    H1 5726   6.683   7.148   1.383
 1927TIP3    H2 5727   6.567   7.104   1.470
 1928TIP3   OH2 5728   5.615   6.753   4.493
 1928TIP3    H1 5729   5.550   6.822   4.478
 1928TIP3    H2 5730   5.691   6.800   4.527
 1929TIP3   OH2 5731   4.985   3.120   0.925
 1929TIP3    H1 5732   4.943   3.036   0.944
 1929TIP3    H2 5733   5.031   3.144   1.006
 1930TIP3   OH2 5734   7.605   0.577   5.944
 1930TIP3    H1 5735   7.638   0.488   5.926
 1930TIP3    H2 5736   7.510   0.568   5.941
 1931TIP3   OH2 5737   0.113   7.035   4.823
 1931TIP3    H1 5738   0.145   6.951   4.792
 1931TIP3    H2 5739   0.030   7.015   4.867
 1932TIP3   OH2 5740   2.733   5.299   3.398
 1932TIP3    H1 5741   2.742   5.342   3.482
 1932TIP3    H2 5742   2.806   5.237   3.393
 1933TIP3   OH2 5743   2.586   4.382   6.052
 1933TIP3    H1 5744   2.587   4.456   5.992
 1933TIP3    H2 5745   2.627   4.416   6.132
 1934TIP3   OH2 5746   4.729   6.152   2.168
 1934TIP3    H1 5747   4.680   6.090   2.222
 1934TIP3    H2 5748   4.674   6.231   2.167
 1935TIP3   OH2 5749   6.820   0.312   0.758
 1935TIP3    H1 5750   6.824   0.385   0.697
 1935TIP3    H2 5751   6.908   0.307   0.796
 1936TIP3   OH2 5752   0.610   1.585   2.264
 1936TIP3    H1 5753   0.653   1.588   2.179
 1936TIP3    H2 5754   0.649   1.657   2.313
 1937TIP3   OH2 5755   0.721   5.037   1.298
 1937TIP3    H1 5756   0.706   5.007   1.388
 1937TIP3    H2 5757   0.759   4.962   1.253
 1938TIP3   OH2 5758   7.749   2.180   1.673
 1938TIP3    H1 5759   7.725   2.272   1.659
 1938TIP3    H2 5760   7.741   2.167   1.767
 1939TIP3   OH2 5761   6.047   2.820   6.695
 1939TIP3    H1 5762   6.110   2.880   6.656
 1939TIP3    H2 5763   5.998   2.874   6.757
 1940TIP3   OH2 5764   7.128   6.297   6.007
 1940TIP3    H1 5765   7.222   6.300   6.024
 1940TIP3    H2 5766   7.098   6.387   6.017
 1941TIP3   OH2 5767   5.885   4.975   5.986
 1941TIP3    H1 5768   5.894   4.965   5.891
 1941TIP3    H2 5769   5.940   4.906   6.023
 1942TIP3   OH2 5770   5.339   0.788   0.658
 1942TIP3    H1 5771   5.420   0.830   0.629
 1942TIP3    H2 5772   5.287   0.860   0.696
 1943TIP3   OH2 5773   2.116   1.759   6.146
 1943TIP3    H1 5774   2.160   1.724   6.223
 1943TIP3    H2 5775   2.150   1.707   6.073
 1944TIP3   OH2 5776   2.033   2.076   2.068
 1944TIP3    H1 5777   1.983   2.157   2.057
 1944TIP3    H2 5778   2.070   2.057   1.982
 1945TIP3   OH2 5779   3.117   3.680   3.198
 1945TIP3    H1 5780   3.161   3.743   3.141
 1945TIP3    H2 5781   3.048   3.730   3.241
 1946TIP3   OH2 5782   3.976   6.121   3.909
 1946TIP3    H1 5783   3.900   6.179   3.902
 1946TIP3    H2 5784   3.940   6.038   3.942
 1947TIP3   OH2 5785   2.097   6.621   0.486
 1947TIP3    H1 5786   2.107   6.577   0.402
 1947TIP3    H2 5787   2.097   6.714   0.465
 1948TIP3   OH2 5788   5.192   3.851   2.007
 1948TIP3    H1 5789   5.279   3.870   1.971
 1948TIP3    H2 5790   5.160   3.936   2.036
 1949TIP3   OH2 5791   3.840   2.062   1.297
 1949TIP3    H1 5792   3.783   2.120   1.246
 1949TIP3    H2 5793   3.819   2.082   1.388
 1950TIP3   OH2 5794   2.374   4.668   4.345
 1950TIP3    H1 5795   2.309   4.714   4.293
 1950TIP3    H2 5796   2.409   4.601   4.286
 1951TIP3   OH2 5797   6.034   6.700   6.723
 1951TIP3    H1 5798   6.109   6.675   6.777
 1951TIP3    H2 5799   6.035   6.796   6.722
 1952TIP3   OH2 5800   2.591   7.242   3.900
 1952TIP3    H1 5801   2.635   7.158   3.904
 1952TIP3    H2 5802   2.520   7.229   3.837
 1953TIP3   OH2 5803   1.681   3.104   0.280
 1953TIP3    H1 5804   1.661   3.079   0.370
 1953TIP3    H2 5805   1.605   3.155   0.252
 1954TIP3   OH2 5806   4.249   7.723   6.340
 1954TIP3    H1 5807   4.252   7.812   6.375
 1954TIP3    H2 5808   4.294   7.729   6.256
 1955TIP3   OH2 5809   3.552   1.924   6.569
 1955TIP3    H1 5810   3.504   1.848   6.537
 1955TIP3    H2 5811   3.509   1.947   6.652
 1956TIP3   OH2 5812   7.435   2.498   1.608
 1956TIP3    H1 5813   7.488   2.561   1.559
 1956TIP3    H2 5814   7.358   2.547   1.635
 1957TIP3   OH2 5815   3.615   2.986   5.348
 1957TIP3    H1 5816   3.633   3.009   5.257
 1957TIP3    H2 5817   3.601   2.891   5.346
 1958TIP3   OH2 5818   7.706   2.631   2.670
 1958TIP3    H1 5819   7.798   2.626   2.642
 1958TIP3    H2 5820   7.709   2.679   2.752
 1959TIP3   OH2 5821   5.510   3.240   2.049
 1959TIP3    H1 5822   5.590   3.240   1.998
 1959TIP3    H2 5823   5.531   3.293   2.126
 1960TIP3   OH2 5824   6.022   4.663   0.191
 1960TIP3    H1 5825   6.100   4.657   0.136
 1960TIP3    H2 5826   5.960   4.716   0.140
 1961TIP3   OH2 5827   5.966   2.515   2.509
 1961TIP3    H1 5828   6.060   2.528   2.497
 1961TIP3    H2 5829   5.960   2.448   2.578
 1962TIP3   OH2 5830   0.641   6.553   6.282
 1962TIP3    H1 5831   0.690   6.476   6.310
 1962TIP3    H2 5832   0.708   6.615   6.253
 1963TIP3   OH2 5833   7.861   4.916   0.384
 1963TIP3    H1 5834   7.872   4.959   0.299
 1963TIP3    H2 5835   7.893   4.827   0.370
 1964TIP3   OH2 5836   0.592   0.035   0.412
 1964TIP3    H1 5837   0.619   0.105   0.353
 1964TIP3    H2 5838   0.496   0.042   0.414
 1965TIP3   OH2 5839   6.552   7.724   0.752
 1965TIP3    H1 5840   6.569   7.811   0.716
 1965TIP3    H2 5841   6.584   7.728   0.842
 1966TIP3   OH2 5842   5.907   6.020   2.395
 1966TIP3    H1 5843   5.911   6.053   2.306
 1966TIP3    H2 5844   5.970   5.948   2.397
 1967TIP3   OH2 5845   2.182   3.690   4.302
 1967TIP3    H1 5846   2.196   3.662   4.212
 1967TIP3    H2 5847   2.100   3.739   4.299
 1968TIP3   OH2 5848   0.068   4.557   6.072
 1968TIP3    H1 5849   0.129   4.553   6.145
 1968TIP3    H2 5850   0.121   4.534   5.995
 1969TIP3   OH2 5851   0.901   3.446   3.786
 1969TIP3    H1 5852   0.963   3.518   3.787
 1969TIP3    H2 5853   0.873   3.440   3.694
 1970TIP3   OH2 5854   6.963   0.290   1.605
 1970TIP3    H1 5855   6.868   0.305   1.612
 1970TIP3    H2 5856   6.980   0.218   1.666
 1971TIP3   OH2 5857   3.181   1.447   4.771
 1971TIP3    H1 5858   3.096   1.488   4.789
 1971TIP3    H2 5859   3.203   1.475   4.682
 1972TIP3   OH2 5860   4.541   4.284   0.453
 1972TIP3    H1 5861   4.461   4.314   0.410
 1972TIP3    H2 5862   4.513   4.267   0.544
 1973TIP3   OH2 5863   3.699   5.716   3.566
 1973TIP3    H1 5864   3.659   5.777   3.504
 1973TIP3    H2 5865   3.721   5.639   3.514
 1974TIP3   OH2 5866   7.280   5.370   1.066
 1974TIP3    H1 5867   7.374   5.384   1.082
 1974TIP3    H2 5868   7.270   5.384   0.971
 1975TIP3   OH2 5869   0.816   3.695   5.869
 1975TIP3    H1 5870   0.816   3.722   5.777
 1975TIP3    H2 5871   0.902   3.655   5.882
 1976TIP3   OH2 5872   6.059   2.621   3.953
 1976TIP3    H1 5873   6.069   2.558   4.024
 1976TIP3    H2 5874   6.096   2.702   3.987
 1977TIP3   OH2 5875   3.729   3.536   2.191
 1977TIP3    H1 5876   3.774   3.620   2.178
 1977TIP3    H2 5877   3.767   3.478   2.126
 1978TIP3   OH2 5878   3.442   5.088   6.374
 1978TIP3    H1 5879   3.474   5.037   6.448
 1978TIP3    H2 5880   3.517   5.140   6.346
 1979TIP3   OH2 5881   2.718   1.895   6.148
 1979TIP3    H1 5882   2.629   1.930   6.161
 1979TIP3    H2 5883   2.751   1.880   6.237
 1980TIP3   OH2 5884   2.739   4.080   4.382
 1980TIP3    H1 5885   2.656   4.044   4.353
 1980TIP3    H2 5886   2.760   4.148   4.317
 1981TIP3   OH2 5887   2.735   2.228   6.270
 1981TIP3    H1 5888   2.682   2.307   6.280
 1981TIP3    H2 5889   2.786   2.223   6.351
 1982TIP3   OH2 5890   8.229   5.001   5.694
 1982TIP3    H1 5891   8.253   4.954   5.774
 1982TIP3    H2 5892   8.143   4.965   5.670
 1983TIP3   OH2 5893   1.810   6.080   0.992
 1983TIP3    H1 5894   1.838   6.067   0.901
 1983TIP3    H2 5895   1.746   6.011   1.009
 1984TIP3   OH2 5896   6.162   0.417   5.174
 1984TIP3    H1 5897   6.080   0.464   5.187
 1984TIP3    H2 5898   6.198   0.452   5.093
 1985TIP3   OH2 5899   5.560   0.345   4.418
 1985TIP3    H1 5900   5.528   0.272   4.471
 1985TIP3    H2 5901   5.605   0.304   4.344
 1986TIP3   OH2 5902   4.973   6.360   4.975
 1986TIP3    H1 5903   4.987   6.275   4.933
 1986TIP3    H2 5904   5.044   6.366   5.039
 1987TIP3   OH2 5905   2.005   6.244   2.451
 1987TIP3    H1 5906   1.936   6.303   2.419
 1987TIP3    H2 5907   2.076   6.303   2.478
 1988TIP3   OH2 5908   3.438   0.354   5.624
 1988TIP3    H1 5909   3.421   0.261   5.638
 1988TIP3    H2 5910   3.358   0.387   5.583
 1989TIP3   OH2 5911   6.759   2.466   5.588
 1989TIP3    H1 5912   6.764   2.551   5.633
 1989TIP3    H2 5913   6.665   2.452   5.574
 1990TIP3   OH2 5914   3.676   2.950   5.094
 1990TIP3    H1 5915   3.619   2.919   5.024
 1990TIP3    H2 5916   3.754   2.896   5.088
 1991TIP3   OH2 5917   8.254   4.100   0.144
 1991TIP3    H1 5918   8.277   4.010   0.120
 1991TIP3    H2 5919   8.303   4.155   0.082
 1992TIP3   OH2 5920   3.743   6.582   2.741
 1992TIP3    H1 5921   3.736   6.578   2.645
 1992TIP3    H2 5922   3.745   6.676   2.760
 1993TIP3   OH2 5923   8.041   5.882   1.169
 1993TIP3    H1 5924   8.008   5.967   1.199
 1993TIP3    H2 5925   7.967   5.823   1.180
 1994TIP3   OH2 5926   1.314   4.896  -0.014
 1994TIP3    H1 5927   1.344   4.838   0.056
 1994TIP3    H2 5928   1.344   4.983   0.013
 1995TIP3   OH2 5929   6.021   3.853   2.746
 1995TIP3    H1 5930   5.945   3.830   2.799
 1995TIP3    H2 5931   5.985   3.893   2.667
 1996TIP3   OH2 5932   5.591   5.141   2.513
 1996TIP3    H1 5933   5.649   5.081   2.559
 1996TIP3    H2 5934   5.559   5.090   2.438
 1997TIP3   OH2 5935   6.263   2.276   6.394
 1997TIP3    H1 5936   6.260   2.368   6.368
 1997TIP3    H2 5937   6.185   2.237   6.355
 1998TIP3   OH2 5938   3.254   6.061   6.550
 1998TIP3    H1 5939   3.179   6.009   6.524
 1998TIP3    H2 5940   3.261   6.129   6.483
 1999TIP3   OH2 5941   4.136   4.576   3.555
 1999TIP3    H1 5942   4.047   4.541   3.561
 1999TIP3    H2 5943   4.146   4.630   3.633
 2000TIP3   OH2 5944   1.729   0.245   0.833
 2000TIP3    H1 5945   1.755   0.298   0.758
 2000TIP3    H2 5946   1.647   0.285   0.863
 2001TIP3   OH2 5947   5.960   7.748   2.539
 2001TIP3    H1 5948   6.041   7.701   2.558
 2001TIP3    H2 5949   5.987   7.823   2.486
 2002TIP3   OH2 5950   0.588   0.513   6.239
 2002TIP3    H1 5951   0.639   0.593   6.228
 2002TIP3    H2 5952   0.534   0.508   6.160
 2003TIP3   OH2 5953   6.167   6.920   5.796
 2003TIP3    H1 5954   6.203   6.846   5.747
 2003TIP3    H2 5955   6.122   6.973   5.730
 2004TIP3   OH2 5956   6.559   3.429   0.069
 2004TIP3    H1 5957   6.601   3.474  -0.004
 2004TIP3    H2 5958   6.485   3.485   0.092
 2005TIP3   OH2 5959   2.853   1.793   2.554
 2005TIP3    H1 5960   2.939   1.767   2.585
 2005TIP3    H2 5961   2.812   1.835   2.630
 2006TIP3   OH2 5962   3.751   3.062   2.504
 2006TIP3    H1 5963   3.689   3.077   2.433
 2006TIP3    H2 5964   3.738   3.136   2.564
 2007TIP3   OH2 5965   7.627   5.346   4.938
 2007TIP3    H1 5966   7.579   5.411   4.885
 2007TIP3    H2 5967   7.621   5.380   5.027
 2008TIP3   OH2 5968   6.807   3.271   5.068
 2008TIP3    H1 5969   6.881   3.275   5.008
 2008TIP3    H2 5970   6.761   3.191   5.045
 2009TIP3   OH2 5971   5.686   2.970   0.276
 2009TIP3    H1 5972   5.676   3.065   0.275
 2009TIP3    H2 5973   5.626   2.939   0.208
 2010TIP3   OH2 5974   6.768   4.839   0.360
 2010TIP3    H1 5975   6.696   4.848   0.297
 2010TIP3    H2 5976   6.726   4.842   0.446
 2011TIP3   OH2 5977   5.295   6.099   1.624
 2011TIP3    H1 5978   5.277   6.018   1.671
 2011TIP3    H2 5979   5.273   6.079   1.533
 2012TIP3   OH2 5980   5.686   3.360   3.771
 2012TIP3    H1 5981   5.677   3.372   3.677
 2012TIP3    H2 5982   5.616   3.414   3.808
 2013TIP3   OH2 5983   5.691   5.131   5.591
 2013TIP3    H1 5984   5.784   5.148   5.580
 2013TIP3    H2 5985   5.648   5.182   5.522
 2014TIP3   OH2 5986   4.016   2.013   5.897
 2014TIP3    H1 5987   4.062   1.936   5.864
 2014TIP3    H2 5988   4.074   2.086   5.879
 2015TIP3   OH2 5989   7.815   0.992   5.416
 2015TIP3    H1 5990   7.833   0.900   5.398
 2015TIP3    H2 5991   7.796   1.030   5.330
 2016TIP3   OH2 5992   2.682   6.366   0.648
 2016TIP3    H1 5993   2.616   6.360   0.717
 2016TIP3    H2 5994   2.739   6.438   0.676
 2017TIP3   OH2 5995   2.652   0.061   0.628
 2017TIP3    H1 5996   2.636   0.106   0.711
 2017TIP3    H2 5997   2.663   0.132   0.564
 2018TIP3   OH2 5998   4.832   5.546   2.386
 2018TIP3    H1 5999   4.916   5.592   2.382
 2018TIP3    H2 6000   4.850   5.469   2.440
 2019TIP3   OH2 6001   3.322   6.491   3.616
 2019TIP3    H1 6002   3.245   6.480   3.559
 2019TIP3    H2 6003   3.293   6.554   3.682
 2020TIP3   OH2 6004   0.400   5.108   3.290
 2020TIP3    H1 6005   0.389   5.193   3.249
 2020TIP3    H2 6006   0.421   5.049   3.218
 2021TIP3   OH2 6007   0.997   7.481   1.600
 2021TIP3    H1 6008   0.978   7.440   1.684
 2021TIP3    H2 6009   0.955   7.424   1.535
 2022TIP3   OH2 6010   8.004   7.281   4.189
 2022TIP3    H1 6011   8.035   7.370   4.204
 2022TIP3    H2 6012   7.910   7.286   4.206
 2023TIP3   OH2 6013   0.899   6.031   0.794
 2023TIP3    H1 6014   0.867   5.952   0.751
 2023TIP3    H2 6015   0.947   5.999   0.870
 2024TIP3   OH2 6016   5.038   1.189   3.187
 2024TIP3    H1 6017   4.943   1.181   3.193
 2024TIP3    H2 6018   5.064   1.224   3.272
 2025TIP3   OH2 6019   1.012   5.169   6.274
 2025TIP3    H1 6020   1.036   5.258   6.301
 2025TIP3    H2 6021   1.093   5.118   6.283
 2026TIP3   OH2 6022   2.554   4.276   5.431
 2026TIP3    H1 6023   2.579   4.366   5.454
 2026TIP3    H2 6024   2.595   4.261   5.346
 2027TIP3   OH2 6025   6.086   0.204   2.834
 2027TIP3    H1 6026   6.172   0.207   2.791
 2027TIP3    H2 6027   6.067   0.110   2.842
 2028TIP3   OH2 6028   4.716   4.014   5.543
 2028TIP3    H1 6029   4.684   3.975   5.462
 2028TIP3    H2 6030   4.663   4.094   5.552
 2029TIP3   OH2 6031   1.115   6.320   1.548
 2029TIP3    H1 6032   1.136   6.361   1.464
 2029TIP3    H2 6033   1.186   6.256   1.562
 2030TIP3   OH2 6034   6.305   1.024   3.287
 2030TIP3    H1 6035   6.262   1.096   3.332
 2030TIP3    H2 6036   6.235   0.961   3.269
 2031TIP3   OH2 6037   5.070   1.206   5.007
 2031TIP3    H1 6038   5.105   1.142   4.945
 2031TIP3    H2 6039   5.110   1.182   5.091
 2032TIP3   OH2 6040   4.927   7.103   4.192
 2032TIP3    H1 6041   4.982   7.181   4.185
 2032TIP3    H2 6042   4.916   7.091   4.286
 2033TIP3   OH2 6043   0.934   2.715   6.217
 2033TIP3    H1 6044   0.981   2.669   6.287
 2033TIP3    H2 6045   0.976   2.801   6.213
 2034TIP3   OH2 6046   7.261   4.972   1.620
 2034TIP3    H1 6047   7.221   4.957   1.706
 2034TIP3    H2 6048   7.352   4.994   1.641
 2035TIP3   OH2 6049   0.286   4.299   3.165
 2035TIP3    H1 6050   0.284   4.218   3.215
 2035TIP3    H2 6051   0.240   4.362   3.220
 2036TIP3   OH2 6052   5.325   3.160   5.905
 2036TIP3    H1 6053   5.321   3.160   6.001
 2036TIP3    H2 6054   5.240   3.127   5.877
 2037TIP3   OH2 6055   5.301   6.148   2.178
 2037TIP3    H1 6056   5.215   6.167   2.140
 2037TIP3    H2 6057   5.364   6.173   2.111
 2038TIP3   OH2 6058   1.825   3.813   2.055
 2038TIP3    H1 6059   1.743   3.830   2.100
 2038TIP3    H2 6060   1.808   3.835   1.963
 2039TIP3   OH2 6061   1.752   6.376   2.418
 2039TIP3    H1 6062   1.701   6.421   2.485
 2039TIP3    H2 6063   1.763   6.441   2.348
 2040TIP3   OH2 6064   5.418   3.452   3.811
 2040TIP3    H1 6065   5.396   3.522   3.872
 2040TIP3    H2 6066   5.333   3.420   3.780
 2041TIP3   OH2 6067   7.757   3.408   0.992
 2041TIP3    H1 6068   7.677   3.366   0.962
 2041TIP3    H2 6069   7.727   3.489   1.033
 2042TIP3   OH2 6070   5.382   3.441   1.206
 2042TIP3    H1 6071   5.300   3.441   1.256
 2042TIP3    H2 6072   5.447   3.479   1.266
 2043TIP3   OH2 6073   2.276   3.573   4.062
 2043TIP3    H1 6074   2.334   3.650   4.063
 2043TIP3    H2 6075   2.319   3.512   4.001
 2044TIP3   OH2 6076   5.547   3.079   3.277
 2044TIP3    H1 6077   5.459   3.062   3.310
 2044TIP3    H2 6078   5.548   3.173   3.258
 2045TIP3   OH2 6079   7.665   3.651   0.008
 2045TIP3    H1 6080   7.660   3.745   0.026
 2045TIP3    H2 6081   7.585   3.615   0.047
 2046TIP3   OH2 6082   7.995   0.175   0.782
 2046TIP3    H1 6083   8.049   0.253   0.773
 2046TIP3    H2 6084   8.043   0.106   0.736
 2047TIP3   OH2 6085   7.770   5.716   5.033
 2047TIP3    H1 6086   7.821   5.714   4.951
 2047TIP3    H2 6087   7.823   5.664   5.094
 2048TIP3   OH2 6088   1.540   6.054   5.891
 2048TIP3    H1 6089   1.597   6.049   5.814
 2048TIP3    H2 6090   1.456   6.019   5.861
 2049TIP3   OH2 6091   3.425   0.884   6.156
 2049TIP3    H1 6092   3.457   0.797   6.179
 2049TIP3    H2 6093   3.502   0.929   6.120
 2050TIP3   OH2 6094   7.916   1.475   1.357
 2050TIP3    H1 6095   7.958   1.490   1.442
 2050TIP3    H2 6096   7.912   1.380   1.348
 2051TIP3   OH2 6097   5.502   0.145   5.166
 2051TIP3    H1 6098   5.539   0.060   5.190
 2051TIP3    H2 6099   5.439   0.125   5.097
 2052TIP3   OH2 6100   5.839   6.149   5.040
 2052TIP3    H1 6101   5.869   6.058   5.045
 2052TIP3    H2 6102   5.820   6.174   5.130
 2053TIP3   OH2 6103   3.369   1.107   6.588
 2053TIP3    H1 6104   3.316   1.056   6.650
 2053TIP3    H2 6105   3.448   1.130   6.637
 2054TIP3   OH2 6106   4.712   4.355   4.778
 2054TIP3    H1 6107   4.655   4.279   4.776
 2054TIP3    H2 6108   4.711   4.385   4.869
 2055TIP3   OH2 6109   6.632   3.527   0.913
 2055TIP3    H1 6110   6.649   3.552   0.822
 2055TIP3    H2 6111   6.662   3.437   0.919
 2056TIP3   OH2 6112   6.322   0.523   5.703
 2056TIP3    H1 6113   6.373   0.554   5.628
 2056TIP3    H2 6114   6.326   0.595   5.766
 2057TIP3   OH2 6115   3.938   4.432   4.593
 2057TIP3    H1 6116   3.849   4.466   4.583
 2057TIP3    H2 6117   3.940   4.396   4.682
 2058TIP3   OH2 6118   7.946   5.626   0.999
 2058TIP3    H1 6119   7.899   5.599   1.078
 2058TIP3    H2 6120   8.037   5.600   1.015
 2059TIP3   OH2 6121   1.505   4.889   6.227
 2059TIP3    H1 6122   1.544   4.884   6.314
 2059TIP3    H2 6123   1.539   4.812   6.181
 2060TIP3   OH2 6124   5.208   6.879   3.153
 2060TIP3    H1 6125   5.172   6.790   3.150
 2060TIP3    H2 6126   5.175   6.915   3.235
 2061TIP3   OH2 6127   8.049   2.839   4.836
 2061TIP3    H1 6128   8.021   2.774   4.772
 2061TIP3    H2 6129   8.140   2.859   4.812
 2062TIP3   OH2 6130   7.921   0.859   4.265
 2062TIP3    H1 6131   7.869   0.807   4.326
 2062TIP3    H2 6132   7.888   0.948   4.276
 2063TIP3   OH2 6133   0.272   2.661   3.067
 2063TIP3    H1 6134   0.248   2.729   3.005
 2063TIP3    H2 6135   0.311   2.592   3.013
 2064TIP3   OH2 6136   3.392   4.847   1.501
 2064TIP3    H1 6137   3.369   4.778   1.439
 2064TIP3    H2 6138   3.476   4.880   1.470
 2065TIP3   OH2 6139   3.221   1.087   2.430
 2065TIP3    H1 6140   3.157   1.157   2.424
 2065TIP3    H2 6141   3.171   1.010   2.457
 2066TIP3   OH2 6142   3.698   3.553   4.096
 2066TIP3    H1 6143   3.648   3.511   4.027
 2066TIP3    H2 6144   3.693   3.647   4.076
 2067TIP3   OH2 6145   3.135   1.530   5.817
 2067TIP3    H1 6146   3.097   1.559   5.900
 2067TIP3    H2 6147   3.211   1.586   5.805
 2068TIP3   OH2 6148   3.538   7.382   1.767
 2068TIP3    H1 6149   3.574   7.322   1.702
 2068TIP3    H2 6150   3.571   7.468   1.741
 2069TIP3   OH2 6151   3.983   7.030   0.377
 2069TIP3    H1 6152   4.052   7.094   0.356
 2069TIP3    H2 6153   3.978   7.032   0.472
 2070TIP3   OH2 6154   4.913   4.785   0.467
 2070TIP3    H1 6155   4.929   4.841   0.543
 2070TIP3    H2 6156   4.946   4.837   0.393
 2071TIP3   OH2 6157   1.055   2.990   0.449
 2071TIP3    H1 6158   0.976   2.996   0.396
 2071TIP3    H2 6159   1.126   2.979   0.385
 2072TIP3   OH2 6160   3.293   1.001   1.688
 2072TIP3    H1 6161   3.362   0.965   1.744
 2072TIP3    H2 6162   3.253   1.069   1.741
 2073TIP3   OH2 6163   5.791   6.411   4.941
 2073TIP3    H1 6164   5.785   6.446   4.852
 2073TIP3    H2 6165   5.806   6.317   4.929
 2074TIP3   OH2 6166   1.966   4.918   2.855
 2074TIP3    H1 6167   2.042   4.973   2.838
 2074TIP3    H2 6168   1.894   4.980   2.865
 2075TIP3   OH2 6169   0.724   7.178   4.800
 2075TIP3    H1 6170   0.707   7.242   4.732
 2075TIP3    H2 6171   0.727   7.094   4.754
 2076TIP3   OH2 6172   1.834   3.247   0.595
 2076TIP3    H1 6173   1.929   3.239   0.596
 2076TIP3    H2 6174   1.803   3.165   0.556
 2077TIP3   OH2 6175   4.161   5.863   5.388
 2077TIP3    H1 6176   4.174   5.914   5.308
 2077TIP3    H2 6177   4.157   5.772   5.358
 2078TIP3   OH2 6178   6.591   7.826  -0.005
 2078TIP3    H1 6179   6.556   7.853   0.080
 2078TIP3    H2 6180   6.563   7.735  -0.014
 2079TIP3   OH2 6181   5.180   5.273   1.733
 2079TIP3    H1 6182   5.155   5.247   1.644
 2079TIP3    H2 6183   5.136   5.356   1.747
 2080TIP3   OH2 6184   5.649   3.622   4.324
 2080TIP3    H1 6185   5.675   3.711   4.348
 2080TIP3    H2 6186   5.617   3.630   4.234
 2081TIP3   OH2 6187   6.502   2.964   4.152
 2081TIP3    H1 6188   6.448   2.944   4.076
 2081TIP3    H2 6189   6.440   2.992   4.219
 2082TIP3   OH2 6190   7.777   3.519   0.301
 2082TIP3    H1 6191   7.831   3.441   0.294
 2082TIP3    H2 6192   7.776   3.556   0.212
 2083TIP3   OH2 6193   0.537   1.100   5.811
 2083TIP3    H1 6194   0.595   1.058   5.748
 2083TIP3    H2 6195   0.597   1.138   5.876
 2084TIP3   OH2 6196   4.587   5.411   1.077
 2084TIP3    H1 6197   4.523   5.340   1.063
 2084TIP3    H2 6198   4.578   5.466   0.999
 2085TIP3   OH2 6199   1.375   4.802   4.231
 2085TIP3    H1 6200   1.418   4.888   4.222
 2085TIP3    H2 6201   1.412   4.766   4.312
 2086TIP3   OH2 6202   4.363   3.805   0.843
 2086TIP3    H1 6203   4.320   3.726   0.876
 2086TIP3    H2 6204   4.360   3.795   0.747
 2087TIP3   OH2 6205   0.141   7.583   5.999
 2087TIP3    H1 6206   0.142   7.540   6.085
 2087TIP3    H2 6207   0.090   7.663   6.014
 2088TIP3   OH2 6208   5.069   0.712   0.004
 2088TIP3    H1 6209   5.099   0.766   0.077
 2088TIP3    H2 6210   5.026   0.774  -0.055
 2089TIP3   OH2 6211   7.095   3.988   1.498
 2089TIP3    H1 6212   7.098   3.921   1.430
 2089TIP3    H2 6213   7.142   4.062   1.461
 2090TIP3   OH2 6214   1.511   3.683   6.654
 2090TIP3    H1 6215   1.434   3.670   6.709
 2090TIP3    H2 6216   1.495   3.628   6.577
 2091TIP3   OH2 6217   4.602   5.323   4.453
 2091TIP3    H1 6218   4.606   5.336   4.358
 2091TIP3    H2 6219   4.530   5.378   4.482
 2092TIP3   OH2 6220   3.683   5.363   2.146
 2092TIP3    H1 6221   3.630   5.412   2.083
 2092TIP3    H2 6222   3.770   5.404   2.140
 2093TIP3   OH2 6223   5.975   7.506   5.046
 2093TIP3    H1 6224   5.999   7.572   5.110
 2093TIP3    H2 6225   6.058   7.464   5.023
 2094TIP3   OH2 6226   2.810   3.711   4.710
 2094TIP3    H1 6227   2.893   3.717   4.664
 2094TIP3    H2 6228   2.754   3.776   4.667
 2095TIP3   OH2 6229   1.883   1.132   4.699
 2095TIP3    H1 6230   1.958   1.074   4.712
 2095TIP3    H2 6231   1.906   1.213   4.745
 2096TIP3   OH2 6232   0.979   7.389   4.449
 2096TIP3    H1 6233   0.932   7.471   4.465
 2096TIP3    H2 6234   1.001   7.392   4.356
 2097TIP3   OH2 6235   3.748   3.762   1.038
 2097TIP3    H1 6236   3.773   3.675   1.069
 2097TIP3    H2 6237   3.768   3.820   1.112
 2098TIP3   OH2 6238   8.170   5.365   4.291
 2098TIP3    H1 6239   8.250   5.365   4.240
 2098TIP3    H2 6240   8.147   5.457   4.301
 2099TIP3   OH2 6241   1.881   4.579   6.001
 2099TIP3    H1 6242   1.941   4.593   6.074
 2099TIP3    H2 6243   1.852   4.488   6.010
 2100TIP3   OH2 6244   5.241   2.423   0.472
 2100TIP3    H1 6245   5.232   2.518   0.479
 2100TIP3    H2 6246   5.336   2.408   0.472
 2101TIP3   OH2 6247   3.251   7.100   6.312
 2101TIP3    H1 6248   3.306   7.025   6.334
 2101TIP3    H2 6249   3.230   7.089   6.220
 2102TIP3   OH2 6250   7.900   6.891   2.662
 2102TIP3    H1 6251   7.918   6.922   2.751
 2102TIP3    H2 6252   7.866   6.968   2.616
 2103TIP3   OH2 6253   6.053   3.290   1.198
 2103TIP3    H1 6254   5.970   3.319   1.161
 2103TIP3    H2 6255   6.116   3.299   1.126
 2104TIP3   OH2 6256   6.325   3.008   1.155
 2104TIP3    H1 6257   6.370   2.942   1.103
 2104TIP3    H2 6258   6.293   3.071   1.090
 2105TIP3   OH2 6259   4.914   2.908   0.560
 2105TIP3    H1 6260   4.859   2.936   0.633
 2105TIP3    H2 6261   4.869   2.831   0.524
 2106TIP3   OH2 6262   2.407   4.981   3.807
 2106TIP3    H1 6263   2.494   5.014   3.782
 2106TIP3    H2 6264   2.347   5.051   3.785
 2107TIP3   OH2 6265   1.797   2.315   2.416
 2107TIP3    H1 6266   1.775   2.400   2.455
 2107TIP3    H2 6267   1.888   2.301   2.440
 2108TIP3   OH2 6268   0.077   4.094   1.945
 2108TIP3    H1 6269   0.023   4.017   1.927
 2108TIP3    H2 6270   0.091   4.134   1.859
 2109TIP3   OH2 6271   4.141   4.050   2.126
 2109TIP3    H1 6272   4.180   4.124   2.172
 2109TIP3    H2 6273   4.103   3.996   2.195
 2110TIP3   OH2 6274   3.178   3.938   3.036
 2110TIP3    H1 6275   3.208   3.884   2.963
 2110TIP3    H2 6276   3.255   3.945   3.093
 2111TIP3   OH2 6277   5.610   5.361   4.853
 2111TIP3    H1 6278   5.668   5.379   4.927
 2111TIP3    H2 6279   5.628   5.432   4.791
 2112TIP3   OH2 6280   4.239   3.707   4.571
 2112TIP3    H1 6281   4.145   3.704   4.589
 2112TIP3    H2 6282   4.277   3.744   4.651
 2113TIP3   OH2 6283   5.032   0.127   0.482
 2113TIP3    H1 6284   5.022   0.058   0.417
 2113TIP3    H2 6285   5.097   0.094   0.544
 2114TIP3   OH2 6286   8.088   5.227   6.738
 2114TIP3    H1 6287   8.148   5.299   6.717
 2114TIP3    H2 6288   8.039   5.213   6.657
 2115TIP3   OH2 6289   3.921   4.343   6.432
 2115TIP3    H1 6290   3.897   4.274   6.493
 2115TIP3    H2 6291   3.846   4.352   6.373
 2116TIP3   OH2 6292   0.613   5.774   2.528
 2116TIP3    H1 6293   0.698   5.764   2.485
 2116TIP3    H2 6294   0.552   5.726   2.473
 2117TIP3   OH2 6295   3.595   3.358   1.397
 2117TIP3    H1 6296   3.636   3.380   1.480
 2117TIP3    H2 6297   3.501   3.359   1.414
 2118TIP3   OH2 6298   7.229   1.429   2.949
 2118TIP3    H1 6299   7.198   1.339   2.947
 2118TIP3    H2 6300   7.297   1.430   3.017
 2119TIP3   OH2 6301   1.786   5.908   2.009
 2119TIP3    H1 6302   1.710   5.886   2.062
 2119TIP3    H2 6303   1.759   5.888   1.919
 2120TIP3   OH2 6304   5.458   6.182   1.946
 2120TIP3    H1 6305   5.390   6.248   1.959
 2120TIP3    H2 6306   5.540   6.227   1.969
 2121TIP3   OH2 6307   7.126   6.857   4.767
 2121TIP3    H1 6308   7.113   6.926   4.832
 2121TIP3    H2 6309   7.190   6.798   4.806
 2122TIP3   OH2 6310   4.154   1.017   5.704
 2122TIP3    H1 6311   4.205   0.972   5.771
 2122TIP3    H2 6312   4.075   0.964   5.694
 2123TIP3   OH2 6313   6.041   6.108   5.627
 2123TIP3    H1 6314   5.997   6.178   5.578
 2123TIP3    H2 6315   5.998   6.028   5.597
 2124TIP3   OH2 6316   6.422   6.560   5.161
 2124TIP3    H1 6317   6.425   6.471   5.126
 2124TIP3    H2 6318   6.373   6.551   5.243
 2125TIP3   OH2 6319   5.238   6.684   0.951
 2125TIP3    H1 6320   5.230   6.598   0.910
 2125TIP3    H2 6321   5.192   6.744   0.893
 2126TIP3   OH2 6322   7.157   6.924   4.261
 2126TIP3    H1 6323   7.125   6.842   4.224
 2126TIP3    H2 6324   7.110   6.992   4.212
 2127TIP3   OH2 6325   0.147   3.740   5.255
 2127TIP3    H1 6326   0.138   3.675   5.185
 2127TIP3    H2 6327   0.184   3.817   5.212
 2128TIP3   OH2 6328   3.863   2.608   4.735
 2128TIP3    H1 6329   3.947   2.648   4.711
 2128TIP3    H2 6330   3.886   2.544   4.802
 2129TIP3   OH2 6331   7.425   6.782   6.459
 2129TIP3    H1 6332   7.494   6.834   6.501
 2129TIP3    H2 6333   7.459   6.765   6.371
 2130TIP3   OH2 6334   7.117   6.584   2.199
 2130TIP3    H1 6335   7.207   6.595   2.231
 2130TIP3    H2 6336   7.107   6.652   2.132
 2131TIP3   OH2 6337   4.185   3.859   3.905
 2131TIP3    H1 6338   4.231   3.900   3.979
 2131TIP3    H2 6339   4.103   3.828   3.942
 2132TIP3   OH2 6340   4.855   4.455   5.488
 2132TIP3    H1 6341   4.924   4.490   5.544
 2132TIP3    H2 6342   4.879   4.484   5.400
 2133TIP3   OH2 6343   3.988   5.728   1.704
 2133TIP3    H1 6344   3.966   5.721   1.796
 2133TIP3    H2 6345   4.082   5.710   1.700
 2134TIP3   OH2 6346   3.190   5.090   3.171
 2134TIP3    H1 6347   3.203   5.002   3.207
 2134TIP3    H2 6348   3.278   5.119   3.148
 2135TIP3   OH2 6349   7.777   4.014   2.085
 2135TIP3    H1 6350   7.711   4.041   2.148
 2135TIP3    H2 6351   7.746   4.049   2.001
 2136TIP3   OH2 6352   8.028   3.533   1.144
 2136TIP3    H1 6353   8.020   3.446   1.104
 2136TIP3    H2 6354   8.093   3.522   1.213
 2137TIP3   OH2 6355   4.200   2.695   0.712
 2137TIP3    H1 6356   4.164   2.731   0.793
 2137TIP3    H2 6357   4.199   2.769   0.651
 2138TIP3   OH2 6358   8.180   1.220   4.204
 2138TIP3    H1 6359   8.266   1.219   4.246
 2138TIP3    H2 6360   8.131   1.287   4.251
 2139TIP3   OH2 6361   1.673   3.279   6.378
 2139TIP3    H1 6362   1.687   3.200   6.325
 2139TIP3    H2 6363   1.635   3.245   6.459
 2140TIP3   OH2 6364   4.935   4.523   1.231
 2140TIP3    H1 6365   5.010   4.578   1.208
 2140TIP3    H2 6366   4.974   4.446   1.272
 2141TIP3   OH2 6367   0.187   7.488   1.896
 2141TIP3    H1 6368   0.279   7.500   1.874
 2141TIP3    H2 6369   0.158   7.418   1.838
 2142TIP3   OH2 6370   5.309   3.259   3.553
 2142TIP3    H1 6371   5.262   3.336   3.586
 2142TIP3    H2 6372   5.250   3.221   3.488
 2143TIP3   OH2 6373   1.629   1.767   4.964
 2143TIP3    H1 6374   1.617   1.696   4.901
 2143TIP3    H2 6375   1.666   1.839   4.912
 2144TIP3   OH2 6376   7.474   0.564   4.079
 2144TIP3    H1 6377   7.490   0.628   4.010
 2144TIP3    H2 6378   7.389   0.525   4.056
 2145TIP3   OH2 6379   1.479   4.964   5.533
 2145TIP3    H1 6380   1.524   5.039   5.572
 2145TIP3    H2 6381   1.548   4.900   5.518
 2146TIP3   OH2 6382   6.794   6.731   6.374
 2146TIP3    H1 6383   6.827   6.744   6.285
 2146TIP3    H2 6384   6.757   6.815   6.399
 2147TIP3   OH2 6385   0.145   2.677   1.917
 2147TIP3    H1 6386   0.208   2.733   1.963
 2147TIP3    H2 6387   0.199   2.623   1.860
 2148TIP3   OH2 6388   3.727   4.983   3.549
 2148TIP3    H1 6389   3.795   4.931   3.505
 2148TIP3    H2 6390   3.646   4.960   3.503
 2149TIP3   OH2 6391   2.222   3.170   4.028
 2149TIP3    H1 6392   2.190   3.219   4.103
 2149TIP3    H2 6393   2.168   3.198   3.955
 2150TIP3   OH2 6394   4.725   7.388   0.844
 2150TIP3    H1 6395   4.751   7.471   0.884
 2150TIP3    H2 6396   4.746   7.322   0.910
 2151TIP3   OH2 6397   7.762   5.539   1.951
 2151TIP3    H1 6398   7.803   5.484   2.017
 2151TIP3    H2 6399   7.766   5.627   1.987
 2152TIP3   OH2 6400   3.383   5.982   2.396
 2152TIP3    H1 6401   3.474   5.953   2.404
 2152TIP3    H2 6402   3.351   5.986   2.486
 2153TIP3   OH2 6403   1.544   5.238   6.465
 2153TIP3    H1 6404   1.555   5.224   6.371
 2153TIP3    H2 6405   1.494   5.162   6.495
 2154TIP3   OH2 6406   1.061   4.956   6.557
 2154TIP3    H1 6407   1.104   5.039   6.536
 2154TIP3    H2 6408   1.133   4.894   6.570
 2155TIP3   OH2 6409   4.360   4.756   2.293
 2155TIP3    H1 6410   4.434   4.738   2.352
 2155TIP3    H2 6411   4.294   4.692   2.318
 2156TIP3   OH2 6412   7.172   0.586   0.673
 2156TIP3    H1 6413   7.194   0.604   0.764
 2156TIP3    H2 6414   7.201   0.496   0.659
 2157TIP3   OH2 6415   4.575   1.587   4.737
 2157TIP3    H1 6416   4.515   1.516   4.713
 2157TIP3    H2 6417   4.523   1.644   4.794
 2158TIP3   OH2 6418   6.860   7.231   0.791
 2158TIP3    H1 6419   6.881   7.152   0.741
 2158TIP3    H2 6420   6.811   7.286   0.728
 2159TIP3   OH2 6421   5.892   6.619   5.133
 2159TIP3    H1 6422   5.841   6.688   5.092
 2159TIP3    H2 6423   5.906   6.649   5.223
 2160TIP3   OH2 6424   0.823   0.994   5.247
 2160TIP3    H1 6425   0.862   0.906   5.246
 2160TIP3    H2 6426   0.890   1.049   5.286
 2161TIP3   OH2 6427   5.056   1.953   0.816
 2161TIP3    H1 6428   5.038   2.045   0.799
 2161TIP3    H2 6429   4.985   1.906   0.772
 2162TIP3   OH2 6430   7.216   1.047   3.788
 2162TIP3    H1 6431   7.304   1.033   3.755
 2162TIP3    H2 6432   7.220   1.131   3.834
 2163TIP3   OH2 6433   6.233   4.509   5.785
 2163TIP3    H1 6434   6.168   4.456   5.831
 2163TIP3    H2 6435   6.191   4.593   5.771
 2164TIP3   OH2 6436   1.151   2.993   1.776
 2164TIP3    H1 6437   1.121   3.076   1.740
 2164TIP3    H2 6438   1.236   3.013   1.816
 2165TIP3   OH2 6439   1.469   3.953   6.716
 2165TIP3    H1 6440   1.434   3.950   6.805
 2165TIP3    H2 6441   1.473   3.861   6.689
 2166TIP3   OH2 6442   3.312   5.644   3.348
 2166TIP3    H1 6443   3.339   5.627   3.438
 2166TIP3    H2 6444   3.296   5.738   3.344
 2167TIP3   OH2 6445   5.024   7.205   5.692
 2167TIP3    H1 6446   5.005   7.237   5.603
 2167TIP3    H2 6447   5.102   7.150   5.681
 2168TIP3   OH2 6448   1.876   3.907   0.706
 2168TIP3    H1 6449   1.944   3.935   0.767
 2168TIP3    H2 6450   1.896   3.815   0.688
 2169TIP3   OH2 6451   1.074   4.539   0.193
 2169TIP3    H1 6452   1.036   4.589   0.266
 2169TIP3    H2 6453   1.083   4.603   0.122
 2170TIP3   OH2 6454   4.971   7.789   2.777
 2170TIP3    H1 6455   4.959   7.871   2.729
 2170TIP3    H2 6456   5.062   7.792   2.806
 2171TIP3   OH2 6457   4.159   0.146   6.037
 2171TIP3    H1 6458   4.095   0.132   5.967
 2171TIP3    H2 6459   4.188   0.237   6.024
 2172TIP3   OH2 6460   0.016   0.163   2.045
 2172TIP3    H1 6461   0.032   0.098   1.977
 2172TIP3    H2 6462   0.019   0.113   2.127
 2173TIP3   OH2 6463   7.258   0.846   6.363
 2173TIP3    H1 6464   7.223   0.829   6.451
 2173TIP3    H2 6465   7.343   0.802   6.362
 2174TIP3   OH2 6466   7.791   6.885   6.211
 2174TIP3    H1 6467   7.880   6.888   6.246
 2174TIP3    H2 6468   7.803   6.892   6.116
 2175TIP3   OH2 6469   4.907   4.568   5.238
 2175TIP3    H1 6470   5.000   4.547   5.231
 2175TIP3    H2 6471   4.903   4.663   5.226
 2176TIP3   OH2 6472   6.388   7.693   5.784
 2176TIP3    H1 6473   6.419   7.674   5.695
 2176TIP3    H2 6474   6.332   7.620   5.806
 2177TIP3   OH2 6475   3.290   4.963   4.421
 2177TIP3    H1 6476   3.268   4.924   4.506
 2177TIP3    H2 6477   3.384   4.949   4.413
 2178TIP3   OH2 6478   2.142   7.205   2.010
 2178TIP3    H1 6479   2.231   7.233   1.992
 2178TIP3    H2 6480   2.092   7.286   2.017
 2179TIP3   OH2 6481   5.614   0.143   3.463
 2179TIP3    H1 6482   5.570   0.219   3.423
 2179TIP3    H2 6483   5.599   0.071   3.402
 2180TIP3   OH2 6484   6.766   1.052   4.843
 2180TIP3    H1 6485   6.814   1.127   4.809
 2180TIP3    H2 6486   6.778   1.056   4.938
 2181TIP3   OH2 6487   1.972   1.593   4.023
 2181TIP3    H1 6488   2.013   1.648   4.090
 2181TIP3    H2 6489   1.878   1.611   4.032
 2182TIP3   OH2 6490   7.898   6.596   2.678
 2182TIP3    H1 6491   7.873   6.688   2.675
 2182TIP3    H2 6492   7.838   6.552   2.618
 2183TIP3   OH2 6493   6.257   7.687   4.249
 2183TIP3    H1 6494   6.292   7.654   4.332
 2183TIP3    H2 6495   6.250   7.781   4.261
 2184TIP3   OH2 6496   0.548   6.562   2.828
 2184TIP3    H1 6497   0.512   6.503   2.894
 2184TIP3    H2 6498   0.638   6.532   2.815
 2185TIP3   OH2 6499   2.529   4.209   4.962
 2185TIP3    H1 6500   2.524   4.122   5.003
 2185TIP3    H2 6501   2.440   4.227   4.932
 2186TIP3   OH2 6502   5.194   0.754   6.555
 2186TIP3    H1 6503   5.246   0.687   6.511
 2186TIP3    H2 6504   5.148   0.799   6.484
 2187TIP3   OH2 6505   3.171   2.374   4.386
 2187TIP3    H1 6506   3.135   2.285   4.397
 2187TIP3    H2 6507   3.140   2.401   4.300
 2188TIP3   OH2 6508   7.286   7.077   2.462
 2188TIP3    H1 6509   7.201   7.034   2.468
 2188TIP3    H2 6510   7.265   7.168   2.438
 2189TIP3   OH2 6511   3.024   7.603   5.402
 2189TIP3    H1 6512   3.018   7.568   5.491
 2189TIP3    H2 6513   2.937   7.636   5.383
 2190TIP3   OH2 6514   5.768   0.568   0.310
 2190TIP3    H1 6515   5.806   0.605   0.230
 2190TIP3    H2 6516   5.727   0.486   0.282
 2191TIP3   OH2 6517   4.343   3.297   3.074
 2191TIP3    H1 6518   4.310   3.282   2.985
 2191TIP3    H2 6519   4.346   3.209   3.113
 2192TIP3   OH2 6520   4.208   5.731   6.272
 2192TIP3    H1 6521   4.171   5.763   6.190
 2192TIP3    H2 6522   4.169   5.785   6.340
 2193TIP3   OH2 6523   6.751   7.004   5.924
 2193TIP3    H1 6524   6.719   6.917   5.947
 2193TIP3    H2 6525   6.841   6.990   5.896
 2194TIP3   OH2 6526   3.889   5.851   5.025
 2194TIP3    H1 6527   3.982   5.853   5.001
 2194TIP3    H2 6528   3.854   5.934   4.993
 2195TIP3   OH2 6529   8.257   1.031   5.497
 2195TIP3    H1 6530   8.294   1.020   5.409
 2195TIP3    H2 6531   8.295   1.114   5.528
 2196TIP3   OH2 6532   3.912   0.951   2.284
 2196TIP3    H1 6533   3.970   0.887   2.324
 2196TIP3    H2 6534   3.825   0.927   2.314
 2197TIP3   OH2 6535   1.698   4.370   1.690
 2197TIP3    H1 6536   1.733   4.304   1.630
 2197TIP3    H2 6537   1.768   4.383   1.753
 2198TIP3   OH2 6538   4.335   3.177   1.097
 2198TIP3    H1 6539   4.325   3.267   1.064
 2198TIP3    H2 6540   4.412   3.181   1.154
 2199TIP3   OH2 6541   0.251   7.442   5.105
 2199TIP3    H1 6542   0.298   7.437   5.021
 2199TIP3    H2 6543   0.260   7.534   5.131
 2200TIP3   OH2 6544   2.683   3.645   5.735
 2200TIP3    H1 6545   2.774   3.673   5.747
 2200TIP3    H2 6546   2.676   3.627   5.641
 2201TIP3   OH2 6547   4.334   6.533   0.478
 2201TIP3    H1 6548   4.284   6.548   0.559
 2201TIP3    H2 6549   4.378   6.616   0.461
 2202TIP3   OH2 6550   5.793   4.005   4.852
 2202TIP3    H1 6551   5.728   4.001   4.922
 2202TIP3    H2 6552   5.872   3.964   4.889
 2203TIP3   OH2 6553   5.893   1.338   1.654
 2203TIP3    H1 6554   5.860   1.423   1.622
 2203TIP3    H2 6555   5.835   1.315   1.726
 2204TIP3   OH2 6556   4.412   6.320   0.195
 2204TIP3    H1 6557   4.352   6.331   0.269
 2204TIP3    H2 6558   4.461   6.241   0.216
 2205TIP3   OH2 6559   4.008   7.056   1.433
 2205TIP3    H1 6560   4.025   7.025   1.344
 2205TIP3    H2 6561   3.999   7.151   1.425
 2206TIP3   OH2 6562   6.334   0.847   0.231
 2206TIP3    H1 6563   6.406   0.903   0.200
 2206TIP3    H2 6564   6.355   0.760   0.196
 2207TIP3   OH2 6565   8.169   0.494   0.248
 2207TIP3    H1 6566   8.076   0.507   0.267
 2207TIP3    H2 6567   8.187   0.403   0.273
 2208TIP3   OH2 6568   3.620   6.300   2.397
 2208TIP3    H1 6569   3.627   6.281   2.491
 2208TIP3    H2 6570   3.534   6.265   2.372
 2209TIP3   OH2 6571   2.950   0.354   3.934
 2209TIP3    H1 6572   2.986   0.362   3.845
 2209TIP3    H2 6573   2.910   0.439   3.951
 2210TIP3   OH2 6574   4.348   2.557   0.354
 2210TIP3    H1 6575   4.349   2.571   0.259
 2210TIP3    H2 6576   4.435   2.585   0.384
 2211TIP3   OH2 6577   1.516   0.342   3.300
 2211TIP3    H1 6578   1.558   0.411   3.247
 2211TIP3    H2 6579   1.437   0.319   3.251
 2212TIP3   OH2 6580   8.055   7.548   4.246
 2212TIP3    H1 6581   8.034   7.639   4.264
 2212TIP3    H2 6582   8.146   7.549   4.217
 2213TIP3   OH2 6583   1.832   3.352   1.718
 2213TIP3    H1 6584   1.904   3.389   1.667
 2213TIP3    H2 6585   1.823   3.263   1.685
 2214TIP3   OH2 6586   7.600   6.545   1.485
 2214TIP3    H1 6587   7.670   6.584   1.433
 2214TIP3    H2 6588   7.640   6.466   1.522
 2215TIP3   OH2 6589   2.074   6.901   5.062
 2215TIP3    H1 6590   2.016   6.945   4.999
 2215TIP3    H2 6591   2.076   6.810   5.033
 2216TIP3   OH2 6592   3.808   4.511   3.192
 2216TIP3    H1 6593   3.836   4.419   3.190
 2216TIP3    H2 6594   3.860   4.553   3.124
 2217TIP3   OH2 6595   7.933   1.657   4.232
 2217TIP3    H1 6596   7.937   1.561   4.228
 2217TIP3    H2 6597   7.888   1.683   4.152
 2218TIP3   OH2 6598   6.947   0.910   3.616
 2218TIP3    H1 6599   6.949   0.991   3.666
 2218TIP3    H2 6600   7.021   0.859   3.648
 2219TIP3   OH2 6601   3.559   7.369   0.519
 2219TIP3    H1 6602   3.636   7.318   0.543
 2219TIP3    H2 6603   3.584   7.416   0.439
 2220TIP3   OH2 6604   6.978   7.334   3.224
 2220TIP3    H1 6605   6.987   7.261   3.286
 2220TIP3    H2 6606   7.045   7.317   3.158
 2221TIP3   OH2 6607   2.985   0.814   0.580
 2221TIP3    H1 6608   3.059   0.855   0.627
 2221TIP3    H2 6609   2.947   0.754   0.644
 2222TIP3   OH2 6610   3.570   3.094   0.985
 2222TIP3    H1 6611   3.611   3.008   0.992
 2222TIP3    H2 6612   3.643   3.156   0.993
 2223TIP3   OH2 6613   2.593   5.024   1.229
 2223TIP3    H1 6614   2.688   5.011   1.229
 2223TIP3    H2 6615   2.573   5.049   1.138
 2224TIP3   OH2 6616   0.558   3.748   6.382
 2224TIP3    H1 6617   0.644   3.761   6.342
 2224TIP3    H2 6618   0.575   3.739   6.475
 2225TIP3   OH2 6619   2.455   5.218   5.423
 2225TIP3    H1 6620   2.537   5.234   5.471
 2225TIP3    H2 6621   2.439   5.300   5.376
 2226TIP3   OH2 6622   5.678   0.558   4.583
 2226TIP3    H1 6623   5.656   0.499   4.510
 2226TIP3    H2 6624   5.768   0.534   4.607
 2227TIP3   OH2 6625   7.124   6.239   2.596
 2227TIP3    H1 6626   7.162   6.155   2.571
 2227TIP3    H2 6627   7.109   6.284   2.513
 2228TIP3   OH2 6628   3.112   7.093   1.673
 2228TIP3    H1 6629   3.133   7.015   1.622
 2228TIP3    H2 6630   3.140   7.166   1.617
 2229TIP3   OH2 6631   5.168   3.994   0.166
 2229TIP3    H1 6632   5.230   4.029   0.102
 2229TIP3    H2 6633   5.105   4.065   0.179
 2230TIP3   OH2 6634   5.244   1.487   0.691
 2230TIP3    H1 6635   5.300   1.452   0.622
 2230TIP3    H2 6636   5.187   1.550   0.646
 2231TIP3   OH2 6637   7.788   4.989   5.248
 2231TIP3    H1 6638   7.871   5.033   5.268
 2231TIP3    H2 6639   7.775   4.929   5.321
 2232TIP3   OH2 6640   8.085   7.652   5.034
 2232TIP3    H1 6641   8.137   7.732   5.046
 2232TIP3    H2 6642   7.996   7.684   5.014
 2233TIP3   OH2 6643   6.043   0.785   0.584
 2233TIP3    H1 6644   5.982   0.814   0.516
 2233TIP3    H2 6645   6.130   0.798   0.546
 2234TIP3   OH2 6646   6.335   2.132   0.089
 2234TIP3    H1 6647   6.257   2.160   0.041
 2234TIP3    H2 6648   6.326   2.175   0.175
 2235TIP3   OH2 6649   2.598   5.148   2.693
 2235TIP3    H1 6650   2.630   5.063   2.722
 2235TIP3    H2 6651   2.677   5.198   2.673
 2236TIP3   OH2 6652   6.415   2.342   5.194
 2236TIP3    H1 6653   6.504   2.310   5.209
 2236TIP3    H2 6654   6.380   2.286   5.125
 2237TIP3   OH2 6655   7.688   6.329   2.086
 2237TIP3    H1 6656   7.778   6.322   2.117
 2237TIP3    H2 6657   7.695   6.332   1.990
 2238TIP3   OH2 6658   2.105   2.701   4.973
 2238TIP3    H1 6659   2.068   2.788   4.961
 2238TIP3    H2 6660   2.063   2.648   4.905
 2239TIP3   OH2 6661   0.839   1.798   3.994
 2239TIP3    H1 6662   0.898   1.859   3.949
 2239TIP3    H2 6663   0.764   1.851   4.019
 2240TIP3   OH2 6664   0.365   7.547   2.512
 2240TIP3    H1 6665   0.301   7.479   2.535
 2240TIP3    H2 6666   0.313   7.627   2.504
 2241TIP3   OH2 6667   7.317   6.518   1.618
 2241TIP3    H1 6668   7.261   6.476   1.683
 2241TIP3    H2 6669   7.289   6.481   1.535
 2242TIP3   OH2 6670   0.583   4.654   4.241
 2242TIP3    H1 6671   0.675   4.639   4.218
 2242TIP3    H2 6672   0.583   4.736   4.289
 2243TIP3   OH2 6673   0.215   4.367   6.544
 2243TIP3    H1 6674   0.210   4.461   6.562
 2243TIP3    H2 6675   0.308   4.349   6.533
 2244TIP3   OH2 6676   0.768   7.306   3.437
 2244TIP3    H1 6677   0.717   7.274   3.362
 2244TIP3    H2 6678   0.859   7.300   3.409
 2245TIP3   OH2 6679   6.718   1.362   4.548
 2245TIP3    H1 6680   6.766   1.441   4.523
 2245TIP3    H2 6681   6.631   1.394   4.571
 2246TIP3   OH2 6682   3.454   7.060   3.552
 2246TIP3    H1 6683   3.475   7.145   3.591
 2246TIP3    H2 6684   3.522   7.046   3.487
 2247TIP3   OH2 6685   1.896   7.182   1.642
 2247TIP3    H1 6686   1.842   7.261   1.645
 2247TIP3    H2 6687   1.833   7.111   1.630
 2248TIP3   OH2 6688   7.422   2.793   2.996
 2248TIP3    H1 6689   7.330   2.808   3.015
 2248TIP3    H2 6690   7.422   2.731   2.923
 2249TIP3   OH2 6691   3.011   3.824   3.915
 2249TIP3    H1 6692   3.079   3.845   3.979
 2249TIP3    H2 6693   2.975   3.740   3.945
 2250TIP3   OH2 6694   4.038   3.174   1.106
 2250TIP3    H1 6695   3.975   3.143   1.041
 2250TIP3    H2 6696   4.076   3.094   1.143
 2251TIP3   OH2 6697   0.505   1.076   0.616
 2251TIP3    H1 6698   0.508   1.032   0.531
 2251TIP3    H2 6699   0.481   1.007   0.677
 2252TIP3   OH2 6700   7.694   2.333   0.331
 2252TIP3    H1 6701   7.675   2.291   0.246
 2252TIP3    H2 6702   7.676   2.426   0.317
 2253TIP3   OH2 6703   8.045   6.176   1.174
 2253TIP3    H1 6704   8.105   6.206   1.106
 2253TIP3    H2 6705   7.966   6.230   1.163
 2254TIP3   OH2 6706   8.141   1.689   1.468
 2254TIP3    H1 6707   8.121   1.624   1.535
 2254TIP3    H2 6708   8.185   1.639   1.399
 2255TIP3   OH2 6709   3.846   7.593   5.683
 2255TIP3    H1 6710   3.843   7.587   5.588
 2255TIP3    H2 6711   3.755   7.592   5.711
 2256TIP3   OH2 6712   0.410   0.328   0.093
 2256TIP3    H1 6713   0.330   0.368   0.127
 2256TIP3    H2 6714   0.478   0.353   0.157
 2257TIP3   OH2 6715   6.747   1.676   2.359
 2257TIP3    H1 6716   6.713   1.758   2.395
 2257TIP3    H2 6717   6.690   1.608   2.395
 2258TIP3   OH2 6718   4.287   0.563   1.878
 2258TIP3    H1 6719   4.348   0.497   1.911
 2258TIP3    H2 6720   4.232   0.584   1.953
 2259TIP3   OH2 6721   1.464   0.619   1.130
 2259TIP3    H1 6722   1.470   0.658   1.042
 2259TIP3    H2 6723   1.370   0.608   1.144
 2260TIP3   OH2 6724   4.234   7.156   0.436
 2260TIP3    H1 6725   4.289   7.188   0.365
 2260TIP3    H2 6726   4.276   7.189   0.515
 2261TIP3   OH2 6727   1.268   3.295   6.255
 2261TIP3    H1 6728   1.288   3.265   6.344
 2261TIP3    H2 6729   1.329   3.247   6.200
 2262TIP3   OH2 6730   1.191   7.165   6.311
 2262TIP3    H1 6731   1.221   7.088   6.263
 2262TIP3    H2 6732   1.096   7.158   6.309
 2263TIP3   OH2 6733   0.195   6.327   5.899
 2263TIP3    H1 6734   0.282   6.342   5.936
 2263TIP3    H2 6735   0.134   6.358   5.966
 2264TIP3   OH2 6736   6.377   2.393   1.238
 2264TIP3    H1 6737   6.431   2.469   1.216
 2264TIP3    H2 6738   6.410   2.322   1.182
 2265TIP3   OH2 6739   8.070   5.040   4.383
 2265TIP3    H1 6740   8.140   4.976   4.394
 2265TIP3    H2 6741   8.100   5.117   4.431
 2266TIP3   OH2 6742   2.099   3.227   5.406
 2266TIP3    H1 6743   2.068   3.140   5.428
 2266TIP3    H2 6744   2.047   3.286   5.461
 2267TIP3   OH2 6745   2.060   6.984   3.216
 2267TIP3    H1 6746   2.080   7.075   3.195
 2267TIP3    H2 6747   2.003   6.989   3.293
 2268TIP3   OH2 6748   5.598   0.604   1.703
 2268TIP3    H1 6749   5.595   0.652   1.785
 2268TIP3    H2 6750   5.557   0.663   1.639
 2269TIP3   OH2 6751   5.300   2.601   0.806
 2269TIP3    H1 6752   5.257   2.650   0.736
 2269TIP3    H2 6753   5.388   2.584   0.773
 2270TIP3   OH2 6754   2.067   6.715   3.530
 2270TIP3    H1 6755   2.160   6.732   3.520
 2270TIP3    H2 6756   2.054   6.630   3.488
 2271TIP3   OH2 6757   6.925   5.560   4.347
 2271TIP3    H1 6758   6.930   5.622   4.420
 2271TIP3    H2 6759   7.011   5.518   4.346
 2272TIP3   OH2 6760   6.914   2.671   6.461
 2272TIP3    H1 6761   7.000   2.711   6.465
 2272TIP3    H2 6762   6.924   2.598   6.399
 2273TIP3   OH2 6763   2.222   6.875   4.694
 2273TIP3    H1 6764   2.178   6.935   4.753
 2273TIP3    H2 6765   2.276   6.930   4.638
 2274TIP3   OH2 6766   7.298   3.671   6.206
 2274TIP3    H1 6767   7.286   3.670   6.111
 2274TIP3    H2 6768   7.335   3.586   6.227
 2275TIP3   OH2 6769   6.096   3.549   1.424
 2275TIP3    H1 6770   6.123   3.592   1.342
 2275TIP3    H2 6771   6.006   3.577   1.437
 2276TIP3   OH2 6772   1.466   6.056   6.291
 2276TIP3    H1 6773   1.402   6.016   6.232
 2276TIP3    H2 6774   1.532   5.988   6.304
 2277TIP3   OH2 6775   1.855   5.553   2.633
 2277TIP3    H1 6776   1.760   5.551   2.630
 2277TIP3    H2 6777   1.878   5.644   2.616
 2278TIP3   OH2 6778   5.606   5.795   4.813
 2278TIP3    H1 6779   5.589   5.883   4.847
 2278TIP3    H2 6780   5.666   5.756   4.877
 2279TIP3   OH2 6781   4.456   4.392   0.813
 2279TIP3    H1 6782   4.476   4.306   0.777
 2279TIP3    H2 6783   4.444   4.377   0.907
 2280TIP3   OH2 6784   0.898   5.453   6.319
 2280TIP3    H1 6785   0.992   5.453   6.334
 2280TIP3    H2 6786   0.876   5.544   6.303
 2281TIP3   OH2 6787   3.963   3.521   6.482
 2281TIP3    H1 6788   4.026   3.506   6.412
 2281TIP3    H2 6789   3.882   3.483   6.449
 2282TIP3   OH2 6790   4.479   6.713   2.317
 2282TIP3    H1 6791   4.500   6.715   2.411
 2282TIP3    H2 6792   4.387   6.687   2.314
 2283TIP3   OH2 6793   0.485   5.062   3.699
 2283TIP3    H1 6794   0.471   5.113   3.620
 2283TIP3    H2 6795   0.499   5.127   3.768
 2284TIP3   OH2 6796   0.736   0.379   1.227
 2284TIP3    H1 6797   0.673   0.309   1.241
 2284TIP3    H2 6798   0.800   0.369   1.297
 2285TIP3   OH2 6799   2.099   6.019   1.853
 2285TIP3    H1 6800   2.059   6.020   1.766
 2285TIP3    H2 6801   2.173   5.959   1.845
 2286TIP3   OH2 6802   6.807   0.066   4.935
 2286TIP3    H1 6803   6.743   0.012   4.982
 2286TIP3    H2 6804   6.793   0.154   4.968
 2287TIP3   OH2 6805   7.584   1.470   2.657
 2287TIP3    H1 6806   7.640   1.532   2.703
 2287TIP3    H2 6807   7.640   1.434   2.588
 2288TIP3   OH2 6808   4.016   1.437   5.449
 2288TIP3    H1 6809   3.951   1.368   5.443
 2288TIP3    H2 6810   3.979   1.510   5.398
 2289TIP3   OH2 6811   3.840   6.453   4.295
 2289TIP3    H1 6812   3.780   6.475   4.225
 2289TIP3    H2 6813   3.927   6.471   4.259
 2290TIP3   OH2 6814   4.588   3.597   5.209
 2290TIP3    H1 6815   4.663   3.543   5.233
 2290TIP3    H2 6816   4.606   3.622   5.118
 2291TIP3   OH2 6817   7.629   5.537   3.952
 2291TIP3    H1 6818   7.661   5.622   3.923
 2291TIP3    H2 6819   7.535   5.550   3.964
 2292TIP3   OH2 6820   5.907   3.293   3.925
 2292TIP3    H1 6821   5.868   3.286   4.012
 2292TIP3    H2 6822   5.839   3.330   3.870
 2293TIP3   OH2 6823   1.004   2.887   0.856
 2293TIP3    H1 6824   0.956   2.806   0.840
 2293TIP3    H2 6825   0.952   2.955   0.814
 2294TIP3   OH2 6826   4.087   2.996   4.574
 2294TIP3    H1 6827   4.134   3.014   4.492
 2294TIP3    H2 6828   4.052   3.081   4.601
 2295TIP3   OH2 6829   6.608   3.883   0.583
 2295TIP3    H1 6830   6.544   3.954   0.574
 2295TIP3    H2 6831   6.661   3.888   0.504
 2296TIP3   OH2 6832   1.375   2.488   2.885
 2296TIP3    H1 6833   1.322   2.408   2.892
 2296TIP3    H2 6834   1.352   2.538   2.964
 2297TIP3   OH2 6835   5.267   7.225   0.031
 2297TIP3    H1 6836   5.341   7.282   0.050
 2297TIP3    H2 6837   5.263   7.222  -0.065
 2298TIP3   OH2 6838   4.755   3.471   6.040
 2298TIP3    H1 6839   4.840   3.510   6.019
 2298TIP3    H2 6840   4.705   3.479   5.959
 2299TIP3   OH2 6841   2.141   5.291   1.892
 2299TIP3    H1 6842   2.065   5.325   1.846
 2299TIP3    H2 6843   2.153   5.203   1.858
 2300TIP3   OH2 6844   6.724   4.543   1.388
 2300TIP3    H1 6845   6.634   4.513   1.376
 2300TIP3    H2 6846   6.718   4.639   1.388
 2301TIP3   OH2 6847   2.805   4.732   1.907
 2301TIP3    H1 6848   2.717   4.760   1.884
 2301TIP3    H2 6849   2.831   4.791   1.979
 2302TIP3   OH2 6850   7.754   1.504   4.416
 2302TIP3    H1 6851   7.781   1.596   4.415
 2302TIP3    H2 6852   7.816   1.460   4.358
 2303TIP3   OH2 6853   6.790   7.447   2.753
 2303TIP3    H1 6854   6.727   7.391   2.797
 2303TIP3    H2 6855   6.845   7.482   2.823
 2304TIP3   OH2 6856   0.648   6.522   4.655
 2304TIP3    H1 6857   0.569   6.553   4.699
 2304TIP3    H2 6858   0.719   6.542   4.715
 2305TIP3   OH2 6859   2.731   7.071   6.043
 2305TIP3    H1 6860   2.638   7.051   6.037
 2305TIP3    H2 6861   2.745   7.140   5.979
 2306TIP3   OH2 6862   5.723   0.793   0.454
 2306TIP3    H1 6863   5.667   0.847   0.399
 2306TIP3    H2 6864   5.751   0.722   0.396
 2307TIP3   OH2 6865   1.898   3.563   0.723
 2307TIP3    H1 6866   1.924   3.482   0.767
 2307TIP3    H2 6867   1.815   3.542   0.681
 2308TIP3   OH2 6868   4.268   6.593   1.358
 2308TIP3    H1 6869   4.208   6.629   1.293
 2308TIP3    H2 6870   4.235   6.505   1.375
 2309TIP3   OH2 6871   3.812   4.826   4.507
 2309TIP3    H1 6872   3.878   4.791   4.567
 2309TIP3    H2 6873   3.862   4.858   4.432
 2310TIP3   OH2 6874   1.958   3.497   3.140
 2310TIP3    H1 6875   2.032   3.517   3.084
 2310TIP3    H2 6876   1.942   3.578   3.189
 2311TIP3   OH2 6877   0.924   4.869   2.866
 2311TIP3    H1 6878   0.951   4.778   2.881
 2311TIP3    H2 6879   0.915   4.877   2.771
 2312TIP3   OH2 6880   4.299   4.594   2.646
 2312TIP3    H1 6881   4.347   4.521   2.684
 2312TIP3    H2 6882   4.278   4.566   2.557
 2313TIP3   OH2 6883   4.020   6.449   2.434
 2313TIP3    H1 6884   4.004   6.543   2.446
 2313TIP3    H2 6885   4.040   6.439   2.341
 2314TIP3   OH2 6886   4.579   5.729   4.341
 2314TIP3    H1 6887   4.647   5.691   4.396
 2314TIP3    H2 6888   4.617   5.729   4.253
 2315TIP3   OH2 6889   4.850   6.896   2.216
 2315TIP3    H1 6890   4.927   6.941   2.249
 2315TIP3    H2 6891   4.876   6.863   2.130
 2316TIP3   OH2 6892   2.530   0.979   2.752
 2316TIP3    H1 6893   2.513   1.029   2.673
 2316TIP3    H2 6894   2.576   0.901   2.721
 2317TIP3   OH2 6895   4.146   4.102   6.553
 2317TIP3    H1 6896   4.167   4.046   6.628
 2317TIP3    H2 6897   4.214   4.083   6.489
 2318TIP3   OH2 6898   0.180   3.540   6.535
 2318TIP3    H1 6899   0.207   3.581   6.453
 2318TIP3    H2 6900   0.208   3.449   6.528
 2319TIP3   OH2 6901   3.400   7.052   1.233
 2319TIP3    H1 6902   3.307   7.032   1.228
 2319TIP3    H2 6903   3.404   7.146   1.249
 2320TIP3   OH2 6904   1.311   5.715   4.751
 2320TIP3    H1 6905   1.252   5.734   4.823
 2320TIP3    H2 6906   1.394   5.755   4.777
 2321TIP3   OH2 6907   1.905   2.247   5.919
 2321TIP3    H1 6908   1.878   2.175   5.863
 2321TIP3    H2 6909   1.988   2.278   5.882
 2322TIP3   OH2 6910   7.672   2.847   4.220
 2322TIP3    H1 6911   7.717   2.896   4.152
 2322TIP3    H2 6912   7.619   2.783   4.172
 2323TIP3   OH2 6913   5.711   0.205   5.440
 2323TIP3    H1 6914   5.782   0.251   5.484
 2323TIP3    H2 6915   5.724   0.225   5.347
 2324TIP3   OH2 6916   3.752   2.336   0.800
 2324TIP3    H1 6917   3.702   2.256   0.812
 2324TIP3    H2 6918   3.839   2.315   0.833
 2325TIP3   OH2 6919   7.811   6.908   0.055
 2325TIP3    H1 6920   7.881   6.921  -0.009
 2325TIP3    H2 6921   7.846   6.842   0.116
 2326TIP3   OH2 6922   7.907   4.437   4.895
 2326TIP3    H1 6923   7.818   4.437   4.930
 2326TIP3    H2 6924   7.940   4.349   4.914
 2327TIP3   OH2 6925   6.873   2.959   5.541
 2327TIP3    H1 6926   6.780   2.960   5.560
 2327TIP3    H2 6927   6.878   2.965   5.445
 2328TIP3   OH2 6928   5.892   7.016   0.503
 2328TIP3    H1 6929   5.812   7.065   0.523
 2328TIP3    H2 6930   5.918   7.048   0.416
 2329TIP3   OH2 6931   1.551   5.516   6.309
 2329TIP3    H1 6932   1.569   5.479   6.395
 2329TIP3    H2 6933   1.633   5.504   6.260
 2330TIP3   OH2 6934   6.071   2.395   2.126
 2330TIP3    H1 6935   6.013   2.465   2.095
 2330TIP3    H2 6936   6.153   2.439   2.149
 2331TIP3   OH2 6937   8.251   0.052   4.218
 2331TIP3    H1 6938   8.197  -0.014   4.260
 2331TIP3    H2 6939   8.241   0.035   4.124
 2332TIP3   OH2 6940   6.819   2.208   6.144
 2332TIP3    H1 6941   6.895   2.250   6.103
 2332TIP3    H2 6942   6.836   2.216   6.238
 2333TIP3   OH2 6943   7.281   5.104   3.443
 2333TIP3    H1 6944   7.300   5.010   3.443
 2333TIP3    H2 6945   7.361   5.145   3.475
 2334TIP3   OH2 6946   1.197   1.112   1.187
 2334TIP3    H1 6947   1.258   1.041   1.207
 2334TIP3    H2 6948   1.113   1.082   1.222
 2335TIP3   OH2 6949   2.009   3.853   5.287
 2335TIP3    H1 6950   2.094   3.838   5.244
 2335TIP3    H2 6951   2.019   3.813   5.373
 2336TIP3   OH2 6952   2.091   0.614   0.859
 2336TIP3    H1 6953   2.027   0.651   0.798
 2336TIP3    H2 6954   2.058   0.526   0.878
 2337TIP3   OH2 6955   1.297   6.251   5.523
 2337TIP3    H1 6956   1.237   6.302   5.576
 2337TIP3    H2 6957   1.291   6.289   5.435
 2338TIP3   OH2 6958   7.137   0.098   3.869
 2338TIP3    H1 6959   7.050   0.116   3.834
 2338TIP3    H2 6960   7.129   0.013   3.912
 2339TIP3   OH2 6961   2.348   1.480   1.442
 2339TIP3    H1 6962   2.279   1.414   1.452
 2339TIP3    H2 6963   2.307   1.561   1.473
 2340TIP3   OH2 6964   3.398   5.687   2.090
 2340TIP3    H1 6965   3.466   5.732   2.041
 2340TIP3    H2 6966   3.325   5.679   2.029
 2341TIP3   OH2 6967   4.301   2.237   3.241
 2341TIP3    H1 6968   4.226   2.259   3.186
 2341TIP3    H2 6969   4.374   2.284   3.201
 2342TIP3   OH2 6970   0.576   0.109   5.059
 2342TIP3    H1 6971   0.562   0.034   5.117
 2342TIP3    H2 6972   0.603   0.180   5.117
 2343TIP3   OH2 6973   2.990   0.459   6.745
 2343TIP3    H1 6974   3.001   0.414   6.662
 2343TIP3    H2 6975   2.901   0.437   6.772
 2344TIP3   OH2 6976   7.620   5.402   5.199
 2344TIP3    H1 6977   7.600   5.474   5.258
 2344TIP3    H2 6978   7.695   5.358   5.240
 2345TIP3   OH2 6979   1.587   6.352   6.645
 2345TIP3    H1 6980   1.645   6.276   6.650
 2345TIP3    H2 6981   1.544   6.345   6.560
 2346TIP3   OH2 6982   6.372   2.694   4.480
 2346TIP3    H1 6983   6.307   2.699   4.411
 2346TIP3    H2 6984   6.456   2.701   4.435
 2347TIP3   OH2 6985   0.628   1.619   5.112
 2347TIP3    H1 6986   0.554   1.579   5.067
 2347TIP3    H2 6987   0.705   1.579   5.071
 2348TIP3   OH2 6988   4.784   3.664   3.649
 2348TIP3    H1 6989   4.871   3.679   3.614
 2348TIP3    H2 6990   4.758   3.748   3.687
 2349TIP3   OH2 6991   3.990   4.066   3.834
 2349TIP3    H1 6992   3.940   4.011   3.893
 2349TIP3    H2 6993   4.070   4.015   3.816
 2350TIP3   OH2 6994   4.851   6.789   1.175
 2350TIP3    H1 6995   4.797   6.781   1.096
 2350TIP3    H2 6996   4.789   6.773   1.246
 2351TIP3   OH2 6997   7.671   2.522   1.262
 2351TIP3    H1 6998   7.689   2.611   1.232
 2351TIP3    H2 6999   7.737   2.468   1.217
 2352TIP3   OH2 7000   2.926   7.087   0.564
 2352TIP3    H1 7001   2.942   7.000   0.528
 2352TIP3    H2 7002   2.855   7.123   0.511
 2353TIP3   OH2 7003   6.064   5.570   0.582
 2353TIP3    H1 7004   6.092   5.490   0.538
 2353TIP3    H2 7005   6.145   5.608   0.617
 2354TIP3   OH2 7006   7.228   0.898   2.852
 2354TIP3    H1 7007   7.230   0.991   2.875
 2354TIP3    H2 7008   7.138   0.871   2.870
 2355TIP3   OH2 7009   6.755   3.420   5.306
 2355TIP3    H1 7010   6.787   3.363   5.236
 2355TIP3    H2 7011   6.787   3.507   5.281
 2356TIP3   OH2 7012   1.823   6.269   6.476
 2356TIP3    H1 7013   1.908   6.238   6.445
 2356TIP3    H2 7014   1.802   6.342   6.418
 2357TIP3   OH2 7015   3.975   0.997   0.734
 2357TIP3    H1 7016   4.016   1.081   0.716
 2357TIP3    H2 7017   3.914   0.985   0.661
 2358TIP3   OH2 7018   1.974   7.450   3.571
 2358TIP3    H1 7019   2.006   7.416   3.654
 2358TIP3    H2 7020   2.052   7.460   3.517
 2359TIP3   OH2 7021   1.359   5.085   4.024
 2359TIP3    H1 7022   1.333   5.090   4.115
 2359TIP3    H2 7023   1.455   5.087   4.026
 2360TIP3   OH2 7024   7.002   0.911   5.032
 2360TIP3    H1 7025   7.001   0.874   5.120
 2360TIP3    H2 7026   6.957   0.995   5.041
 2361TIP3   OH2 7027   1.080   3.379   2.560
 2361TIP3    H1 7028   1.137   3.313   2.520
 2361TIP3    H2 7029   1.136   3.455   2.572
 2362TIP3   OH2 7030   7.174   7.439   0.595
 2362TIP3    H1 7031   7.213   7.519   0.559
 2362TIP3    H2 7032   7.088   7.433   0.554
 2363TIP3   OH2 7033   6.072   3.198   6.024
 2363TIP3    H1 7034   6.111   3.222   6.108
 2363TIP3    H2 7035   6.114   3.256   5.960
 2364TIP3   OH2 7036   3.504   5.627   1.672
 2364TIP3    H1 7037   3.447   5.696   1.638
 2364TIP3    H2 7038   3.578   5.625   1.612
 2365TIP3   OH2 7039   5.956   0.094   3.332
 2365TIP3    H1 7040   6.033   0.134   3.291
 2365TIP3    H2 7041   5.906   0.058   3.259
 2366TIP3   OH2 7042   5.047   5.569   0.548
 2366TIP3    H1 7043   5.087   5.543   0.632
 2366TIP3    H2 7044   4.966   5.518   0.544
 2367TIP3   OH2 7045   8.226   1.431   0.193
 2367TIP3    H1 7046   8.258   1.396   0.276
 2367TIP3    H2 7047   8.305   1.465   0.150
 2368TIP3   OH2 7048   1.464   6.224   0.902
 2368TIP3    H1 7049   1.444   6.167   0.828
 2368TIP3    H2 7050   1.379   6.237   0.946
 2369TIP3   OH2 7051   3.174   0.057   4.317
 2369TIP3    H1 7052   3.242   0.124   4.317
 2369TIP3    H2 7053   3.094   0.104   4.295
 2370TIP3   OH2 7054   6.169   3.707   1.663
 2370TIP3    H1 7055   6.077   3.688   1.680
 2370TIP3    H2 7056   6.201   3.631   1.615
 2371TIP3   OH2 7057   5.737   0.325   1.902
 2371TIP3    H1 7058   5.696   0.360   1.982
 2371TIP3    H2 7059   5.811   0.383   1.886
 2372TIP3   OH2 7060   6.720   6.974   1.621
 2372TIP3    H1 7061   6.663   6.920   1.675
 2372TIP3    H2 7062   6.727   7.057   1.669
 2373TIP3   OH2 7063   0.933   3.184   4.390
 2373TIP3    H1 7064   1.028   3.172   4.389
 2373TIP3    H2 7065   0.898   3.096   4.373
 2374TIP3   OH2 7066   1.909   2.671   5.746
 2374TIP3    H1 7067   1.996   2.657   5.708
 2374TIP3    H2 7068   1.875   2.747   5.700
 2375TIP3   OH2 7069   5.294   3.909   4.878
 2375TIP3    H1 7070   5.327   3.980   4.822
 2375TIP3    H2 7071   5.306   3.940   4.967
 2376TIP3   OH2 7072   2.765   3.058   1.567
 2376TIP3    H1 7073   2.859   3.075   1.566
 2376TIP3    H2 7074   2.738   3.078   1.656
 2377TIP3   OH2 7075   4.025   5.432   3.650
 2377TIP3    H1 7076   3.964   5.436   3.577
 2377TIP3    H2 7077   4.044   5.339   3.661
 2378TIP3   OH2 7078   3.601   5.244   3.813
 2378TIP3    H1 7079   3.621   5.152   3.829
 2378TIP3    H2 7080   3.606   5.286   3.899
 2379TIP3   OH2 7081   8.277   4.484   0.366
 2379TIP3    H1 7082   8.263   4.574   0.396
 2379TIP3    H2 7083   8.216   4.475   0.293
 2380TIP3   OH2 7084   4.582   3.231   4.841
 2380TIP3    H1 7085   4.664   3.213   4.794
 2380TIP3    H2 7086   4.521   3.165   4.809
 2381TIP3   OH2 7087   0.949   4.052   2.557
 2381TIP3    H1 7088   0.950   3.974   2.500
 2381TIP3    H2 7089   1.040   4.064   2.582
 2382TIP3   OH2 7090   3.475   3.675   2.181
 2382TIP3    H1 7091   3.560   3.630   2.181
 2382TIP3    H2 7092   3.442   3.664   2.092
 2383TIP3   OH2 7093   7.253   5.028   0.066
 2383TIP3    H1 7094   7.189   4.976   0.116
 2383TIP3    H2 7095   7.230   5.119   0.086
 2384TIP3   OH2 7096   2.007   5.163   1.341
 2384TIP3    H1 7097   2.044   5.076   1.350
 2384TIP3    H2 7098   1.934   5.164   1.403
 2385TIP3   OH2 7099   7.847   2.962   4.961
 2385TIP3    H1 7100   7.914   2.922   4.905
 2385TIP3    H2 7101   7.764   2.938   4.920
 2386TIP3   OH2 7102   5.069   5.657   2.322
 2386TIP3    H1 7103   5.113   5.676   2.405
 2386TIP3    H2 7104   5.124   5.591   2.280
 2387TIP3   OH2 7105   2.152   7.554   1.449
 2387TIP3    H1 7106   2.133   7.486   1.514
 2387TIP3    H2 7107   2.067   7.572   1.409
 2388TIP3   OH2 7108   7.324   3.109   1.046
 2388TIP3    H1 7109   7.244   3.127   0.998
 2388TIP3    H2 7110   7.307   3.027   1.093
 2389TIP3   OH2 7111   7.640   7.405   4.993
 2389TIP3    H1 7112   7.597   7.466   5.052
 2389TIP3    H2 7113   7.713   7.455   4.956
 2390TIP3   OH2 7114   3.550   2.006   3.531
 2390TIP3    H1 7115   3.456   2.009   3.517
 2390TIP3    H2 7116   3.571   2.091   3.572
 2391TIP3   OH2 7117   0.147   0.396   1.136
 2391TIP3    H1 7118   0.077   0.431   1.081
 2391TIP3    H2 7119   0.191   0.331   1.081
 2392TIP3   OH2 7120   7.238   2.216   4.567
 2392TIP3    H1 7121   7.248   2.308   4.592
 2392TIP3    H2 7122   7.282   2.167   4.636
 2393TIP3   OH2 7123   0.722   3.228   5.724
 2393TIP3    H1 7124   0.714   3.295   5.793
 2393TIP3    H2 7125   0.808   3.245   5.684
 2394TIP3   OH2 7126   3.129   3.275   4.103
 2394TIP3    H1 7127   3.124   3.188   4.143
 2394TIP3    H2 7128   3.057   3.277   4.040
 2395TIP3   OH2 7129   5.798   2.138   3.879
 2395TIP3    H1 7130   5.824   2.102   3.794
 2395TIP3    H2 7131   5.739   2.073   3.916
 2396TIP3   OH2 7132   2.350   5.256   4.567
 2396TIP3    H1 7133   2.344   5.172   4.522
 2396TIP3    H2 7134   2.303   5.243   4.649
 2397TIP3   OH2 7135   5.551   3.573   4.583
 2397TIP3    H1 7136   5.585   3.585   4.494
 2397TIP3    H2 7137   5.588   3.647   4.633
 2398TIP3   OH2 7138   5.857   1.979   4.273
 2398TIP3    H1 7139   5.902   1.974   4.188
 2398TIP3    H2 7140   5.842   2.072   4.287
 2399TIP3   OH2 7141   4.898   2.046   4.375
 2399TIP3    H1 7142   4.820   2.030   4.323
 2399TIP3    H2 7143   4.904   1.972   4.434
 2400TIP3   OH2 7144   0.538   5.708   5.433
 2400TIP3    H1 7145   0.549   5.797   5.467
 2400TIP3    H2 7146   0.490   5.662   5.503
 2401TIP3   OH2 7147   5.021   0.340   3.880
 2401TIP3    H1 7148   4.987   0.413   3.932
 2401TIP3    H2 7149   4.979   0.262   3.917
 2402TIP3   OH2 7150   6.481   6.789   3.286
 2402TIP3    H1 7151   6.398   6.801   3.241
 2402TIP3    H2 7152   6.529   6.726   3.232
 2403TIP3   OH2 7153   2.323   7.180   0.888
 2403TIP3    H1 7154   2.262   7.245   0.925
 2403TIP3    H2 7155   2.349   7.126   0.963
 2404TIP3   OH2 7156   5.691   5.808   5.706
 2404TIP3    H1 7157   5.678   5.793   5.799
 2404TIP3    H2 7158   5.668   5.725   5.665
 2405TIP3   OH2 7159   3.774   1.467   1.766
 2405TIP3    H1 7160   3.754   1.478   1.859
 2405TIP3    H2 7161   3.868   1.449   1.765
 2406TIP3   OH2 7162   1.069   4.722   5.493
 2406TIP3    H1 7163   1.149   4.771   5.477
 2406TIP3    H2 7164   1.050   4.735   5.586
 2407TIP3   OH2 7165   0.265   1.955   1.681
 2407TIP3    H1 7166   0.339   1.959   1.741
 2407TIP3    H2 7167   0.213   2.033   1.703
 2408TIP3   OH2 7168   3.774   0.774   2.950
 2408TIP3    H1 7169   3.844   0.789   2.886
 2408TIP3    H2 7170   3.711   0.719   2.904
 2409TIP3   OH2 7171   7.794   3.825   6.118
 2409TIP3    H1 7172   7.861   3.823   6.187
 2409TIP3    H2 7173   7.764   3.734   6.110
 2410TIP3   OH2 7174   3.192   0.799   4.973
 2410TIP3    H1 7175   3.224   0.862   5.037
 2410TIP3    H2 7176   3.252   0.724   4.981
 2411TIP3   OH2 7177   5.258   7.487   0.973
 2411TIP3    H1 7178   5.315   7.443   1.036
 2411TIP3    H2 7179   5.316   7.516   0.903
 2412TIP3   OH2 7180   3.037   2.294   2.104
 2412TIP3    H1 7181   2.989   2.255   2.177
 2412TIP3    H2 7182   3.109   2.342   2.146
 2413TIP3   OH2 7183   7.609   3.678   6.453
 2413TIP3    H1 7184   7.648   3.708   6.535
 2413TIP3    H2 7185   7.537   3.740   6.437
 2414TIP3   OH2 7186   7.520   3.023   3.586
 2414TIP3    H1 7187   7.529   2.997   3.678
 2414TIP3    H2 7188   7.603   3.067   3.566
 2415TIP3   OH2 7189   6.075   0.976   2.405
 2415TIP3    H1 7190   6.091   0.882   2.415
 2415TIP3    H2 7191   6.159   1.017   2.423
 2416TIP3   OH2 7192   3.170   5.066   5.963
 2416TIP3    H1 7193   3.247   5.082   5.910
 2416TIP3    H2 7194   3.191   5.105   6.049
 2417TIP3   OH2 7195   3.765   6.071   0.927
 2417TIP3    H1 7196   3.736   6.153   0.886
 2417TIP3    H2 7197   3.763   6.089   1.021
 2418TIP3   OH2 7198   0.534   0.575   0.282
 2418TIP3    H1 7199   0.615   0.532   0.313
 2418TIP3    H2 7200   0.508   0.632   0.355
 2419TIP3   OH2 7201   3.981   5.460   6.308
 2419TIP3    H1 7202   3.951   5.464   6.399
 2419TIP3    H2 7203   3.913   5.507   6.259
 2420TIP3   OH2 7204   6.241   2.675   0.867
 2420TIP3    H1 7205   6.163   2.731   0.863
 2420TIP3    H2 7206   6.298   2.717   0.931
 2421TIP3   OH2 7207   4.371   3.486   4.881
 2421TIP3    H1 7208   4.281   3.467   4.853
 2421TIP3    H2 7209   4.416   3.402   4.876
 2422TIP3   OH2 7210   1.157   5.828   1.990
 2422TIP3    H1 7211   1.139   5.887   1.917
 2422TIP3    H2 7212   1.155   5.740   1.950
 2423TIP3   OH2 7213   7.390   4.601   0.599
 2423TIP3    H1 7214   7.378   4.585   0.693
 2423TIP3    H2 7215   7.302   4.601   0.563
 2424TIP3   OH2 7216   1.538   2.629   4.724
 2424TIP3    H1 7217   1.532   2.554   4.665
 2424TIP3    H2 7218   1.478   2.608   4.795
 2425TIP3   OH2 7219   4.332   2.845   5.628
 2425TIP3    H1 7220   4.337   2.807   5.716
 2425TIP3    H2 7221   4.239   2.836   5.604
 2426TIP3   OH2 7222   5.776   7.440   3.851
 2426TIP3    H1 7223   5.764   7.380   3.777
 2426TIP3    H2 7224   5.868   7.431   3.875
 2427TIP3   OH2 7225   6.012   5.111   2.797
 2427TIP3    H1 7226   5.983   5.160   2.874
 2427TIP3    H2 7227   6.083   5.164   2.761
 2428TIP3   OH2 7228   4.735   6.558   1.746
 2428TIP3    H1 7229   4.762   6.555   1.838
 2428TIP3    H2 7230   4.782   6.486   1.704
 2429TIP3   OH2 7231   7.045   6.897   0.130
 2429TIP3    H1 7232   6.987   6.954   0.080
 2429TIP3    H2 7233   7.084   6.839   0.065
 2430TIP3   OH2 7234   4.784   2.527   5.492
 2430TIP3    H1 7235   4.773   2.433   5.476
 2430TIP3    H2 7236   4.698   2.557   5.519
 2431TIP3   OH2 7237   2.135   0.357   4.248
 2431TIP3    H1 7238   2.100   0.323   4.165
 2431TIP3    H2 7239   2.191   0.431   4.223
 2432TIP3   OH2 7240   1.360   2.350   0.035
 2432TIP3    H1 7241   1.406   2.408   0.095
 2432TIP3    H2 7242   1.342   2.404  -0.042
 2433TIP3   OH2 7243   6.435   2.177   0.772
 2433TIP3    H1 7244   6.441   2.095   0.725
 2433TIP3    H2 7245   6.525   2.208   0.779
 2434TIP3   OH2 7246   7.932   6.954   2.922
 2434TIP3    H1 7247   8.005   6.894   2.934
 2434TIP3    H2 7248   7.951   7.028   2.979
 2435TIP3   OH2 7249   2.952   5.117   0.235
 2435TIP3    H1 7250   2.927   5.106   0.143
 2435TIP3    H2 7251   2.906   5.196   0.263
 2436TIP3   OH2 7252   7.040   1.814   4.998
 2436TIP3    H1 7253   7.095   1.828   4.921
 2436TIP3    H2 7254   6.972   1.881   4.992
 2437TIP3   OH2 7255   6.772   0.415   5.364
 2437TIP3    H1 7256   6.684   0.381   5.346
 2437TIP3    H2 7257   6.827   0.337   5.372
 2438TIP3   OH2 7258   5.618   6.584   3.641
 2438TIP3    H1 7259   5.569   6.503   3.659
 2438TIP3    H2 7260   5.584   6.647   3.705
 2439TIP3   OH2 7261   7.237   2.855   4.822
 2439TIP3    H1 7262   7.270   2.848   4.733
 2439TIP3    H2 7263   7.275   2.780   4.868
 2440TIP3   OH2 7264   6.672   1.598   5.836
 2440TIP3    H1 7265   6.627   1.534   5.891
 2440TIP3    H2 7266   6.694   1.669   5.896
 2441TIP3   OH2 7267   3.348   1.802   2.614
 2441TIP3    H1 7268   3.273   1.834   2.663
 2441TIP3    H2 7269   3.356   1.862   2.540
 2442TIP3   OH2 7270   8.194   1.038   1.855
 2442TIP3    H1 7271   8.218   0.955   1.813
 2442TIP3    H2 7272   8.110   1.019   1.897
 2443TIP3   OH2 7273   3.852   2.119   5.333
 2443TIP3    H1 7274   3.902   2.044   5.367
 2443TIP3    H2 7275   3.770   2.117   5.382
 2444TIP3   OH2 7276   7.026   5.964   1.770
 2444TIP3    H1 7277   7.081   6.037   1.742
 2444TIP3    H2 7278   7.025   5.970   1.865
 2445TIP3   OH2 7279   6.791   7.056   2.643
 2445TIP3    H1 7280   6.742   7.001   2.581
 2445TIP3    H2 7281   6.829   7.125   2.588
 2446TIP3   OH2 7282   4.513   1.942   1.308
 2446TIP3    H1 7283   4.524   1.848   1.318
 2446TIP3    H2 7284   4.521   1.958   1.214
 2447TIP3   OH2 7285   4.216   6.638   0.019
 2447TIP3    H1 7286   4.311   6.635   0.020
 2447TIP3    H2 7287   4.193   6.707   0.081
 2448TIP3   OH2 7288   0.381   6.923   5.905
 2448TIP3    H1 7289   0.318   6.865   5.861
 2448TIP3    H2 7290   0.415   6.871   5.977
 2449TIP3   OH2 7291   7.072   0.093   0.437
 2449TIP3    H1 7292   7.079   0.188   0.447
 2449TIP3    H2 7293   7.162   0.062   0.447
 2450TIP3   OH2 7294   5.967   4.580   6.261
 2450TIP3    H1 7295   5.933   4.646   6.322
 2450TIP3    H2 7296   5.981   4.503   6.316
 2451TIP3   OH2 7297   6.062   2.941   2.173
 2451TIP3    H1 7298   6.093   2.856   2.204
 2451TIP3    H2 7299   6.122   2.964   2.102
 2452TIP3   OH2 7300   2.352   6.869   6.298
 2452TIP3    H1 7301   2.429   6.909   6.258
 2452TIP3    H2 7302   2.278   6.922   6.267
 2453TIP3   OH2 7303   5.698   5.490   0.955
 2453TIP3    H1 7304   5.705   5.486   0.860
 2453TIP3    H2 7305   5.691   5.583   0.975
 2454TIP3   OH2 7306   0.904   3.087   4.964
 2454TIP3    H1 7307   0.914   2.995   4.938
 2454TIP3    H2 7308   0.884   3.132   4.882
 2455TIP3   OH2 7309   3.422   1.912   0.954
 2455TIP3    H1 7310   3.373   1.911   0.871
 2455TIP3    H2 7311   3.365   1.865   1.015
 2456TIP3   OH2 7312   4.177   3.919   5.139
 2456TIP3    H1 7313   4.248   3.973   5.175
 2456TIP3    H2 7314   4.211   3.891   5.053
 2457TIP3   OH2 7315   3.465   2.870   1.664
 2457TIP3    H1 7316   3.519   2.949   1.662
 2457TIP3    H2 7317   3.390   2.891   1.609
 2458TIP3   OH2 7318   6.335   6.938   5.047
 2458TIP3    H1 7319   6.411   6.883   5.065
 2458TIP3    H2 7320   6.357   7.022   5.088
 2459TIP3   OH2 7321   7.710   5.553   0.903
 2459TIP3    H1 7322   7.790   5.602   0.925
 2459TIP3    H2 7323   7.647   5.621   0.878
 2460TIP3   OH2 7324   1.455   5.513   1.429
 2460TIP3    H1 7325   1.436   5.607   1.437
 2460TIP3    H2 7326   1.519   5.508   1.357
 2461TIP3   OH2 7327   2.653   3.480   2.681
 2461TIP3    H1 7328   2.741   3.454   2.705
 2461TIP3    H2 7329   2.660   3.573   2.660
 2462TIP3   OH2 7330   3.604   4.605   3.367
 2462TIP3    H1 7331   3.598   4.552   3.447
 2462TIP3    H2 7332   3.659   4.553   3.308
 2463TIP3   OH2 7333   3.148   1.903   1.448
 2463TIP3    H1 7334   3.075   1.921   1.389
 2463TIP3    H2 7335   3.183   1.819   1.418
 2464TIP3   OH2 7336   6.099   6.234   4.923
 2464TIP3    H1 7337   6.026   6.185   4.962
 2464TIP3    H2 7338   6.081   6.234   4.829
 2465TIP3   OH2 7339   6.279   7.291   2.463
 2465TIP3    H1 7340   6.185   7.274   2.454
 2465TIP3    H2 7341   6.316   7.208   2.494
 2466TIP3   OH2 7342   2.789   6.852   5.049
 2466TIP3    H1 7343   2.874   6.890   5.027
 2466TIP3    H2 7344   2.803   6.758   5.044
 2467TIP3   OH2 7345   7.290   2.355   5.765
 2467TIP3    H1 7346   7.331   2.352   5.678
 2467TIP3    H2 7347   7.196   2.357   5.747
 2468TIP3   OH2 7348   7.188   7.318   2.564
 2468TIP3    H1 7349   7.178   7.388   2.629
 2468TIP3    H2 7350   7.280   7.293   2.571
 2469TIP3   OH2 7351   3.797   3.405   0.706
 2469TIP3    H1 7352   3.769   3.353   0.632
 2469TIP3    H2 7353   3.893   3.397   0.706
 2470TIP3   OH2 7354   2.673   1.812   5.464
 2470TIP3    H1 7355   2.663   1.792   5.557
 2470TIP3    H2 7356   2.752   1.867   5.460
 2471TIP3   OH2 7357   3.147   1.017   5.668
 2471TIP3    H1 7358   3.183   0.945   5.718
 2471TIP3    H2 7359   3.174   1.096   5.715
 2472TIP3   OH2 7360   5.382   0.056   5.991
 2472TIP3    H1 7361   5.344   0.099   5.914
 2472TIP3    H2 7362   5.475   0.075   5.985
 2473TIP3   OH2 7363   1.883   0.710   2.223
 2473TIP3    H1 7364   1.956   0.667   2.268
 2473TIP3    H2 7365   1.809   0.651   2.235
 2474TIP3   OH2 7366   4.571   1.243   5.052
 2474TIP3    H1 7367   4.640   1.262   5.115
 2474TIP3    H2 7368   4.591   1.298   4.976
 2475TIP3   OH2 7369   2.487   7.176   6.347
 2475TIP3    H1 7370   2.524   7.254   6.389
 2475TIP3    H2 7371   2.416   7.209   6.292
 2476TIP3   OH2 7372   1.865   5.072   4.145
 2476TIP3    H1 7373   1.845   5.147   4.200
 2476TIP3    H2 7374   1.891   5.003   4.206
 2477TIP3   OH2 7375   0.026   6.352   3.389
 2477TIP3    H1 7376  -0.027   6.430   3.407
 2477TIP3    H2 7377   0.016   6.298   3.467
 2478TIP3   OH2 7378   2.017   6.111   0.192
 2478TIP3    H1 7379   1.962   6.152   0.258
 2478TIP3    H2 7380   2.103   6.102   0.233
 2479TIP3   OH2 7381   3.298   5.432   4.255
 2479TIP3    H1 7382   3.253   5.366   4.307
 2479TIP3    H2 7383   3.250   5.513   4.270
 2480TIP3   OH2 7384   0.199   3.161   4.840
 2480TIP3    H1 7385   0.107   3.187   4.836
 2480TIP3    H2 7386   0.203   3.099   4.912
 2481TIP3   OH2 7387   2.992   2.753   3.395
 2481TIP3    H1 7388   2.958   2.746   3.306
 2481TIP3    H2 7389   2.948   2.683   3.444
 2482TIP3   OH2 7390   1.067   5.293   0.834
 2482TIP3    H1 7391   1.134   5.322   0.897
 2482TIP3    H2 7392   0.996   5.355   0.844
 2483TIP3   OH2 7393   5.217   2.696   3.059
 2483TIP3    H1 7394   5.204   2.719   2.967
 2483TIP3    H2 7395   5.184   2.607   3.067
 2484TIP3   OH2 7396   7.710   5.510   0.047
 2484TIP3    H1 7397   7.639   5.519   0.111
 2484TIP3    H2 7398   7.746   5.598   0.039
 2485TIP3   OH2 7399   5.799   1.104   0.910
 2485TIP3    H1 7400   5.798   1.024   0.857
 2485TIP3    H2 7401   5.860   1.162   0.866
 2486TIP3   OH2 7402   0.832   3.157   6.078
 2486TIP3    H1 7403   0.779   3.223   6.033
 2486TIP3    H2 7404   0.853   3.093   6.010
 2487TIP3   OH2 7405   5.827   1.412   3.019
 2487TIP3    H1 7406   5.790   1.477   2.959
 2487TIP3    H2 7407   5.774   1.334   3.005
 2488TIP3   OH2 7408   0.944   5.809   4.254
 2488TIP3    H1 7409   1.022   5.754   4.266
 2488TIP3    H2 7410   0.871   5.753   4.277
 2489TIP3   OH2 7411   4.096   2.723   4.637
 2489TIP3    H1 7412   4.123   2.672   4.562
 2489TIP3    H2 7413   4.082   2.811   4.602
 2490TIP3   OH2 7414   4.270   7.517   2.597
 2490TIP3    H1 7415   4.331   7.451   2.564
 2490TIP3    H2 7416   4.268   7.502   2.692
 2491TIP3   OH2 7417   5.400   7.033   6.595
 2491TIP3    H1 7418   5.343   6.983   6.537
 2491TIP3    H2 7419   5.484   6.988   6.592
 2492TIP3   OH2 7420   7.950   1.874   1.299
 2492TIP3    H1 7421   8.008   1.801   1.320
 2492TIP3    H2 7422   7.923   1.909   1.384
 2493TIP3   OH2 7423   0.601   3.487   4.637
 2493TIP3    H1 7424   0.629   3.432   4.564
 2493TIP3    H2 7425   0.559   3.563   4.596
 2494TIP3   OH2 7426   7.844   6.318   0.120
 2494TIP3    H1 7427   7.869   6.293   0.030
 2494TIP3    H2 7428   7.920   6.366   0.153
 2495TIP3   OH2 7429   1.699   6.956   1.628
 2495TIP3    H1 7430   1.755   6.885   1.659
 2495TIP3    H2 7431   1.620   6.912   1.595
 2496TIP3   OH2 7432   2.307   4.417   0.099
 2496TIP3    H1 7433   2.390   4.411   0.052
 2496TIP3    H2 7434   2.263   4.335   0.081
 2497TIP3   OH2 7435   0.174   6.861   1.539
 2497TIP3    H1 7436   0.241   6.886   1.475
 2497TIP3    H2 7437   0.172   6.765   1.536
 2498TIP3   OH2 7438   7.645   7.171   5.945
 2498TIP3    H1 7439   7.662   7.254   5.900
 2498TIP3    H2 7440   7.551   7.158   5.938
 2499TIP3   OH2 7441   6.732   7.505   5.406
 2499TIP3    H1 7442   6.759   7.572   5.343
 2499TIP3    H2 7443   6.743   7.422   5.359
 2500TIP3   OH2 7444   4.349   6.739   2.718
 2500TIP3    H1 7445   4.416   6.806   2.706
 2500TIP3    H2 7446   4.396   6.656   2.709
 2501TIP3   OH2 7447   1.774   0.025   4.099
 2501TIP3    H1 7448   1.850   0.007   4.044
 2501TIP3    H2 7449   1.699   0.020   4.040
 2502TIP3   OH2 7450   3.096   1.776   5.138
 2502TIP3    H1 7451   3.090   1.690   5.178
 2502TIP3    H2 7452   3.112   1.758   5.045
 2503TIP3   OH2 7453   6.734   3.599   2.841
 2503TIP3    H1 7454   6.768   3.580   2.754
 2503TIP3    H2 7455   6.811   3.626   2.891
 2504TIP3   OH2 7456   0.626   1.156   0.151
 2504TIP3    H1 7457   0.660   1.243   0.172
 2504TIP3    H2 7458   0.578   1.169   0.069
 2505TIP3   OH2 7459   8.307   4.792   2.928
 2505TIP3    H1 7460   8.224   4.753   2.955
 2505TIP3    H2 7461   8.289   4.828   2.841
 2506TIP3   OH2 7462   0.284   0.316   1.361
 2506TIP3    H1 7463   0.190   0.299   1.368
 2506TIP3    H2 7464   0.291   0.389   1.299
 2507TIP3   OH2 7465   3.340   1.664   1.920
 2507TIP3    H1 7466   3.412   1.684   1.860
 2507TIP3    H2 7467   3.261   1.668   1.865
 2508TIP3   OH2 7468   0.242   7.080   0.793
 2508TIP3    H1 7469   0.254   6.993   0.753
 2508TIP3    H2 7470   0.312   7.133   0.756
 2509TIP3   OH2 7471   2.897   2.329   6.468
 2509TIP3    H1 7472   2.900   2.418   6.505
 2509TIP3    H2 7473   2.963   2.280   6.517
 2510TIP3   OH2 7474   1.723   5.819   6.009
 2510TIP3    H1 7475   1.724   5.750   5.942
 2510TIP3    H2 7476   1.701   5.898   5.960
 2511TIP3   OH2 7477   2.333   1.661   6.598
 2511TIP3    H1 7478   2.277   1.738   6.606
 2511TIP3    H2 7479   2.273   1.589   6.579
 2512TIP3   OH2 7480   3.840   4.999   1.923
 2512TIP3    H1 7481   3.915   4.942   1.904
 2512TIP3    H2 7482   3.787   4.996   1.844
 2513TIP3   OH2 7483   0.397   4.995   3.035
 2513TIP3    H1 7484   0.383   4.909   2.994
 2513TIP3    H2 7485   0.343   5.055   2.984
 2514TIP3   OH2 7486   3.376   4.268   3.077
 2514TIP3    H1 7487   3.309   4.306   3.019
 2514TIP3    H2 7488   3.331   4.258   3.161
 2515TIP3   OH2 7489   4.937   4.332   4.593
 2515TIP3    H1 7490   4.880   4.367   4.661
 2515TIP3    H2 7491   4.959   4.408   4.540
 2516TIP3   OH2 7492   6.340   2.544   4.755
 2516TIP3    H1 7493   6.373   2.596   4.681
 2516TIP3    H2 7494   6.263   2.498   4.719
 2517TIP3   OH2 7495   2.492   4.925   3.371
 2517TIP3    H1 7496   2.503   5.013   3.407
 2517TIP3    H2 7497   2.399   4.905   3.385
 2518TIP3   OH2 7498   2.545   5.995   0.324
 2518TIP3    H1 7499   2.588   5.979   0.240
 2518TIP3    H2 7500   2.516   5.909   0.354
 2519TIP3   OH2 7501   5.806   4.252   4.501
 2519TIP3    H1 7502   5.861   4.239   4.579
 2519TIP3    H2 7503   5.864   4.236   4.427
 2520TIP3   OH2 7504   6.435   5.292   3.681
 2520TIP3    H1 7505   6.391   5.315   3.763
 2520TIP3    H2 7506   6.507   5.235   3.708
 2521TIP3   OH2 7507   6.244   3.286   0.078
 2521TIP3    H1 7508   6.245   3.381   0.066
 2521TIP3    H2 7509   6.332   3.258   0.054
 2522TIP3   OH2 7510   4.618   7.530   2.681
 2522TIP3    H1 7511   4.584   7.605   2.729
 2522TIP3    H2 7512   4.650   7.471   2.749
 2523TIP3   OH2 7513   0.270   3.256   6.516
 2523TIP3    H1 7514   0.303   3.166   6.511
 2523TIP3    H2 7515   0.242   3.266   6.607
 2524TIP3   OH2 7516   2.018   0.383   5.146
 2524TIP3    H1 7517   2.025   0.329   5.067
 2524TIP3    H2 7518   2.036   0.472   5.115
 2525TIP3   OH2 7519   4.380   7.280   2.558
 2525TIP3    H1 7520   4.467   7.273   2.595
 2525TIP3    H2 7521   4.381   7.221   2.483
 2526TIP3   OH2 7522   4.360   4.724   1.745
 2526TIP3    H1 7523   4.445   4.744   1.706
 2526TIP3    H2 7524   4.343   4.799   1.803
 2527TIP3   OH2 7525   7.970   1.693   3.629
 2527TIP3    H1 7526   7.933   1.616   3.585
 2527TIP3    H2 7527   7.908   1.763   3.612
 2528TIP3   OH2 7528   6.900   0.733   3.307
 2528TIP3    H1 7529   6.930   0.707   3.394
 2528TIP3    H2 7530   6.864   0.653   3.269
 2529TIP3   OH2 7531   0.133   4.111   6.586
 2529TIP3    H1 7532   0.051   4.117   6.635
 2529TIP3    H2 7533   0.139   4.195   6.540
 2530TIP3   OH2 7534   1.256   7.343   1.323
 2530TIP3    H1 7535   1.264   7.266   1.380
 2530TIP3    H2 7536   1.260   7.308   1.235
 2531TIP3   OH2 7537   5.282   0.667   1.775
 2531TIP3    H1 7538   5.263   0.676   1.681
 2531TIP3    H2 7539   5.198   0.647   1.815
 2532TIP3   OH2 7540   2.219   3.599   6.731
 2532TIP3    H1 7541   2.149   3.570   6.672
 2532TIP3    H2 7542   2.174   3.649   6.800
 2533TIP3   OH2 7543   5.369   4.423   1.114
 2533TIP3    H1 7544   5.397   4.343   1.157
 2533TIP3    H2 7545   5.407   4.418   1.026
 2534TIP3   OH2 7546   7.785   4.094   5.607
 2534TIP3    H1 7547   7.745   4.171   5.648
 2534TIP3    H2 7548   7.879   4.107   5.620
 2535TIP3   OH2 7549   0.088   4.189   0.479
 2535TIP3    H1 7550   0.088   4.274   0.434
 2535TIP3    H2 7551   0.164   4.192   0.536
 2536TIP3   OH2 7552   1.109   1.174   3.416
 2536TIP3    H1 7553   1.172   1.163   3.487
 2536TIP3    H2 7554   1.077   1.085   3.398
 2537TIP3   OH2 7555   8.077   4.450   4.369
 2537TIP3    H1 7556   8.054   4.449   4.461
 2537TIP3    H2 7557   8.088   4.543   4.348
 2538TIP3   OH2 7558   1.437   4.747   3.251
 2538TIP3    H1 7559   1.347   4.715   3.251
 2538TIP3    H2 7560   1.438   4.818   3.187
 2539TIP3   OH2 7561   8.069   2.164   5.915
 2539TIP3    H1 7562   8.027   2.217   5.983
 2539TIP3    H2 7563   8.009   2.168   5.840
 2540TIP3   OH2 7564   6.460   4.446   1.332
 2540TIP3    H1 7565   6.390   4.462   1.268
 2540TIP3    H2 7566   6.426   4.374   1.386
 2541TIP3   OH2 7567   7.685   2.173   6.515
 2541TIP3    H1 7568   7.721   2.130   6.437
 2541TIP3    H2 7569   7.652   2.100   6.569
 2542TIP3   OH2 7570   7.316   0.026   4.595
 2542TIP3    H1 7571   7.317   0.101   4.536
 2542TIP3    H2 7572   7.281   0.060   4.677
 2543TIP3   OH2 7573   4.662   0.743   2.618
 2543TIP3    H1 7574   4.686   0.659   2.656
 2543TIP3    H2 7575   4.593   0.776   2.675
 2544TIP3   OH2 7576   0.736   4.938   3.629
 2544TIP3    H1 7577   0.767   5.002   3.565
 2544TIP3    H2 7578   0.681   4.989   3.689
 2545TIP3   OH2 7579   2.265   7.463   2.972
 2545TIP3    H1 7580   2.351   7.426   2.994
 2545TIP3    H2 7581   2.257   7.450   2.878
 2546TIP3   OH2 7582   7.017   1.308   1.424
 2546TIP3    H1 7583   7.002   1.346   1.337
 2546TIP3    H2 7584   7.085   1.363   1.463
 2547TIP3   OH2 7585   6.443   2.791   1.429
 2547TIP3    H1 7586   6.492   2.769   1.508
 2547TIP3    H2 7587   6.354   2.808   1.460
 2548TIP3   OH2 7588   4.521   7.170   5.808
 2548TIP3    H1 7589   4.511   7.256   5.766
 2548TIP3    H2 7590   4.558   7.190   5.894
 2549TIP3   OH2 7591   3.498   5.320   2.581
 2549TIP3    H1 7592   3.445   5.241   2.572
 2549TIP3    H2 7593   3.569   5.295   2.639
 2550TIP3   OH2 7594   7.973   0.919   5.868
 2550TIP3    H1 7595   8.042   0.981   5.891
 2550TIP3    H2 7596   7.966   0.924   5.773
 2551TIP3   OH2 7597   4.195   4.227   3.971
 2551TIP3    H1 7598   4.218   4.163   4.038
 2551TIP3    H2 7599   4.150   4.177   3.904
 2552TIP3   OH2 7600   7.345   0.079   1.632
 2552TIP3    H1 7601   7.403   0.087   1.709
 2552TIP3    H2 7602   7.392   0.020   1.573
 2553TIP3   OH2 7603   7.294   1.213   4.508
 2553TIP3    H1 7604   7.259   1.272   4.575
 2553TIP3    H2 7605   7.386   1.239   4.500
 2554TIP3   OH2 7606   0.730   7.116   5.470
 2554TIP3    H1 7607   0.692   7.184   5.526
 2554TIP3    H2 7608   0.730   7.155   5.382
 2555TIP3   OH2 7609   6.104   1.269   4.707
 2555TIP3    H1 7610   6.017   1.296   4.737
 2555TIP3    H2 7611   6.135   1.342   4.653
 2556TIP3   OH2 7612   5.788   1.247   5.172
 2556TIP3    H1 7613   5.725   1.316   5.190
 2556TIP3    H2 7614   5.771   1.181   5.238
 2557TIP3   OH2 7615   2.160   1.265   2.180
 2557TIP3    H1 7616   2.222   1.324   2.137
 2557TIP3    H2 7617   2.159   1.187   2.125
 2558TIP3   OH2 7618   0.393   1.473   6.390
 2558TIP3    H1 7619   0.438   1.557   6.395
 2558TIP3    H2 7620   0.433   1.420   6.459
 2559TIP3   OH2 7621   6.444   1.491   3.898
 2559TIP3    H1 7622   6.504   1.559   3.929
 2559TIP3    H2 7623   6.416   1.446   3.978
 2560TIP3   OH2 7624   8.131   1.683   5.685
 2560TIP3    H1 7625   8.216   1.665   5.726
 2560TIP3    H2 7626   8.111   1.773   5.710
 2561TIP3   OH2 7627   4.189   5.499   3.362
 2561TIP3    H1 7628   4.172   5.416   3.406
 2561TIP3    H2 7629   4.210   5.475   3.272
 2562TIP3   OH2 7630   7.044   4.405   5.854
 2562TIP3    H1 7631   7.119   4.436   5.803
 2562TIP3    H2 7632   6.972   4.462   5.828
 2563TIP3   OH2 7633   1.831   4.640   5.725
 2563TIP3    H1 7634   1.847   4.639   5.819
 2563TIP3    H2 7635   1.908   4.682   5.687
 2564TIP3   OH2 7636   4.419   4.030   6.391
 2564TIP3    H1 7637   4.472   4.104   6.419
 2564TIP3    H2 7638   4.424   4.031   6.296
 2565TIP3   OH2 7639   2.922   4.151   1.202
 2565TIP3    H1 7640   2.885   4.077   1.152
 2565TIP3    H2 7641   2.850   4.179   1.259
 2566TIP3   OH2 7642   2.936   3.581   1.097
 2566TIP3    H1 7643   2.866   3.554   1.156
 2566TIP3    H2 7644   2.958   3.670   1.124
 2567TIP3   OH2 7645   5.812   7.586   2.732
 2567TIP3    H1 7646   5.735   7.601   2.676
 2567TIP3    H2 7647   5.881   7.639   2.692
 2568TIP3   OH2 7648   5.850   1.311   0.182
 2568TIP3    H1 7649   5.810   1.377   0.239
 2568TIP3    H2 7650   5.797   1.315   0.102
 2569TIP3   OH2 7651   0.482   6.881   6.493
 2569TIP3    H1 7652   0.520   6.799   6.523
 2569TIP3    H2 7653   0.426   6.909   6.565
 2570TIP3   OH2 7654   8.200   0.512   6.054
 2570TIP3    H1 7655   8.283   0.538   6.092
 2570TIP3    H2 7656   8.134   0.552   6.110
 2571TIP3   OH2 7657   0.119   4.577   5.724
 2571TIP3    H1 7658   0.131   4.634   5.648
 2571TIP3    H2 7659   0.057   4.510   5.695
 2572TIP3   OH2 7660   4.449   1.697   0.000
 2572TIP3    H1 7661   4.538   1.689   0.036
 2572TIP3    H2 7662   4.393   1.707   0.078
 2573TIP3   OH2 7663   1.478   5.574   0.884
 2573TIP3    H1 7664   1.567   5.550   0.910
 2573TIP3    H2 7665   1.486   5.662   0.848
 2574TIP3   OH2 7666   6.478   5.710   1.545
 2574TIP3    H1 7667   6.426   5.693   1.466
 2574TIP3    H2 7668   6.474   5.628   1.594
 2575TIP3   OH2 7669   5.282   0.533   2.900
 2575TIP3    H1 7670   5.309   0.570   2.816
 2575TIP3    H2 7671   5.302   0.602   2.964
 2576TIP3   OH2 7672   8.213   3.266   6.483
 2576TIP3    H1 7673   8.259   3.186   6.459
 2576TIP3    H2 7674   8.128   3.237   6.516
 2577TIP3   OH2 7675   3.718   2.834   5.709
 2577TIP3    H1 7676   3.763   2.815   5.792
 2577TIP3    H2 7677   3.762   2.912   5.675
 2578TIP3   OH2 7678   4.960   3.843   5.504
 2578TIP3    H1 7679   4.880   3.893   5.490
 2578TIP3    H2 7680   4.935   3.752   5.491
 2579TIP3   OH2 7681   3.077   7.682   6.731
 2579TIP3    H1 7682   3.028   7.764   6.735
 2579TIP3    H2 7683   3.139   7.688   6.803
 2580TIP3   OH2 7684   5.726   5.470   6.060
 2580TIP3    H1 7685   5.634   5.482   6.083
 2580TIP3    H2 7686   5.726   5.455   5.965
 2581TIP3   OH2 7687   4.656   4.246   3.835
 2581TIP3    H1 7688   4.657   4.307   3.909
 2581TIP3    H2 7689   4.739   4.262   3.790
 2582TIP3   OH2 7690   0.037   7.332   0.365
 2582TIP3    H1 7691   0.131   7.338   0.347
 2582TIP3    H2 7692  -0.004   7.380   0.293
 2583TIP3   OH2 7693   5.881   3.030   0.012
 2583TIP3    H1 7694   5.855   3.111   0.055
 2583TIP3    H2 7695   5.977   3.034   0.007
 2584TIP3   OH2 7696   3.884   3.122   5.836
 2584TIP3    H1 7697   3.951   3.145   5.901
 2584TIP3    H2 7698   3.917   3.159   5.754
 2585TIP3   OH2 7699   2.343   6.111   2.203
 2585TIP3    H1 7700   2.257   6.154   2.198
 2585TIP3    H2 7701   2.324   6.023   2.236
 2586TIP3   OH2 7702   4.573   2.788   2.033
 2586TIP3    H1 7703   4.479   2.771   2.035
 2586TIP3    H2 7704   4.608   2.724   1.971
 2587TIP3   OH2 7705   6.933   4.251   1.335
 2587TIP3    H1 7706   6.989   4.306   1.280
 2587TIP3    H2 7707   6.845   4.287   1.323
 2588TIP3   OH2 7708   3.913   6.631   0.085
 2588TIP3    H1 7709   3.975   6.606   0.153
 2588TIP3    H2 7710   3.967   6.644   0.007
 2589TIP3   OH2 7711   5.038   3.229   0.003
 2589TIP3    H1 7712   4.983   3.181  -0.059
 2589TIP3    H2 7713   4.992   3.222   0.087
 2590TIP3   OH2 7714   1.729   3.939   2.670
 2590TIP3    H1 7715   1.717   3.963   2.578
 2590TIP3    H2 7716   1.771   4.016   2.709
 2591TIP3   OH2 7717   5.479   7.232   6.750
 2591TIP3    H1 7718   5.493   7.175   6.826
 2591TIP3    H2 7719   5.440   7.174   6.684
 2592TIP3   OH2 7720   4.097   4.399   2.825
 2592TIP3    H1 7721   4.118   4.324   2.770
 2592TIP3    H2 7722   4.181   4.429   2.859
 2593TIP3   OH2 7723   4.134   3.519   1.927
 2593TIP3    H1 7724   4.164   3.607   1.951
 2593TIP3    H2 7725   4.214   3.472   1.903
 2594TIP3   OH2 7726   0.915   1.303   2.705
 2594TIP3    H1 7727   1.007   1.290   2.679
 2594TIP3    H2 7728   0.920   1.366   2.777
 2595TIP3   OH2 7729   1.991   4.998   5.510
 2595TIP3    H1 7730   2.040   5.076   5.483
 2595TIP3    H2 7731   1.981   4.947   5.430
 2596TIP3   OH2 7732   3.054   0.200   0.441
 2596TIP3    H1 7733   3.110   0.125   0.421
 2596TIP3    H2 7734   3.109   0.258   0.493
 2597TIP3   OH2 7735   7.751   7.233   3.161
 2597TIP3    H1 7736   7.701   7.199   3.236
 2597TIP3    H2 7737   7.724   7.324   3.154
 2598TIP3   OH2 7738   7.892   3.732   3.265
 2598TIP3    H1 7739   7.961   3.745   3.199
 2598TIP3    H2 7740   7.812   3.725   3.214
 2599TIP3   OH2 7741   5.144   6.289   5.177
 2599TIP3    H1 7742   5.151   6.223   5.246
 2599TIP3    H2 7743   5.202   6.360   5.207
 2600TIP3   OH2 7744   6.893   7.631   6.440
 2600TIP3    H1 7745   6.832   7.580   6.493
 2600TIP3    H2 7746   6.973   7.577   6.437
 2601TIP3   OH2 7747   3.741   0.327   6.409
 2601TIP3    H1 7748   3.803   0.265   6.370
 2601TIP3    H2 7749   3.764   0.329   6.501
 2602TIP3   OH2 7750   6.791   2.315   4.364
 2602TIP3    H1 7751   6.874   2.294   4.321
 2602TIP3    H2 7752   6.788   2.410   4.364
 2603TIP3   OH2 7753   3.496   6.378   3.168
 2603TIP3    H1 7754   3.424   6.321   3.143
 2603TIP3    H2 7755   3.524   6.420   3.087
 2604TIP3   OH2 7756   6.847   2.631   2.474
 2604TIP3    H1 7757   6.817   2.567   2.538
 2604TIP3    H2 7758   6.767   2.671   2.440
 2605TIP3   OH2 7759   6.284   7.246   4.640
 2605TIP3    H1 7760   6.339   7.324   4.640
 2605TIP3    H2 7761   6.332   7.183   4.693
 2606TIP3   OH2 7762   2.207   6.794   2.241
 2606TIP3    H1 7763   2.142   6.844   2.291
 2606TIP3    H2 7764   2.196   6.704   2.271
 2607TIP3   OH2 7765   1.173   2.302   2.819
 2607TIP3    H1 7766   1.120   2.342   2.749
 2607TIP3    H2 7767   1.119   2.311   2.898
 2608TIP3   OH2 7768   4.630   1.514   5.574
 2608TIP3    H1 7769   4.553   1.509   5.631
 2608TIP3    H2 7770   4.662   1.424   5.570
 2609TIP3   OH2 7771   5.749   6.279   2.009
 2609TIP3    H1 7772   5.766   6.297   2.102
 2609TIP3    H2 7773   5.716   6.362   1.974
 2610TIP3   OH2 7774   5.402   5.382   0.502
 2610TIP3    H1 7775   5.390   5.473   0.477
 2610TIP3    H2 7776   5.335   5.335   0.452
 2611TIP3   OH2 7777   2.854   6.506   0.219
 2611TIP3    H1 7778   2.948   6.515   0.232
 2611TIP3    H2 7779   2.830   6.580   0.163
 2612TIP3   OH2 7780   2.790   0.667   1.956
 2612TIP3    H1 7781   2.762   0.624   1.875
 2612TIP3    H2 7782   2.818   0.754   1.928
 2613TIP3   OH2 7783   3.192   6.704   2.265
 2613TIP3    H1 7784   3.139   6.632   2.300
 2613TIP3    H2 7785   3.135   6.747   2.201
 2614TIP3   OH2 7786   5.700   1.563   5.874
 2614TIP3    H1 7787   5.672   1.475   5.849
 2614TIP3    H2 7788   5.671   1.619   5.802
 2615TIP3   OH2 7789   1.624   7.073   4.401
 2615TIP3    H1 7790   1.703   7.079   4.348
 2615TIP3    H2 7791   1.562   7.133   4.359
 2616TIP3   OH2 7792   2.265   4.529   5.455
 2616TIP3    H1 7793   2.338   4.473   5.481
 2616TIP3    H2 7794   2.270   4.604   5.516
 2617TIP3   OH2 7795   2.826   5.048   1.686
 2617TIP3    H1 7796   2.874   4.972   1.652
 2617TIP3    H2 7797   2.798   5.095   1.607
 2618TIP3   OH2 7798   2.428   4.633   6.650
 2618TIP3    H1 7799   2.344   4.643   6.605
 2618TIP3    H2 7800   2.493   4.669   6.589
 2619TIP3   OH2 7801   7.992   6.226   0.425
 2619TIP3    H1 7802   7.971   6.244   0.517
 2619TIP3    H2 7803   8.086   6.209   0.424
 2620TIP3   OH2 7804   5.230   2.668   6.628
 2620TIP3    H1 7805   5.207   2.673   6.535
 2620TIP3    H2 7806   5.289   2.593   6.634
 2621TIP3   OH2 7807   7.289   7.082   4.602
 2621TIP3    H1 7808   7.236   7.003   4.617
 2621TIP3    H2 7809   7.350   7.056   4.533
 2622TIP3   OH2 7810   5.848   2.460   6.213
 2622TIP3    H1 7811   5.932   2.419   6.193
 2622TIP3    H2 7812   5.783   2.397   6.181
 2623TIP3   OH2 7813   2.565   6.812   0.616
 2623TIP3    H1 7814   2.550   6.760   0.538
 2623TIP3    H2 7815   2.661   6.822   0.620
 2624TIP3   OH2 7816   5.673   1.420   0.382
 2624TIP3    H1 7817   5.664   1.499   0.435
 2624TIP3    H2 7818   5.584   1.386   0.373
 2625TIP3   OH2 7819   2.080   5.509   3.110
 2625TIP3    H1 7820   2.010   5.503   3.044
 2625TIP3    H2 7821   2.054   5.583   3.164
 2626TIP3   OH2 7822   0.009   3.127   3.138
 2626TIP3    H1 7823  -0.025   3.134   3.049
 2626TIP3    H2 7824   0.104   3.135   3.128
 2627TIP3   OH2 7825   4.610   7.156   1.526
 2627TIP3    H1 7826   4.619   7.144   1.620
 2627TIP3    H2 7827   4.650   7.241   1.508
 2628TIP3   OH2 7828   6.386   3.762   3.279
 2628TIP3    H1 7829   6.399   3.781   3.372
 2628TIP3    H2 7830   6.324   3.689   3.278
 2629TIP3   OH2 7831   2.155   2.662   5.622
 2629TIP3    H1 7832   2.240   2.624   5.600
 2629TIP3    H2 7833   2.174   2.754   5.642
 2630TIP3   OH2 7834   3.951   3.476   4.241
 2630TIP3    H1 7835   3.891   3.461   4.168
 2630TIP3    H2 7836   3.896   3.513   4.310
 2631TIP3   OH2 7837   0.683   4.195   0.926
 2631TIP3    H1 7838   0.655   4.279   0.889
 2631TIP3    H2 7839   0.686   4.136   0.852
 2632TIP3   OH2 7840   5.971   3.969   5.210
 2632TIP3    H1 7841   6.009   4.057   5.204
 2632TIP3    H2 7842   6.040   3.916   5.250
 2633TIP3   OH2 7843   1.303   0.512   5.212
 2633TIP3    H1 7844   1.272   0.427   5.181
 2633TIP3    H2 7845   1.257   0.525   5.295
 2634TIP3   OH2 7846   6.421   4.470   5.433
 2634TIP3    H1 7847   6.447   4.550   5.479
 2634TIP3    H2 7848   6.416   4.403   5.501
 2635TIP3   OH2 7849   2.600   6.269   3.370
 2635TIP3    H1 7850   2.598   6.253   3.276
 2635TIP3    H2 7851   2.617   6.183   3.409
 2636TIP3   OH2 7852   6.448   5.158   5.186
 2636TIP3    H1 7853   6.534   5.200   5.186
 2636TIP3    H2 7854   6.408   5.186   5.268
 2637TIP3   OH2 7855   2.205   0.670   1.998
 2637TIP3    H1 7856   2.185   0.712   2.082
 2637TIP3    H2 7857   2.138   0.602   1.989
 2638TIP3   OH2 7858   1.720   7.478   5.265
 2638TIP3    H1 7859   1.765   7.405   5.223
 2638TIP3    H2 7860   1.670   7.438   5.336
 2639TIP3   OH2 7861   3.648   2.383   5.501
 2639TIP3    H1 7862   3.579   2.435   5.542
 2639TIP3    H2 7863   3.722   2.443   5.495
 2640TIP3   OH2 7864   7.388   1.227   1.173
 2640TIP3    H1 7865   7.383   1.210   1.267
 2640TIP3    H2 7866   7.362   1.319   1.164
 2641TIP3   OH2 7867   6.358   2.467   5.819
 2641TIP3    H1 7868   6.283   2.409   5.808
 2641TIP3    H2 7869   6.333   2.526   5.891
 2642TIP3   OH2 7870   7.106   4.829   1.843
 2642TIP3    H1 7871   7.145   4.781   1.916
 2642TIP3    H2 7872   7.012   4.829   1.861
 2643TIP3   OH2 7873   1.296   5.394   0.975
 2643TIP3    H1 7874   1.356   5.443   0.919
 2643TIP3    H2 7875   1.277   5.453   1.048
 2644TIP3   OH2 7876   1.804   5.505   4.515
 2644TIP3    H1 7877   1.714   5.510   4.546
 2644TIP3    H2 7878   1.854   5.477   4.591
 2645TIP3   OH2 7879   4.850   3.590   5.513
 2645TIP3    H1 7880   4.754   3.600   5.514
 2645TIP3    H2 7881   4.869   3.544   5.595
 2646TIP3   OH2 7882   3.273   4.400   1.720
 2646TIP3    H1 7883   3.342   4.446   1.770
 2646TIP3    H2 7884   3.320   4.335   1.668
 2647TIP3   OH2 7885   1.472   7.598   4.628
 2647TIP3    H1 7886   1.380   7.585   4.608
 2647TIP3    H2 7887   1.479   7.583   4.723
 2648TIP3   OH2 7888   2.242   4.939   6.192
 2648TIP3    H1 7889   2.242   4.980   6.279
 2648TIP3    H2 7890   2.150   4.922   6.173
 2649TIP3   OH2 7891   3.523  -0.034   5.506
 2649TIP3    H1 7892   3.579   0.039   5.533
 2649TIP3    H2 7893   3.440   0.007   5.483
 2650TIP3   OH2 7894   3.788   5.258   3.571
 2650TIP3    H1 7895   3.710   5.237   3.622
 2650TIP3    H2 7896   3.812   5.176   3.528
 2651TIP3   OH2 7897   1.652   2.254   2.021
 2651TIP3    H1 7898   1.660   2.189   2.092
 2651TIP3    H2 7899   1.584   2.314   2.050
 2652TIP3   OH2 7900   4.295   0.371   5.964
 2652TIP3    H1 7901   4.367   0.309   5.963
 2652TIP3    H2 7902   4.289   0.404   5.875
 2653TIP3   OH2 7903   3.333   3.619   6.059
 2653TIP3    H1 7904   3.420   3.659   6.057
 2653TIP3    H2 7905   3.277   3.682   6.013
 2654TIP3   OH2 7906   4.410   2.907   6.066
 2654TIP3    H1 7907   4.338   2.879   6.124
 2654TIP3    H2 7908   4.466   2.830   6.059
 2655TIP3   OH2 7909   7.544   1.676   5.645
 2655TIP3    H1 7910   7.533   1.636   5.731
 2655TIP3    H2 7911   7.635   1.708   5.645
 2656TIP3   OH2 7912   8.038   7.701   4.649
 2656TIP3    H1 7913   8.125   7.660   4.652
 2656TIP3    H2 7914   7.978   7.632   4.676
 2657TIP3   OH2 7915   2.521   6.967   1.066
 2657TIP3    H1 7916   2.500   7.036   1.129
 2657TIP3    H2 7917   2.472   6.890   1.098
 2658TIP3   OH2 7918   0.807   6.194   5.450
 2658TIP3    H1 7919   0.863   6.118   5.442
 2658TIP3    H2 7920   0.866   6.269   5.444
 2659TIP3   OH2 7921   5.919   6.118   2.934
 2659TIP3    H1 7922   5.853   6.184   2.956
 2659TIP3    H2 7923   5.907   6.102   2.841
 2660TIP3   OH2 7924   1.623   7.144   2.163
 2660TIP3    H1 7925   1.689   7.176   2.102
 2660TIP3    H2 7926   1.607   7.054   2.135
 2661TIP3   OH2 7927   2.986   4.567   5.619
 2661TIP3    H1 7928   3.035   4.643   5.648
 2661TIP3    H2 7929   3.052   4.500   5.604
 2662TIP3   OH2 7930   3.530   3.664   6.530
 2662TIP3    H1 7931   3.520   3.751   6.569
 2662TIP3    H2 7932   3.518   3.604   6.603
 2663TIP3   OH2 7933   1.223   3.779   2.384
 2663TIP3    H1 7934   1.131   3.770   2.407
 2663TIP3    H2 7935   1.242   3.872   2.396
 2664TIP3   OH2 7936   7.094  -0.015   5.883
 2664TIP3    H1 7937   7.112  -0.022   5.789
 2664TIP3    H2 7938   7.023   0.049   5.889
 2665TIP3   OH2 7939   3.482   2.543   6.192
 2665TIP3    H1 7940   3.555   2.597   6.163
 2665TIP3    H2 7941   3.446   2.589   6.268
 2666TIP3   OH2 7942   5.988   2.050   1.544
 2666TIP3    H1 7943   5.988   2.119   1.478
 2666TIP3    H2 7944   5.902   2.009   1.536
 2667TIP3   OH2 7945   5.209   1.114   6.518
 2667TIP3    H1 7946   5.294   1.074   6.502
 2667TIP3    H2 7947   5.145   1.045   6.501
 2668TIP3   OH2 7948   3.817   1.054   5.228
 2668TIP3    H1 7949   3.775   1.113   5.165
 2668TIP3    H2 7950   3.836   1.109   5.304
 2669TIP3   OH2 7951   4.212   3.069   4.323
 2669TIP3    H1 7952   4.296   3.069   4.370
 2669TIP3    H2 7953   4.200   3.161   4.297
 2670TIP3   OH2 7954   0.479   1.273   1.667
 2670TIP3    H1 7955   0.544   1.341   1.653
 2670TIP3    H2 7956   0.395   1.319   1.666
 2671TIP3   OH2 7957   4.110   1.150   1.097
 2671TIP3    H1 7958   4.075   1.129   1.184
 2671TIP3    H2 7959   4.201   1.119   1.100
 2672TIP3   OH2 7960   7.899   1.682   3.339
 2672TIP3    H1 7961   7.910   1.728   3.256
 2672TIP3    H2 7962   7.813   1.640   3.332
 2673TIP3   OH2 7963   0.410   2.446   5.949
 2673TIP3    H1 7964   0.475   2.451   5.879
 2673TIP3    H2 7965   0.446   2.501   6.019
 2674TIP3   OH2 7966   0.076   6.465   3.868
 2674TIP3    H1 7967   0.101   6.373   3.880
 2674TIP3    H2 7968  -0.008   6.473   3.914
 2675TIP3   OH2 7969   5.045   3.786   3.983
 2675TIP3    H1 7970   4.982   3.853   4.010
 2675TIP3    H2 7971   4.991   3.710   3.961
 2676TIP3   OH2 7972   4.665   7.630   1.582
 2676TIP3    H1 7973   4.682   7.696   1.515
 2676TIP3    H2 7974   4.683   7.546   1.539
 2677TIP3   OH2 7975   5.640   6.917   2.303
 2677TIP3    H1 7976   5.608   6.895   2.390
 2677TIP3    H2 7977   5.603   6.850   2.246
 2678TIP3   OH2 7978   4.868   3.410   1.574
 2678TIP3    H1 7979   4.898   3.488   1.527
 2678TIP3    H2 7980   4.874   3.433   1.666
 2679TIP3   OH2 7981   7.897   7.404   0.512
 2679TIP3    H1 7982   7.807   7.371   0.521
 2679TIP3    H2 7983   7.945   7.363   0.584
 2680TIP3   OH2 7984   5.431   2.311   5.741
 2680TIP3    H1 7985   5.400   2.263   5.818
 2680TIP3    H2 7986   5.498   2.371   5.776
 2681TIP3   OH2 7987   5.494   5.074   1.157
 2681TIP3    H1 7988   5.462   5.143   1.216
 2681TIP3    H2 7989   5.522   5.121   1.079
 2682TIP3   OH2 7990   3.571   6.463   0.965
 2682TIP3    H1 7991   3.561   6.418   0.881
 2682TIP3    H2 7992   3.503   6.426   1.020
 2683TIP3   OH2 7993   5.961   4.292   6.195
 2683TIP3    H1 7994   6.025   4.317   6.262
 2683TIP3    H2 7995   5.884   4.265   6.245
 2684TIP3   OH2 7996   6.598   5.189   5.994
 2684TIP3    H1 7997   6.566   5.131   6.064
 2684TIP3    H2 7998   6.604   5.275   6.035
 2685TIP3   OH2 7999   6.734   6.242   3.970
 2685TIP3    H1 8000   6.674   6.169   3.958
 2685TIP3    H2 8001   6.820   6.201   3.978
 2686TIP3   OH2 8002   2.011   6.274   1.832
 2686TIP3    H1 8003   2.048   6.188   1.851
 2686TIP3    H2 8004   2.039   6.329   1.905
 2687TIP3   OH2 8005   1.185   4.283   2.843
 2687TIP3    H1 8006   1.276   4.273   2.818
 2687TIP3    H2 8007   1.156   4.363   2.800
 2688TIP3   OH2 8008   1.535   6.200   3.690
 2688TIP3    H1 8009   1.610   6.158   3.649
 2688TIP3    H2 8010   1.464   6.189   3.627
 2689TIP3   OH2 8011   2.008   5.836   6.084
 2689TIP3    H1 8012   2.062   5.795   6.151
 2689TIP3    H2 8013   1.925   5.788   6.087
 2690TIP3   OH2 8014   6.377   0.318   0.369
 2690TIP3    H1 8015   6.442   0.264   0.324
 2690TIP3    H2 8016   6.337   0.371   0.300
 2691TIP3   OH2 8017   5.120   2.483   1.932
 2691TIP3    H1 8018   5.116   2.410   1.994
 2691TIP3    H2 8019   5.105   2.442   1.846
 2692TIP3   OH2 8020   2.864   5.590   5.163
 2692TIP3    H1 8021   2.785   5.616   5.210
 2692TIP3    H2 8022   2.932   5.588   5.230
 2693TIP3   OH2 8023   1.126   7.359   4.201
 2693TIP3    H1 8024   1.206   7.410   4.189
 2693TIP3    H2 8025   1.149   7.272   4.168
 2694TIP3   OH2 8026   2.874   2.175   2.299
 2694TIP3    H1 8027   2.837   2.259   2.326
 2694TIP3    H2 8028   2.802   2.113   2.306
 2695TIP3   OH2 8029   6.488   0.386   6.632
 2695TIP3    H1 8030   6.398   0.355   6.646
 2695TIP3    H2 8031   6.491   0.408   6.539
 2696TIP3   OH2 8032   6.055   2.994   5.336
 2696TIP3    H1 8033   6.066   2.982   5.430
 2696TIP3    H2 8034   6.067   2.907   5.299
 2697TIP3   OH2 8035   3.725   7.292   2.391
 2697TIP3    H1 8036   3.770   7.211   2.414
 2697TIP3    H2 8037   3.646   7.291   2.444
 2698TIP3   OH2 8038   1.273   7.345   6.126
 2698TIP3    H1 8039   1.317   7.422   6.160
 2698TIP3    H2 8040   1.236   7.302   6.203
 2699TIP3   OH2 8041   1.239   4.925   6.273
 2699TIP3    H1 8042   1.229   4.840   6.230
 2699TIP3    H2 8043   1.332   4.933   6.291
 2700TIP3   OH2 8044   1.450   2.817   0.089
 2700TIP3    H1 8045   1.468   2.742   0.145
 2700TIP3    H2 8046   1.531   2.831   0.040
 2701TIP3   OH2 8047   4.939   6.993   0.270
 2701TIP3    H1 8048   4.934   6.908   0.226
 2701TIP3    H2 8049   4.949   6.972   0.363
 2702TIP3   OH2 8050   4.431   6.602   1.109
 2702TIP3    H1 8051   4.523   6.583   1.131
 2702TIP3    H2 8052   4.386   6.600   1.193
 2703TIP3   OH2 8053   2.142   3.061   2.173
 2703TIP3    H1 8054   2.226   3.071   2.217
 2703TIP3    H2 8055   2.140   2.969   2.145
 2704TIP3   OH2 8056   0.291   7.660   3.827
 2704TIP3    H1 8057   0.325   7.672   3.915
 2704TIP3    H2 8058   0.214   7.603   3.839
 2705TIP3   OH2 8059   4.251   0.704   0.519
 2705TIP3    H1 8060   4.212   0.689   0.605
 2705TIP3    H2 8061   4.235   0.797   0.501
 2706TIP3   OH2 8062   6.594   3.564   3.581
 2706TIP3    H1 8063   6.571   3.640   3.528
 2706TIP3    H2 8064   6.549   3.578   3.664
 2707TIP3   OH2 8065   5.862   3.054   6.602
 2707TIP3    H1 8066   5.846   3.145   6.624
 2707TIP3    H2 8067   5.941   3.031   6.650
 2708TIP3   OH2 8068   5.014   1.448   2.996
 2708TIP3    H1 8069   5.027   1.407   2.911
 2708TIP3    H2 8070   5.057   1.388   3.058
 2709TIP3   OH2 8071   0.360   2.657   4.683
 2709TIP3    H1 8072   0.318   2.737   4.652
 2709TIP3    H2 8073   0.437   2.687   4.730
 2710TIP3   OH2 8074   6.049   2.843   3.513
 2710TIP3    H1 8075   6.131   2.845   3.562
 2710TIP3    H2 8076   6.045   2.928   3.468
 2711TIP3   OH2 8077   1.135   7.701   3.939
 2711TIP3    H1 8078   1.073   7.670   4.005
 2711TIP3    H2 8079   1.090   7.688   3.856
 2712TIP3   OH2 8080   4.698   2.992   5.359
 2712TIP3    H1 8081   4.706   3.087   5.367
 2712TIP3    H2 8082   4.604   2.975   5.362
 2713TIP3   OH2 8083   5.726   3.628   3.222
 2713TIP3    H1 8084   5.819   3.629   3.198
 2713TIP3    H2 8085   5.725   3.653   3.315
 2714TIP3   OH2 8086   2.466   3.833   2.718
 2714TIP3    H1 8087   2.387   3.852   2.667
 2714TIP3    H2 8088   2.447   3.749   2.761
 2715TIP3   OH2 8089   0.816   1.247   0.397
 2715TIP3    H1 8090   0.809   1.252   0.302
 2715TIP3    H2 8091   0.797   1.156   0.417
 2716TIP3   OH2 8092   2.958   1.160   1.765
 2716TIP3    H1 8093   3.015   1.233   1.790
 2716TIP3    H2 8094   2.910   1.193   1.689
 2717TIP3   OH2 8095   7.156   2.775   6.428
 2717TIP3    H1 8096   7.198   2.707   6.376
 2717TIP3    H2 8097   7.228   2.819   6.474
 2718TIP3   OH2 8098   1.157   0.243   1.611
 2718TIP3    H1 8099   1.252   0.248   1.602
 2718TIP3    H2 8100   1.133   0.326   1.652
 2719TIP3   OH2 8101   1.704   3.492   2.268
 2719TIP3    H1 8102   1.707   3.588   2.267
 2719TIP3    H2 8103   1.766   3.466   2.199
 2720TIP3   OH2 8104   1.191   6.291   4.611
 2720TIP3    H1 8105   1.210   6.205   4.574
 2720TIP3    H2 8106   1.247   6.351   4.562
 2721TIP3   OH2 8107   0.016   4.933   4.402
 2721TIP3    H1 8108   0.066   5.013   4.384
 2721TIP3    H2 8109   0.079   4.875   4.443
 2722TIP3   OH2 8110   7.728   3.199   1.165
 2722TIP3    H1 8111   7.741   3.278   1.111
 2722TIP3    H2 8112   7.633   3.188   1.167
 2723TIP3   OH2 8113   4.454   0.423   6.257
 2723TIP3    H1 8114   4.498   0.370   6.191
 2723TIP3    H2 8115   4.389   0.364   6.296
 2724TIP3   OH2 8116   5.441   4.418   0.861
 2724TIP3    H1 8117   5.388   4.447   0.786
 2724TIP3    H2 8118   5.530   4.411   0.826
 2725TIP3   OH2 8119   5.195   0.832   5.042
 2725TIP3    H1 8120   5.112   0.818   4.996
 2725TIP3    H2 8121   5.169   0.870   5.126
 2726TIP3   OH2 8122   3.743   5.488   3.431
 2726TIP3    H1 8123   3.662   5.473   3.381
 2726TIP3    H2 8124   3.762   5.403   3.471
 2727TIP3   OH2 8125   2.679   5.491   6.326
 2727TIP3    H1 8126   2.768   5.470   6.353
 2727TIP3    H2 8127   2.652   5.418   6.271
 2728TIP3   OH2 8128   3.217   6.404   6.665
 2728TIP3    H1 8129   3.273   6.327   6.652
 2728TIP3    H2 8130   3.258   6.451   6.738
 2729TIP3   OH2 8131   5.165   2.824   5.425
 2729TIP3    H1 8132   5.086   2.846   5.375
 2729TIP3    H2 8133   5.139   2.833   5.516
 2730TIP3   OH2 8134   7.513   1.286   0.765
 2730TIP3    H1 8135   7.528   1.381   0.768
 2730TIP3    H2 8136   7.419   1.276   0.781
 2731TIP3   OH2 8137   1.654   2.994   0.619
 2731TIP3    H1 8138   1.590   2.924   0.633
 2731TIP3    H2 8139   1.739   2.952   0.628
 2732TIP3   OH2 8140   4.056   1.891   6.243
 2732TIP3    H1 8141   3.971   1.907   6.283
 2732TIP3    H2 8142   4.083   1.976   6.208
 2733TIP3   OH2 8143   2.011   7.468   3.243
 2733TIP3    H1 8144   1.957   7.410   3.297
 2733TIP3    H2 8145   1.957   7.547   3.231
 2734TIP3   OH2 8146   7.334   1.773   1.333
 2734TIP3    H1 8147   7.414   1.770   1.386
 2734TIP3    H2 8148   7.339   1.855   1.285
 2735TIP3   OH2 8149   4.232   1.448   1.283
 2735TIP3    H1 8150   4.280   1.448   1.366
 2735TIP3    H2 8151   4.232   1.357   1.255
 2736TIP3   OH2 8152   3.403   6.154   5.452
 2736TIP3    H1 8153   3.409   6.059   5.445
 2736TIP3    H2 8154   3.309   6.171   5.463
 2737TIP3   OH2 8155   3.958   4.441   6.147
 2737TIP3    H1 8156   4.034   4.491   6.118
 2737TIP3    H2 8157   3.883   4.495   6.124
 2738TIP3   OH2 8158   3.770   1.629   2.881
 2738TIP3    H1 8159   3.850   1.599   2.838
 2738TIP3    H2 8160   3.699   1.605   2.821
 2739TIP3   OH2 8161   3.077   6.445   3.440
 2739TIP3    H1 8162   3.018   6.485   3.504
 2739TIP3    H2 8163   3.030   6.367   3.410
 2740TIP3   OH2 8164   2.480   0.726   3.813
 2740TIP3    H1 8165   2.526   0.661   3.866
 2740TIP3    H2 8166   2.518   0.716   3.726
 2741TIP3   OH2 8167   8.168   6.828   6.582
 2741TIP3    H1 8168   8.245   6.828   6.525
 2741TIP3    H2 8169   8.117   6.904   6.553
 2742TIP3   OH2 8170   5.075   4.249   1.141
 2742TIP3    H1 8171   5.051   4.219   1.053
 2742TIP3    H2 8172   5.170   4.262   1.136
 2743TIP3   OH2 8173   1.037   3.864   5.106
 2743TIP3    H1 8174   0.967   3.872   5.042
 2743TIP3    H2 8175   1.007   3.915   5.181
 2744TIP3   OH2 8176   2.858   1.976   3.393
 2744TIP3    H1 8177   2.935   2.021   3.426
 2744TIP3    H2 8178   2.891   1.913   3.330
 2745TIP3   OH2 8179   3.044   0.383   2.495
 2745TIP3    H1 8180   2.985   0.358   2.424
 2745TIP3    H2 8181   3.010   0.467   2.527
 2746TIP3   OH2 8182   5.774   7.254   4.559
 2746TIP3    H1 8183   5.852   7.201   4.573
 2746TIP3    H2 8184   5.806   7.344   4.550
 2747TIP3   OH2 8185   2.061   6.114   6.409
 2747TIP3    H1 8186   2.156   6.101   6.410
 2747TIP3    H2 8187   2.039   6.119   6.316
 2748TIP3   OH2 8188   0.829   2.141   1.541
 2748TIP3    H1 8189   0.827   2.162   1.447
 2748TIP3    H2 8190   0.844   2.225   1.584
 2749TIP3   OH2 8191   1.146   3.193   1.109
 2749TIP3    H1 8192   1.171   3.183   1.017
 2749TIP3    H2 8193   1.067   3.140   1.119
 2750TIP3   OH2 8194   3.193   6.958   0.500
 2750TIP3    H1 8195   3.189   6.946   0.595
 2750TIP3    H2 8196   3.204   7.052   0.488
 2751TIP3   OH2 8197   0.574   0.263   1.569
 2751TIP3    H1 8198   0.611   0.179   1.598
 2751TIP3    H2 8199   0.566   0.254   1.474
 2752TIP3   OH2 8200   7.752   0.887   0.588
 2752TIP3    H1 8201   7.746   0.981   0.569
 2752TIP3    H2 8202   7.679   0.870   0.647
 2753TIP3   OH2 8203   0.775   1.617   2.040
 2753TIP3    H1 8204   0.790   1.577   1.954
 2753TIP3    H2 8205   0.845   1.582   2.095
 2754TIP3   OH2 8206   7.187   1.723   6.742
 2754TIP3    H1 8207   7.235   1.801   6.714
 2754TIP3    H2 8208   7.184   1.668   6.664
 2755TIP3   OH2 8209   6.290   6.388   5.326
 2755TIP3    H1 8210   6.202   6.392   5.288
 2755TIP3    H2 8211   6.275   6.392   5.421
 2756TIP3   OH2 8212   1.649   4.478   5.201
 2756TIP3    H1 8213   1.610   4.437   5.124
 2756TIP3    H2 8214   1.709   4.412   5.235
 2757TIP3   OH2 8215   1.601   7.682   1.098
 2757TIP3    H1 8216   1.651   7.693   1.179
 2757TIP3    H2 8217   1.666   7.652   1.034
 2758TIP3   OH2 8218   7.787   4.523   1.088
 2758TIP3    H1 8219   7.822   4.537   1.000
 2758TIP3    H2 8220   7.835   4.584   1.143
 2759TIP3   OH2 8221   2.683   5.280   5.184
 2759TIP3    H1 8222   2.597   5.323   5.189
 2759TIP3    H2 8223   2.704   5.278   5.091
 2760TIP3   OH2 8224   6.395   4.492   1.782
 2760TIP3    H1 8225   6.445   4.573   1.790
 2760TIP3    H2 8226   6.431   4.434   1.849
 2761TIP3   OH2 8227   3.269   7.369   3.062
 2761TIP3    H1 8228   3.275   7.342   2.970
 2761TIP3    H2 8229   3.176   7.357   3.084
 2762TIP3   OH2 8230   3.040   4.093   6.147
 2762TIP3    H1 8231   3.011   4.009   6.113
 2762TIP3    H2 8232   3.132   4.078   6.172
 2763TIP3   OH2 8233   4.364   2.645   1.006
 2763TIP3    H1 8234   4.454   2.668   0.984
 2763TIP3    H2 8235   4.339   2.580   0.941
 2764TIP3   OH2 8236   1.824   5.567   1.500
 2764TIP3    H1 8237   1.754   5.631   1.505
 2764TIP3    H2 8238   1.783   5.484   1.524
 2765TIP3   OH2 8239   5.975   3.679   6.283
 2765TIP3    H1 8240   5.950   3.772   6.292
 2765TIP3    H2 8241   6.069   3.681   6.269
 2766TIP3   OH2 8242   4.666   1.063   1.435
 2766TIP3    H1 8243   4.692   0.975   1.406
 2766TIP3    H2 8244   4.619   1.048   1.516
 2767TIP3   OH2 8245   5.448   1.997   3.574
 2767TIP3    H1 8246   5.387   2.069   3.559
 2767TIP3    H2 8247   5.531   2.027   3.537
 2768TIP3   OH2 8248   1.168   1.302   4.362
 2768TIP3    H1 8249   1.242   1.252   4.326
 2768TIP3    H2 8250   1.093   1.274   4.310
 2769TIP3   OH2 8251   0.911   6.766   3.692
 2769TIP3    H1 8252   0.874   6.682   3.665
 2769TIP3    H2 8253   0.837   6.827   3.689
 2770TIP3   OH2 8254   4.534   5.460   1.622
 2770TIP3    H1 8255   4.545   5.503   1.538
 2770TIP3    H2 8256   4.616   5.413   1.637
 2771TIP3   OH2 8257   7.616   4.526   0.447
 2771TIP3    H1 8258   7.537   4.516   0.500
 2771TIP3    H2 8259   7.631   4.621   0.443
 2772TIP3   OH2 8260   2.110   7.459   4.340
 2772TIP3    H1 8261   2.082   7.368   4.342
 2772TIP3    H2 8262   2.144   7.471   4.251
 2773TIP3   OH2 8263   3.650   0.407   0.839
 2773TIP3    H1 8264   3.633   0.418   0.745
 2773TIP3    H2 8265   3.702   0.484   0.863
 2774TIP3   OH2 8266   1.691   6.728   3.245
 2774TIP3    H1 8267   1.633   6.803   3.256
 2774TIP3    H2 8268   1.644   6.668   3.186
 2775TIP3   OH2 8269   5.929   5.852   2.795
 2775TIP3    H1 8270   5.932   5.937   2.838
 2775TIP3    H2 8271   5.895   5.792   2.861
 2776TIP3   OH2 8272   0.415   2.284   1.013
 2776TIP3    H1 8273   0.472   2.237   1.074
 2776TIP3    H2 8274   0.467   2.293   0.933
 2777TIP3   OH2 8275   3.968   5.244   5.372
 2777TIP3    H1 8276   3.982   5.195   5.291
 2777TIP3    H2 8277   4.054   5.280   5.394
 2778TIP3   OH2 8278   1.191   7.211   4.494
 2778TIP3    H1 8279   1.108   7.258   4.488
 2778TIP3    H2 8280   1.239   7.235   4.415
 2779TIP3   OH2 8281   0.118   5.465   2.121
 2779TIP3    H1 8282   0.131   5.374   2.148
 2779TIP3    H2 8283   0.144   5.516   2.197
 2780TIP3   OH2 8284   1.317   1.401   1.496
 2780TIP3    H1 8285   1.291   1.441   1.579
 2780TIP3    H2 8286   1.346   1.475   1.442
 2781TIP3   OH2 8287   4.174   1.252   5.086
 2781TIP3    H1 8288   4.239   1.195   5.043
 2781TIP3    H2 8289   4.158   1.210   5.171
 2782TIP3   OH2 8290   3.292   1.612   5.383
 2782TIP3    H1 8291   3.223   1.551   5.409
 2782TIP3    H2 8292   3.247   1.696   5.373
 2783TIP3   OH2 8293   2.671   6.488   1.623
 2783TIP3    H1 8294   2.671   6.496   1.718
 2783TIP3    H2 8295   2.730   6.415   1.605
 2784TIP3   OH2 8296   4.666   1.078   0.319
 2784TIP3    H1 8297   4.572   1.068   0.334
 2784TIP3    H2 8298   4.704   0.996   0.352
 2785TIP3   OH2 8299   1.662   7.179   1.068
 2785TIP3    H1 8300   1.677   7.086   1.084
 2785TIP3    H2 8301   1.568   7.187   1.055
 2786TIP3   OH2 8302   0.699   3.731   1.530
 2786TIP3    H1 8303   0.740   3.750   1.615
 2786TIP3    H2 8304   0.637   3.803   1.517
 2787TIP3   OH2 8305   7.080   3.791   2.878
 2787TIP3    H1 8306   7.102   3.700   2.898
 2787TIP3    H2 8307   7.117   3.805   2.790
 2788TIP3   OH2 8308   7.579   3.928   4.764
 2788TIP3    H1 8309   7.593   3.999   4.826
 2788TIP3    H2 8310   7.554   3.972   4.682
 2789TIP3   OH2 8311   6.002   7.211   0.008
 2789TIP3    H1 8312   6.082   7.231   0.057
 2789TIP3    H2 8313   6.000   7.278  -0.061
 2790TIP3   OH2 8314   7.193   7.217   1.946
 2790TIP3    H1 8315   7.197   7.181   1.857
 2790TIP3    H2 8316   7.162   7.144   1.999
 2791TIP3   OH2 8317   3.152   2.065   4.462
 2791TIP3    H1 8318   3.116   2.061   4.551
 2791TIP3    H2 8319   3.079   2.041   4.405
 2792TIP3   OH2 8320   1.460   1.606   2.435
 2792TIP3    H1 8321   1.494   1.624   2.522
 2792TIP3    H2 8322   1.534   1.621   2.376
 2793TIP3   OH2 8323   3.980   2.135   4.324
 2793TIP3    H1 8324   3.896   2.099   4.296
 2793TIP3    H2 8325   3.968   2.230   4.323
 2794TIP3   OH2 8326   7.452   0.765   3.867
 2794TIP3    H1 8327   7.500   0.843   3.838
 2794TIP3    H2 8328   7.446   0.711   3.789
 2795TIP3   OH2 8329   4.270   5.638   2.638
 2795TIP3    H1 8330   4.356   5.596   2.634
 2795TIP3    H2 8331   4.285   5.728   2.609
 2796TIP3   OH2 8332   0.334   3.813   6.231
 2796TIP3    H1 8333   0.287   3.873   6.290
 2796TIP3    H2 8334   0.420   3.803   6.271
 2797TIP3   OH2 8335   2.251   5.535   6.084
 2797TIP3    H1 8336   2.217   5.489   6.160
 2797TIP3    H2 8337   2.283   5.619   6.118
 2798TIP3   OH2 8338   4.896   0.801   1.677
 2798TIP3    H1 8339   4.808   0.791   1.639
 2798TIP3    H2 8340   4.945   0.726   1.644
 2799TIP3   OH2 8341   6.751   1.762   0.294
 2799TIP3    H1 8342   6.831   1.809   0.269
 2799TIP3    H2 8343   6.748   1.688   0.233
 2800TIP3   OH2 8344   0.737   7.672   3.027
 2800TIP3    H1 8345   0.676   7.737   2.992
 2800TIP3    H2 8346   0.763   7.620   2.951
 2801TIP3   OH2 8347   4.595   2.982   0.379
 2801TIP3    H1 8348   4.526   3.010   0.439
 2801TIP3    H2 8349   4.668   3.040   0.398
 2802TIP3   OH2 8350   2.850   3.020   2.856
 2802TIP3    H1 8351   2.823   2.938   2.897
 2802TIP3    H2 8352   2.823   3.012   2.765
 2803TIP3   OH2 8353   1.114   0.597   4.060
 2803TIP3    H1 8354   1.069   0.565   3.982
 2803TIP3    H2 8355   1.133   0.688   4.041
 2804TIP3   OH2 8356   7.274   2.608   4.297
 2804TIP3    H1 8357   7.337   2.666   4.253
 2804TIP3    H2 8358   7.317   2.522   4.297
 2805TIP3   OH2 8359   5.631   1.360   6.759
 2805TIP3    H1 8360   5.610   1.354   6.666
 2805TIP3    H2 8361   5.723   1.386   6.761
 2806TIP3   OH2 8362   5.640   4.047   5.135
 2806TIP3    H1 8363   5.691   4.006   5.205
 2806TIP3    H2 8364   5.554   4.006   5.140
 2807TIP3   OH2 8365   1.594   3.798   4.791
 2807TIP3    H1 8366   1.531   3.762   4.728
 2807TIP3    H2 8367   1.675   3.806   4.741
 2808TIP3   OH2 8368   2.763   7.119   0.326
 2808TIP3    H1 8369   2.771   7.164   0.242
 2808TIP3    H2 8370   2.707   7.043   0.307
 2809TIP3   OH2 8371   8.137   5.657   4.273
 2809TIP3    H1 8372   8.084   5.638   4.196
 2809TIP3    H2 8373   8.227   5.660   4.240
 2810TIP3   OH2 8374   0.947   4.726   0.356
 2810TIP3    H1 8375   0.856   4.754   0.350
 2810TIP3    H2 8376   0.960   4.708   0.449
 2811TIP3   OH2 8377   3.158   1.553   3.454
 2811TIP3    H1 8378   3.160   1.535   3.548
 2811TIP3    H2 8379   3.220   1.625   3.443
 2812TIP3   OH2 8380   1.337   3.135   3.160
 2812TIP3    H1 8381   1.350   3.041   3.168
 2812TIP3    H2 8382   1.403   3.163   3.097
 2813TIP3   OH2 8383   2.440   6.736   2.413
 2813TIP3    H1 8384   2.477   6.727   2.325
 2813TIP3    H2 8385   2.382   6.812   2.407
 2814TIP3   OH2 8386   3.716   1.016   1.409
 2814TIP3    H1 8387   3.732   0.922   1.407
 2814TIP3    H2 8388   3.620   1.024   1.413
 2815TIP3   OH2 8389   6.452   4.121   0.504
 2815TIP3    H1 8390   6.409   4.063   0.441
 2815TIP3    H2 8391   6.512   4.174   0.451
 2816TIP3   OH2 8392   8.222   6.662   5.117
 2816TIP3    H1 8393   8.298   6.613   5.146
 2816TIP3    H2 8394   8.195   6.618   5.036
 2817TIP3   OH2 8395   2.873   6.751   4.352
 2817TIP3    H1 8396   2.959   6.781   4.382
 2817TIP3    H2 8397   2.819   6.752   4.431
 2818TIP3   OH2 8398   3.845   3.781   2.136
 2818TIP3    H1 8399   3.877   3.790   2.047
 2818TIP3    H2 8400   3.798   3.864   2.153
 2819TIP3   OH2 8401   8.310   5.861   1.109
 2819TIP3    H1 8402   8.221   5.880   1.137
 2819TIP3    H2 8403   8.352   5.946   1.101
 2820TIP3   OH2 8404   6.138   1.191   1.213
 2820TIP3    H1 8405   6.087   1.225   1.286
 2820TIP3    H2 8406   6.194   1.124   1.252
 2821TIP3   OH2 8407   1.261   2.313   0.533
 2821TIP3    H1 8408   1.199   2.245   0.558
 2821TIP3    H2 8409   1.245   2.328   0.440
 2822TIP3   OH2 8410   0.787   0.439   1.555
 2822TIP3    H1 8411   0.781   0.514   1.615
 2822TIP3    H2 8412   0.708   0.388   1.574
 2823TIP3   OH2 8413   5.859   2.579   4.761
 2823TIP3    H1 8414   5.803   2.656   4.748
 2823TIP3    H2 8415   5.812   2.524   4.823
 2824TIP3   OH2 8416   4.227   6.154   2.653
 2824TIP3    H1 8417   4.261   6.202   2.728
 2824TIP3    H2 8418   4.141   6.192   2.636
 2825TIP3   OH2 8419   5.269   2.749   0.143
 2825TIP3    H1 8420   5.192   2.691   0.141
 2825TIP3    H2 8421   5.234   2.837   0.130
 2826TIP3   OH2 8422   5.748   6.065   0.464
 2826TIP3    H1 8423   5.797   6.076   0.382
 2826TIP3    H2 8424   5.718   6.153   0.487
 2827TIP3   OH2 8425   8.294   5.972   5.607
 2827TIP3    H1 8426   8.277   6.058   5.645
 2827TIP3    H2 8427   8.315   5.990   5.516
 2828TIP3   OH2 8428   1.679   2.090   1.219
 2828TIP3    H1 8429   1.717   2.177   1.228
 2828TIP3    H2 8430   1.744   2.040   1.169
 2829TIP3   OH2 8431   2.782   3.327   5.742
 2829TIP3    H1 8432   2.757   3.368   5.825
 2829TIP3    H2 8433   2.816   3.400   5.690
 2830TIP3   OH2 8434   1.530   2.317   3.394
 2830TIP3    H1 8435   1.478   2.237   3.403
 2830TIP3    H2 8436   1.620   2.289   3.410
 2831TIP3   OH2 8437   5.815   1.021   3.551
 2831TIP3    H1 8438   5.843   1.047   3.639
 2831TIP3    H2 8439   5.728   0.985   3.564
 2832TIP3   OH2 8440   4.076   3.737   6.262
 2832TIP3    H1 8441   3.982   3.724   6.251
 2832TIP3    H2 8442   4.111   3.649   6.275
 2833TIP3   OH2 8443   4.199   2.407   2.409
 2833TIP3    H1 8444   4.220   2.484   2.357
 2833TIP3    H2 8445   4.272   2.401   2.472
 2834TIP3   OH2 8446   3.331   4.579   0.147
 2834TIP3    H1 8447   3.305   4.499   0.193
 2834TIP3    H2 8448   3.384   4.627   0.211
 2835TIP3   OH2 8449   4.345   7.606   0.986
 2835TIP3    H1 8450   4.393   7.569   1.060
 2835TIP3    H2 8451   4.375   7.697   0.982
 2836TIP3   OH2 8452   3.439   0.083   5.770
 2836TIP3    H1 8453   3.521   0.089   5.819
 2836TIP3    H2 8454   3.418  -0.010   5.771
 2837TIP3   OH2 8455   0.958   2.136   3.540
 2837TIP3    H1 8456   0.981   2.229   3.546
 2837TIP3    H2 8457   0.940   2.121   3.448
 2838TIP3   OH2 8458   5.379   4.804   1.300
 2838TIP3    H1 8459   5.437   4.881   1.304
 2838TIP3    H2 8460   5.398   4.766   1.214
 2839TIP3   OH2 8461   7.706   6.504   0.612
 2839TIP3    H1 8462   7.626   6.553   0.594
 2839TIP3    H2 8463   7.761   6.565   0.662
 2840TIP3   OH2 8464   0.542   0.138   5.391
 2840TIP3    H1 8465   0.617   0.099   5.435
 2840TIP3    H2 8466   0.545   0.231   5.415
 2841TIP3   OH2 8467   2.524   1.114   4.521
 2841TIP3    H1 8468   2.574   1.142   4.445
 2841TIP3    H2 8469   2.436   1.148   4.505
 2842TIP3   OH2 8470   0.389   5.153   6.588
 2842TIP3    H1 8471   0.437   5.140   6.506
 2842TIP3    H2 8472   0.381   5.066   6.626
 2843TIP3   OH2 8473   8.173   5.833   0.863
 2843TIP3    H1 8474   8.220   5.825   0.946
 2843TIP3    H2 8475   8.184   5.924   0.836
 2844TIP3   OH2 8476   4.946   2.427   6.386
 2844TIP3    H1 8477   5.015   2.361   6.378
 2844TIP3    H2 8478   4.885   2.390   6.450
 2845TIP3   OH2 8479   7.606   4.439   6.667
 2845TIP3    H1 8480   7.537   4.427   6.602
 2845TIP3    H2 8481   7.664   4.505   6.630
 2846TIP3   OH2 8482   3.223   6.949   3.658
 2846TIP3    H1 8483   3.153   6.984   3.602
 2846TIP3    H2 8484   3.304   6.977   3.616
 2847TIP3   OH2 8485   5.836   4.040   6.005
 2847TIP3    H1 8486   5.929   4.060   5.994
 2847TIP3    H2 8487   5.791   4.105   5.952
 2848TIP3   OH2 8488   4.572   1.440   1.233
 2848TIP3    H1 8489   4.552   1.472   1.145
 2848TIP3    H2 8490   4.647   1.382   1.221
 2849TIP3   OH2 8491   3.251   2.210   5.926
 2849TIP3    H1 8492   3.267   2.166   5.843
 2849TIP3    H2 8493   3.313   2.283   5.928
 2850TIP3   OH2 8494   1.387   3.704   0.639
 2850TIP3    H1 8495   1.303   3.743   0.614
 2850TIP3    H2 8496   1.416   3.754   0.715
 2851TIP3   OH2 8497   4.926   4.013   4.093
 2851TIP3    H1 8498   4.940   4.093   4.042
 2851TIP3    H2 8499   5.002   4.008   4.152
 2852TIP3   OH2 8500   5.967   1.052   3.768
 2852TIP3    H1 8501   5.972   1.019   3.858
 2852TIP3    H2 8502   6.053   1.031   3.731
 2853TIP3   OH2 8503   2.981   4.720   3.298
 2853TIP3    H1 8504   2.960   4.700   3.390
 2853TIP3    H2 8505   2.897   4.743   3.259
 2854TIP3   OH2 8506   6.127   2.782   4.330
 2854TIP3    H1 8507   6.164   2.778   4.242
 2854TIP3    H2 8508   6.032   2.789   4.316
 2855TIP3   OH2 8509   3.393   4.045   6.489
 2855TIP3    H1 8510   3.422   4.019   6.401
 2855TIP3    H2 8511   3.458   4.007   6.548
 2856TIP3   OH2 8512   3.440   0.998   1.453
 2856TIP3    H1 8513   3.429   0.908   1.423
 2856TIP3    H2 8514   3.382   1.005   1.529
 2857TIP3   OH2 8515   0.383   4.543   2.031
 2857TIP3    H1 8516   0.302   4.530   1.982
 2857TIP3    H2 8517   0.359   4.605   2.100
 2858TIP3   OH2 8518   2.634   0.736   6.050
 2858TIP3    H1 8519   2.674   0.722   5.964
 2858TIP3    H2 8520   2.675   0.817   6.083
 2859TIP3   OH2 8521   3.459   2.850   4.926
 2859TIP3    H1 8522   3.392   2.796   4.968
 2859TIP3    H2 8523   3.483   2.801   4.848
 2860TIP3   OH2 8524   3.935   4.175   5.068
 2860TIP3    H1 8525   4.012   4.227   5.091
 2860TIP3    H2 8526   3.928   4.109   5.137
 2861TIP3   OH2 8527   1.779   0.526   3.359
 2861TIP3    H1 8528   1.722   0.535   3.282
 2861TIP3    H2 8529   1.744   0.588   3.422
 2862TIP3   OH2 8530   5.784   0.191   6.435
 2862TIP3    H1 8531   5.776   0.130   6.509
 2862TIP3    H2 8532   5.877   0.186   6.411
 2863TIP3   OH2 8533   1.158   7.022   5.986
 2863TIP3    H1 8534   1.173   6.929   5.974
 2863TIP3    H2 8535   1.066   7.028   6.013
 2864TIP3   OH2 8536   5.357   5.349   0.791
 2864TIP3    H1 8537   5.264   5.373   0.800
 2864TIP3    H2 8538   5.379   5.374   0.701
 2865TIP3   OH2 8539   7.670   1.626   2.999
 2865TIP3    H1 8540   7.666   1.721   2.991
 2865TIP3    H2 8541   7.743   1.599   2.944
 2866TIP3   OH2 8542   5.657   6.859   1.169
 2866TIP3    H1 8543   5.604   6.902   1.237
 2866TIP3    H2 8544   5.598   6.854   1.093
 2867TIP3   OH2 8545   6.221   3.541   3.309
 2867TIP3    H1 8546   6.238   3.463   3.257
 2867TIP3    H2 8547   6.228   3.512   3.400
 2868TIP3   OH2 8548   8.191   7.221   2.841
 2868TIP3    H1 8549   8.247   7.148   2.866
 2868TIP3    H2 8550   8.119   7.220   2.904
 2869TIP3   OH2 8551   4.434   4.495   3.280
 2869TIP3    H1 8552   4.417   4.427   3.345
 2869TIP3    H2 8553   4.403   4.576   3.320
 2870TIP3   OH2 8554   2.552   3.004   3.021
 2870TIP3    H1 8555   2.528   2.919   3.058
 2870TIP3    H2 8556   2.510   3.005   2.935
 2871TIP3   OH2 8557   1.461   5.314   0.344
 2871TIP3    H1 8558   1.401   5.310   0.418
 2871TIP3    H2 8559   1.411   5.355   0.274
 2872TIP3   OH2 8560   8.263   1.766   0.888
 2872TIP3    H1 8561   8.238   1.712   0.964
 2872TIP3    H2 8562   8.181   1.777   0.840
 2873TIP3   OH2 8563   1.874   1.554   1.595
 2873TIP3    H1 8564   1.929   1.496   1.647
 2873TIP3    H2 8565   1.816   1.596   1.658
 2874TIP3   OH2 8566   2.780   6.645   4.766
 2874TIP3    H1 8567   2.723   6.587   4.816
 2874TIP3    H2 8568   2.866   6.605   4.769
 2875TIP3   OH2 8569   6.365   5.218   2.922
 2875TIP3    H1 8570   6.337   5.130   2.945
 2875TIP3    H2 8571   6.313   5.276   2.978
 2876TIP3   OH2 8572   3.719   1.822   5.968
 2876TIP3    H1 8573   3.703   1.811   6.062
 2876TIP3    H2 8574   3.814   1.833   5.961
 2877TIP3   OH2 8575   4.602   3.577   4.192
 2877TIP3    H1 8576   4.630   3.665   4.166
 2877TIP3    H2 8577   4.567   3.589   4.280
 2878TIP3   OH2 8578   8.313   1.423   5.393
 2878TIP3    H1 8579   8.248   1.378   5.447
 2878TIP3    H2 8580   8.287   1.405   5.303
 2879TIP3   OH2 8581   1.754   4.198   1.403
 2879TIP3    H1 8582   1.788   4.147   1.477
 2879TIP3    H2 8583   1.682   4.146   1.369
 2880TIP3   OH2 8584   1.971   1.979   2.753
 2880TIP3    H1 8585   1.997   1.893   2.788
 2880TIP3    H2 8586   2.054   2.022   2.732
 2881TIP3   OH2 8587   5.618   3.358   3.016
 2881TIP3    H1 8588   5.664   3.351   2.932
 2881TIP3    H2 8589   5.682   3.397   3.075
 2882TIP3   OH2 8590   1.227   4.301   3.382
 2882TIP3    H1 8591   1.184   4.324   3.300
 2882TIP3    H2 8592   1.291   4.371   3.396
 2883TIP3   OH2 8593   2.753   7.413   4.077
 2883TIP3    H1 8594   2.719   7.367   4.001
 2883TIP3    H2 8595   2.675   7.437   4.127
 2884TIP3   OH2 8596   2.836   4.621   3.055
 2884TIP3    H1 8597   2.759   4.675   3.037
 2884TIP3    H2 8598   2.810   4.566   3.129
 2885TIP3   OH2 8599   1.604   2.785   4.969
 2885TIP3    H1 8600   1.545   2.716   4.939
 2885TIP3    H2 8601   1.595   2.783   5.065
 2886TIP3   OH2 8602   2.747   4.869   3.240
 2886TIP3    H1 8603   2.775   4.928   3.170
 2886TIP3    H2 8604   2.668   4.909   3.276
 2887TIP3   OH2 8605   2.276   4.459   6.239
 2887TIP3    H1 8606   2.279   4.429   6.329
 2887TIP3    H2 8607   2.317   4.545   6.240
 2888TIP3   OH2 8608   6.493   7.723   2.438
 2888TIP3    H1 8609   6.559   7.774   2.393
 2888TIP3    H2 8610   6.542   7.671   2.502
 2889TIP3   OH2 8611   3.149   2.085   1.020
 2889TIP3    H1 8612   3.103   2.062   0.940
 2889TIP3    H2 8613   3.146   2.180   1.023
 2890TIP3   OH2 8614   8.008   5.357   0.824
 2890TIP3    H1 8615   8.002   5.448   0.796
 2890TIP3    H2 8616   8.101   5.343   0.840
 2891TIP3   OH2 8617   7.676   6.933   0.719
 2891TIP3    H1 8618   7.641   6.854   0.758
 2891TIP3    H2 8619   7.609   6.962   0.658
 2892TIP3   OH2 8620   3.955   0.710   1.442
 2892TIP3    H1 8621   4.011   0.641   1.409
 2892TIP3    H2 8622   3.996   0.737   1.524
 2893TIP3   OH2 8623   1.414   4.612   2.911
 2893TIP3    H1 8624   1.467   4.549   2.960
 2893TIP3    H2 8625   1.411   4.576   2.822
 2894TIP3   OH2 8626   5.023   4.441   0.101
 2894TIP3    H1 8627   5.078   4.406   0.030
 2894TIP3    H2 8628   5.028   4.536   0.090
 2895TIP3   OH2 8629   4.996   4.190   0.237
 2895TIP3    H1 8630   4.905   4.176   0.212
 2895TIP3    H2 8631   5.012   4.283   0.221
 2896TIP3   OH2 8632   7.712   7.467   4.053
 2896TIP3    H1 8633   7.634   7.422   4.021
 2896TIP3    H2 8634   7.780   7.447   3.988
 2897TIP3   OH2 8635   0.176   0.402   5.615
 2897TIP3    H1 8636   0.119   0.471   5.650
 2897TIP3    H2 8637   0.168   0.411   5.520
 2898TIP3   OH2 8638   5.964   1.843   2.010
 2898TIP3    H1 8639   5.906   1.865   1.937
 2898TIP3    H2 8640   6.024   1.917   2.016
 2899TIP3   OH2 8641   2.933   0.211   1.999
 2899TIP3    H1 8642   3.014   0.184   1.956
 2899TIP3    H2 8643   2.898   0.280   1.943
 2900TIP3   OH2 8644   4.464   6.984   5.038
 2900TIP3    H1 8645   4.496   7.074   5.042
 2900TIP3    H2 8646   4.478   6.958   4.947
 2901TIP3   OH2 8647   7.109   5.465   5.050
 2901TIP3    H1 8648   7.189   5.412   5.057
 2901TIP3    H2 8649   7.068   5.458   5.136
 2902TIP3   OH2 8650   5.796   0.100   2.916
 2902TIP3    H1 8651   5.876   0.110   2.864
 2902TIP3    H2 8652   5.728   0.080   2.851
 2903TIP3   OH2 8653   1.356   0.941   0.258
 2903TIP3    H1 8654   1.395   0.855   0.242
 2903TIP3    H2 8655   1.299   0.956   0.182
 2904TIP3   OH2 8656   4.645   1.406   4.197
 2904TIP3    H1 8657   4.675   1.497   4.196
 2904TIP3    H2 8658   4.562   1.408   4.245
 2905TIP3   OH2 8659   0.451   2.616   5.671
 2905TIP3    H1 8660   0.368   2.595   5.714
 2905TIP3    H2 8661   0.497   2.532   5.667
 2906TIP3   OH2 8662   5.346   5.653   0.901
 2906TIP3    H1 8663   5.405   5.588   0.938
 2906TIP3    H2 8664   5.312   5.701   0.976
 2907TIP3   OH2 8665   0.242   4.944   0.954
 2907TIP3    H1 8666   0.316   4.968   0.899
 2907TIP3    H2 8667   0.215   5.026   0.995
 2908TIP3   OH2 8668   5.669   5.194   2.233
 2908TIP3    H1 8669   5.624   5.260   2.286
 2908TIP3    H2 8670   5.739   5.243   2.189
 2909TIP3   OH2 8671   6.007   5.272   0.744
 2909TIP3    H1 8672   6.083   5.225   0.710
 2909TIP3    H2 8673   5.941   5.204   0.759
 2910TIP3   OH2 8674   3.021   4.920   4.760
 2910TIP3    H1 8675   2.946   4.896   4.706
 2910TIP3    H2 8676   2.993   4.903   4.850
 2911TIP3   OH2 8677   7.830   4.919   1.848
 2911TIP3    H1 8678   7.813   4.876   1.765
 2911TIP3    H2 8679   7.845   4.848   1.910
 2912TIP3   OH2 8680   2.312   5.594   3.783
 2912TIP3    H1 8681   2.353   5.567   3.865
 2912TIP3    H2 8682   2.270   5.678   3.804
 2913TIP3   OH2 8683   0.414   7.710   3.354
 2913TIP3    H1 8684   0.329   7.723   3.395
 2913TIP3    H2 8685   0.425   7.615   3.350
 2914TIP3   OH2 8686   8.195   6.823   2.284
 2914TIP3    H1 8687   8.187   6.918   2.279
 2914TIP3    H2 8688   8.253   6.800   2.212
 2915TIP3   OH2 8689   1.430   3.488   2.052
 2915TIP3    H1 8690   1.429   3.524   2.140
 2915TIP3    H2 8691   1.338   3.487   2.025
 2916TIP3   OH2 8692   7.259   1.979   6.645
 2916TIP3    H1 8693   7.179   2.007   6.600
 2916TIP3    H2 8694   7.327   2.035   6.609
 2917TIP3   OH2 8695   5.568   3.694   5.471
 2917TIP3    H1 8696   5.651   3.740   5.468
 2917TIP3    H2 8697   5.550   3.669   5.380
 2918TIP3   OH2 8698   3.096   4.377   6.636
 2918TIP3    H1 8699   3.014   4.336   6.662
 2918TIP3    H2 8700   3.156   4.360   6.709
 2919TIP3   OH2 8701   1.400   1.560   6.262
 2919TIP3    H1 8702   1.427   1.489   6.204
 2919TIP3    H2 8703   1.481   1.590   6.303
 2920TIP3   OH2 8704   0.607   2.490   2.045
 2920TIP3    H1 8705   0.611   2.397   2.023
 2920TIP3    H2 8706   0.638   2.495   2.135
 2921TIP3   OH2 8707   4.244   2.102   3.760
 2921TIP3    H1 8708   4.187   2.175   3.783
 2921TIP3    H2 8709   4.185   2.035   3.724
 2922TIP3   OH2 8710   1.431   2.166   5.913
 2922TIP3    H1 8711   1.476   2.238   5.870
 2922TIP3    H2 8712   1.340   2.172   5.882
 2923TIP3   OH2 8713   4.409   6.733   6.639
 2923TIP3    H1 8714   4.462   6.791   6.693
 2923TIP3    H2 8715   4.464   6.654   6.629
 2924TIP3   OH2 8716   5.977   0.463   0.826
 2924TIP3    H1 8717   6.047   0.528   0.821
 2924TIP3    H2 8718   5.950   0.450   0.735
 2925TIP3   OH2 8719   2.371   4.695   6.291
 2925TIP3    H1 8720   2.361   4.763   6.224
 2925TIP3    H2 8721   2.449   4.721   6.340
 2926TIP3   OH2 8722   2.666   0.570   4.009
 2926TIP3    H1 8723   2.759   0.591   4.016
 2926TIP3    H2 8724   2.624   0.623   4.077
 2927TIP3   OH2 8725   4.686   0.779   3.367
 2927TIP3    H1 8726   4.675   0.823   3.452
 2927TIP3    H2 8727   4.618   0.817   3.312
 2928TIP3   OH2 8728   3.980   6.222   4.948
 2928TIP3    H1 8729   3.922   6.171   5.005
 2928TIP3    H2 8730   4.059   6.168   4.941
 2929TIP3   OH2 8731   1.768   1.545   2.861
 2929TIP3    H1 8732   1.783   1.639   2.863
 2929TIP3    H2 8733   1.854   1.507   2.844
 2930TIP3   OH2 8734   6.302   4.906   5.589
 2930TIP3    H1 8735   6.338   4.988   5.623
 2930TIP3    H2 8736   6.327   4.906   5.497
 2931TIP3   OH2 8737   0.026   2.780   1.525
 2931TIP3    H1 8738   0.068   2.813   1.604
 2931TIP3    H2 8739   0.077   2.818   1.453
 2932TIP3   OH2 8740   8.030   0.971   1.603
 2932TIP3    H1 8741   8.040   0.904   1.671
 2932TIP3    H2 8742   7.952   1.019   1.627
 2933TIP3   OH2 8743   7.794   4.538   0.669
 2933TIP3    H1 8744   7.735   4.516   0.740
 2933TIP3    H2 8745   7.737   4.563   0.596
 2934TIP3   OH2 8746   7.991   4.506   2.545
 2934TIP3    H1 8747   8.007   4.435   2.482
 2934TIP3    H2 8748   7.958   4.462   2.623
 2935TIP3   OH2 8749   3.135   0.161   5.754
 2935TIP3    H1 8750   3.222   0.156   5.795
 2935TIP3    H2 8751   3.097   0.075   5.771
 2936TIP3   OH2 8752   7.752   0.563   5.137
 2936TIP3    H1 8753   7.732   0.476   5.102
 2936TIP3    H2 8754   7.671   0.591   5.180
 2937TIP3   OH2 8755   0.914   5.690   4.702
 2937TIP3    H1 8756   0.905   5.650   4.788
 2937TIP3    H2 8757   0.957   5.774   4.719
 2938TIP3   OH2 8758   0.571   3.051   3.240
 2938TIP3    H1 8759   0.632   2.995   3.286
 2938TIP3    H2 8760   0.511   3.083   3.308
 2939TIP3   OH2 8761   1.449   4.209   5.252
 2939TIP3    H1 8762   1.513   4.145   5.285
 2939TIP3    H2 8763   1.490   4.246   5.174
 2940TIP3   OH2 8764   2.712   4.708   1.279
 2940TIP3    H1 8765   2.795   4.734   1.319
 2940TIP3    H2 8766   2.719   4.738   1.188
 2941TIP3   OH2 8767   0.401   5.491   2.607
 2941TIP3    H1 8768   0.448   5.414   2.641
 2941TIP3    H2 8769   0.404   5.554   2.678
 2942TIP3   OH2 8770   0.388   4.451   1.131
 2942TIP3    H1 8771   0.324   4.473   1.063
 2942TIP3    H2 8772   0.414   4.535   1.168
 2943TIP3   OH2 8773   6.141   5.794   1.447
 2943TIP3    H1 8774   6.208   5.858   1.471
 2943TIP3    H2 8775   6.067   5.847   1.415
 2944TIP3   OH2 8776   2.531   4.831   4.922
 2944TIP3    H1 8777   2.501   4.831   5.012
 2944TIP3    H2 8778   2.619   4.793   4.925
 2945TIP3   OH2 8779   3.518   1.177   0.248
 2945TIP3    H1 8780   3.498   1.085   0.228
 2945TIP3    H2 8781   3.459   1.227   0.193
 2946TIP3   OH2 8782   2.036   2.547   4.352
 2946TIP3    H1 8783   1.954   2.578   4.389
 2946TIP3    H2 8784   2.092   2.625   4.349
 2947TIP3   OH2 8785   0.642   4.790   3.257
 2947TIP3    H1 8786   0.663   4.715   3.200
 2947TIP3    H2 8787   0.662   4.759   3.345
 2948TIP3   OH2 8788   5.817   2.748   2.175
 2948TIP3    H1 8789   5.769   2.782   2.250
 2948TIP3    H2 8790   5.892   2.807   2.166
 2949TIP3   OH2 8791   5.051   4.991   2.778
 2949TIP3    H1 8792   4.998   4.944   2.842
 2949TIP3    H2 8793   5.133   5.009   2.824
 2950TIP3   OH2 8794   2.750   4.325   4.156
 2950TIP3    H1 8795   2.666   4.371   4.146
 2950TIP3    H2 8796   2.799   4.379   4.219
 2951TIP3   OH2 8797   4.987   3.772   0.166
 2951TIP3    H1 8798   5.050   3.844   0.163
 2951TIP3    H2 8799   4.990   3.741   0.256
 2952TIP3   OH2 8800   2.937   6.985   6.232
 2952TIP3    H1 8801   2.847   6.983   6.265
 2952TIP3    H2 8802   2.972   6.899   6.256
 2953TIP3   OH2 8803   3.242   5.134   4.041
 2953TIP3    H1 8804   3.327   5.124   4.084
 2953TIP3    H2 8805   3.252   5.210   3.983
 2954TIP3   OH2 8806   3.340   1.324   4.076
 2954TIP3    H1 8807   3.291   1.402   4.104
 2954TIP3    H2 8808   3.316   1.257   4.140
 2955TIP3   OH2 8809   4.926   1.170   1.424
 2955TIP3    H1 8810   4.845   1.129   1.453
 2955TIP3    H2 8811   4.943   1.238   1.489
 2956TIP3   OH2 8812   7.998   2.667   2.623
 2956TIP3    H1 8813   7.965   2.749   2.587
 2956TIP3    H2 8814   8.093   2.679   2.627
 2957TIP3   OH2 8815   2.654   6.966   6.302
 2957TIP3    H1 8816   2.600   7.043   6.319
 2957TIP3    H2 8817   2.681   6.976   6.211
 2958TIP3   OH2 8818   8.017   2.267   1.493
 2958TIP3    H1 8819   8.019   2.196   1.557
 2958TIP3    H2 8820   7.986   2.343   1.544
 2959TIP3   OH2 8821   2.370   6.558   2.834
 2959TIP3    H1 8822   2.420   6.599   2.763
 2959TIP3    H2 8823   2.280   6.553   2.801
 2960TIP3   OH2 8824   5.332   3.465   0.241
 2960TIP3    H1 8825   5.238   3.460   0.257
 2960TIP3    H2 8826   5.369   3.494   0.324
 2961TIP3   OH2 8827   2.342   5.455   3.340
 2961TIP3    H1 8828   2.274   5.514   3.373
 2961TIP3    H2 8829   2.300   5.368   3.341
 2962TIP3   OH2 8830   7.982   2.354   2.662
 2962TIP3    H1 8831   7.927   2.281   2.689
 2962TIP3    H2 8832   7.926   2.407   2.605
 2963TIP3   OH2 8833   6.721   4.710   3.898
 2963TIP3    H1 8834   6.745   4.617   3.902
 2963TIP3    H2 8835   6.713   4.736   3.990
 2964TIP3   OH2 8836   5.177   7.025   4.994
 2964TIP3    H1 8837   5.146   6.937   4.973
 2964TIP3    H2 8838   5.097   7.077   4.999
 2965TIP3   OH2 8839   8.158   3.707   6.687
 2965TIP3    H1 8840   8.237   3.671   6.728
 2965TIP3    H2 8841   8.191   3.779   6.633
 2966TIP3   OH2 8842   4.017   5.881   0.146
 2966TIP3    H1 8843   3.925   5.899   0.168
 2966TIP3    H2 8844   4.063   5.962   0.168
 2967TIP3   OH2 8845   1.000   6.777   1.864
 2967TIP3    H1 8846   0.959   6.821   1.939
 2967TIP3    H2 8847   0.930   6.723   1.827
 2968TIP3   OH2 8848   2.778   3.146   0.167
 2968TIP3    H1 8849   2.847   3.161   0.232
 2968TIP3    H2 8850   2.718   3.086   0.211
 2969TIP3   OH2 8851   3.568   7.618   6.711
 2969TIP3    H1 8852   3.525   7.535   6.690
 2969TIP3    H2 8853   3.616   7.641   6.631
 2970TIP3   OH2 8854   3.174   6.292   5.031
 2970TIP3    H1 8855   3.263   6.286   4.995
 2970TIP3    H2 8856   3.186   6.284   5.126
 2971TIP3   OH2 8857   3.504   0.093   1.193
 2971TIP3    H1 8858   3.420   0.106   1.237
 2971TIP3    H2 8859   3.503   0.156   1.121
 2972TIP3   OH2 8860   6.933   3.204   2.947
 2972TIP3    H1 8861   6.867   3.182   2.882
 2972TIP3    H2 8862   6.903   3.286   2.986
 2973TIP3   OH2 8863   6.961   5.039   1.494
 2973TIP3    H1 8864   6.941   5.100   1.565
 2973TIP3    H2 8865   6.941   5.087   1.414
 2974TIP3   OH2 8866   1.441   4.940   6.495
 2974TIP3    H1 8867   1.369   4.906   6.548
 2974TIP3    H2 8868   1.520   4.911   6.541
 2975TIP3   OH2 8869   8.264   7.649   1.169
 2975TIP3    H1 8870   8.191   7.677   1.115
 2975TIP3    H2 8871   8.239   7.671   1.258
 2976TIP3   OH2 8872   2.708   4.558   5.512
 2976TIP3    H1 8873   2.741   4.611   5.439
 2976TIP3    H2 8874   2.787   4.537   5.563
 2977TIP3   OH2 8875   7.550   7.054   2.090
 2977TIP3    H1 8876   7.527   7.013   2.007
 2977TIP3    H2 8877   7.606   6.990   2.134
 2978TIP3   OH2 8878   0.638   1.210   4.902
 2978TIP3    H1 8879   0.620   1.136   4.845
 2978TIP3    H2 8880   0.668   1.279   4.842
 2979TIP3   OH2 8881   4.619   6.021   3.341
 2979TIP3    H1 8882   4.713   6.034   3.352
 2979TIP3    H2 8883   4.580   6.105   3.367
 2980TIP3   OH2 8884   6.502   3.907   4.999
 2980TIP3    H1 8885   6.540   3.918   5.087
 2980TIP3    H2 8886   6.552   3.966   4.944
 2981TIP3   OH2 8887   3.996   4.468   0.024
 2981TIP3    H1 8888   4.032   4.395  -0.027
 2981TIP3    H2 8889   3.910   4.437   0.053
 2982TIP3   OH2 8890   6.467   0.620   1.736
 2982TIP3    H1 8891   6.521   0.652   1.808
 2982TIP3    H2 8892   6.470   0.690   1.670
 2983TIP3   OH2 8893   6.264   3.793   2.562
 2983TIP3    H1 8894   6.269   3.703   2.530
 2983TIP3    H2 8895   6.203   3.789   2.636
 2984TIP3   OH2 8896   0.155   6.860   5.085
 2984TIP3    H1 8897   0.149   6.804   5.162
 2984TIP3    H2 8898   0.086   6.925   5.097
 2985TIP3   OH2 8899   6.665   2.419   3.337
 2985TIP3    H1 8900   6.738   2.467   3.297
 2985TIP3    H2 8901   6.604   2.403   3.265
 2986TIP3   OH2 8902   0.444   5.058   5.603
 2986TIP3    H1 8903   0.362   5.067   5.651
 2986TIP3    H2 8904   0.492   4.989   5.650
 2987TIP3   OH2 8905   3.902   2.626   5.327
 2987TIP3    H1 8906   3.893   2.671   5.243
 2987TIP3    H2 8907   3.818   2.583   5.340
 2988TIP3   OH2 8908   3.577   7.592   5.766
 2988TIP3    H1 8909   3.500   7.616   5.715
 2988TIP3    H2 8910   3.548   7.594   5.857
 2989TIP3   OH2 8911   5.497   7.544   2.226
 2989TIP3    H1 8912   5.433   7.530   2.296
 2989TIP3    H2 8913   5.445   7.568   2.150
 2990TIP3   OH2 8914   5.227   3.171   2.287
 2990TIP3    H1 8915   5.265   3.212   2.365
 2990TIP3    H2 8916   5.264   3.083   2.286
 2991TIP3   OH2 8917   5.789   7.050   3.172
 2991TIP3    H1 8918   5.710   7.096   3.145
 2991TIP3    H2 8919   5.854   7.070   3.104
 2992TIP3   OH2 8920   2.348   3.173   2.363
 2992TIP3    H1 8921   2.364   3.232   2.437
 2992TIP3    H2 8922   2.433   3.133   2.345
 2993TIP3   OH2 8923   3.504   0.112   0.806
 2993TIP3    H1 8924   3.484   0.086   0.716
 2993TIP3    H2 8925   3.505   0.030   0.855
 2994TIP3   OH2 8926   4.500   5.397   6.728
 2994TIP3    H1 8927   4.436   5.326   6.736
 2994TIP3    H2 8928   4.480   5.436   6.643
 2995TIP3   OH2 8929   1.447   2.463   2.063
 2995TIP3    H1 8930   1.375   2.495   2.008
 2995TIP3    H2 8931   1.455   2.528   2.132
 2996TIP3   OH2 8932   5.953   5.740   5.934
 2996TIP3    H1 8933   5.949   5.832   5.907
 2996TIP3    H2 8934   5.862   5.718   5.957
 2997TIP3   OH2 8935   4.950   1.246   6.039
 2997TIP3    H1 8936   4.930   1.200   6.121
 2997TIP3    H2 8937   4.967   1.176   5.976
 2998TIP3   OH2 8938   1.490   1.071   4.337
 2998TIP3    H1 8939   1.416   1.057   4.396
 2998TIP3    H2 8940   1.563   1.093   4.396
 2999TIP3   OH2 8941   1.068   6.523   3.444
 2999TIP3    H1 8942   1.103   6.593   3.499
 2999TIP3    H2 8943   1.055   6.565   3.358
 3000TIP3   OH2 8944   2.339   2.837   0.983
 3000TIP3    H1 8945   2.423   2.803   1.015
 3000TIP3    H2 8946   2.275   2.812   1.050
 3001TIP3   OH2 8947   1.185   4.723   4.066
 3001TIP3    H1 8948   1.252   4.745   4.131
 3001TIP3    H2 8949   1.114   4.785   4.081
 3002TIP3   OH2 8950   8.025   1.876   6.255
 3002TIP3    H1 8951   7.990   1.792   6.286
 3002TIP3    H2 8952   8.090   1.852   6.189
 3003TIP3   OH2 8953   3.318   0.301   1.241
 3003TIP3    H1 8954   3.356   0.337   1.161
 3003TIP3    H2 8955   3.364   0.347   1.311
 3004TIP3   OH2 8956   3.138   4.509   6.395
 3004TIP3    H1 8957   3.123   4.461   6.477
 3004TIP3    H2 8958   3.070   4.477   6.336
 3005TIP3   OH2 8959   1.524   1.538   1.337
 3005TIP3    H1 8960   1.595   1.599   1.354
 3005TIP3    H2 8961   1.541   1.463   1.394
 3006TIP3   OH2 8962   6.066   7.274   4.214
 3006TIP3    H1 8963   6.117   7.202   4.252
 3006TIP3    H2 8964   6.028   7.237   4.134
 3007TIP3   OH2 8965   5.681   7.640   2.498
 3007TIP3    H1 8966   5.770   7.650   2.462
 3007TIP3    H2 8967   5.655   7.729   2.521
 3008TIP3   OH2 8968   3.103   3.486   2.626
 3008TIP3    H1 8969   3.097   3.546   2.701
 3008TIP3    H2 8970   3.167   3.420   2.653
 3009TIP3   OH2 8971   3.440   5.459   6.344
 3009TIP3    H1 8972   3.396   5.434   6.425
 3009TIP3    H2 8973   3.505   5.390   6.330
 3010TIP3   OH2 8974   7.230   2.485   4.658
 3010TIP3    H1 8975   7.160   2.481   4.593
 3010TIP3    H2 8976   7.262   2.575   4.653
 3011TIP3   OH2 8977   1.310   1.056   5.040
 3011TIP3    H1 8978   1.394   1.096   5.021
 3011TIP3    H2 8979   1.321   1.015   5.126
 3012TIP3   OH2 8980   6.021   6.378   5.252
 3012TIP3    H1 8981   5.983   6.368   5.339
 3012TIP3    H2 8982   5.974   6.451   5.213
 3013TIP3   OH2 8983   4.543   7.033   6.384
 3013TIP3    H1 8984   4.582   7.119   6.398
 3013TIP3    H2 8985   4.588   6.976   6.446
 3014TIP3   OH2 8986   5.213   6.028   3.587
 3014TIP3    H1 8987   5.155   6.104   3.598
 3014TIP3    H2 8988   5.242   6.007   3.676
 3015TIP3   OH2 8989   3.633   3.592   1.928
 3015TIP3    H1 8990   3.630   3.503   1.962
 3015TIP3    H2 8991   3.726   3.616   1.931
 3016TIP3   OH2 8992   4.585   2.444   5.074
 3016TIP3    H1 8993   4.560   2.351   5.075
 3016TIP3    H2 8994   4.676   2.444   5.103
 3017TIP3   OH2 8995   2.351   4.979   4.487
 3017TIP3    H1 8996   2.276   4.920   4.492
 3017TIP3    H2 8997   2.390   4.976   4.575
 3018TIP3   OH2 8998   5.240   2.730   0.569
 3018TIP3    H1 8999   5.312   2.762   0.514
 3018TIP3    H2 9000   5.163   2.733   0.512
 3019TIP3   OH2 9001   3.677   2.145   6.483
 3019TIP3    H1 9002   3.632   2.205   6.543
 3019TIP3    H2 9003   3.630   2.062   6.492
 3020TIP3   OH2 9004   2.049   4.040   1.342
 3020TIP3    H1 9005   2.040   3.962   1.288
 3020TIP3    H2 9006   1.964   4.049   1.387
 3021TIP3   OH2 9007   1.151   0.186   3.663
 3021TIP3    H1 9008   1.139   0.233   3.745
 3021TIP3    H2 9009   1.236   0.214   3.631
 3022TIP3   OH2 9010   7.264   6.588   3.031
 3022TIP3    H1 9011   7.319   6.656   2.991
 3022TIP3    H2 9012   7.264   6.610   3.125
 3023TIP3   OH2 9013   6.647   5.117   0.885
 3023TIP3    H1 9014   6.574   5.158   0.840
 3023TIP3    H2 9015   6.674   5.045   0.827
 3024TIP3   OH2 9016   6.464   7.644   2.763
 3024TIP3    H1 9017   6.466   7.557   2.723
 3024TIP3    H2 9018   6.425   7.629   2.850
 3025TIP3   OH2 9019   3.263   2.944   5.822
 3025TIP3    H1 9020   3.170   2.945   5.797
 3025TIP3    H2 9021   3.285   3.035   5.837
 3026TIP3   OH2 9022   7.152   3.824   0.271
 3026TIP3    H1 9023   7.073   3.877   0.264
 3026TIP3    H2 9024   7.223   3.888   0.285
 3027TIP3   OH2 9025   0.587   1.914   0.680
 3027TIP3    H1 9026   0.620   1.828   0.653
 3027TIP3    H2 9027   0.514   1.895   0.738
 3028TIP3   OH2 9028   3.676   4.423   6.251
 3028TIP3    H1 9029   3.598   4.410   6.196
 3028TIP3    H2 9030   3.727   4.490   6.204
 3029TIP3   OH2 9031   6.797   2.079   5.893
 3029TIP3    H1 9032   6.753   2.161   5.870
 3029TIP3    H2 9033   6.822   2.090   5.985
 3030TIP3   OH2 9034   6.549   5.141   1.483
 3030TIP3    H1 9035   6.464   5.183   1.498
 3030TIP3    H2 9036   6.603   5.210   1.444
 3031TIP3   OH2 9037   5.846   1.771   2.610
 3031TIP3    H1 9038   5.812   1.731   2.531
 3031TIP3    H2 9039   5.941   1.769   2.599
 3032TIP3   OH2 9040   8.086   4.395   3.805
 3032TIP3    H1 9041   8.121   4.334   3.869
 3032TIP3    H2 9042   8.121   4.480   3.832
 3033TIP3   OH2 9043   4.353   4.595   5.181
 3033TIP3    H1 9044   4.286   4.603   5.250
 3033TIP3    H2 9045   4.403   4.676   5.187
 3034TIP3   OH2 9046   2.763   6.338   5.276
 3034TIP3    H1 9047   2.674   6.304   5.267
 3034TIP3    H2 9048   2.756   6.406   5.343
 3035TIP3   OH2 9049   3.542   1.926   4.897
 3035TIP3    H1 9050   3.524   1.983   4.972
 3035TIP3    H2 9051   3.476   1.857   4.903
 3036TIP3   OH2 9052   5.559   3.087   4.824
 3036TIP3    H1 9053   5.528   3.177   4.819
 3036TIP3    H2 9054   5.539   3.059   4.913
 3037TIP3   OH2 9055   7.444   2.545   0.839
 3037TIP3    H1 9056   7.384   2.477   0.808
 3037TIP3    H2 9057   7.388   2.622   0.853
 3038TIP3   OH2 9058   1.627   2.348   0.947
 3038TIP3    H1 9059   1.666   2.435   0.942
 3038TIP3    H2 9060   1.701   2.288   0.942
 3039TIP3   OH2 9061   1.574   1.300   1.780
 3039TIP3    H1 9062   1.656   1.346   1.762
 3039TIP3    H2 9063   1.506   1.365   1.760
 3040TIP3   OH2 9064   7.011   0.389   5.173
 3040TIP3    H1 9065   7.029   0.311   5.226
 3040TIP3    H2 9066   6.924   0.417   5.201
 3041TIP3   OH2 9067   4.641   4.003   1.263
 3041TIP3    H1 9068   4.568   4.045   1.309
 3041TIP3    H2 9069   4.709   4.070   1.260
 3042TIP3   OH2 9070   1.678   4.576   0.424
 3042TIP3    H1 9071   1.664   4.667   0.399
 3042TIP3    H2 9072   1.615   4.561   0.495
 3043TIP3   OH2 9073   7.030   4.805   2.326
 3043TIP3    H1 9074   7.113   4.761   2.305
 3043TIP3    H2 9075   7.036   4.824   2.419
 3044TIP3   OH2 9076   4.703   5.254   5.438
 3044TIP3    H1 9077   4.716   5.308   5.360
 3044TIP3    H2 9078   4.760   5.178   5.424
 3045TIP3   OH2 9079   1.769   6.708   1.774
 3045TIP3    H1 9080   1.838   6.642   1.765
 3045TIP3    H2 9081   1.691   6.667   1.737
 3046TIP3   OH2 9082   7.238   4.631   2.300
 3046TIP3    H1 9083   7.218   4.538   2.295
 3046TIP3    H2 9084   7.331   4.634   2.324
 3047TIP3   OH2 9085   7.141   2.096   4.881
 3047TIP3    H1 9086   7.172   2.007   4.861
 3047TIP3    H2 9087   7.101   2.089   4.967
 3048TIP3   OH2 9088   1.749   3.086   3.471
 3048TIP3    H1 9089   1.684   3.107   3.538
 3048TIP3    H2 9090   1.756   3.165   3.418
 3049TIP3   OH2 9091   2.967   0.383   5.823
 3049TIP3    H1 9092   3.009   0.449   5.877
 3049TIP3    H2 9093   3.032   0.313   5.816
 3050TIP3   OH2 9094   0.977   5.635   5.783
 3050TIP3    H1 9095   0.909   5.679   5.835
 3050TIP3    H2 9096   1.031   5.589   5.848
 3051TIP3   OH2 9097   2.183   4.824   3.864
 3051TIP3    H1 9098   2.263   4.852   3.818
 3051TIP3    H2 9099   2.167   4.894   3.927
 3052TIP3   OH2 9100   2.856   3.408   2.301
 3052TIP3    H1 9101   2.769   3.447   2.295
 3052TIP3    H2 9102   2.916   3.479   2.279
 3053TIP3   OH2 9103   5.017   2.248   6.068
 3053TIP3    H1 9104   5.047   2.337   6.051
 3053TIP3    H2 9105   5.058   2.225   6.152
 3054TIP3   OH2 9106   6.074   7.093   5.602
 3054TIP3    H1 9107   6.128   7.147   5.544
 3054TIP3    H2 9108   6.016   7.156   5.645
 3055TIP3   OH2 9109   4.420   0.953   4.217
 3055TIP3    H1 9110   4.329   0.971   4.241
 3055TIP3    H2 9111   4.425   0.973   4.123
 3056TIP3   OH2 9112   3.622   0.426   0.561
 3056TIP3    H1 9113   3.672   0.355   0.520
 3056TIP3    H2 9114   3.662   0.506   0.527
 3057TIP3   OH2 9115   6.118   5.072   4.299
 3057TIP3    H1 9116   6.044   5.121   4.335
 3057TIP3    H2 9117   6.175   5.057   4.374
 3058TIP3   OH2 9118   7.986   5.586   4.043
 3058TIP3    H1 9119   7.970   5.568   3.950
 3058TIP3    H2 9120   7.976   5.500   4.085
 3059TIP3   OH2 9121   4.644   3.621   4.892
 3059TIP3    H1 9122   4.562   3.571   4.891
 3059TIP3    H2 9123   4.684   3.603   4.807
 3060TIP3   OH2 9124   4.907   5.738   5.179
 3060TIP3    H1 9125   4.910   5.716   5.272
 3060TIP3    H2 9126   4.936   5.659   5.135
 3061TIP3   OH2 9127   2.330   2.942   5.977
 3061TIP3    H1 9128   2.371   2.900   6.053
 3061TIP3    H2 9129   2.399   2.997   5.940
 3062TIP3   OH2 9130   6.069   7.456   5.517
 3062TIP3    H1 9131   6.079   7.502   5.600
 3062TIP3    H2 9132   6.130   7.500   5.458
 3063TIP3   OH2 9133   7.558   2.686   3.844
 3063TIP3    H1 9134   7.466   2.678   3.820
 3063TIP3    H2 9135   7.604   2.642   3.772
 3064TIP3   OH2 9136   6.123   6.035   0.584
 3064TIP3    H1 9137   6.217   6.033   0.598
 3064TIP3    H2 9138   6.086   6.027   0.672
 3065TIP3   OH2 9139   3.352   4.214   5.746
 3065TIP3    H1 9140   3.324   4.302   5.719
 3065TIP3    H2 9141   3.271   4.165   5.755
 3066TIP3   OH2 9142   6.368   0.715   4.729
 3066TIP3    H1 9143   6.414   0.777   4.673
 3066TIP3    H2 9144   6.393   0.628   4.696
 3067TIP3   OH2 9145   2.130   2.347   1.211
 3067TIP3    H1 9146   2.171   2.274   1.165
 3067TIP3    H2 9147   2.142   2.326   1.304
 3068TIP3   OH2 9148   4.739   5.269   5.803
 3068TIP3    H1 9149   4.699   5.186   5.778
 3068TIP3    H2 9150   4.747   5.318   5.721
 3069TIP3   OH2 9151   4.818   0.604   0.674
 3069TIP3    H1 9152   4.888   0.665   0.649
 3069TIP3    H2 9153   4.849   0.518   0.644
 3070TIP3   OH2 9154   4.707   0.943   4.912
 3070TIP3    H1 9155   4.614   0.933   4.929
 3070TIP3    H2 9156   4.713   1.022   4.857
 3071TIP3   OH2 9157   1.081   1.917   1.436
 3071TIP3    H1 9158   1.102   1.958   1.352
 3071TIP3    H2 9159   1.133   1.965   1.500
 3072TIP3   OH2 9160   4.789   4.745   3.288
 3072TIP3    H1 9161   4.716   4.769   3.231
 3072TIP3    H2 9162   4.824   4.665   3.249
 3073TIP3   OH2 9163   6.709   1.539   1.400
 3073TIP3    H1 9164   6.772   1.596   1.356
 3073TIP3    H2 9165   6.695   1.581   1.485
 3074TIP3   OH2 9166   3.882   4.233   3.641
 3074TIP3    H1 9167   3.913   4.195   3.723
 3074TIP3    H2 9168   3.799   4.188   3.623
 3075TIP3   OH2 9169   2.694   5.462   5.765
 3075TIP3    H1 9170   2.652   5.502   5.688
 3075TIP3    H2 9171   2.753   5.530   5.798
 3076TIP3   OH2 9172   7.280   4.188   6.731
 3076TIP3    H1 9173   7.317   4.264   6.776
 3076TIP3    H2 9174   7.203   4.223   6.685
 3077TIP3   OH2 9175   7.002   1.930   1.643
 3077TIP3    H1 9176   7.032   1.968   1.726
 3077TIP3    H2 9177   7.037   1.989   1.576
 3078TIP3   OH2 9178   2.662   2.395   4.471
 3078TIP3    H1 9179   2.709   2.455   4.528
 3078TIP3    H2 9180   2.573   2.429   4.469
 3079TIP3   OH2 9181   6.110   6.562   3.809
 3079TIP3    H1 9182   6.087   6.515   3.728
 3079TIP3    H2 9183   6.071   6.648   3.798
 3080TIP3   OH2 9184   1.679   2.420   5.226
 3080TIP3    H1 9185   1.719   2.504   5.204
 3080TIP3    H2 9186   1.643   2.388   5.142
 3081TIP3   OH2 9187   5.981   6.573   6.139
 3081TIP3    H1 9188   5.936   6.573   6.223
 3081TIP3    H2 9189   6.059   6.519   6.154
 3082TIP3   OH2 9190   7.283   7.195   3.303
 3082TIP3    H1 9191   7.224   7.141   3.355
 3082TIP3    H2 9192   7.245   7.196   3.216
 3083TIP3   OH2 9193   3.775   7.463   3.152
 3083TIP3    H1 9194   3.740   7.534   3.099
 3083TIP3    H2 9195   3.700   7.405   3.166
 3084TIP3   OH2 9196   0.350   6.911   1.347
 3084TIP3    H1 9197   0.295   6.955   1.283
 3084TIP3    H2 9198   0.440   6.934   1.321
 3085TIP3   OH2 9199   5.826   1.109   2.454
 3085TIP3    H1 9200   5.907   1.061   2.440
 3085TIP3    H2 9201   5.777   1.098   2.373
 3086TIP3   OH2 9202   1.666   3.728   6.084
 3086TIP3    H1 9203   1.627   3.641   6.087
 3086TIP3    H2 9204   1.677   3.747   5.991
 3087TIP3   OH2 9205   2.858   7.819   4.741
 3087TIP3    H1 9206   2.892   7.731   4.727
 3087TIP3    H2 9207   2.781   7.807   4.796
 3088TIP3   OH2 9208   8.153   3.704   1.665
 3088TIP3    H1 9209   8.065   3.699   1.628
 3088TIP3    H2 9210   8.192   3.619   1.645
 3089TIP3   OH2 9211   7.995   6.174   0.704
 3089TIP3    H1 9212   8.075   6.127   0.727
 3089TIP3    H2 9213   7.984   6.239   0.774
 3090TIP3   OH2 9214   2.412   2.490   5.318
 3090TIP3    H1 9215   2.378   2.485   5.228
 3090TIP3    H2 9216   2.413   2.399   5.347
 3091TIP3   OH2 9217   2.467   4.683   5.609
 3091TIP3    H1 9218   2.536   4.664   5.545
 3091TIP3    H2 9219   2.487   4.771   5.640
 3092TIP3   OH2 9220   1.513   2.872   3.887
 3092TIP3    H1 9221   1.431   2.827   3.869
 3092TIP3    H2 9222   1.558   2.875   3.803
 3093TIP3   OH2 9223   4.764   0.574   1.834
 3093TIP3    H1 9224   4.715   0.639   1.885
 3093TIP3    H2 9225   4.782   0.619   1.751
 3094TIP3   OH2 9226   5.168   0.784   3.379
 3094TIP3    H1 9227   5.108   0.811   3.310
 3094TIP3    H2 9228   5.253   0.817   3.351
 3095TIP3   OH2 9229   2.670   1.360   2.715
 3095TIP3    H1 9230   2.702   1.278   2.677
 3095TIP3    H2 9231   2.595   1.334   2.769
 3096TIP3   OH2 9232   2.859   0.593   2.575
 3096TIP3    H1 9233   2.820   0.672   2.614
 3096TIP3    H2 9234   2.839   0.524   2.638
 3097TIP3   OH2 9235   7.205   2.357   3.218
 3097TIP3    H1 9236   7.121   2.348   3.172
 3097TIP3    H2 9237   7.182   2.396   3.303
 3098TIP3   OH2 9238   1.864   7.722   3.201
 3098TIP3    H1 9239   1.922   7.732   3.125
 3098TIP3    H2 9240   1.887   7.793   3.259
 3099TIP3   OH2 9241   6.672   2.061   6.389
 3099TIP3    H1 9242   6.614   2.098   6.322
 3099TIP3    H2 9243   6.728   2.000   6.341
 3100TIP3   OH2 9244   4.917   0.629   3.040
 3100TIP3    H1 9245   4.938   0.562   3.105
 3100TIP3    H2 9246   4.961   0.601   2.961
 3101TIP3   OH2 9247   2.986   2.339   1.427
 3101TIP3    H1 9248   3.004   2.260   1.375
 3101TIP3    H2 9249   2.952   2.305   1.510
 3102TIP3   OH2 9250   8.176   6.190   3.213
 3102TIP3    H1 9251   8.271   6.197   3.206
 3102TIP3    H2 9252   8.155   6.230   3.298
 3103TIP3   OH2 9253   5.871   7.015   1.135
 3103TIP3    H1 9254   5.959   6.979   1.137
 3103TIP3    H2 9255   5.814   6.940   1.117
 3104TIP3   OH2 9256   5.784   5.196   4.070
 3104TIP3    H1 9257   5.865   5.229   4.032
 3104TIP3    H2 9258   5.764   5.117   4.020
 3105TIP3   OH2 9259   7.493   5.319   6.106
 3105TIP3    H1 9260   7.480   5.276   6.191
 3105TIP3    H2 9261   7.541   5.256   6.053
 3106TIP3   OH2 9262   8.270   0.602   2.526
 3106TIP3    H1 9263   8.265   0.509   2.502
 3106TIP3    H2 9264   8.180   0.628   2.542
 3107TIP3   OH2 9265   7.366   2.263   1.758
 3107TIP3    H1 9266   7.399   2.297   1.841
 3107TIP3    H2 9267   7.372   2.337   1.698
 3108TIP3   OH2 9268   4.198   1.633   6.452
 3108TIP3    H1 9269   4.125   1.622   6.391
 3108TIP3    H2 9270   4.268   1.671   6.398
 3109TIP3   OH2 9271   0.670   0.652   1.247
 3109TIP3    H1 9272   0.697   0.561   1.236
 3109TIP3    H2 9273   0.666   0.687   1.159
 3110TIP3   OH2 9274   3.820   4.625   3.940
 3110TIP3    H1 9275   3.787   4.595   4.025
 3110TIP3    H2 9276   3.741   4.649   3.891
 3111TIP3   OH2 9277   3.902   1.973   3.912
 3111TIP3    H1 9278   3.880   1.962   3.820
 3111TIP3    H2 9279   3.850   2.048   3.940
 3112TIP3   OH2 9280   6.783   1.233   0.962
 3112TIP3    H1 9281   6.815   1.319   0.989
 3112TIP3    H2 9282   6.692   1.247   0.939
 3113TIP3   OH2 9283   2.496   3.668   1.134
 3113TIP3    H1 9284   2.433   3.730   1.098
 3113TIP3    H2 9285   2.442   3.593   1.162
 3114TIP3   OH2 9286   4.079   1.602   4.487
 3114TIP3    H1 9287   4.064   1.585   4.394
 3114TIP3    H2 9288   4.138   1.677   4.488
 3115TIP3   OH2 9289   2.900   3.207   6.303
 3115TIP3    H1 9290   2.930   3.156   6.229
 3115TIP3    H2 9291   2.805   3.212   6.292
 3116TIP3   OH2 9292   8.140   5.713   2.795
 3116TIP3    H1 9293   8.077   5.694   2.725
 3116TIP3    H2 9294   8.086   5.731   2.872
 3117TIP3   OH2 9295   1.247   1.415   6.442
 3117TIP3    H1 9296   1.301   1.371   6.507
 3117TIP3    H2 9297   1.308   1.470   6.393
 3118TIP3   OH2 9298   4.626   3.767   6.785
 3118TIP3    H1 9299   4.702   3.817   6.754
 3118TIP3    H2 9300   4.567   3.765   6.709
 3119TIP3   OH2 9301   7.057   5.923   4.070
 3119TIP3    H1 9302   7.090   5.837   4.044
 3119TIP3    H2 9303   7.098   5.940   4.155
 3120TIP3   OH2 9304   5.669   2.798   2.386
 3120TIP3    H1 9305   5.593   2.759   2.430
 3120TIP3    H2 9306   5.743   2.780   2.444
 3121TIP3   OH2 9307   6.326   3.863   3.840
 3121TIP3    H1 9308   6.231   3.855   3.829
 3121TIP3    H2 9309   6.351   3.784   3.889
 3122TIP3   OH2 9310   0.303   5.348   3.228
 3122TIP3    H1 9311   0.335   5.388   3.309
 3122TIP3    H2 9312   0.244   5.414   3.191
 3123TIP3   OH2 9313   3.183   0.485   0.193
 3123TIP3    H1 9314   3.213   0.565   0.151
 3123TIP3    H2 9315   3.107   0.512   0.246
 3124TIP3   OH2 9316   1.116   3.106   6.459
 3124TIP3    H1 9317   1.089   3.163   6.387
 3124TIP3    H2 9318   1.123   3.165   6.534
 3125TIP3   OH2 9319   2.238   5.952   1.513
 3125TIP3    H1 9320   2.154   5.953   1.558
 3125TIP3    H2 9321   2.220   5.911   1.429
 3126TIP3   OH2 9322   6.337   3.807   5.788
 3126TIP3    H1 9323   6.257   3.827   5.740
 3126TIP3    H2 9324   6.350   3.882   5.846
 3127TIP3   OH2 9325   5.846   5.795   3.037
 3127TIP3    H1 9326   5.792   5.866   3.072
 3127TIP3    H2 9327   5.796   5.716   3.056
 3128TIP3   OH2 9328   7.492   0.613   5.300
 3128TIP3    H1 9329   7.402   0.581   5.295
 3128TIP3    H2 9330   7.532   0.562   5.370
 3129TIP3   OH2 9331   7.080   6.751   5.418
 3129TIP3    H1 9332   7.045   6.749   5.507
 3129TIP3    H2 9333   7.170   6.780   5.428
 3130TIP3   OH2 9334   5.941   5.068   4.846
 3130TIP3    H1 9335   6.033   5.092   4.849
 3130TIP3    H2 9336   5.923   5.028   4.931
 3131TIP3   OH2 9337   0.049   3.521   6.762
 3131TIP3    H1 9338   0.017   3.431   6.769
 3131TIP3    H2 9339   0.078   3.528   6.671
 3132TIP3   OH2 9340   6.893   4.415   6.688
 3132TIP3    H1 9341   6.805   4.452   6.698
 3132TIP3    H2 9342   6.936   4.435   6.771
 3133TIP3   OH2 9343   0.562   3.378   1.358
 3133TIP3    H1 9344   0.654   3.356   1.349
 3133TIP3    H2 9345   0.540   3.355   1.449
 3134TIP3   OH2 9346   3.493   5.092   4.154
 3134TIP3    H1 9347   3.548   5.169   4.147
 3134TIP3    H2 9348   3.554   5.018   4.153
 3135TIP3   OH2 9349   2.267   7.368   4.910
 3135TIP3    H1 9350   2.275   7.410   4.996
 3135TIP3    H2 9351   2.237   7.438   4.852
 3136TIP3   OH2 9352   2.712   7.455   2.801
 3136TIP3    H1 9353   2.715   7.393   2.729
 3136TIP3    H2 9354   2.661   7.529   2.767
 3137TIP3   OH2 9355   3.016   3.127   5.424
 3137TIP3    H1 9356   3.063   3.160   5.501
 3137TIP3    H2 9357   3.084   3.089   5.369
 3138TIP3   OH2 9358   4.271   0.080   1.653
 3138TIP3    H1 9359   4.250   0.087   1.560
 3138TIP3    H2 9360   4.220   0.150   1.694
 3139TIP3   OH2 9361   6.425   2.235   4.092
 3139TIP3    H1 9362   6.365   2.165   4.118
 3139TIP3    H2 9363   6.384   2.275   4.015
 3140TIP3   OH2 9364   3.269   1.629   1.341
 3140TIP3    H1 9365   3.364   1.622   1.330
 3140TIP3    H2 9366   3.241   1.541   1.366
 3141TIP3   OH2 9367   8.187   7.027   3.232
 3141TIP3    H1 9368   8.100   7.045   3.266
 3141TIP3    H2 9369   8.192   7.076   3.150
 3142TIP3   OH2 9370   2.464   5.564   4.030
 3142TIP3    H1 9371   2.519   5.499   3.987
 3142TIP3    H2 9372   2.526   5.630   4.062
 3143TIP3   OH2 9373   0.597   1.356   1.941
 3143TIP3    H1 9374   0.639   1.277   1.907
 3143TIP3    H2 9375   0.656   1.427   1.916
 3144TIP3   OH2 9376   5.240  -0.004   2.011
 3144TIP3    H1 9377   5.298   0.012   1.937
 3144TIP3    H2 9378   5.161   0.046   1.991
 3145TIP3   OH2 9379   4.963   3.414   3.430
 3145TIP3    H1 9380   5.025   3.364   3.378
 3145TIP3    H2 9381   4.990   3.398   3.521
 3146TIP3   OH2 9382   1.181   1.128   0.911
 3146TIP3    H1 9383   1.184   1.113   1.006
 3146TIP3    H2 9384   1.133   1.052   0.877
 3147TIP3   OH2 9385   3.194   3.103   3.498
 3147TIP3    H1 9386   3.235   3.179   3.538
 3147TIP3    H2 9387   3.260   3.034   3.506
 3148TIP3   OH2 9388   1.190   6.303   6.772
 3148TIP3    H1 9389   1.186   6.359   6.694
 3148TIP3    H2 9390   1.254   6.345   6.829
 3149TIP3   OH2 9391   4.919   0.131   5.216
 3149TIP3    H1 9392   4.826   0.151   5.226
 3149TIP3    H2 9393   4.960   0.215   5.199
 3150TIP3   OH2 9394   5.289   6.918   2.738
 3150TIP3    H1 9395   5.219   6.854   2.751
 3150TIP3    H2 9396   5.315   6.943   2.827
 3151TIP3   OH2 9397   5.998   7.227   2.335
 3151TIP3    H1 9398   6.004   7.133   2.353
 3151TIP3    H2 9399   6.036   7.237   2.247
 3152TIP3   OH2 9400   1.530   5.381   4.299
 3152TIP3    H1 9401   1.620   5.363   4.325
 3152TIP3    H2 9402   1.538   5.440   4.224
 3153TIP3   OH2 9403   7.085   7.057   6.100
 3153TIP3    H1 9404   7.179   7.044   6.092
 3153TIP3    H2 9405   7.074   7.148   6.126
 3154TIP3   OH2 9406   4.259   2.503   3.898
 3154TIP3    H1 9407   4.318   2.445   3.946
 3154TIP3    H2 9408   4.179   2.452   3.887
 3155TIP3   OH2 9409   7.465   6.462   6.350
 3155TIP3    H1 9410   7.391   6.473   6.411
 3155TIP3    H2 9411   7.499   6.551   6.339
 3156TIP3   OH2 9412   1.032   0.989   5.715
 3156TIP3    H1 9413   1.077   0.908   5.691
 3156TIP3    H2 9414   1.022   0.983   5.810
 3157TIP3   OH2 9415   7.600   2.955   3.832
 3157TIP3    H1 9416   7.671   2.983   3.889
 3157TIP3    H2 9417   7.603   2.859   3.834
 3158TIP3   OH2 9418   1.478   1.103   3.266
 3158TIP3    H1 9419   1.403   1.104   3.207
 3158TIP3    H2 9420   1.506   1.194   3.271
 3159TIP3   OH2 9421   3.161   5.905   2.075
 3159TIP3    H1 9422   3.097   5.854   2.123
 3159TIP3    H2 9423   3.175   5.983   2.128
 3160TIP3   OH2 9424   1.479   0.857   6.178
 3160TIP3    H1 9425   1.456   0.787   6.117
 3160TIP3    H2 9426   1.568   0.883   6.152
 3161TIP3   OH2 9427   7.859   3.029   0.338
 3161TIP3    H1 9428   7.804   3.107   0.341
 3161TIP3    H2 9429   7.828   2.981   0.261
 3162TIP3   OH2 9430   1.462   2.709   1.299
 3162TIP3    H1 9431   1.425   2.621   1.303
 3162TIP3    H2 9432   1.460   2.739   1.390
 3163TIP3   OH2 9433   7.336   6.469   2.617
 3163TIP3    H1 9434   7.308   6.422   2.539
 3163TIP3    H2 9435   7.399   6.411   2.659
 3164TIP3   OH2 9436   3.114   5.658   1.573
 3164TIP3    H1 9437   3.025   5.690   1.564
 3164TIP3    H2 9438   3.166   5.736   1.594
 3165TIP3   OH2 9439   4.114   0.983   4.503
 3165TIP3    H1 9440   4.070   1.061   4.468
 3165TIP3    H2 9441   4.093   0.914   4.441
 3166TIP3   OH2 9442   7.674   5.473   2.487
 3166TIP3    H1 9443   7.605   5.414   2.456
 3166TIP3    H2 9444   7.666   5.550   2.430
 3167TIP3   OH2 9445   3.057   1.600   6.079
 3167TIP3    H1 9446   3.026   1.570   6.165
 3167TIP3    H2 9447   3.086   1.690   6.095
 3168TIP3   OH2 9448   0.779   7.646   2.079
 3168TIP3    H1 9449   0.821   7.676   2.160
 3168TIP3    H2 9450   0.687   7.638   2.102
 3169TIP3   OH2 9451   6.470   6.878   5.637
 3169TIP3    H1 9452   6.533   6.829   5.585
 3169TIP3    H2 9453   6.398   6.817   5.652
 3170TIP3   OH2 9454   1.506   2.412   1.190
 3170TIP3    H1 9455   1.592   2.444   1.218
 3170TIP3    H2 9456   1.517   2.395   1.097
 3171TIP3   OH2 9457   1.235   4.240   3.823
 3171TIP3    H1 9458   1.272   4.161   3.785
 3171TIP3    H2 9459   1.310   4.296   3.842
 3172TIP3   OH2 9460   8.076   4.971   6.080
 3172TIP3    H1 9461   8.031   4.972   6.165
 3172TIP3    H2 9462   8.092   4.879   6.063
 3173TIP3   OH2 9463   0.332   0.394   1.641
 3173TIP3    H1 9464   0.275   0.401   1.564
 3173TIP3    H2 9465   0.415   0.360   1.607
 3174TIP3   OH2 9466   3.442   6.294   6.494
 3174TIP3    H1 9467   3.460   6.242   6.572
 3174TIP3    H2 9468   3.501   6.260   6.428
 3175TIP3   OH2 9469   0.268   2.283   6.163
 3175TIP3    H1 9470   0.286   2.189   6.172
 3175TIP3    H2 9471   0.248   2.312   6.252
 3176TIP3   OH2 9472   0.616   2.055   3.512
 3176TIP3    H1 9473   0.536   2.096   3.478
 3176TIP3    H2 9474   0.653   2.010   3.436
 3177TIP3   OH2 9475   4.068   6.227   1.038
 3177TIP3    H1 9476   4.025   6.282   1.104
 3177TIP3    H2 9477   4.154   6.268   1.025
 3178TIP3   OH2 9478   3.837   6.146   3.079
 3178TIP3    H1 9479   3.821   6.221   3.021
 3178TIP3    H2 9480   3.925   6.117   3.056
 3179TIP3   OH2 9481   4.660   7.763   3.865
 3179TIP3    H1 9482   4.672   7.756   3.770
 3179TIP3    H2 9483   4.632   7.854   3.878
 3180TIP3   OH2 9484   8.176   3.637   3.570
 3180TIP3    H1 9485   8.111   3.571   3.547
 3180TIP3    H2 9486   8.158   3.710   3.510
 3181TIP3   OH2 9487   5.857   0.739   3.613
 3181TIP3    H1 9488   5.873   0.829   3.641
 3181TIP3    H2 9489   5.912   0.728   3.535
 3182TIP3   OH2 9490   4.740   3.021   0.732
 3182TIP3    H1 9491   4.673   2.989   0.793
 3182TIP3    H2 9492   4.727   3.116   0.731
 3183TIP3   OH2 9493   0.911   1.142   3.667
 3183TIP3    H1 9494   0.995   1.187   3.662
 3183TIP3    H2 9495   0.845   1.212   3.665
 3184TIP3   OH2 9496   3.729   6.573   2.472
 3184TIP3    H1 9497   3.722   6.491   2.423
 3184TIP3    H2 9498   3.671   6.633   2.426
 3185TIP3   OH2 9499   7.151   4.898   4.720
 3185TIP3    H1 9500   7.084   4.941   4.666
 3185TIP3    H2 9501   7.199   4.843   4.658
 3186TIP3   OH2 9502   6.608   1.553   6.269
 3186TIP3    H1 9503   6.693   1.578   6.305
 3186TIP3    H2 9504   6.629   1.508   6.187
 3187TIP3   OH2 9505   2.114   4.682   1.194
 3187TIP3    H1 9506   2.025   4.674   1.158
 3187TIP3    H2 9507   2.163   4.611   1.153
 3188TIP3   OH2 9508   4.452   1.425   2.635
 3188TIP3    H1 9509   4.515   1.449   2.567
 3188TIP3    H2 9510   4.506   1.392   2.706
 3189TIP3   OH2 9511   2.544   2.562   2.843
 3189TIP3    H1 9512   2.622   2.544   2.894
 3189TIP3    H2 9513   2.515   2.475   2.813
 3190TIP3   OH2 9514   4.887   6.102   3.296
 3190TIP3    H1 9515   4.931   6.185   3.314
 3190TIP3    H2 9516   4.958   6.037   3.294
 3191TIP3   OH2 9517   5.045   4.373   4.318
 3191TIP3    H1 9518   5.001   4.293   4.287
 3191TIP3    H2 9519   5.098   4.343   4.392
 3192TIP3   OH2 9520   1.342   1.795   3.779
 3192TIP3    H1 9521   1.316   1.714   3.733
 3192TIP3    H2 9522   1.307   1.865   3.724
 3193TIP3   OH2 9523   5.340   3.725   0.650
 3193TIP3    H1 9524   5.423   3.710   0.695
 3193TIP3    H2 9525   5.313   3.639   0.619
 3194TIP3   OH2 9526   1.487   1.771   5.202
 3194TIP3    H1 9527   1.517   1.770   5.112
 3194TIP3    H2 9528   1.418   1.706   5.205
 3195TIP3   OH2 9529   1.877   5.368   5.545
 3195TIP3    H1 9530   1.899   5.401   5.632
 3195TIP3    H2 9531   1.852   5.445   5.495
 3196TIP3   OH2 9532   7.592   4.793   1.124
 3196TIP3    H1 9533   7.659   4.802   1.192
 3196TIP3    H2 9534   7.641   4.793   1.042
 3197TIP3   OH2 9535   6.975   3.923   1.908
 3197TIP3    H1 9536   7.062   3.892   1.934
 3197TIP3    H2 9537   6.984   4.018   1.900
 3198TIP3   OH2 9538   7.869   5.243   0.571
 3198TIP3    H1 9539   7.950   5.251   0.621
 3198TIP3    H2 9540   7.887   5.285   0.488
 3199TIP3   OH2 9541   2.708   5.305   0.374
 3199TIP3    H1 9542   2.760   5.368   0.424
 3199TIP3    H2 9543   2.653   5.262   0.440
 3200TIP3   OH2 9544   0.141   3.861   4.697
 3200TIP3    H1 9545   0.229   3.832   4.724
 3200TIP3    H2 9546   0.158   3.926   4.629
 3201TIP3   OH2 9547   0.855   7.414   4.161
 3201TIP3    H1 9548   0.947   7.402   4.183
 3201TIP3    H2 9549   0.817   7.326   4.163
 3202TIP3   OH2 9550   2.476   6.540   2.585
 3202TIP3    H1 9551   2.459   6.615   2.528
 3202TIP3    H2 9552   2.432   6.467   2.542
 3203TIP3   OH2 9553   7.057   0.818   2.393
 3203TIP3    H1 9554   7.051   0.825   2.297
 3203TIP3    H2 9555   7.039   0.725   2.410
 3204TIP3   OH2 9556   7.965   3.230   6.570
 3204TIP3    H1 9557   7.948   3.324   6.575
 3204TIP3    H2 9558   7.888   3.194   6.527
 3205TIP3   OH2 9559   2.457   6.414   0.208
 3205TIP3    H1 9560   2.469   6.482   0.142
 3205TIP3    H2 9561   2.363   6.408   0.220
 3206TIP3   OH2 9562   2.457   6.246   0.965
 3206TIP3    H1 9563   2.472   6.317   0.903
 3206TIP3    H2 9564   2.540   6.237   1.012
 3207TIP3   OH2 9565   7.722   0.606   1.149
 3207TIP3    H1 9566   7.742   0.626   1.240
 3207TIP3    H2 9567   7.805   0.574   1.113
 3208TIP3   OH2 9568   2.487   2.278   2.668
 3208TIP3    H1 9569   2.410   2.323   2.702
 3208TIP3    H2 9570   2.482   2.291   2.573
 3209TIP3   OH2 9571   0.643   5.004   4.873
 3209TIP3    H1 9572   0.710   4.938   4.890
 3209TIP3    H2 9573   0.660   5.073   4.936
 3210TIP3   OH2 9574   3.613   6.584   5.955
 3210TIP3    H1 9575   3.608   6.570   5.860
 3210TIP3    H2 9576   3.669   6.661   5.965
 3211TIP3   OH2 9577   6.813   2.906   0.576
 3211TIP3    H1 9578   6.807   2.812   0.557
 3211TIP3    H2 9579   6.864   2.912   0.656
 3212TIP3   OH2 9580   4.215   0.266   2.426
 3212TIP3    H1 9581   4.189   0.176   2.410
 3212TIP3    H2 9582   4.222   0.273   2.521
 3213TIP3   OH2 9583   0.336   2.242   1.444
 3213TIP3    H1 9584   0.360   2.156   1.410
 3213TIP3    H2 9585   0.255   2.265   1.398
 3214TIP3   OH2 9586   2.306   5.027   2.600
 3214TIP3    H1 9587   2.272   5.027   2.690
 3214TIP3    H2 9588   2.298   5.118   2.571
 3215TIP3   OH2 9589   6.336   7.543   0.855
 3215TIP3    H1 9590   6.329   7.536   0.760
 3215TIP3    H2 9591   6.417   7.593   0.869
 3216TIP3   OH2 9592   3.374   4.653   4.406
 3216TIP3    H1 9593   3.320   4.649   4.327
 3216TIP3    H2 9594   3.427   4.731   4.394
 3217TIP3   OH2 9595   5.276   4.295   1.605
 3217TIP3    H1 9596   5.267   4.200   1.594
 3217TIP3    H2 9597   5.369   4.311   1.594
 3218TIP3   OH2 9598   0.786   3.852   0.593
 3218TIP3    H1 9599   0.842   3.910   0.643
 3218TIP3    H2 9600   0.840   3.774   0.579
 3219TIP3   OH2 9601   4.725   0.464   2.761
 3219TIP3    H1 9602   4.818   0.476   2.741
 3219TIP3    H2 9603   4.723   0.448   2.855
 3220TIP3   OH2 9604   5.065   0.748   2.760
 3220TIP3    H1 9605   5.113   0.667   2.742
 3220TIP3    H2 9606   5.126   0.801   2.811
 3221TIP3   OH2 9607   5.823   6.903   2.735
 3221TIP3    H1 9608   5.901   6.880   2.786
 3221TIP3    H2 9609   5.852   6.975   2.679
 3222TIP3   OH2 9610   8.078   5.446   5.845
 3222TIP3    H1 9611   7.992   5.460   5.804
 3222TIP3    H2 9612   8.060   5.440   5.938
 3223TIP3   OH2 9613   8.244   0.824   6.575
 3223TIP3    H1 9614   8.176   0.759   6.558
 3223TIP3    H2 9615   8.322   0.771   6.594
 3224TIP3   OH2 9616   4.196   4.237   0.577
 3224TIP3    H1 9617   4.240   4.281   0.650
 3224TIP3    H2 9618   4.115   4.203   0.615
 3225TIP3   OH2 9619   5.381   5.017   4.620
 3225TIP3    H1 9620   5.440   5.024   4.695
 3225TIP3    H2 9621   5.432   4.970   4.554
 3226TIP3   OH2 9622   3.934   5.061   4.657
 3226TIP3    H1 9623   3.856   5.061   4.713
 3226TIP3    H2 9624   3.949   4.969   4.636
 3227TIP3   OH2 9625   7.273  -0.015   3.130
 3227TIP3    H1 9626   7.319   0.041   3.193
 3227TIP3    H2 9627   7.183   0.017   3.132
 3228TIP3   OH2 9628   2.188   7.622   6.253
 3228TIP3    H1 9629   2.217   7.682   6.322
 3228TIP3    H2 9630   2.110   7.664   6.216
 3229TIP3   OH2 9631   0.800   4.355   0.583
 3229TIP3    H1 9632   0.720   4.303   0.588
 3229TIP3    H2 9633   0.863   4.298   0.539
 3230TIP3   OH2 9634   6.678   0.929   3.401
 3230TIP3    H1 9635   6.681   1.024   3.411
 3230TIP3    H2 9636   6.766   0.900   3.426
 3231TIP3   OH2 9637   0.971   6.408   5.413
 3231TIP3    H1 9638   1.007   6.376   5.330
 3231TIP3    H2 9639   0.986   6.502   5.411
 3232TIP3   OH2 9640   5.060   5.224   5.732
 3232TIP3    H1 9641   5.102   5.216   5.646
 3232TIP3    H2 9642   4.973   5.260   5.714
 3233TIP3   OH2 9643   1.242   6.757   5.972
 3233TIP3    H1 9644   1.272   6.669   5.992
 3233TIP3    H2 9645   1.160   6.745   5.924
 3234TIP3   OH2 9646   2.027   6.750   6.437
 3234TIP3    H1 9647   2.055   6.841   6.425
 3234TIP3    H2 9648   2.104   6.699   6.412
 3235TIP3   OH2 9649   0.641   5.223   3.386
 3235TIP3    H1 9650   0.550   5.196   3.380
 3235TIP3    H2 9651   0.637   5.315   3.412
 3236TIP3   OH2 9652   1.580   3.166   2.685
 3236TIP3    H1 9653   1.511   3.231   2.668
 3236TIP3    H2 9654   1.655   3.198   2.635
 3237TIP3   OH2 9655   3.729   0.597   1.517
 3237TIP3    H1 9656   3.686   0.633   1.595
 3237TIP3    H2 9657   3.791   0.665   1.491
 3238TIP3   OH2 9658   4.211   4.729   5.004
 3238TIP3    H1 9659   4.226   4.664   5.073
 3238TIP3    H2 9660   4.294   4.731   4.955
 3239TIP3   OH2 9661   7.624   4.388   1.481
 3239TIP3    H1 9662   7.598   4.403   1.390
 3239TIP3    H2 9663   7.679   4.464   1.503
 3240TIP3   OH2 9664   0.840   0.157   0.500
 3240TIP3    H1 9665   0.746   0.148   0.485
 3240TIP3    H2 9666   0.856   0.251   0.489
 3241TIP3   OH2 9667   0.814   4.084   1.498
 3241TIP3    H1 9668   0.800   4.023   1.425
 3241TIP3    H2 9669   0.727   4.122   1.513
 3242TIP3   OH2 9670   1.745   3.222   1.983
 3242TIP3    H1 9671   1.734   3.161   1.911
 3242TIP3    H2 9672   1.716   3.174   2.061
 3243TIP3   OH2 9673   2.299   3.466   4.798
 3243TIP3    H1 9674   2.256   3.516   4.728
 3243TIP3    H2 9675   2.388   3.501   4.801
 3244TIP3   OH2 9676   1.298   1.387   3.940
 3244TIP3    H1 9677   1.385   1.347   3.936
 3244TIP3    H2 9678   1.311   1.471   3.983
 3245TIP3   OH2 9679   2.786   5.579   3.247
 3245TIP3    H1 9680   2.859   5.520   3.267
 3245TIP3    H2 9681   2.755   5.609   3.332
 3246TIP3   OH2 9682   0.529   0.751   3.128
 3246TIP3    H1 9683   0.467   0.818   3.157
 3246TIP3    H2 9684   0.548   0.700   3.206
 3247TIP3   OH2 9685   7.975   0.755   3.001
 3247TIP3    H1 9686   7.918   0.725   3.072
 3247TIP3    H2 9687   8.030   0.679   2.982
 3248TIP3   OH2 9688   0.819   7.102   4.132
 3248TIP3    H1 9689   0.889   7.039   4.148
 3248TIP3    H2 9690   0.825   7.122   4.039
 3249TIP3   OH2 9691   6.537   0.274   4.988
 3249TIP3    H1 9692   6.625   0.310   4.974
 3249TIP3    H2 9693   6.547   0.217   5.065
 3250TIP3   OH2 9694   5.062   0.979   4.066
 3250TIP3    H1 9695   5.084   1.067   4.095
 3250TIP3    H2 9696   5.016   0.992   3.983
 3251TIP3   OH2 9697   0.068   7.041   2.947
 3251TIP3    H1 9698   0.084   6.975   3.015
 3251TIP3    H2 9699   0.097   6.999   2.866
 3252TIP3   OH2 9700   6.343   6.015   6.178
 3252TIP3    H1 9701   6.409   6.055   6.235
 3252TIP3    H2 9702   6.346   6.067   6.098
 3253TIP3   OH2 9703   6.176   5.792   6.116
 3253TIP3    H1 9704   6.180   5.887   6.107
 3253TIP3    H2 9705   6.100   5.766   6.063
 3254TIP3   OH2 9706   4.554   4.191   3.327
 3254TIP3    H1 9707   4.618   4.242   3.376
 3254TIP3    H2 9708   4.506   4.142   3.394
 3255TIP3   OH2 9709   7.218   0.531   4.325
 3255TIP3    H1 9710   7.146   0.590   4.345
 3255TIP3    H2 9711   7.296   0.586   4.329
 3256TIP3   OH2 9712   5.658   6.322   0.033
 3256TIP3    H1 9713   5.695   6.395  -0.015
 3256TIP3    H2 9714   5.574   6.354   0.066
 3257TIP3   OH2 9715   1.973   6.429   4.671
 3257TIP3    H1 9716   1.939   6.442   4.760
 3257TIP3    H2 9717   2.038   6.498   4.659
 3258TIP3   OH2 9718   4.199   3.473   6.317
 3258TIP3    H1 9719   4.256   3.407   6.356
 3258TIP3    H2 9720   4.249   3.507   6.243
 3259TIP3   OH2 9721   6.304   1.780   4.592
 3259TIP3    H1 9722   6.392   1.818   4.588
 3259TIP3    H2 9723   6.320   1.686   4.608
 3260TIP3   OH2 9724   1.692   3.809   1.805
 3260TIP3    H1 9725   1.737   3.752   1.742
 3260TIP3    H2 9726   1.600   3.784   1.799
 3261TIP3   OH2 9727   4.673   4.359   1.165
 3261TIP3    H1 9728   4.579   4.340   1.160
 3261TIP3    H2 9729   4.716   4.280   1.132
 3262TIP3   OH2 9730   5.561   5.244   0.935
 3262TIP3    H1 9731   5.634   5.305   0.923
 3262TIP3    H2 9732   5.485   5.289   0.899
 3263TIP3   OH2 9733   6.206   2.389   2.816
 3263TIP3    H1 9734   6.233   2.301   2.842
 3263TIP3    H2 9735   6.112   2.382   2.803
 3264TIP3   OH2 9736   6.205   6.757   6.316
 3264TIP3    H1 9737   6.153   6.791   6.243
 3264TIP3    H2 9738   6.145   6.700   6.364
 3265TIP3   OH2 9739   6.463   2.580   5.002
 3265TIP3    H1 9740   6.436   2.551   4.915
 3265TIP3    H2 9741   6.495   2.501   5.045
 3266TIP3   OH2 9742   0.092   6.735   1.269
 3266TIP3    H1 9743   0.165   6.796   1.276
 3266TIP3    H2 9744   0.105   6.691   1.186
 3267TIP3   OH2 9745   6.974   4.850   0.593
 3267TIP3    H1 9746   7.034   4.862   0.666
 3267TIP3    H2 9747   7.008   4.775   0.545
 3268TIP3   OH2 9748   6.508   2.506   5.400
 3268TIP3    H1 9749   6.496   2.426   5.452
 3268TIP3    H2 9750   6.465   2.487   5.317
 3269TIP3   OH2 9751   6.883   5.010   3.006
 3269TIP3    H1 9752   6.961   5.015   2.951
 3269TIP3    H2 9753   6.813   5.046   2.951
 3270TIP3   OH2 9754   5.128   5.010   5.347
 3270TIP3    H1 9755   5.157   5.091   5.389
 3270TIP3    H2 9756   5.043   4.991   5.387
 3271TIP3   OH2 9757   7.780   7.173   3.528
 3271TIP3    H1 9758   7.754   7.143   3.616
 3271TIP3    H2 9759   7.700   7.210   3.491
 3272TIP3   OH2 9760   1.404   2.561   6.203
 3272TIP3    H1 9761   1.354   2.524   6.276
 3272TIP3    H2 9762   1.494   2.530   6.218
 3273TIP3   OH2 9763   4.838   2.846   4.736
 3273TIP3    H1 9764   4.927   2.819   4.713
 3273TIP3    H2 9765   4.785   2.768   4.717
 3274TIP3   OH2 9766   0.284   1.200   5.718
 3274TIP3    H1 9767   0.281   1.210   5.623
 3274TIP3    H2 9768   0.369   1.160   5.736
 3275TIP3   OH2 9769   1.483   5.720   0.242
 3275TIP3    H1 9770   1.539   5.711   0.319
 3275TIP3    H2 9771   1.495   5.637   0.195
 3276TIP3   OH2 9772   4.683   6.088   0.051
 3276TIP3    H1 9773   4.719   6.163   0.004
 3276TIP3    H2 9774   4.722   6.093   0.139
 3277TIP3   OH2 9775   6.547   2.201   1.671
 3277TIP3    H1 9776   6.522   2.226   1.759
 3277TIP3    H2 9777   6.464   2.187   1.625
 3278TIP3   OH2 9778   4.070   7.285   4.512
 3278TIP3    H1 9779   4.032   7.244   4.434
 3278TIP3    H2 9780   4.151   7.325   4.480
 3279TIP3   OH2 9781   5.086   3.298   2.090
 3279TIP3    H1 9782   5.066   3.228   2.028
 3279TIP3    H2 9783   5.128   3.254   2.164
 3280TIP3   OH2 9784   2.663   6.707   3.735
 3280TIP3    H1 9785   2.652   6.617   3.704
 3280TIP3    H2 9786   2.757   6.714   3.752
 3281TIP3   OH2 9787   4.030   3.274   4.563
 3281TIP3    H1 9788   4.089   3.305   4.495
 3281TIP3    H2 9789   4.054   3.324   4.641
 3282TIP3   OH2 9790   5.577   3.352   4.939
 3282TIP3    H1 9791   5.650   3.413   4.953
 3282TIP3    H2 9792   5.517   3.368   5.012
 3283TIP3   OH2 9793   1.450   3.673   3.141
 3283TIP3    H1 9794   1.383   3.717   3.087
 3283TIP3    H2 9795   1.508   3.633   3.077
 3284TIP3   OH2 9796   0.219   0.840   2.667
 3284TIP3    H1 9797   0.134   0.834   2.622
 3284TIP3    H2 9798   0.281   0.859   2.596
 3285TIP3   OH2 9799   2.986   5.657   1.288
 3285TIP3    H1 9800   2.950   5.639   1.375
 3285TIP3    H2 9801   2.928   5.611   1.228
 3286TIP3   OH2 9802   3.712   4.526   4.855
 3286TIP3    H1 9803   3.688   4.524   4.762
 3286TIP3    H2 9804   3.735   4.435   4.876
 3287TIP3   OH2 9805   4.561   6.219   1.708
 3287TIP3    H1 9806   4.649   6.256   1.715
 3287TIP3    H2 9807   4.520   6.267   1.635
 3288TIP3   OH2 9808   7.016   2.298   5.691
 3288TIP3    H1 9809   7.022   2.286   5.596
 3288TIP3    H2 9810   6.923   2.286   5.710
 3289TIP3   OH2 9811   7.312   1.077   4.184
 3289TIP3    H1 9812   7.228   1.123   4.183
 3289TIP3    H2 9813   7.306   1.014   4.111
 3290TIP3   OH2 9814   2.185   5.817   1.013
 3290TIP3    H1 9815   2.181   5.805   0.918
 3290TIP3    H2 9816   2.144   5.738   1.049
 3291TIP3   OH2 9817   1.908   2.457   4.967
 3291TIP3    H1 9818   1.956   2.375   4.953
 3291TIP3    H2 9819   1.819   2.439   4.938
 3292TIP3   OH2 9820   5.666   1.945   1.555
 3292TIP3    H1 9821   5.678   2.031   1.515
 3292TIP3    H2 9822   5.591   1.907   1.509
 3293TIP3   OH2 9823   6.677   5.928   2.639
 3293TIP3    H1 9824   6.689   5.860   2.573
 3293TIP3    H2 9825   6.759   5.977   2.639
 3294TIP3   OH2 9826   0.041   0.787   4.412
 3294TIP3    H1 9827   0.007   0.772   4.500
 3294TIP3    H2 9828  -0.031   0.830   4.364
 3295TIP3   OH2 9829   4.439   0.374   1.456
 3295TIP3    H1 9830   4.360   0.321   1.454
 3295TIP3    H2 9831   4.461   0.380   1.549
 3296TIP3   OH2 9832   7.041   6.575   5.999
 3296TIP3    H1 9833   6.956   6.547   6.035
 3296TIP3    H2 9834   7.069   6.646   6.057
 3297TIP3   OH2 9835   8.175   5.392   1.844
 3297TIP3    H1 9836   8.160   5.476   1.887
 3297TIP3    H2 9837   8.265   5.368   1.869
 3298TIP3   OH2 9838   0.667   7.606   5.762
 3298TIP3    H1 9839   0.676   7.528   5.817
 3298TIP3    H2 9840   0.679   7.573   5.673
 3299TIP3   OH2 9841   1.584   2.794   2.632
 3299TIP3    H1 9842   1.538   2.860   2.581
 3299TIP3    H2 9843   1.557   2.811   2.723
 3300TIP3   OH2 9844   0.856   0.714   1.653
 3300TIP3    H1 9845   0.946   0.710   1.685
 3300TIP3    H2 9846   0.864   0.741   1.561
 3301TIP3   OH2 9847   4.541  -0.016   1.285
 3301TIP3    H1 9848   4.571   0.074   1.298
 3301TIP3    H2 9849   4.475  -0.029   1.353
 3302TIP3   OH2 9850   7.637   0.269   1.403
 3302TIP3    H1 9851   7.716   0.267   1.349
 3302TIP3    H2 9852   7.619   0.362   1.415
 3303TIP3   OH2 9853   2.471   5.640   6.427
 3303TIP3    H1 9854   2.465   5.733   6.403
 3303TIP3    H2 9855   2.556   5.612   6.392
 3304TIP3   OH2 9856   2.610   7.677   2.687
 3304TIP3    H1 9857   2.668   7.680   2.611
 3304TIP3    H2 9858   2.547   7.748   2.672
 3305TIP3   OH2 9859   4.983   3.275   5.541
 3305TIP3    H1 9860   4.982   3.357   5.589
 3305TIP3    H2 9861   5.076   3.253   5.532
 3306TIP3   OH2 9862   6.751   3.040   2.475
 3306TIP3    H1 9863   6.657   3.043   2.489
 3306TIP3    H2 9864   6.761   2.996   2.390
 3307TIP3   OH2 9865   3.335   4.404   1.372
 3307TIP3    H1 9866   3.241   4.417   1.370
 3307TIP3    H2 9867   3.352   4.339   1.304
 3308TIP3   OH2 9868   5.043   7.698   3.773
 3308TIP3    H1 9869   5.041   7.605   3.753
 3308TIP3    H2 9870   5.109   7.735   3.715
 3309TIP3   OH2 9871   5.108   2.153   4.677
 3309TIP3    H1 9872   5.013   2.164   4.674
 3309TIP3    H2 9873   5.121   2.071   4.726
 3310TIP3   OH2 9874   1.110   5.506   1.953
 3310TIP3    H1 9875   1.015   5.500   1.941
 3310TIP3    H2 9876   1.146   5.487   1.866
 3311TIP3   OH2 9877   2.287   2.338   4.815
 3311TIP3    H1 9878   2.359   2.278   4.792
 3311TIP3    H2 9879   2.232   2.339   4.736
 3312TIP3   OH2 9880   5.869   0.155   5.188
 3312TIP3    H1 9881   5.959   0.187   5.189
 3312TIP3    H2 9882   5.829   0.199   5.112
 3313TIP3   OH2 9883   5.941   5.901   1.070
 3313TIP3    H1 9884   5.977   5.813   1.079
 3313TIP3    H2 9885   5.966   5.928   0.982
 3314TIP3   OH2 9886   3.055   4.846   6.700
 3314TIP3    H1 9887   2.978   4.882   6.744
 3314TIP3    H2 9888   3.031   4.756   6.680
 3315TIP3   OH2 9889   7.241   2.943   1.986
 3315TIP3    H1 9890   7.157   2.943   1.940
 3315TIP3    H2 9891   7.303   2.909   1.921
 3316TIP3   OH2 9892   1.071   4.085   3.463
 3316TIP3    H1 9893   1.130   4.151   3.428
 3316TIP3    H2 9894   0.997   4.135   3.499
 3317TIP3   OH2 9895   7.315   4.102   3.754
 3317TIP3    H1 9896   7.226   4.100   3.718
 3317TIP3    H2 9897   7.336   4.009   3.768
 3318TIP3   OH2 9898   0.218   0.482   3.402
 3318TIP3    H1 9899   0.170   0.430   3.466
 3318TIP3    H2 9900   0.308   0.482   3.432
 3319TIP3   OH2 9901   5.190   1.751   4.388
 3319TIP3    H1 9902   5.236   1.766   4.306
 3319TIP3    H2 9903   5.160   1.838   4.414
 3320TIP3   OH2 9904   1.733   1.414   5.133
 3320TIP3    H1 9905   1.649   1.388   5.098
 3320TIP3    H2 9906   1.764   1.337   5.182
 3321TIP3   OH2 9907   1.538   1.653   0.498
 3321TIP3    H1 9908   1.471   1.620   0.439
 3321TIP3    H2 9909   1.513   1.744   0.515
 3322TIP3   OH2 9910   7.272   0.372   1.160
 3322TIP3    H1 9911   7.250   0.297   1.215
 3322TIP3    H2 9912   7.326   0.428   1.215
 3323TIP3   OH2 9913   5.914   2.082   2.791
 3323TIP3    H1 9914   5.829   2.043   2.771
 3323TIP3    H2 9915   5.965   2.009   2.827
 3324TIP3   OH2 9916   1.275   5.389   2.150
 3324TIP3    H1 9917   1.206   5.433   2.099
 3324TIP3    H2 9918   1.357   5.417   2.110
 3325TIP3   OH2 9919   5.847   7.813   5.598
 3325TIP3    H1 9920   5.792   7.881   5.636
 3325TIP3    H2 9921   5.813   7.731   5.635
 3326TIP3   OH2 9922   3.149   3.474   2.059
 3326TIP3    H1 9923   3.242   3.481   2.036
 3326TIP3    H2 9924   3.112   3.417   1.992
 3327TIP3   OH2 9925   0.294   5.463   2.916
 3327TIP3    H1 9926   0.199   5.476   2.921
 3327TIP3    H2 9927   0.329   5.549   2.892
 3328TIP3   OH2 9928   3.654   6.771   0.592
 3328TIP3    H1 9929   3.573   6.755   0.544
 3328TIP3    H2 9930   3.686   6.684   0.617
 3329TIP3   OH2 9931   3.888   4.092   0.068
 3329TIP3    H1 9932   3.960   4.074   0.128
 3329TIP3    H2 9933   3.896   4.025   0.000
 3330TIP3   OH2 9934   7.466   4.740   4.801
 3330TIP3    H1 9935   7.408   4.814   4.780
 3330TIP3    H2 9936   7.411   4.663   4.790
 3331TIP3   OH2 9937   1.457   3.993   2.647
 3331TIP3    H1 9938   1.476   4.086   2.649
 3331TIP3    H2 9939   1.530   3.953   2.695
 3332TIP3   OH2 9940   8.119   2.527   3.575
 3332TIP3    H1 9941   8.169   2.489   3.503
 3332TIP3    H2 9942   8.133   2.467   3.648
 3333TIP3   OH2 9943   3.833   7.575   6.579
 3333TIP3    H1 9944   3.866   7.586   6.490
 3333TIP3    H2 9945   3.853   7.484   6.602
 3334TIP3   OH2 9946   4.676   5.081   4.599
 3334TIP3    H1 9947   4.626   5.151   4.558
 3334TIP3    H2 9948   4.767   5.111   4.594
 3335TIP3   OH2 9949   1.156   6.761   0.990
 3335TIP3    H1 9950   1.195   6.800   1.068
 3335TIP3    H2 9951   1.215   6.785   0.919
 3336TIP3   OH2 9952   2.893   6.468   0.761
 3336TIP3    H1 9953   2.946   6.405   0.810
 3336TIP3    H2 9954   2.956   6.518   0.709
 3337TIP3   OH2 9955   4.812   1.349   4.633
 3337TIP3    H1 9956   4.782   1.368   4.544
 3337TIP3    H2 9957   4.829   1.435   4.672
 3338TIP3   OH2 9958   3.163   2.294   1.872
 3338TIP3    H1 9959   3.246   2.253   1.894
 3338TIP3    H2 9960   3.108   2.280   1.949
 3339TIP3   OH2 9961   7.185   1.423   5.104
 3339TIP3    H1 9962   7.206   1.357   5.037
 3339TIP3    H2 9963   7.258   1.419   5.166
 3340TIP3   OH2 9964   3.804   1.537   3.486
 3340TIP3    H1 9965   3.890   1.543   3.528
 3340TIP3    H2 9966   3.780   1.445   3.495
 3341TIP3   OH2 9967   2.684   2.233   5.336
 3341TIP3    H1 9968   2.764   2.276   5.305
 3341TIP3    H2 9969   2.623   2.240   5.263
 3342TIP3   OH2 9970   4.846   5.236   4.964
 3342TIP3    H1 9971   4.915   5.259   4.901
 3342TIP3    H2 9972   4.765   5.265   4.921
 3343TIP3   OH2 9973   3.092   4.475   1.323
 3343TIP3    H1 9974   3.102   4.495   1.230
 3343TIP3    H2 9975   2.997   4.481   1.339
 3344TIP3   OH2 9976   0.981   6.219   1.141
 3344TIP3    H1 9977   0.926   6.281   1.093
 3344TIP3    H2 9978   0.926   6.189   1.213
 3345TIP3   OH2 9979   6.308   1.344   0.801
 3345TIP3    H1 9980   6.306   1.369   0.709
 3345TIP3    H2 9981   6.217   1.346   0.829
 3346TIP3   OH2 9982   5.272   4.574   6.049
 3346TIP3    H1 9983   5.284   4.651   5.995
 3346TIP3    H2 9984   5.178   4.559   6.050
 3347TIP3   OH2 9985   1.182   6.478   1.318
 3347TIP3    H1 9986   1.240   6.554   1.321
 3347TIP3    H2 9987   1.104   6.509   1.270
 3348TIP3   OH2 9988   3.600   2.833   2.988
 3348TIP3    H1 9989   3.633   2.856   2.901
 3348TIP3    H2 9990   3.650   2.888   3.048
 3349TIP3   OH2 9991   3.926   5.541   0.995
 3349TIP3    H1 9992   3.871   5.618   0.992
 3349TIP3    H2 9993   4.015   5.574   0.982
 3350TIP3   OH2 9994   4.860   6.779   3.324
 3350TIP3    H1 9995   4.814   6.731   3.392
 3350TIP3    H2 9996   4.952   6.777   3.352
 3351TIP3   OH2 9997   2.533   4.985   0.298
 3351TIP3    H1 9998   2.526   5.030   0.383
 3351TIP3    H2 9999   2.589   5.041   0.245
 3352TIP3   OH210000   7.302   0.652   2.957
 3352TIP3    H110001   7.247   0.639   3.035
 3352TIP3    H210002   7.269   0.733   2.918
 3353TIP3   OH210003   7.380   5.431   4.610
 3353TIP3    H110004   7.409   5.474   4.529
 3353TIP3    H210005   7.435   5.353   4.616
 3354TIP3   OH210006   4.065   7.614   0.070
 3354TIP3    H110007   4.002   7.592   0.001
 3354TIP3    H210008   4.069   7.535   0.124
 3355TIP3   OH210009   2.154   4.905   5.074
 3355TIP3    H110010   2.222   4.850   5.035
 3355TIP3    H210011   2.199   4.959   5.138
 3356TIP3   OH210012   1.575   1.251   4.855
 3356TIP3    H110013   1.653   1.197   4.845
 3356TIP3    H210014   1.551   1.242   4.948
 3357TIP3   OH210015   6.627   2.639   3.105
 3357TIP3    H110016   6.707   2.634   3.158
 3357TIP3    H210017   6.658   2.627   3.015
 3358TIP3   OH210018   8.213   5.165   1.518
 3358TIP3    H110019   8.230   5.151   1.611
 3358TIP3    H210020   8.156   5.242   1.516
 3359TIP3   OH210021   7.765   0.719   0.351
 3359TIP3    H110022   7.729   0.749   0.434
 3359TIP3    H210023   7.780   0.798   0.300
 3360TIP3   OH210024   7.375   6.076   2.753
 3360TIP3    H110025   7.304   6.055   2.814
 3360TIP3    H210026   7.380   6.000   2.695
 3361TIP3   OH210027   3.027   0.437   1.406
 3361TIP3    H110028   2.979   0.360   1.376
 3361TIP3    H210029   2.960   0.493   1.446
 3362TIP3   OH210030   6.862   3.615   4.345
 3362TIP3    H110031   6.814   3.533   4.335
 3362TIP3    H210032   6.954   3.590   4.334
 3363TIP3   OH210033   2.871   3.161   1.116
 3363TIP3    H110034   2.812   3.094   1.150
 3363TIP3    H210035   2.920   3.191   1.193
 3364TIP3   OH210036   1.296   0.003   3.938
 3364TIP3    H110037   1.379   0.050   3.939
 3364TIP3    H210038   1.230   0.071   3.920
 3365TIP3   OH210039   6.409   4.764   0.399
 3365TIP3    H110040   6.317   4.738   0.396
 3365TIP3    H210041   6.416   4.834   0.334
 3366TIP3   OH210042   0.213   3.143   0.474
 3366TIP3    H110043   0.217   3.131   0.569
 3366TIP3    H210044   0.256   3.228   0.459
 3367TIP3   OH210045   1.260   7.792   1.793
 3367TIP3    H110046   1.264   7.801   1.698
 3367TIP3    H210047   1.183   7.737   1.808
 3368TIP3   OH210048   6.175   0.728   4.082
 3368TIP3    H110049   6.177   0.715   4.177
 3368TIP3    H210050   6.156   0.641   4.047
 3369TIP3   OH210051   7.852   5.155   3.672
 3369TIP3    H110052   7.898   5.167   3.755
 3369TIP3    H210053   7.888   5.222   3.614
 3370TIP3   OH210054   3.858   5.645   5.417
 3370TIP3    H110055   3.919   5.589   5.466
 3370TIP3    H210056   3.881   5.631   5.325
 3371TIP3   OH210057   2.324   3.414   1.804
 3371TIP3    H110058   2.311   3.486   1.867
 3371TIP3    H210059   2.404   3.437   1.757
 3372TIP3   OH210060   2.932   4.633   6.593
 3372TIP3    H110061   2.890   4.654   6.509
 3372TIP3    H210062   3.011   4.585   6.568
 3373TIP3   OH210063   5.530   3.620   2.379
 3373TIP3    H110064   5.472   3.589   2.449
 3373TIP3    H210065   5.472   3.631   2.304
 3374TIP3   OH210066   7.678   5.167   4.303
 3374TIP3    H110067   7.688   5.193   4.395
 3374TIP3    H210068   7.589   5.134   4.297
 3375TIP3   OH210069   6.985   2.937   4.558
 3375TIP3    H110070   7.006   2.996   4.631
 3375TIP3    H210071   7.061   2.943   4.500
 3376TIP3   OH210072   5.474   1.862   0.174
 3376TIP3    H110073   5.449   1.954   0.165
 3376TIP3    H210074   5.476   1.829   0.084
 3377TIP3   OH210075   3.071   0.675   3.774
 3377TIP3    H110076   3.069   0.735   3.700
 3377TIP3    H210077   3.129   0.604   3.745
 3378TIP3   OH210078   2.526   3.155   5.988
 3378TIP3    H110079   2.558   3.245   5.979
 3378TIP3    H210080   2.600   3.101   5.959
 3379TIP3   OH210081   5.459   4.776   0.403
 3379TIP3    H110082   5.552   4.756   0.387
 3379TIP3    H210083   5.415   4.747   0.324
 3380TIP3   OH210084   5.341   5.771   0.223
 3380TIP3    H110085   5.319   5.862   0.239
 3380TIP3    H210086   5.321   5.726   0.305
 3381TIP3   OH210087   2.115   4.922   2.428
 3381TIP3    H110088   2.183   4.960   2.484
 3381TIP3    H210089   2.148   4.936   2.339
 3382TIP3   OH210090   3.124   0.667   4.183
 3382TIP3    H110091   3.156   0.753   4.154
 3382TIP3    H210092   3.113   0.677   4.278
 3383TIP3   OH210093   6.352   0.934   6.640
 3383TIP3    H110094   6.426   0.875   6.622
 3383TIP3    H210095   6.309   0.944   6.555
 3384TIP3   OH210096   5.008   1.598   3.734
 3384TIP3    H110097   4.942   1.548   3.783
 3384TIP3    H210098   4.997   1.688   3.764
 3385TIP3   OH210099   5.998   0.784   5.604
 3385TIP3    H110100   5.964   0.729   5.534
 3385TIP3    H210101   5.944   0.863   5.602
 3386TIP3   OH210102   3.997   1.154   0.205
 3386TIP3    H110103   3.958   1.209   0.272
 3386TIP3    H210104   3.933   1.083   0.192
 3387TIP3   OH210105   0.539   4.436   0.822
 3387TIP3    H110106   0.507   4.515   0.867
 3387TIP3    H210107   0.546   4.462   0.730
 3388TIP3   OH210108   2.472   4.180   4.097
 3388TIP3    H110109   2.421   4.232   4.161
 3388TIP3    H210110   2.515   4.113   4.150
 3389TIP3   OH210111   1.810   4.528   4.897
 3389TIP3    H110112   1.851   4.546   4.981
 3389TIP3    H210113   1.879   4.543   4.832
 3390TIP3   OH210114   0.599   5.776   2.149
 3390TIP3    H110115   0.544   5.829   2.091
 3390TIP3    H210116   0.537   5.716   2.191
 3391TIP3   OH210117   1.820   4.313   6.009
 3391TIP3    H110118   1.738   4.318   6.059
 3391TIP3    H210119   1.837   4.219   6.000
 3392TIP3   OH210120   2.827   0.846   2.960
 3392TIP3    H110121   2.918   0.841   2.991
 3392TIP3    H210122   2.776   0.862   3.040
 3393TIP3   OH210123   4.883   6.316   0.522
 3393TIP3    H110124   4.809   6.327   0.462
 3393TIP3    H210125   4.878   6.225   0.551
 3394TIP3   OH210126   6.591   1.052   1.914
 3394TIP3    H110127   6.600   0.974   1.860
 3394TIP3    H210128   6.560   1.120   1.853
 3395TIP3   OH210129   8.176   1.991   6.549
 3395TIP3    H110130   8.092   1.948   6.563
 3395TIP3    H210131   8.218   1.941   6.479
 3396TIP3   OH210132   2.082   0.097   5.500
 3396TIP3    H110133   2.131   0.142   5.431
 3396TIP3    H210134   2.080   0.159   5.573
 3397TIP3   OH210135   0.737   6.731   1.145
 3397TIP3    H110136   0.686   6.767   1.072
 3397TIP3    H210137   0.772   6.808   1.191
 3398TIP3   OH210138   4.549   1.947   4.491
 3398TIP3    H110139   4.588   1.973   4.408
 3398TIP3    H210140   4.456   1.968   4.482
 3399TIP3   OH210141   3.447   6.790   5.315
 3399TIP3    H110142   3.420   6.698   5.309
 3399TIP3    H210143   3.460   6.817   5.224
 3400TIP3   OH210144   6.316   6.084   5.526
 3400TIP3    H110145   6.340   6.177   5.524
 3400TIP3    H210146   6.252   6.078   5.597
 3401TIP3   OH210147   4.944   6.788   6.284
 3401TIP3    H110148   4.995   6.766   6.206
 3401TIP3    H210149   4.952   6.711   6.340
 3402TIP3   OH210150   4.805   0.552   3.540
 3402TIP3    H110151   4.885   0.603   3.549
 3402TIP3    H210152   4.757   0.597   3.469
 3403TIP3   OH210153   2.739   1.211   5.572
 3403TIP3    H110154   2.771   1.197   5.482
 3403TIP3    H210155   2.652   1.249   5.561
 3404TIP3   OH210156   7.398   2.469   1.218
 3404TIP3    H110157   7.488   2.481   1.246
 3404TIP3    H210158   7.377   2.547   1.167
 3405TIP3   OH210159   6.851   4.544   0.994
 3405TIP3    H110160   6.905   4.596   1.054
 3405TIP3    H210161   6.808   4.479   1.051
 3406TIP3   OH210162   1.190   2.017   0.373
 3406TIP3    H110163   1.136   2.071   0.314
 3406TIP3    H210164   1.173   2.053   0.460
 3407TIP3   OH210165   2.507   4.942   5.702
 3407TIP3    H110166   2.522   5.032   5.671
 3407TIP3    H210167   2.530   4.945   5.795
 3408TIP3   OH210168   2.166   5.055   1.754
 3408TIP3    H110169   2.154   5.034   1.661
 3408TIP3    H210170   2.174   4.969   1.797
 3409TIP3   OH210171   8.203   4.974   1.317
 3409TIP3    H110172   8.242   5.048   1.271
 3409TIP3    H210173   8.195   5.003   1.408
 3410TIP3   OH210174   3.325   1.710   4.892
 3410TIP3    H110175   3.269   1.636   4.869
 3410TIP3    H210176   3.338   1.701   4.986
 3411TIP3   OH210177   2.237   0.462   1.090
 3411TIP3    H110178   2.310   0.427   1.038
 3411TIP3    H210179   2.274   0.538   1.135
 3412TIP3   OH210180   7.262   4.115   1.285
 3412TIP3    H110181   7.237   4.063   1.209
 3412TIP3    H210182   7.279   4.202   1.249
 3413TIP3   OH210183   8.267   2.038   0.624
 3413TIP3    H110184   8.271   2.064   0.533
 3413TIP3    H210185   8.202   1.968   0.627
 3414TIP3   OH210186   7.727   5.730   3.136
 3414TIP3    H110187   7.666   5.801   3.154
 3414TIP3    H210188   7.694   5.689   3.056
 3415TIP3   OH210189   7.108   4.565   2.963
 3415TIP3    H110190   7.089   4.482   2.919
 3415TIP3    H210191   7.070   4.555   3.050
 3416TIP3   OH210192   6.036   7.825   3.816
 3416TIP3    H110193   6.061   7.750   3.870
 3416TIP3    H210194   6.098   7.824   3.743
 3417TIP3   OH210195   4.008   4.348   6.785
 3417TIP3    H110196   4.051   4.430   6.758
 3417TIP3    H210197   3.923   4.350   6.742
 3418TIP3   OH210198   1.281   1.479   2.939
 3418TIP3    H110199   1.198   1.526   2.938
 3418TIP3    H210200   1.347   1.549   2.945
 3419TIP3   OH210201   5.451   7.669   6.708
 3419TIP3    H110202   5.517   7.735   6.725
 3419TIP3    H210203   5.391   7.709   6.645
 3420TIP3   OH210204   5.784   6.228   0.896
 3420TIP3    H110205   5.785   6.147   0.844
 3420TIP3    H210206   5.733   6.206   0.974
 3421TIP3   OH210207   3.246   7.567   2.590
 3421TIP3    H110208   3.232   7.472   2.595
 3421TIP3    H210209   3.293   7.581   2.508
 3422TIP3   OH210210   6.724   1.274   4.210
 3422TIP3    H110211   6.650   1.326   4.242
 3422TIP3    H210212   6.795   1.337   4.199
 3423TIP3   OH210213   4.730   2.581   4.670
 3423TIP3    H110214   4.654   2.545   4.626
 3423TIP3    H210215   4.805   2.539   4.628
 3424TIP3   OH210216   5.142   2.239   6.342
 3424TIP3    H110217   5.135   2.170   6.407
 3424TIP3    H210218   5.233   2.269   6.348
 3425TIP3   OH210219   1.050   4.215   1.512
 3425TIP3    H110220   0.958   4.187   1.516
 3425TIP3    H210221   1.095   4.144   1.467
 3426TIP3   OH210222   3.731   7.614   1.408
 3426TIP3    H110223   3.712   7.638   1.498
 3426TIP3    H210224   3.803   7.672   1.383
 3427TIP3   OH210225   5.280   0.306   3.760
 3427TIP3    H110226   5.249   0.378   3.706
 3427TIP3    H210227   5.202   0.277   3.809
 3428TIP3   OH210228   3.523   7.720   3.207
 3428TIP3    H110229   3.611   7.701   3.239
 3428TIP3    H210230   3.508   7.811   3.233
 3429TIP3   OH210231   2.236   7.536   3.470
 3429TIP3    H110232   2.307   7.483   3.435
 3429TIP3    H210233   2.250   7.623   3.434
 3430TIP3   OH210234   4.359   3.319   4.008
 3430TIP3    H110235   4.324   3.309   4.097
 3430TIP3    H210236   4.303   3.263   3.954
 3431TIP3   OH210237   4.768   2.402   2.546
 3431TIP3    H110238   4.741   2.310   2.546
 3431TIP3    H210239   4.836   2.406   2.614
 3432TIP3   OH210240   2.297   5.191   4.942
 3432TIP3    H110241   2.340   5.153   5.019
 3432TIP3    H210242   2.204   5.195   4.966
 3433TIP3   OH210243   3.996   6.423   5.194
 3433TIP3    H110244   4.067   6.447   5.135
 3433TIP3    H210245   4.009   6.478   5.271
 3434TIP3   OH210246   7.965   5.200   5.910
 3434TIP3    H110247   7.997   5.159   5.990
 3434TIP3    H210248   8.040   5.249   5.877
 3435TIP3   OH210249   5.355   5.202   5.240
 3435TIP3    H110250   5.398   5.201   5.155
 3435TIP3    H210251   5.332   5.110   5.256
 3436TIP3   OH210252   5.300   3.395   1.545
 3436TIP3    H110253   5.252   3.436   1.617
 3436TIP3    H210254   5.356   3.464   1.511
 3437TIP3   OH210255   4.101   5.900   3.363
 3437TIP3    H110256   4.046   5.840   3.313
 3437TIP3    H210257   4.045   5.931   3.434
 3438TIP3   OH210258   8.142   3.146   4.610
 3438TIP3    H110259   8.208   3.125   4.544
 3438TIP3    H210260   8.092   3.065   4.620
 3439TIP3   OH210261   7.320   0.406   6.549
 3439TIP3    H110262   7.348   0.358   6.627
 3439TIP3    H210263   7.226   0.394   6.546
 3440TIP3   OH210264   7.142   4.698   5.344
 3440TIP3    H110265   7.123   4.781   5.388
 3440TIP3    H210266   7.214   4.718   5.285
 3441TIP3   OH210267   4.441   5.571   0.486
 3441TIP3    H110268   4.399   5.562   0.400
 3441TIP3    H210269   4.376   5.615   0.540
 3442TIP3   OH210270   2.762   0.801   1.122
 3442TIP3    H110271   2.805   0.733   1.071
 3442TIP3    H210272   2.815   0.880   1.107
 3443TIP3   OH210273   5.506   4.987   5.772
 3443TIP3    H110274   5.546   5.063   5.815
 3443TIP3    H210275   5.543   4.988   5.684
 3444TIP3   OH210276   4.734   7.745   1.012
 3444TIP3    H110277   4.781   7.805   1.070
 3444TIP3    H210278   4.801   7.714   0.951
 3445TIP3   OH210279   1.702   6.860   4.130
 3445TIP3    H110280   1.674   6.789   4.188
 3445TIP3    H210281   1.693   6.825   4.042
 3446TIP3   OH210282   5.680   3.724   0.355
 3446TIP3    H110283   5.725   3.808   0.369
 3446TIP3    H210284   5.592   3.738   0.391
 3447TIP3   OH210285   8.037   7.318   5.613
 3447TIP3    H110286   8.004   7.256   5.547
 3447TIP3    H210287   7.983   7.396   5.602
 3448TIP3   OH210288   6.288   5.349   0.487
 3448TIP3    H110289   6.201   5.315   0.467
 3448TIP3    H210290   6.317   5.390   0.406
 3449TIP3   OH210291   6.220   6.415   1.205
 3449TIP3    H110292   6.134   6.424   1.164
 3449TIP3    H210293   6.203   6.368   1.286
 3450TIP3   OH210294   4.172   4.656   1.327
 3450TIP3    H110295   4.160   4.686   1.417
 3450TIP3    H210296   4.085   4.663   1.287
 3451TIP3   OH210297   8.094   7.783   3.748
 3451TIP3    H110298   8.061   7.758   3.834
 3451TIP3    H210299   8.183   7.816   3.765
 3452TIP3   OH210300   5.044   0.740   0.619
 3452TIP3    H110301   5.068   0.648   0.609
 3452TIP3    H210302   5.113   0.788   0.574
 3453TIP3   OH210303   0.887   0.747   5.808
 3453TIP3    H110304   0.849   0.745   5.720
 3453TIP3    H210305   0.977   0.718   5.795
 3454TIP3   OH210306   4.722   7.155   6.017
 3454TIP3    H110307   4.781   7.080   6.020
 3454TIP3    H210308   4.724   7.190   6.106
 3455TIP3   OH210309   5.756   5.459   0.703
 3455TIP3    H110310   5.852   5.461   0.706
 3455TIP3    H210311   5.737   5.399   0.631
 3456TIP3   OH210312   1.587   4.261   3.980
 3456TIP3    H110313   1.673   4.262   4.023
 3456TIP3    H210314   1.591   4.185   3.921
 3457TIP3   OH210315   7.389   7.720   3.667
 3457TIP3    H110316   7.335   7.799   3.672
 3457TIP3    H210317   7.326   7.648   3.656
 3458TIP3   OH210318   5.750   6.063   4.029
 3458TIP3    H110319   5.755   6.155   4.055
 3458TIP3    H210320   5.794   6.016   4.100
 3459TIP3   OH210321   4.597   2.273   6.640
 3459TIP3    H110322   4.578   2.366   6.625
 3459TIP3    H210323   4.676   2.256   6.589
 3460TIP3   OH210324   1.539   6.148   4.928
 3460TIP3    H110325   1.453   6.187   4.912
 3460TIP3    H210326   1.600   6.206   4.881
 3461TIP3   OH210327   7.900   1.585   6.001
 3461TIP3    H110328   7.846   1.579   6.080
 3461TIP3    H210329   7.990   1.583   6.034
 3462TIP3   OH210330   7.243   6.202   5.537
 3462TIP3    H110331   7.309   6.270   5.554
 3462TIP3    H210332   7.211   6.178   5.623
 3463TIP3   OH210333   0.332   1.036   6.059
 3463TIP3    H110334   0.268   0.964   6.061
 3463TIP3    H210335   0.330   1.068   5.968
 3464TIP3   OH210336   0.285   0.133   1.733
 3464TIP3    H110337   0.296   0.178   1.650
 3464TIP3    H210338   0.304   0.200   1.799
 3465TIP3   OH210339   4.602   2.714   0.393
 3465TIP3    H110340   4.622   2.808   0.385
 3465TIP3    H210341   4.598   2.699   0.487
 3466TIP3   OH210342   2.569   6.021   2.827
 3466TIP3    H110343   2.657   6.060   2.827
 3466TIP3    H210344   2.548   6.010   2.734
 3467TIP3   OH210345   7.312   1.658   0.091
 3467TIP3    H110346   7.287   1.567   0.105
 3467TIP3    H210347   7.281   1.678   0.003
 3468TIP3   OH210348   3.507   6.976   3.154
 3468TIP3    H110349   3.419   6.940   3.155
 3468TIP3    H210350   3.558   6.915   3.100
 3469TIP3   OH210351   7.428   1.987   1.215
 3469TIP3    H110352   7.398   2.069   1.175
 3469TIP3    H210353   7.523   1.999   1.226
 3470TIP3   OH210354   5.701   7.555   4.277
 3470TIP3    H110355   5.779   7.551   4.222
 3470TIP3    H210356   5.736   7.561   4.367
 3471TIP3   OH210357   4.307   4.930   6.262
 3471TIP3    H110358   4.212   4.919   6.266
 3471TIP3    H210359   4.342   4.846   6.292
 3472TIP3   OH210360   2.043   7.292   0.446
 3472TIP3    H110361   2.094   7.255   0.518
 3472TIP3    H210362   1.965   7.238   0.441
 3473TIP3   OH210363   5.925   5.238   6.068
 3473TIP3    H110364   5.901   5.150   6.041
 3473TIP3    H210365   5.843   5.288   6.064
 3474TIP3   OH210366   5.305   1.887   5.416
 3474TIP3    H110367   5.294   1.899   5.510
 3474TIP3    H210368   5.303   1.792   5.403
 3475TIP3   OH210369   1.587   6.178   3.328
 3475TIP3    H110370   1.643   6.144   3.397
 3475TIP3    H210371   1.645   6.230   3.272
 3476TIP3   OH210372   0.038   0.062   5.493
 3476TIP3    H110373   0.086  -0.019   5.510
 3476TIP3    H210374   0.032   0.104   5.579
 3477TIP3   OH210375   3.546   3.438   1.135
 3477TIP3    H110376   3.610   3.399   1.075
 3477TIP3    H210377   3.592   3.444   1.219
 3478TIP3   OH210378   0.965   3.150   6.696
 3478TIP3    H110379   0.960   3.173   6.788
 3478TIP3    H210380   0.956   3.233   6.650
 3479TIP3   OH210381   4.105   5.700   1.326
 3479TIP3    H110382   4.146   5.645   1.259
 3479TIP3    H210383   4.177   5.722   1.386
 3480TIP3   OH210384   1.972   1.861   0.035
 3480TIP3    H110385   1.878   1.865   0.053
 3480TIP3    H210386   2.011   1.832   0.118
 3481TIP3   OH210387   0.880   1.778   2.674
 3481TIP3    H110388   0.917   1.835   2.606
 3481TIP3    H210389   0.913   1.814   2.756
 3482TIP3   OH210390   1.295   4.663   0.406
 3482TIP3    H110391   1.240   4.741   0.399
 3482TIP3    H210392   1.233   4.592   0.426
 3483TIP3   OH210393   7.198   6.844   0.679
 3483TIP3    H110394   7.277   6.890   0.707
 3483TIP3    H210395   7.166   6.894   0.604
 3484TIP3   OH210396   3.458   6.302   0.765
 3484TIP3    H110397   3.480   6.209   0.756
 3484TIP3    H210398   3.442   6.331   0.675
 3485TIP3   OH210399   6.662   3.032   5.340
 3485TIP3    H110400   6.594   2.967   5.358
 3485TIP3    H210401   6.732   2.983   5.299
 3486TIP3   OH210402   6.471   1.436   4.584
 3486TIP3    H110403   6.462   1.401   4.673
 3486TIP3    H210404   6.383   1.464   4.561
 3487TIP3   OH210405   3.046   1.889   6.073
 3487TIP3    H110406   3.075   1.980   6.072
 3487TIP3    H210407   2.982   1.886   6.145
 3488TIP3   OH210408   2.483   6.749   5.165
 3488TIP3    H110409   2.576   6.750   5.143
 3488TIP3    H210410   2.456   6.841   5.162
 3489TIP3   OH210411   2.972   6.869   5.916
 3489TIP3    H110412   2.909   6.905   5.979
 3489TIP3    H210413   2.997   6.944   5.862
 3490TIP3   OH210414   8.087   5.890   0.545
 3490TIP3    H110415   8.049   5.805   0.523
 3490TIP3    H210416   8.032   5.954   0.499
 3491TIP3   OH210417   7.671   5.460   3.699
 3491TIP3    H110418   7.759   5.426   3.716
 3491TIP3    H210419   7.625   5.451   3.782
 3492TIP3   OH210420   4.845   0.261   6.475
 3492TIP3    H110421   4.771   0.323   6.477
 3492TIP3    H210422   4.808   0.178   6.504
 3493TIP3   OH210423   0.681   4.205   3.800
 3493TIP3    H110424   0.620   4.262   3.847
 3493TIP3    H210425   0.630   4.127   3.780
 3494TIP3   OH210426   4.023   7.393   4.967
 3494TIP3    H110427   4.113   7.406   4.937
 3494TIP3    H210428   3.973   7.379   4.888
 3495TIP3   OH210429   6.384   6.334   6.561
 3495TIP3    H110430   6.448   6.351   6.492
 3495TIP3    H210431   6.429   6.273   6.620
 3496TIP3   OH210432   1.251   0.568   0.887
 3496TIP3    H110433   1.346   0.573   0.874
 3496TIP3    H210434   1.226   0.485   0.847
 3497TIP3   OH210435   6.554   1.892   2.431
 3497TIP3    H110436   6.477   1.842   2.458
 3497TIP3    H210437   6.519   1.962   2.377
 3498TIP3   OH210438   5.507   7.649   5.125
 3498TIP3    H110439   5.500   7.735   5.168
 3498TIP3    H210440   5.417   7.627   5.101
 3499TIP3   OH210441   2.824   2.656   1.090
 3499TIP3    H110442   2.807   2.647   0.996
 3499TIP3    H210443   2.826   2.567   1.123
 3500TIP3   OH210444   2.370   6.950   0.750
 3500TIP3    H110445   2.406   7.017   0.809
 3500TIP3    H210446   2.448   6.910   0.711
 3501TIP3   OH210447   5.519   3.014   2.241
 3501TIP3    H110448   5.608   2.988   2.263
 3501TIP3    H210449   5.526   3.107   2.219
 3502TIP3   OH210450   7.850   2.914   1.116
 3502TIP3    H110451   7.939   2.946   1.103
 3502TIP3    H210452   7.795   2.992   1.119
 3503TIP3   OH210453   6.583   2.143   2.868
 3503TIP3    H110454   6.552   2.060   2.833
 3503TIP3    H210455   6.673   2.151   2.836
 3504TIP3   OH210456   2.857   6.186   1.261
 3504TIP3    H110457   2.819   6.266   1.297
 3504TIP3    H210458   2.802   6.167   1.184
 3505TIP3   OH210459   5.508   5.917   4.083
 3505TIP3    H110460   5.415   5.919   4.062
 3505TIP3    H210461   5.550   5.966   4.012
 3506TIP3   OH210462   7.634   4.462   0.861
 3506TIP3    H110463   7.639   4.405   0.938
 3506TIP3    H210464   7.544   4.495   0.861
 3507TIP3   OH210465   7.769   6.463   4.792
 3507TIP3    H110466   7.709   6.391   4.811
 3507TIP3    H210467   7.712   6.537   4.771
 3508TIP3   OH210468   4.465   0.775   2.820
 3508TIP3    H110469   4.397   0.712   2.844
 3508TIP3    H210470   4.420   0.841   2.768
 3509TIP3   OH210471   3.637   1.042   3.738
 3509TIP3    H110472   3.666   0.951   3.745
 3509TIP3    H210473   3.711   1.093   3.772
 3510TIP3   OH210474   3.837   3.068   1.483
 3510TIP3    H110475   3.891   3.145   1.503
 3510TIP3    H210476   3.806   3.082   1.394
 3511TIP3   OH210477   7.830   5.758   0.229
 3511TIP3    H110478   7.885   5.730   0.302
 3511TIP3    H210479   7.743   5.768   0.267
 3512TIP3   OH210480   8.205   5.996   4.099
 3512TIP3    H110481   8.122   5.950   4.110
 3512TIP3    H210482   8.265   5.929   4.068
 3513TIP3   OH210483   6.860   7.014   5.447
 3513TIP3    H110484   6.891   6.936   5.401
 3513TIP3    H210485   6.923   7.082   5.422
 3514TIP3   OH210486   0.666   0.404   2.840
 3514TIP3    H110487   0.666   0.328   2.783
 3514TIP3    H210488   0.755   0.406   2.877
 3515TIP3   OH210489   5.598   5.635   6.302
 3515TIP3    H110490   5.573   5.594   6.384
 3515TIP3    H210491   5.535   5.602   6.238
 3516TIP3   OH210492   2.079   4.464   2.780
 3516TIP3    H110493   1.999   4.413   2.768
 3516TIP3    H210494   2.075   4.531   2.712
 3517TIP3   OH210495   3.895   4.594   1.747
 3517TIP3    H110496   3.899   4.533   1.821
 3517TIP3    H210497   3.909   4.539   1.670
 3518TIP3   OH210498   7.438   0.890   3.102
 3518TIP3    H110499   7.346   0.909   3.084
 3518TIP3    H210500   7.461   0.822   3.039
 3519TIP3   OH210501   0.965   1.090   6.225
 3519TIP3    H110502   1.039   1.046   6.267
 3519TIP3    H210503   0.983   1.183   6.235
 3520TIP3   OH210504   2.072   6.851   2.720
 3520TIP3    H110505   2.009   6.887   2.783
 3520TIP3    H210506   2.090   6.763   2.752
 3521TIP3   OH210507   5.873   1.211   3.384
 3521TIP3    H110508   5.905   1.147   3.320
 3521TIP3    H210509   5.850   1.159   3.461
 3522TIP3   OH210510   8.210   0.725   4.933
 3522TIP3    H110511   8.190   0.808   4.974
 3522TIP3    H210512   8.168   0.659   4.988
 3523TIP3   OH210513   5.640   2.474   5.803
 3523TIP3    H110514   5.701   2.474   5.877
 3523TIP3    H210515   5.690   2.439   5.730
 3524TIP3   OH210516   4.976   3.381   2.682
 3524TIP3    H110517   5.007   3.385   2.592
 3524TIP3    H210518   4.894   3.332   2.678
 3525TIP3   OH210519   8.123   1.014   0.586
 3525TIP3    H110520   8.160   1.003   0.498
 3525TIP3    H210521   8.071   0.935   0.599
 3526TIP3   OH210522   0.836   7.705   2.632
 3526TIP3    H110523   0.742   7.716   2.643
 3526TIP3    H210524   0.861   7.769   2.566
 3527TIP3   OH210525   4.817   0.128   5.626
 3527TIP3    H110526   4.872   0.063   5.582
 3527TIP3    H210527   4.863   0.211   5.613
 3528TIP3   OH210528   1.387   2.538   3.357
 3528TIP3    H110529   1.445   2.466   3.383
 3528TIP3    H210530   1.421   2.568   3.273
 3529TIP3   OH210531   1.790   0.717   6.246
 3529TIP3    H110532   1.791   0.791   6.186
 3529TIP3    H210533   1.809   0.756   6.332
 3530TIP3   OH210534   4.036   4.753   4.635
 3530TIP3    H110535   4.131   4.757   4.640
 3530TIP3    H210536   4.013   4.670   4.676
 3531TIP3   OH210537   4.178   5.583   2.272
 3531TIP3    H110538   4.154   5.676   2.279
 3531TIP3    H210539   4.115   5.538   2.327
 3532TIP3   OH210540   3.561   2.558   0.396
 3532TIP3    H110541   3.603   2.542   0.480
 3532TIP3    H210542   3.533   2.650   0.401
 3533TIP3   OH210543   5.509   6.438   0.886
 3533TIP3    H110544   5.523   6.369   0.951
 3533TIP3    H210545   5.414   6.442   0.875
 3534TIP3   OH210546   5.719   5.111   6.498
 3534TIP3    H110547   5.699   5.076   6.412
 3534TIP3    H210548   5.725   5.033   6.555
 3535TIP3   OH210549   6.570   4.272   5.039
 3535TIP3    H110550   6.492   4.304   4.995
 3535TIP3    H210551   6.606   4.205   4.980
 3536TIP3   OH210552   4.397   3.003   1.838
 3536TIP3    H110553   4.348   3.063   1.781
 3536TIP3    H210554   4.489   3.014   1.812
 3537TIP3   OH210555   0.325   1.938   2.738
 3537TIP3    H110556   0.300   1.903   2.824
 3537TIP3    H210557   0.253   1.912   2.680
 3538TIP3   OH210558   7.580   0.003   5.626
 3538TIP3    H110559   7.526   0.076   5.597
 3538TIP3    H210560   7.651  -0.002   5.563
 3539TIP3   OH210561   5.834   5.177   1.488
 3539TIP3    H110562   5.809   5.248   1.428
 3539TIP3    H210563   5.792   5.099   1.452
 3540TIP3   OH210564   3.817   4.810   2.738
 3540TIP3    H110565   3.833   4.866   2.814
 3540TIP3    H210566   3.834   4.868   2.663
 3541TIP3   OH210567   1.571   6.954   5.865
 3541TIP3    H110568   1.580   6.996   5.951
 3541TIP3    H210569   1.503   7.005   5.821
 3542TIP3   OH210570   6.773   4.124   0.608
 3542TIP3    H110571   6.829   4.108   0.684
 3542TIP3    H210572   6.778   4.043   0.557
 3543TIP3   OH210573   5.210   0.407   4.276
 3543TIP3    H110574   5.267   0.417   4.200
 3543TIP3    H210575   5.262   0.442   4.349
 3544TIP3   OH210576   8.025   3.866   3.477
 3544TIP3    H110577   7.972   3.816   3.415
 3544TIP3    H210578   7.969   3.940   3.502
 3545TIP3   OH210579   8.287   4.251   4.384
 3545TIP3    H110580   8.330   4.310   4.445
 3545TIP3    H210581   8.211   4.301   4.352
 3546TIP3   OH210582   3.091   7.052   2.958
 3546TIP3    H110583   3.097   7.097   3.042
 3546TIP3    H210584   3.125   7.116   2.894
 3547TIP3   OH210585   4.538   5.115   2.699
 3547TIP3    H110586   4.463   5.057   2.683
 3547TIP3    H210587   4.548   5.164   2.617
 3548TIP3   OH210588   1.716   1.383   3.892
 3548TIP3    H110589   1.692   1.401   3.983
 3548TIP3    H210590   1.788   1.444   3.873
 3549TIP3   OH210591   6.366   6.232   4.661
 3549TIP3    H110592   6.389   6.324   4.669
 3549TIP3    H210593   6.273   6.228   4.683
 3550TIP3   OH210594   1.751   0.962   0.831
 3550TIP3    H110595   1.695   1.010   0.770
 3550TIP3    H210596   1.828   1.017   0.842
 3551TIP3   OH210597   6.185   4.393   5.013
 3551TIP3    H110598   6.247   4.466   5.003
 3551TIP3    H210599   6.125   4.403   4.939
 3552TIP3   OH210600   7.254   4.548   6.407
 3552TIP3    H110601   7.289   4.626   6.365
 3552TIP3    H210602   7.329   4.489   6.415
 3553TIP3   OH210603   4.543   4.048   1.690
 3553TIP3    H110604   4.519   4.053   1.783
 3553TIP3    H210605   4.544   4.139   1.660
 3554TIP3   OH210606   7.171   7.592   6.003
 3554TIP3    H110607   7.091   7.602   6.055
 3554TIP3    H210608   7.158   7.648   5.927
 3555TIP3   OH210609   6.857   4.745   6.171
 3555TIP3    H110610   6.799   4.731   6.097
 3555TIP3    H210611   6.811   4.708   6.246
 3556TIP3   OH210612   7.027   0.374   4.807
 3556TIP3    H110613   7.056   0.455   4.849
 3556TIP3    H210614   6.978   0.402   4.731
 3557TIP3   OH210615   2.318   6.857   2.962
 3557TIP3    H110616   2.286   6.946   2.977
 3557TIP3    H210617   2.407   6.868   2.929
 3558TIP3   OH210618   0.541   7.120   4.220
 3558TIP3    H110619   0.589   7.143   4.140
 3558TIP3    H210620   0.596   7.057   4.265
 3559TIP3   OH210621   4.515   5.994   6.132
 3559TIP3    H110622   4.447   6.004   6.065
 3559TIP3    H210623   4.581   6.059   6.110
 3560TIP3   OH210624   1.549   0.310   5.170
 3560TIP3    H110625   1.639   0.338   5.184
 3560TIP3    H210626   1.514   0.372   5.105
 3561TIP3   OH210627   7.157   0.694   1.393
 3561TIP3    H110628   7.117   0.683   1.307
 3561TIP3    H210629   7.089   0.668   1.455
 3562TIP3   OH210630   0.658   3.376   5.962
 3562TIP3    H110631   0.578   3.341   6.001
 3562TIP3    H210632   0.673   3.459   6.007
 3563TIP3   OH210633   3.636   5.114   4.684
 3563TIP3    H110634   3.646   5.183   4.749
 3563TIP3    H210635   3.546   5.084   4.694
 3564TIP3   OH210636   6.123   4.807   0.743
 3564TIP3    H110637   6.205   4.759   0.740
 3564TIP3    H210638   6.128   4.869   0.670
 3565TIP3   OH210639   2.509   5.990   3.700
 3565TIP3    H110640   2.601   6.010   3.683
 3565TIP3    H210641   2.483   5.932   3.627
 3566TIP3   OH210642   8.110   2.989   2.917
 3566TIP3    H110643   8.028   3.022   2.880
 3566TIP3    H210644   8.169   3.065   2.914
 3567TIP3   OH210645   1.571   0.761   5.752
 3567TIP3    H110646   1.484   0.737   5.721
 3567TIP3    H210647   1.594   0.693   5.815
 3568TIP3   OH210648   0.196   7.423   1.417
 3568TIP3    H110649   0.209   7.405   1.510
 3568TIP3    H210650   0.280   7.458   1.388
 3569TIP3   OH210651   3.565   6.374   5.496
 3569TIP3    H110652   3.493   6.312   5.502
 3569TIP3    H210653   3.640   6.321   5.467
 3570TIP3   OH210654   1.398   1.897   3.209
 3570TIP3    H110655   1.411   1.901   3.304
 3570TIP3    H210656   1.341   1.822   3.195
 3571TIP3   OH210657   7.236   4.025   2.985
 3571TIP3    H110658   7.162   3.972   2.957
 3571TIP3    H210659   7.197   4.106   3.019
 3572TIP3   OH210660   0.903   6.687   0.416
 3572TIP3    H110661   0.969   6.691   0.485
 3572TIP3    H210662   0.926   6.610   0.364
 3573TIP3   OH210663   3.011   7.085   4.994
 3573TIP3    H110664   3.090   7.034   5.007
 3573TIP3    H210665   2.977   7.056   4.909
 3574TIP3   OH210666   2.528   3.932   4.275
 3574TIP3    H110667   2.501   3.892   4.192
 3574TIP3    H210668   2.588   3.868   4.313
 3575TIP3   OH210669   4.381   4.414   5.977
 3575TIP3    H110670   4.323   4.343   6.006
 3575TIP3    H210671   4.335   4.455   5.904
 3576TIP3   OH210672   3.012   3.081   6.074
 3576TIP3    H110673   3.051   3.137   6.007
 3576TIP3    H210674   3.062   2.999   6.070
 3577TIP3   OH210675   7.004   4.586   5.116
 3577TIP3    H110676   7.055   4.644   5.058
 3577TIP3    H210677   7.033   4.609   5.204
 3578TIP3   OH210678   6.967   0.595   1.568
 3578TIP3    H110679   6.884   0.640   1.553
 3578TIP3    H210680   6.943   0.503   1.582
 3579TIP3   OH210681   7.291   5.221   4.165
 3579TIP3    H110682   7.320   5.170   4.240
 3579TIP3    H210683   7.370   5.237   4.114
 3580TIP3   OH210684   7.276   1.070   0.739
 3580TIP3    H110685   7.186   1.085   0.709
 3580TIP3    H210686   7.270   1.069   0.834
 3581TIP3   OH210687   5.140   4.486   4.734
 3581TIP3    H110688   5.055   4.529   4.735
 3581TIP3    H210689   5.164   4.477   4.826
 3582TIP3   OH210690   7.925   3.886   3.938
 3582TIP3    H110691   7.961   3.816   3.885
 3582TIP3    H210692   7.907   3.845   4.023
 3583TIP3   OH210693   7.475   1.250   2.821
 3583TIP3    H110694   7.517   1.165   2.808
 3583TIP3    H210695   7.542   1.313   2.795
 3584TIP3   OH210696   3.383   5.885   5.420
 3584TIP3    H110697   3.410   5.844   5.338
 3584TIP3    H210698   3.448   5.856   5.484
 3585TIP3   OH210699   3.912   2.429   4.928
 3585TIP3    H110700   3.976   2.431   4.999
 3585TIP3    H210701   3.848   2.363   4.954
 3586TIP3   OH210702   2.870   1.999   3.037
 3586TIP3    H110703   2.958   1.970   3.061
 3586TIP3    H210704   2.861   2.086   3.076
 3587TIP3   OH210705   2.474   5.581   3.548
 3587TIP3    H110706   2.415   5.576   3.624
 3587TIP3    H210707   2.426   5.535   3.479
 3588TIP3   OH210708   3.453   2.514   5.627
 3588TIP3    H110709   3.438   2.492   5.719
 3588TIP3    H210710   3.461   2.610   5.626
 3589TIP3   OH210711   6.150   7.160   1.661
 3589TIP3    H110712   6.071   7.178   1.610
 3589TIP3    H210713   6.118   7.112   1.738
 3590TIP3   OH210714   4.439   1.475   5.209
 3590TIP3    H110715   4.433   1.446   5.300
 3590TIP3    H210716   4.427   1.395   5.157
 3591TIP3   OH210717   5.563   6.365   4.157
 3591TIP3    H110718   5.499   6.406   4.099
 3591TIP3    H210719   5.583   6.433   4.222
 3592TIP3   OH210720   5.445   2.541   3.113
 3592TIP3    H110721   5.378   2.581   3.057
 3592TIP3    H210722   5.421   2.567   3.202
 3593TIP3   OH210723   8.124   4.724   4.334
 3593TIP3    H110724   8.218   4.725   4.348
 3593TIP3    H210725   8.086   4.743   4.419
 3594TIP3   OH210726   2.579   0.289   5.386
 3594TIP3    H110727   2.630   0.218   5.425
 3594TIP3    H210728   2.622   0.306   5.302
 3595TIP3   OH210729   1.864   7.621   2.798
 3595TIP3    H110730   1.922   7.624   2.873
 3595TIP3    H210731   1.825   7.709   2.794
 3596TIP3   OH210732   0.215   4.030   0.995
 3596TIP3    H110733   0.280   4.029   0.925
 3596TIP3    H210734   0.142   3.978   0.960
 3597TIP3   OH210735   7.606   3.510   2.086
 3597TIP3    H110736   7.531   3.452   2.078
 3597TIP3    H210737   7.670   3.461   2.137
 3598TIP3   OH210738   3.721   2.904   4.788
 3598TIP3    H110739   3.720   2.813   4.758
 3598TIP3    H210740   3.666   2.951   4.725
 3599TIP3   OH210741   0.817   7.776   2.313
 3599TIP3    H110742   0.883   7.802   2.377
 3599TIP3    H210743   0.752   7.846   2.316
 3600TIP3   OH210744   8.148   2.851   6.425
 3600TIP3    H110745   8.229   2.903   6.432
 3600TIP3    H210746   8.175   2.770   6.382
 3601TIP3   OH210747   6.141   6.657   1.313
 3601TIP3    H110748   6.057   6.618   1.339
 3601TIP3    H210749   6.199   6.582   1.299
 3602TIP3   OH210750   6.294   7.242   3.940
 3602TIP3    H110751   6.327   7.154   3.957
 3602TIP3    H210752   6.332   7.297   4.008
 3603TIP3   OH210753   4.837   2.331   3.445
 3603TIP3    H110754   4.759   2.386   3.435
 3603TIP3    H210755   4.860   2.306   3.355
 3604TIP3   OH210756   7.075   1.373   1.769
 3604TIP3    H110757   7.067   1.465   1.794
 3604TIP3    H210758   7.127   1.375   1.689
 3605TIP3   OH210759   7.264   7.449   3.631
 3605TIP3    H110760   7.263   7.436   3.726
 3605TIP3    H210761   7.179   7.415   3.601
 3606TIP3   OH210762   2.697   0.693   0.350
 3606TIP3    H110763   2.712   0.769   0.406
 3606TIP3    H210764   2.672   0.730   0.265
 3607TIP3   OH210765   1.273   3.168   2.717
 3607TIP3    H110766   1.233   3.159   2.630
 3607TIP3    H210767   1.318   3.252   2.714
 3608TIP3   OH210768   0.597   1.767   0.263
 3608TIP3    H110769   0.674   1.797   0.312
 3608TIP3    H210770   0.600   1.672   0.269
 3609TIP3   OH210771   0.696   4.819   1.084
 3609TIP3    H110772   0.660   4.869   1.011
 3609TIP3    H210773   0.788   4.806   1.061
 3610TIP3   OH210774   7.691   7.488   1.290
 3610TIP3    H110775   7.628   7.524   1.227
 3610TIP3    H210776   7.762   7.553   1.293
 3611TIP3   OH210777   0.751   5.140   5.093
 3611TIP3    H110778   0.809   5.098   5.157
 3611TIP3    H210779   0.810   5.180   5.030
 3612TIP3   OH210780   3.222   3.757   4.148
 3612TIP3    H110781   3.251   3.830   4.203
 3612TIP3    H210782   3.184   3.694   4.209
 3613TIP3   OH210783   2.007   6.119   3.507
 3613TIP3    H110784   2.034   6.045   3.452
 3613TIP3    H210785   2.077   6.183   3.496
 3614TIP3   OH210786   1.522   0.232   0.479
 3614TIP3    H110787   1.585   0.238   0.408
 3614TIP3    H210788   1.524   0.140   0.505
 3615TIP3   OH210789   5.326   3.285   2.525
 3615TIP3    H110790   5.316   3.380   2.530
 3615TIP3    H210791   5.306   3.254   2.613
 3616TIP3   OH210792   1.027   3.159   5.695
 3616TIP3    H110793   1.006   3.097   5.766
 3616TIP3    H210794   1.061   3.103   5.625
 3617TIP3   OH210795   1.898   5.588   0.351
 3617TIP3    H110796   1.964   5.653   0.376
 3617TIP3    H210797   1.948   5.509   0.330
 3618TIP3   OH210798   3.365   3.942   3.696
 3618TIP3    H110799   3.381   3.869   3.755
 3618TIP3    H210800   3.290   3.915   3.644
 3619TIP3   OH210801   6.545   3.296   5.690
 3619TIP3    H110802   6.472   3.348   5.658
 3619TIP3    H210803   6.596   3.274   5.612
 3620TIP3   OH210804   4.840   3.601   0.971
 3620TIP3    H110805   4.891   3.575   0.895
 3620TIP3    H210806   4.799   3.684   0.946
 3621TIP3   OH210807   2.748   4.580   2.423
 3621TIP3    H110808   2.709   4.553   2.506
 3621TIP3    H210809   2.840   4.597   2.444
 3622TIP3   OH210810   5.594   3.496   5.822
 3622TIP3    H110811   5.561   3.417   5.781
 3622TIP3    H210812   5.666   3.467   5.877
 3623TIP3   OH210813   2.707   4.513   0.294
 3623TIP3    H110814   2.626   4.543   0.252
 3623TIP3    H210815   2.733   4.436   0.243
 3624TIP3   OH210816   3.948   2.718   3.944
 3624TIP3    H110817   3.930   2.811   3.935
 3624TIP3    H210818   3.942   2.702   4.039
 3625TIP3   OH210819   0.531   5.587   4.325
 3625TIP3    H110820   0.570   5.674   4.337
 3625TIP3    H210821   0.476   5.575   4.403
 3626TIP3   OH210822   7.883   6.644   5.160
 3626TIP3    H110823   7.846   6.706   5.098
 3626TIP3    H210824   7.946   6.593   5.109
 3627TIP3   OH210825   3.495   5.311   3.005
 3627TIP3    H110826   3.521   5.314   3.097
 3627TIP3    H210827   3.568   5.268   2.961
 3628TIP3   OH210828   5.123   3.323   0.405
 3628TIP3    H110829   5.034   3.354   0.389
 3628TIP3    H210830   5.112   3.242   0.453
 3629TIP3   OH210831   1.522   5.535   4.545
 3629TIP3    H110832   1.455   5.598   4.572
 3629TIP3    H210833   1.493   5.506   4.458
 3630TIP3   OH210834   4.720   1.474   0.536
 3630TIP3    H110835   4.682   1.413   0.599
 3630TIP3    H210836   4.682   1.448   0.452
 3631TIP3   OH210837   5.471   6.364   4.761
 3631TIP3    H110838   5.566   6.356   4.767
 3631TIP3    H210839   5.437   6.287   4.808
 3632TIP3   OH210840   6.150   4.762   1.878
 3632TIP3    H110841   6.197   4.845   1.877
 3632TIP3    H210842   6.150   4.734   1.786
 3633TIP3   OH210843   2.799   2.686   2.641
 3633TIP3    H110844   2.834   2.597   2.645
 3633TIP3    H210845   2.808   2.711   2.549
 3634TIP3   OH210846   7.839   0.148   2.410
 3634TIP3    H110847   7.902   0.092   2.364
 3634TIP3    H210848   7.856   0.133   2.503
 3635TIP3   OH210849   7.984   6.198   5.899
 3635TIP3    H110850   7.975   6.203   5.994
 3635TIP3    H210851   7.951   6.282   5.866
 3636TIP3   OH210852   1.207   1.111   3.942
 3636TIP3    H110853   1.275   1.110   3.875
 3636TIP3    H210854   1.230   1.185   3.998
 3637TIP3   OH210855   2.480   7.489   1.026
 3637TIP3    H110856   2.528   7.558   0.980
 3637TIP3    H210857   2.534   7.470   1.103
 3638TIP3   OH210858   3.560   1.089   5.745
 3638TIP3    H110859   3.528   1.177   5.764
 3638TIP3    H210860   3.501   1.057   5.677
 3639TIP3   OH210861   7.433   3.868   6.316
 3639TIP3    H110862   7.366   3.937   6.325
 3639TIP3    H210863   7.386   3.796   6.274
 3640TIP3   OH210864   0.389   3.822   3.131
 3640TIP3    H110865   0.418   3.864   3.050
 3640TIP3    H210866   0.336   3.888   3.176
 3641TIP3   OH210867   2.557   2.273   0.094
 3641TIP3    H110868   2.614   2.340   0.056
 3641TIP3    H210869   2.507   2.239   0.019
 3642TIP3   OH210870   7.618   3.598   6.176
 3642TIP3    H110871   7.588   3.621   6.264
 3642TIP3    H210872   7.621   3.502   6.176
 3643TIP3   OH210873   1.145   6.087   3.771
 3643TIP3    H110874   1.127   6.181   3.768
 3643TIP3    H210875   1.174   6.065   3.683
 3644TIP3   OH210876   2.150   2.688   4.070
 3644TIP3    H110877   2.209   2.700   4.145
 3644TIP3    H210878   2.064   2.717   4.102
 3645TIP3   OH210879   6.119   5.951   3.163
 3645TIP3    H110880   6.087   5.970   3.251
 3645TIP3    H210881   6.041   5.928   3.113
 3646TIP3   OH210882   5.386   4.718   0.134
 3646TIP3    H110883   5.348   4.801   0.104
 3646TIP3    H210884   5.382   4.661   0.056
 3647TIP3   OH210885   7.762   5.383   1.739
 3647TIP3    H110886   7.687   5.334   1.773
 3647TIP3    H210887   7.766   5.462   1.793
 3648TIP3   OH210888   0.534   0.059   6.419
 3648TIP3    H110889   0.451   0.032   6.381
 3648TIP3    H210890   0.521   0.051   6.513
 3649TIP3   OH210891   7.871   2.168   5.724
 3649TIP3    H110892   7.814   2.092   5.734
 3649TIP3    H210893   7.814   2.243   5.745
 3650TIP3   OH210894   7.185   7.620   1.476
 3650TIP3    H110895   7.240   7.550   1.511
 3650TIP3    H210896   7.097   7.582   1.471
 3651TIP3   OH210897   6.515   3.615   6.056
 3651TIP3    H110898   6.578   3.629   5.985
 3651TIP3    H210899   6.449   3.556   6.018
 3652TIP3   OH210900   4.670   5.640   5.936
 3652TIP3    H110901   4.621   5.614   5.859
 3652TIP3    H210902   4.607   5.686   5.991
 3653TIP3   OH210903   0.278   3.785   2.796
 3653TIP3    H110904   0.260   3.841   2.720
 3653TIP3    H210905   0.363   3.814   2.828
 3654TIP3   OH210906   3.015   0.947   0.342
 3654TIP3    H110907   2.995   0.896   0.421
 3654TIP3    H210908   2.996   1.037   0.366
 3655TIP3   OH210909   8.276   4.130   2.197
 3655TIP3    H110910   8.209   4.108   2.133
 3655TIP3    H210911   8.359   4.105   2.155
 3656TIP3   OH210912   6.163   1.240   1.837
 3656TIP3    H110913   6.132   1.303   1.771
 3656TIP3    H210914   6.160   1.288   1.919
 3657TIP3   OH210915   0.944   2.412   3.643
 3657TIP3    H110916   0.996   2.478   3.596
 3657TIP3    H210917   0.985   2.406   3.729
 3658TIP3   OH210918   7.412   3.534   2.499
 3658TIP3    H110919   7.413   3.451   2.453
 3658TIP3    H210920   7.492   3.578   2.470
 3659TIP3   OH210921   6.523   3.307   6.744
 3659TIP3    H110922   6.603   3.262   6.720
 3659TIP3    H210923   6.472   3.310   6.663
 3660TIP3   OH210924   0.688   6.988   3.206
 3660TIP3    H110925   0.776   6.996   3.170
 3660TIP3    H210926   0.634   6.959   3.133
 3661TIP3   OH210927   1.967   2.620   4.718
 3661TIP3    H110928   1.889   2.669   4.692
 3661TIP3    H210929   1.938   2.529   4.720
 3662TIP3   OH210930   4.596   0.229   1.297
 3662TIP3    H110931   4.682   0.270   1.308
 3662TIP3    H210932   4.536   0.288   1.344
 3663TIP3   OH210933   1.954   4.651   3.441
 3663TIP3    H110934   1.900   4.601   3.501
 3663TIP3    H210935   1.972   4.733   3.487
 3664TIP3   OH210936   1.876   5.449   4.060
 3664TIP3    H110937   1.959   5.496   4.067
 3664TIP3    H210938   1.894   5.379   3.997
 3665TIP3   OH210939   4.941   0.356   5.508
 3665TIP3    H110940   4.979   0.423   5.565
 3665TIP3    H210941   4.962   0.384   5.419
 3666TIP3   OH210942   5.292   6.902   6.188
 3666TIP3    H110943   5.218   6.931   6.134
 3666TIP3    H210944   5.369   6.941   6.146
 3667TIP3   OH210945   6.374   7.639   0.150
 3667TIP3    H110946   6.332   7.557   0.175
 3667TIP3    H210947   6.361   7.697   0.225
 3668TIP3   OH210948   7.938   5.369   2.453
 3668TIP3    H110949   7.979   5.367   2.539
 3668TIP3    H210950   7.853   5.409   2.468
 3669TIP3   OH210951   5.885   6.851   4.598
 3669TIP3    H110952   5.958   6.912   4.588
 3669TIP3    H210953   5.832   6.888   4.670
 3670TIP3   OH210954   7.671   0.262   3.823
 3670TIP3    H110955   7.693   0.235   3.912
 3670TIP3    H210956   7.726   0.338   3.806
 3671TIP3   OH210957   1.807   6.244   5.954
 3671TIP3    H110958   1.715   6.226   5.973
 3671TIP3    H210959   1.832   6.176   5.891
 3672TIP3   OH210960   0.234   7.704   2.097
 3672TIP3    H110961   0.201   7.657   2.021
 3672TIP3    H210962   0.184   7.669   2.171
 3673TIP3   OH210963   4.439   5.806   4.048
 3673TIP3    H110964   4.472   5.887   4.010
 3673TIP3    H210965   4.344   5.813   4.040
 3674TIP3   OH210966   5.270   0.487   5.747
 3674TIP3    H110967   5.178   0.511   5.752
 3674TIP3    H210968   5.286   0.471   5.654
 3675TIP3   OH210969   2.464   2.111   6.336
 3675TIP3    H110970   2.458   2.136   6.428
 3675TIP3    H210971   2.534   2.165   6.300
 3676TIP3   OH210972   4.913   6.721   0.239
 3676TIP3    H110973   4.917   6.671   0.320
 3676TIP3    H210974   4.978   6.680   0.182
 3677TIP3   OH210975   1.419   5.004   1.635
 3677TIP3    H110976   1.355   5.075   1.629
 3677TIP3    H210977   1.430   4.973   1.545
 3678TIP3   OH210978   4.885   4.920   1.826
 3678TIP3    H110979   4.979   4.901   1.836
 3678TIP3    H210980   4.844   4.872   1.898
 3679TIP3   OH210981   5.267   7.375   3.040
 3679TIP3    H110982   5.283   7.289   3.002
 3679TIP3    H210983   5.203   7.359   3.110
 3680TIP3   OH210984   8.019   1.906   5.779
 3680TIP3    H110985   8.034   1.969   5.848
 3680TIP3    H210986   8.024   1.957   5.698
 3681TIP3   OH210987   2.319   2.125   4.077
 3681TIP3    H110988   2.410   2.109   4.053
 3681TIP3    H210989   2.294   2.202   4.026
 3682TIP3   OH210990   6.684   3.604   4.921
 3682TIP3    H110991   6.670   3.537   4.854
 3682TIP3    H210992   6.696   3.685   4.872
 3683TIP3   OH210993   4.361   1.373   4.673
 3683TIP3    H110994   4.268   1.351   4.681
 3683TIP3    H210995   4.407   1.300   4.715
 3684TIP3   OH210996   7.638   0.234   4.807
 3684TIP3    H110997   7.722   0.221   4.761
 3684TIP3    H210998   7.589   0.293   4.749
 3685TIP3   OH210999   1.315   7.510   2.271
 3685TIP3    H111000   1.276   7.551   2.348
 3685TIP3    H211001   1.251   7.524   2.201
 3686TIP3   OH211002   7.123   1.281   4.241
 3686TIP3    H111003   7.181   1.235   4.302
 3686TIP3    H211004   7.123   1.372   4.273
 3687TIP3   OH211005   1.960   4.683   1.551
 3687TIP3    H111006   1.934   4.603   1.505
 3687TIP3    H211007   2.054   4.674   1.565
 3688TIP3   OH211008   3.708   6.862   3.380
 3688TIP3    H111009   3.788   6.851   3.328
 3688TIP3    H211010   3.641   6.885   3.316
 3689TIP3   OH211011   4.647   5.576   5.385
 3689TIP3    H111012   4.705   5.644   5.419
 3689TIP3    H211013   4.560   5.601   5.417
 3690TIP3   OH211014   5.686   7.060   4.057
 3690TIP3    H111015   5.728   7.012   3.986
 3690TIP3    H211016   5.647   6.992   4.112
 3691TIP3   OH211017   4.457   0.822   1.977
 3691TIP3    H111018   4.529   0.850   1.921
 3691TIP3    H211019   4.483   0.735   2.008
 3692TIP3   OH211020   3.567   4.767   6.239
 3692TIP3    H111021   3.609   4.762   6.325
 3692TIP3    H211022   3.482   4.806   6.256
 3693TIP3   OH211023   7.429   7.741   4.691
 3693TIP3    H111024   7.355   7.691   4.725
 3693TIP3    H211025   7.390   7.804   4.631
 3694TIP3   OH211026   0.760   0.176   3.906
 3694TIP3    H111027   0.843   0.129   3.897
 3694TIP3    H211028   0.695   0.107   3.924
 3695TIP3   OH211029   3.531   1.902   3.877
 3695TIP3    H111030   3.478   1.961   3.929
 3695TIP3    H211031   3.581   1.852   3.941
 3696TIP3   OH211032   4.791   1.341   5.203
 3696TIP3    H111033   4.785   1.431   5.234
 3696TIP3    H211034   4.835   1.348   5.118
 3697TIP3   OH211035   7.448   3.077   6.485
 3697TIP3    H111036   7.431   3.068   6.391
 3697TIP3    H211037   7.457   2.986   6.516
 3698TIP3   OH211038   0.946   7.287   2.802
 3698TIP3    H111039   0.976   7.211   2.753
 3698TIP3    H211040   1.027   7.336   2.821
 3699TIP3   OH211041   7.993   3.814   2.639
 3699TIP3    H111042   7.978   3.759   2.562
 3699TIP3    H211043   8.082   3.846   2.629
 3700TIP3   OH211044   0.491   1.793   4.367
 3700TIP3    H111045   0.482   1.732   4.294
 3700TIP3    H211046   0.564   1.757   4.419
 3701TIP3   OH211047   6.214   4.977   6.599
 3701TIP3    H111048   6.215   4.882   6.613
 3701TIP3    H211049   6.291   5.009   6.646
 3702TIP3   OH211050   6.862   7.782   2.896
 3702TIP3    H111051   6.889   7.699   2.935
 3702TIP3    H211052   6.798   7.818   2.957
 3703TIP3   OH211053   7.528   1.809   4.777
 3703TIP3    H111054   7.501   1.759   4.854
 3703TIP3    H211055   7.622   1.797   4.773
 3704TIP3   OH211056   1.930   1.084   3.913
 3704TIP3    H111057   1.858   1.060   3.855
 3704TIP3    H211058   1.948   1.006   3.964
 3705TIP3   OH211059   5.229   3.010   1.367
 3705TIP3    H111060   5.286   2.951   1.318
 3705TIP3    H211061   5.181   2.953   1.427
 3706TIP3   OH211062   6.935   1.725   6.022
 3706TIP3    H111063   6.995   1.750   5.952
 3706TIP3    H211064   6.989   1.674   6.083
 3707TIP3   OH211065   0.326   4.111   4.176
 3707TIP3    H111066   0.341   4.203   4.152
 3707TIP3    H211067   0.347   4.063   4.096
 3708TIP3   OH211068   4.470   6.056   1.321
 3708TIP3    H111069   4.515   6.112   1.384
 3708TIP3    H211070   4.381   6.047   1.355
 3709TIP3   OH211071   5.682   7.181   0.492
 3709TIP3    H111072   5.737   7.201   0.416
 3709TIP3    H211073   5.600   7.228   0.475
 3710TIP3   OH211074   7.338   3.750   2.281
 3710TIP3    H111075   7.328   3.670   2.332
 3710TIP3    H211076   7.362   3.817   2.346
 3711TIP3   OH211077   0.416   3.326   2.412
 3711TIP3    H111078   0.463   3.375   2.479
 3711TIP3    H211079   0.350   3.386   2.379
 3712TIP3   OH211080   2.235   2.435   1.562
 3712TIP3    H111081   2.209   2.345   1.543
 3712TIP3    H211082   2.319   2.446   1.516
 3713TIP3   OH211083   4.794   1.962   5.917
 3713TIP3    H111084   4.721   1.969   5.854
 3713TIP3    H211085   4.869   1.999   5.871
 3714TIP3   OH211086   0.060   0.938   5.264
 3714TIP3    H111087   0.108   1.009   5.220
 3714TIP3    H211088  -0.011   0.917   5.204
 3715TIP3   OH211089   4.136   5.091   4.332
 3715TIP3    H111090   4.078   5.135   4.270
 3715TIP3    H211091   4.222   5.130   4.315
 3716TIP3   OH211092   8.057   0.258   0.037
 3716TIP3    H111093   8.102   0.216  -0.036
 3716TIP3    H211094   8.037   0.346   0.005
 3717TIP3   OH211095   2.926   0.220   1.284
 3717TIP3    H111096   2.852   0.188   1.233
 3717TIP3    H211097   3.000   0.166   1.256
 3718TIP3   OH211098   6.180   2.187   4.388
 3718TIP3    H111099   6.125   2.132   4.444
 3718TIP3    H211100   6.263   2.141   4.383
 3719TIP3   OH211101   5.400   3.346   5.156
 3719TIP3    H111102   5.439   3.304   5.233
 3719TIP3    H211103   5.308   3.356   5.178
 3720TIP3   OH211104   0.186   5.121   2.621
 3720TIP3    H111105   0.264   5.070   2.600
 3720TIP3    H211106   0.192   5.138   2.715
 3721TIP3   OH211107   4.606   2.634   1.802
 3721TIP3    H111108   4.590   2.658   1.711
 3721TIP3    H211109   4.615   2.539   1.801
 3722TIP3   OH211110   5.963   2.574   0.406
 3722TIP3    H111111   5.876   2.612   0.421
 3722TIP3    H211112   6.022   2.631   0.454
 3723TIP3   OH211113   1.680   5.252   1.305
 3723TIP3    H111114   1.730   5.302   1.241
 3723TIP3    H211115   1.693   5.161   1.281
 3724TIP3   OH211116   6.824   6.973   6.547
 3724TIP3    H111117   6.756   6.982   6.614
 3724TIP3    H211118   6.864   6.887   6.564
 3725TIP3   OH211119   5.702   3.495   2.658
 3725TIP3    H111120   5.734   3.412   2.692
 3725TIP3    H211121   5.635   3.522   2.720
 3726TIP3   OH211122   0.918   7.629   3.429
 3726TIP3    H111123   0.958   7.601   3.347
 3726TIP3    H211124   0.824   7.627   3.412
 3727TIP3   OH211125   4.962   6.115   4.884
 3727TIP3    H111126   4.999   6.070   4.807
 3727TIP3    H211127   5.001   6.070   4.959
 3728TIP3   OH211128   4.239   5.396   3.098
 3728TIP3    H111129   4.293   5.329   3.056
 3728TIP3    H211130   4.234   5.467   3.034
 3729TIP3   OH211131   1.759   1.529   5.975
 3729TIP3    H111132   1.740   1.581   5.897
 3729TIP3    H211133   1.813   1.585   6.029
 3730TIP3   OH211134   3.117   0.346   6.466
 3730TIP3    H111135   3.091   0.260   6.501
 3730TIP3    H211136   3.074   0.351   6.380
 3731TIP3   OH211137   7.712   1.982   3.025
 3731TIP3    H111138   7.646   2.018   3.084
 3731TIP3    H211139   7.775   1.938   3.083
 3732TIP3   OH211140   5.807   4.161   4.177
 3732TIP3    H111141   5.791   4.249   4.143
 3732TIP3    H211142   5.894   4.167   4.217
 3733TIP3   OH211143   7.402   0.727   1.813
 3733TIP3    H111144   7.354   0.748   1.893
 3733TIP3    H211145   7.373   0.638   1.790
 3734TIP3   OH211146   7.559   5.095   5.095
 3734TIP3    H111147   7.592   5.169   5.043
 3734TIP3    H211148   7.628   5.079   5.159
 3735TIP3   OH211149   7.373   2.532   3.593
 3735TIP3    H111150   7.464   2.560   3.591
 3735TIP3    H211151   7.324   2.605   3.555
 3736TIP3   OH211152   2.962   7.477   3.841
 3736TIP3    H111153   2.896   7.516   3.785
 3736TIP3    H211154   2.927   7.485   3.930
 3737TIP3   OH211155   6.156   2.335   5.399
 3737TIP3    H111156   6.168   2.240   5.393
 3737TIP3    H211157   6.122   2.360   5.313
 3738TIP3   OH211158   2.461   1.115   5.497
 3738TIP3    H111159   2.424   1.089   5.413
 3738TIP3    H211160   2.394   1.171   5.536
 3739TIP3   OH211161   6.419   7.230   0.667
 3739TIP3    H111162   6.465   7.146   0.665
 3739TIP3    H211163   6.347   7.216   0.729
 3740TIP3   OH211164   3.238   0.352   2.268
 3740TIP3    H111165   3.195   0.382   2.348
 3740TIP3    H211166   3.205   0.411   2.200
 3741TIP3   OH211167   2.039   0.623   3.840
 3741TIP3    H111168   2.058   0.715   3.858
 3741TIP3    H211169   1.953   0.608   3.878
 3742TIP3   OH211170   3.376   5.868   4.464
 3742TIP3    H111171   3.317   5.943   4.459
 3742TIP3    H211172   3.331   5.805   4.521
 3743TIP3   OH211173   6.435   2.740   0.538
 3743TIP3    H111174   6.346   2.717   0.566
 3743TIP3    H211175   6.447   2.692   0.456
 3744TIP3   OH211176   3.296   7.418   2.123
 3744TIP3    H111177   3.314   7.327   2.146
 3744TIP3    H211178   3.266   7.414   2.032
 3745TIP3   OH211179   2.398   7.551   1.793
 3745TIP3    H111180   2.323   7.519   1.843
 3745TIP3    H211181   2.364   7.624   1.742
 3746TIP3   OH211182   6.510   3.355   4.408
 3746TIP3    H111183   6.474   3.315   4.488
 3746TIP3    H211184   6.535   3.281   4.353
 3747TIP3   OH211185   4.633   0.780   6.490
 3747TIP3    H111186   4.661   0.862   6.450
 3747TIP3    H211187   4.707   0.754   6.546
 3748TIP3   OH211188   2.622   7.768   4.892
 3748TIP3    H111189   2.590   7.787   4.981
 3748TIP3    H211190   2.557   7.708   4.856
 3749TIP3   OH211191   0.366   5.982   2.379
 3749TIP3    H111192   0.333   5.956   2.465
 3749TIP3    H211193   0.303   5.946   2.318
 3750TIP3   OH211194   0.022   6.405   5.073
 3750TIP3    H111195  -0.054   6.352   5.049
 3750TIP3    H211196   0.097   6.348   5.059
 3751TIP3   OH211197   3.643   3.522   5.971
 3751TIP3    H111198   3.735   3.499   5.963
 3751TIP3    H211199   3.640   3.591   6.038
 3752TIP3   OH211200   2.639   3.449   5.968
 3752TIP3    H111201   2.663   3.541   5.984
 3752TIP3    H211202   2.571   3.454   5.901
 3753TIP3   OH211203   5.606   2.932   6.593
 3753TIP3    H111204   5.569   3.018   6.572
 3753TIP3    H211205   5.697   2.951   6.617
 3754TIP3   OH211206   5.258   6.429   0.788
 3754TIP3    H111207   5.322   6.405   0.721
 3754TIP3    H211208   5.177   6.445   0.740
 3755TIP3   OH211209   0.637   3.868   6.034
 3755TIP3    H111210   0.682   3.890   5.952
 3755TIP3    H211211   0.602   3.951   6.065
 3756TIP3   OH211212   0.808   6.140   5.068
 3756TIP3    H111213   0.900   6.164   5.053
 3756TIP3    H211214   0.764   6.223   5.085
 3757TIP3   OH211215   3.658   7.635   5.274
 3757TIP3    H111216   3.694   7.592   5.352
 3757TIP3    H211217   3.727   7.628   5.209
 3758TIP3   OH211218   2.754   5.946   1.411
 3758TIP3    H111219   2.812   5.983   1.345
 3758TIP3    H211220   2.666   5.969   1.383
 3759TIP3   OH211221   4.069   1.088   3.853
 3759TIP3    H111222   4.053   1.177   3.883
 3759TIP3    H211223   4.154   1.092   3.810
 3760TIP3   OH211224   3.840   1.193   2.336
 3760TIP3    H111225   3.895   1.117   2.319
 3760TIP3    H211226   3.896   1.253   2.386
 3761TIP3   OH211227   1.829   0.377   1.675
 3761TIP3    H111228   1.739   0.368   1.644
 3761TIP3    H211229   1.880   0.397   1.597
 3762TIP3   OH211230   6.565   1.179   5.242
 3762TIP3    H111231   6.536   1.249   5.184
 3762TIP3    H211232   6.549   1.099   5.192
 3763TIP3   OH211233   8.063   3.811   3.033
 3763TIP3    H111234   8.126   3.757   2.986
 3763TIP3    H211235   7.987   3.816   2.976
 3764TIP3   OH211236   7.366   0.747   5.663
 3764TIP3    H111237   7.369   0.732   5.569
 3764TIP3    H211238   7.444   0.799   5.682
 3765TIP3   OH211239   3.048   4.347   2.244
 3765TIP3    H111240   3.133   4.379   2.273
 3765TIP3    H211241   3.027   4.400   2.167
 3766TIP3   OH211242   0.759   6.213   1.369
 3766TIP3    H111243   0.681   6.221   1.315
 3766TIP3    H211244   0.748   6.279   1.438
 3767TIP3   OH211245   6.829   7.379   2.213
 3767TIP3    H111246   6.878   7.346   2.138
 3767TIP3    H211247   6.811   7.471   2.192
 3768TIP3   OH211248   8.101   0.186   4.466
 3768TIP3    H111249   8.160   0.180   4.542
 3768TIP3    H211250   8.091   0.095   4.437
 3769TIP3   OH211251   3.749   6.700   4.945
 3769TIP3    H111252   3.787   6.713   5.032
 3769TIP3    H211253   3.796   6.625   4.909
 3770TIP3   OH211254   6.657   0.055   0.577
 3770TIP3    H111255   6.734   0.004   0.598
 3770TIP3    H211256   6.641   0.109   0.654
 3771TIP3   OH211257   8.047   3.074   0.547
 3771TIP3    H111258   8.002   3.027   0.476
 3771TIP3    H211259   7.982   3.135   0.580
 3772TIP3   OH211260   6.863   0.036   4.023
 3772TIP3    H111261   6.926  -0.032   4.045
 3772TIP3    H211262   6.855   0.032   3.928
 3773TIP3   OH211263   0.345   1.632   6.676
 3773TIP3    H111264   0.333   1.568   6.746
 3773TIP3    H211265   0.326   1.584   6.595
 3774TIP3   OH211266   7.849   1.096   2.591
 3774TIP3    H111267   7.917   1.034   2.564
 3774TIP3    H211268   7.830   1.147   2.512
 3775TIP3   OH211269   5.142   3.575   0.936
 3775TIP3    H111270   5.153   3.480   0.934
 3775TIP3    H211271   5.231   3.609   0.939
 3776TIP3   OH211272   3.951   1.489   6.733
 3776TIP3    H111273   4.031   1.492   6.682
 3776TIP3    H211274   3.882   1.515   6.672
 3777TIP3   OH211275   0.743   5.277   6.224
 3777TIP3    H111276   0.789   5.226   6.157
 3777TIP3    H211277   0.810   5.331   6.264
 3778TIP3   OH211278   7.456   0.150   0.690
 3778TIP3    H111279   7.460   0.244   0.708
 3778TIP3    H211280   7.364   0.127   0.705
 3779TIP3   OH211281   0.031   4.722   0.506
 3779TIP3    H111282   0.084   4.770   0.441
 3779TIP3    H211283  -0.055   4.763   0.501
 3780TIP3   OH211284   5.030   2.457   5.625
 3780TIP3    H111285   4.963   2.514   5.587
 3780TIP3    H211286   5.044   2.390   5.559
 3781TIP3   OH211287   2.483   1.784   4.049
 3781TIP3    H111288   2.416   1.767   3.983
 3781TIP3    H211289   2.514   1.873   4.029
 3782TIP3   OH211290   2.490   3.316   3.652
 3782TIP3    H111291   2.502   3.271   3.735
 3782TIP3    H211292   2.576   3.354   3.632
 3783TIP3   OH211293   4.596   2.674   6.102
 3783TIP3    H111294   4.667   2.653   6.042
 3783TIP3    H211295   4.609   2.617   6.177
 3784TIP3   OH211296   2.239   4.705   3.615
 3784TIP3    H111297   2.247   4.787   3.567
 3784TIP3    H211298   2.184   4.726   3.690
 3785TIP3   OH211299   6.385   5.828   5.884
 3785TIP3    H111300   6.297   5.797   5.906
 3785TIP3    H211301   6.433   5.748   5.864
 3786TIP3   OH211302   5.101   2.655   4.291
 3786TIP3    H111303   5.101   2.574   4.239
 3786TIP3    H211304   5.058   2.720   4.235
 3787TIP3   OH211305   0.403   2.574   1.856
 3787TIP3    H111306   0.427   2.616   1.938
 3787TIP3    H211307   0.486   2.549   1.816
 3788TIP3   OH211308   4.809   3.186   2.134
 3788TIP3    H111309   4.783   3.272   2.167
 3788TIP3    H211310   4.884   3.203   2.078
 3789TIP3   OH211311   2.460   7.701   6.665
 3789TIP3    H111312   2.546   7.670   6.637
 3789TIP3    H211313   2.451   7.668   6.755
 3790TIP3   OH211314   3.300   6.888   2.656
 3790TIP3    H111315   3.267   6.842   2.734
 3790TIP3    H211316   3.382   6.844   2.634
 3791TIP3   OH211317   1.528   6.551   1.750
 3791TIP3    H111318   1.524   6.468   1.702
 3791TIP3    H211319   1.586   6.533   1.824
 3792TIP3   OH211320   7.194   5.576   0.137
 3792TIP3    H111321   7.134   5.624   0.080
 3792TIP3    H211322   7.260   5.641   0.162
 3793TIP3   OH211323   0.691   4.697   5.702
 3793TIP3    H111324   0.608   4.706   5.655
 3793TIP3    H211325   0.726   4.612   5.674
 3794TIP3   OH211326   6.162   6.020   3.651
 3794TIP3    H111327   6.135   6.112   3.643
 3794TIP3    H211328   6.234   6.010   3.589
 3795TIP3   OH211329   4.441   0.990   0.715
 3795TIP3    H111330   4.493   0.914   0.741
 3795TIP3    H211331   4.443   1.047   0.791
 3796TIP3   OH211332   7.111   4.866   3.263
 3796TIP3    H111333   7.194   4.848   3.309
 3796TIP3    H211334   7.043   4.837   3.323
 3797TIP3   OH211335   3.509   3.240   6.239
 3797TIP3    H111336   3.541   3.327   6.262
 3797TIP3    H211337   3.568   3.209   6.170
 3798TIP3   OH211338   2.320   3.810   1.418
 3798TIP3    H111339   2.328   3.898   1.382
 3798TIP3    H211340   2.231   3.783   1.395
 3799TIP3   OH211341   1.465   7.186   0.613
 3799TIP3    H111342   1.478   7.277   0.585
 3799TIP3    H211343   1.463   7.136   0.532
 3800TIP3   OH211344   5.921   3.913   1.533
 3800TIP3    H111345   5.843   3.963   1.508
 3800TIP3    H211346   5.887   3.827   1.558
 3801TIP3   OH211347   3.572   1.582   3.131
 3801TIP3    H111348   3.617   1.548   3.209
 3801TIP3    H211349   3.628   1.554   3.058
 3802TIP3   OH211350   4.826   7.568   4.499
 3802TIP3    H111351   4.792   7.483   4.472
 3802TIP3    H211352   4.821   7.622   4.420
 3803TIP3   OH211353   1.235   4.762   3.045
 3803TIP3    H111354   1.152   4.722   3.019
 3803TIP3    H211355   1.301   4.718   2.991
 3804TIP3   OH211356   7.557   0.344   6.222
 3804TIP3    H111357   7.652   0.343   6.216
 3804TIP3    H211358   7.530   0.253   6.209
 3805TIP3   OH211359   7.031   7.662   4.022
 3805TIP3    H111360   6.939   7.666   3.994
 3805TIP3    H211361   7.061   7.753   4.020
 3806TIP3   OH211362   0.136   5.679   2.335
 3806TIP3    H111363   0.147   5.754   2.277
 3806TIP3    H211364   0.071   5.708   2.399
 3807TIP3   OH211365   3.966   4.954   1.369
 3807TIP3    H111366   3.935   4.923   1.454
 3807TIP3    H211367   3.955   5.049   1.372
 3808TIP3   OH211368   4.979   0.078   1.384
 3808TIP3    H111369   4.934   0.020   1.446
 3808TIP3    H211370   5.004   0.021   1.311
 3809TIP3   OH211371   0.482   6.654   4.827
 3809TIP3    H111372   0.435   6.629   4.906
 3809TIP3    H211373   0.440   6.735   4.798
 3810TIP3   OH211374   1.958   3.389   0.940
 3810TIP3    H111375   1.991   3.409   1.028
 3810TIP3    H211376   1.872   3.351   0.956
 3811TIP3   OH211377   3.888   0.944   6.411
 3811TIP3    H111378   3.955   0.888   6.450
 3811TIP3    H211379   3.867   1.008   6.480
 3812TIP3   OH211380   5.797   2.381   5.591
 3812TIP3    H111381   5.856   2.456   5.590
 3812TIP3    H211382   5.732   2.400   5.524
 3813TIP3   OH211383   3.361   2.378   3.665
 3813TIP3    H111384   3.365   2.400   3.758
 3813TIP3    H211385   3.406   2.293   3.659
 3814TIP3   OH211386   0.006   1.955   2.877
 3814TIP3    H111387   0.055   1.900   2.815
 3814TIP3    H211388  -0.044   2.015   2.822
 3815TIP3   OH211389   4.573   5.591   3.226
 3815TIP3    H111390   4.485   5.626   3.214
 3815TIP3    H211391   4.589   5.539   3.147
 3816TIP3   OH211392   4.061   2.219   3.083
 3816TIP3    H111393   3.997   2.219   3.154
 3816TIP3    H211394   4.031   2.288   3.023
 3817TIP3   OH211395   0.217   6.222   5.029
 3817TIP3    H111396   0.240   6.190   5.116
 3817TIP3    H211397   0.238   6.150   4.970
 3818TIP3   OH211398   6.205   4.544   5.266
 3818TIP3    H111399   6.300   4.532   5.276
 3818TIP3    H211400   6.178   4.472   5.210
 3819TIP3   OH211401   4.623   1.724   0.591
 3819TIP3    H111402   4.590   1.743   0.503
 3819TIP3    H211403   4.649   1.632   0.588
 3820TIP3   OH211404   7.925   3.283   0.251
 3820TIP3    H111405   7.970   3.200   0.236
 3820TIP3    H211406   7.858   3.262   0.316
 3821TIP3   OH211407   2.735   3.896   0.677
 3821TIP3    H111408   2.651   3.868   0.713
 3821TIP3    H211409   2.789   3.817   0.679
 3822TIP3   OH211410   8.243   4.360   5.669
 3822TIP3    H111411   8.150   4.361   5.693
 3822TIP3    H211412   8.285   4.306   5.736
 3823TIP3   OH211413   2.731   4.101   1.411
 3823TIP3    H111414   2.765   4.110   1.501
 3823TIP3    H211415   2.708   4.009   1.403
 3824TIP3   OH211416   2.681   6.928   3.166
 3824TIP3    H111417   2.659   6.942   3.258
 3824TIP3    H211418   2.659   7.011   3.124
 3825TIP3   OH211419   4.754   1.597   4.526
 3825TIP3    H111420   4.698   1.590   4.603
 3825TIP3    H211421   4.695   1.626   4.456
 3826TIP3   OH211422   1.909   2.869   0.640
 3826TIP3    H111423   1.975   2.875   0.709
 3826TIP3    H211424   1.960   2.864   0.559
 3827TIP3   OH211425   1.271   1.498   0.765
 3827TIP3    H111426   1.254   1.587   0.735
 3827TIP3    H211427   1.253   1.442   0.689
 3828TIP3   OH211428   4.240   0.139   5.186
 3828TIP3    H111429   4.208   0.159   5.273
 3828TIP3    H211430   4.296   0.063   5.198
 3829TIP3   OH211431   3.558   3.886   0.533
 3829TIP3    H111432   3.549   3.807   0.480
 3829TIP3    H211433   3.608   3.857   0.610
 3830TIP3   OH211434   1.705   5.911   2.597
 3830TIP3    H111435   1.730   5.967   2.523
 3830TIP3    H211436   1.786   5.901   2.647
 3831TIP3   OH211437   5.797   3.617   5.696
 3831TIP3    H111438   5.717   3.573   5.723
 3831TIP3    H211439   5.839   3.644   5.778
 3832TIP3   OH211440   7.889   5.295   5.065
 3832TIP3    H111441   7.806   5.281   5.020
 3832TIP3    H211442   7.869   5.284   5.158
 3833TIP3   OH211443   6.798   0.346   4.971
 3833TIP3    H111444   6.850   0.403   5.027
 3833TIP3    H211445   6.862   0.305   4.912
 3834TIP3   OH211446   6.883   5.766   1.314
 3834TIP3    H111447   6.976   5.747   1.326
 3834TIP3    H211448   6.860   5.724   1.232
 3835TIP3   OH211449   3.718   6.187   1.211
 3835TIP3    H111450   3.720   6.119   1.278
 3835TIP3    H211451   3.790   6.246   1.233
 3836TIP3   OH211452   6.223   3.556   2.802
 3836TIP3    H111453   6.182   3.595   2.879
 3836TIP3    H211454   6.156   3.564   2.734
 3837TIP3   OH211455   6.330   3.012   5.079
 3837TIP3    H111456   6.359   2.924   5.103
 3837TIP3    H211457   6.274   3.040   5.151
 3838TIP3   OH211458   4.329   7.149   0.775
 3838TIP3    H111459   4.309   7.239   0.748
 3838TIP3    H211460   4.410   7.128   0.729
 3839TIP3   OH211461   0.651   4.725   0.743
 3839TIP3    H111462   0.573   4.704   0.795
 3839TIP3    H211463   0.682   4.808   0.779
 3840TIP3   OH211464   2.937   0.124   3.256
 3840TIP3    H111465   2.997   0.151   3.325
 3840TIP3    H211466   2.956   0.183   3.182
 3841TIP3   OH211467   7.792   6.281   1.100
 3841TIP3    H111468   7.831   6.328   1.027
 3841TIP3    H211469   7.773   6.349   1.164
 3842TIP3   OH211470   8.268   3.570   0.967
 3842TIP3    H111471   8.196   3.564   1.030
 3842TIP3    H211472   8.236   3.521   0.891
 3843TIP3   OH211473   2.234   7.753   6.501
 3843TIP3    H111474   2.293   7.693   6.546
 3843TIP3    H211475   2.155   7.756   6.556
 3844TIP3   OH211476   6.363   6.528   4.858
 3844TIP3    H111477   6.370   6.443   4.901
 3844TIP3    H211478   6.292   6.572   4.904
 3845TIP3   OH211479   5.048   3.390   5.977
 3845TIP3    H111480   5.120   3.438   5.935
 3845TIP3    H211481   5.088   3.352   6.056
 3846TIP3   OH211482   3.727   2.860   1.019
 3846TIP3    H111483   3.710   2.831   1.109
 3846TIP3    H211484   3.781   2.790   0.981
 3847TIP3   OH211485   2.576   4.865   5.387
 3847TIP3    H111486   2.666   4.838   5.371
 3847TIP3    H211487   2.576   4.896   5.478
 3848TIP3   OH211488   0.562   3.036   0.283
 3848TIP3    H111489   0.493   3.093   0.249
 3848TIP3    H211490   0.584   2.979   0.209
 3849TIP3   OH211491   4.482   7.342   5.242
 3849TIP3    H111492   4.455   7.434   5.243
 3849TIP3    H211493   4.525   7.330   5.158
 3850TIP3   OH211494   6.963   2.311   3.081
 3850TIP3    H111495   6.940   2.225   3.115
 3850TIP3    H211496   6.879   2.355   3.069
 3851TIP3   OH211497   6.359   1.610   5.963
 3851TIP3    H111498   6.296   1.632   6.032
 3851TIP3    H211499   6.376   1.516   5.976
 3852TIP3   OH211500   3.422   5.364   3.642
 3852TIP3    H111501   3.481   5.328   3.709
 3852TIP3    H211502   3.382   5.287   3.602
 3853TIP3   OH211503   1.336   0.713   0.536
 3853TIP3    H111504   1.297   0.630   0.509
 3853TIP3    H211505   1.382   0.692   0.617
 3854TIP3   OH211506   1.281   0.813   3.078
 3854TIP3    H111507   1.309   0.749   3.143
 3854TIP3    H211508   1.361   0.856   3.050
 3855TIP3   OH211509   5.733   0.326   3.091
 3855TIP3    H111510   5.742   0.242   3.046
 3855TIP3    H211511   5.794   0.384   3.046
 3856TIP3   OH211512   0.617   2.521   1.072
 3856TIP3    H111513   0.552   2.498   1.138
 3856TIP3    H211514   0.653   2.437   1.043
 3857TIP3   OH211515   6.711   0.379   1.535
 3857TIP3    H111516   6.665   0.452   1.493
 3857TIP3    H211517   6.670   0.301   1.498
 3858TIP3   OH211518   1.374   2.982   6.113
 3858TIP3    H111519   1.368   2.966   6.208
 3858TIP3    H211520   1.372   2.895   6.074
 3859TIP3   OH211521   6.009   4.714   6.002
 3859TIP3    H111522   6.083   4.767   6.030
 3859TIP3    H211523   5.989   4.658   6.078
 3860TIP3   OH211524   0.129   1.318   4.653
 3860TIP3    H111525   0.129   1.274   4.568
 3860TIP3    H211526   0.221   1.334   4.672
 3861TIP3   OH211527   3.979   0.093   4.546
 3861TIP3    H111528   4.016   0.163   4.600
 3861TIP3    H211529   4.056   0.048   4.510
 3862TIP3   OH211530   7.510   2.067   0.423
 3862TIP3    H111531   7.587   2.056   0.478
 3862TIP3    H211532   7.536   2.132   0.357
 3863TIP3   OH211533   0.196   5.909   1.861
 3863TIP3    H111534   0.119   5.966   1.869
 3863TIP3    H211535   0.168   5.826   1.899
 3864TIP3   OH211536   7.040   3.654   2.503
 3864TIP3    H111537   6.986   3.601   2.561
 3864TIP3    H211538   7.005   3.743   2.513
 3865TIP3   OH211539   1.590   3.786   3.350
 3865TIP3    H111540   1.545   3.870   3.361
 3865TIP3    H211541   1.533   3.736   3.291
 3866TIP3   OH211542   7.973   5.928   3.233
 3866TIP3    H111543   8.058   5.886   3.220
 3866TIP3    H211544   7.920   5.860   3.276
 3867TIP3   OH211545   0.100   1.031   5.827
 3867TIP3    H111546   0.175   1.090   5.818
 3867TIP3    H211547   0.087   0.995   5.740
 3868TIP3   OH211548   1.510   0.255   6.128
 3868TIP3    H111549   1.451   0.315   6.173
 3868TIP3    H211550   1.453   0.203   6.070
 3869TIP3   OH211551   3.157   7.806   1.745
 3869TIP3    H111552   3.222   7.874   1.723
 3869TIP3    H211553   3.171   7.738   1.679
 3870TIP3   OH211554   1.631   6.644   4.537
 3870TIP3    H111555   1.566   6.711   4.517
 3870TIP3    H211556   1.591   6.562   4.508
 3871TIP3   OH211557   0.677   3.797   4.538
 3871TIP3    H111558   0.689   3.868   4.475
 3871TIP3    H211559   0.747   3.809   4.602
 3872TIP3   OH211560   6.714   3.074   3.882
 3872TIP3    H111561   6.621   3.085   3.901
 3872TIP3    H211562   6.732   2.982   3.900
 3873TIP3   OH211563   1.061   7.033   0.817
 3873TIP3    H111564   1.142   7.014   0.865
 3873TIP3    H211565   0.999   6.967   0.846
 3874TIP3   OH211566   8.169   3.774   2.179
 3874TIP3    H111567   8.201   3.716   2.248
 3874TIP3    H211568   8.077   3.750   2.168
 3875TIP3   OH211569   3.602   7.288   2.665
 3875TIP3    H111570   3.544   7.242   2.604
 3875TIP3    H211571   3.648   7.219   2.712
 3876TIP3   OH211572   1.207   1.557   4.659
 3876TIP3    H111573   1.264   1.486   4.689
 3876TIP3    H211574   1.234   1.633   4.710
 3877TIP3   OH211575   0.216   6.877   4.553
 3877TIP3    H111576   0.178   6.798   4.592
 3877TIP3    H211577   0.142   6.937   4.543
 3878TIP3   OH211578   5.886   2.924   1.729
 3878TIP3    H111579   5.828   2.971   1.668
 3878TIP3    H211580   5.927   2.993   1.781
 3879TIP3   OH211581   2.459   3.134   1.766
 3879TIP3    H111582   2.553   3.132   1.783
 3879TIP3    H211583   2.433   3.225   1.784
 3880TIP3   OH211584   6.013   2.951   1.035
 3880TIP3    H111585   6.023   2.939   1.129
 3880TIP3    H211586   6.011   3.046   1.023
 3881TIP3   OH211587   3.758   2.318   2.351
 3881TIP3    H111588   3.781   2.387   2.289
 3881TIP3    H211589   3.697   2.262   2.303
 3882TIP3   OH211590   7.772   2.249   0.873
 3882TIP3    H111591   7.847   2.308   0.867
 3882TIP3    H211592   7.727   2.275   0.954
 3883TIP3   OH211593   6.964   0.920   6.503
 3883TIP3    H111594   7.034   0.855   6.500
 3883TIP3    H211595   6.941   0.926   6.596
 3884TIP3   OH211596   0.203   6.096   4.103
 3884TIP3    H111597   0.120   6.096   4.151
 3884TIP3    H211598   0.187   6.042   4.026
 3885TIP3   OH211599   5.874   0.862   1.634
 3885TIP3    H111600   5.851   0.856   1.541
 3885TIP3    H211601   5.942   0.796   1.647
 3886TIP3   OH211602   1.173   2.405   5.126
 3886TIP3    H111603   1.179   2.444   5.214
 3886TIP3    H211604   1.079   2.405   5.106
 3887TIP3   OH211605   2.918   2.964   1.900
 3887TIP3    H111606   2.922   2.879   1.944
 3887TIP3    H211607   2.982   3.018   1.946
 3888TIP3   OH211608   0.091   1.507   0.813
 3888TIP3    H111609   0.176   1.529   0.775
 3888TIP3    H211610   0.049   1.592   0.827
 3889TIP3   OH211611   6.953   3.555   4.724
 3889TIP3    H111612   6.926   3.467   4.697
 3889TIP3    H211613   6.891   3.578   4.794
 3890TIP3   OH211614   6.469   5.176   6.758
 3890TIP3    H111615   6.512   5.224   6.687
 3890TIP3    H211616   6.400   5.235   6.788
 3891TIP3   OH211617   1.466   0.199   5.428
 3891TIP3    H111618   1.514   0.213   5.346
 3891TIP3    H211619   1.374   0.214   5.404
 3892TIP3   OH211620   6.070   7.158   1.296
 3892TIP3    H111621   6.109   7.080   1.255
 3892TIP3    H211622   5.983   7.164   1.257
 3893TIP3   OH211623   5.042   1.290   0.422
 3893TIP3    H111624   5.006   1.376   0.399
 3893TIP3    H211625   5.091   1.263   0.344
 3894TIP3   OH211626   3.581   2.247   5.928
 3894TIP3    H111627   3.544   2.169   5.970
 3894TIP3    H211628   3.632   2.212   5.855
 3895TIP3   OH211629   5.118   4.992   6.720
 3895TIP3    H111630   5.173   4.927   6.675
 3895TIP3    H211631   5.170   5.072   6.720
 3896TIP3   OH211632   4.461   3.062   0.616
 3896TIP3    H111633   4.546   3.038   0.652
 3896TIP3    H211634   4.408   3.086   0.692
 3897TIP3   OH211635   3.418   1.238   0.496
 3897TIP3    H111636   3.390   1.328   0.475
 3897TIP3    H211637   3.470   1.211   0.420
 3898TIP3   OH211638   6.625   5.488   4.227
 3898TIP3    H111639   6.704   5.540   4.242
 3898TIP3    H211640   6.556   5.553   4.210
 3899TIP3   OH211641   5.326   2.765   5.885
 3899TIP3    H111642   5.289   2.765   5.973
 3899TIP3    H211643   5.310   2.676   5.852
 3900TIP3   OH211644   5.681   6.046   1.080
 3900TIP3    H111645   5.643   6.000   1.155
 3900TIP3    H211646   5.739   5.982   1.040
 3901TIP3   OH211647   6.151   0.127   5.078
 3901TIP3    H111648   6.173   0.220   5.085
 3901TIP3    H211649   6.209   0.084   5.141
 3902TIP3   OH211650   7.601   7.133   5.642
 3902TIP3    H111651   7.588   7.162   5.733
 3902TIP3    H211652   7.609   7.215   5.592
 3903TIP3   OH211653   3.863   3.750   1.505
 3903TIP3    H111654   3.943   3.699   1.515
 3903TIP3    H211655   3.886   3.838   1.533
 3904TIP3   OH211656   3.117   7.062   2.559
 3904TIP3    H111657   3.078   7.025   2.480
 3904TIP3    H211658   3.186   7.000   2.583
 3905TIP3   OH211659   1.795   3.178   1.395
 3905TIP3    H111660   1.775   3.171   1.488
 3905TIP3    H211661   1.864   3.113   1.380
 3906TIP3   OH211662   0.365   7.064   0.272
 3906TIP3    H111663   0.420   7.071   0.350
 3906TIP3    H211664   0.342   7.155   0.251
 3907TIP3   OH211665   2.204   1.388   5.841
 3907TIP3    H111666   2.294   1.358   5.827
 3907TIP3    H211667   2.180   1.431   5.759
 3908TIP3   OH211668   7.746   6.879   2.236
 3908TIP3    H111669   7.817   6.842   2.289
 3908TIP3    H211670   7.668   6.868   2.290
 3909TIP3   OH211671   7.557   1.340   4.521
 3909TIP3    H111672   7.582   1.300   4.605
 3909TIP3    H211673   7.639   1.376   4.487
 3910TIP3   OH211674   2.040   4.281   4.827
 3910TIP3    H111675   2.079   4.346   4.769
 3910TIP3    H211676   1.981   4.230   4.770
 3911TIP3   OH211677   5.966   1.316   5.725
 3911TIP3    H111678   5.879   1.277   5.732
 3911TIP3    H211679   6.002   1.310   5.813
 3912TIP3   OH211680   0.601   4.223   4.964
 3912TIP3    H111681   0.565   4.252   5.048
 3912TIP3    H211682   0.640   4.302   4.926
 3913TIP3   OH211683   1.948   4.774   0.818
 3913TIP3    H111684   1.941   4.755   0.725
 3913TIP3    H211685   2.042   4.767   0.837
 3914TIP3   OH211686   6.255   7.803   2.564
 3914TIP3    H111687   6.342   7.776   2.535
 3914TIP3    H211688   6.216   7.723   2.600
 3915TIP3   OH211689   2.422   7.806   2.554
 3915TIP3    H111690   2.375   7.737   2.508
 3915TIP3    H211691   2.465   7.856   2.485
 3916TIP3   OH211692   2.932   6.144   5.327
 3916TIP3    H111693   2.894   6.057   5.337
 3916TIP3    H211694   2.858   6.202   5.314
 3917TIP3   OH211695   4.186   5.347   4.966
 3917TIP3    H111696   4.213   5.312   4.881
 3917TIP3    H211697   4.260   5.327   5.024
 3918TIP3   OH211698   3.210   0.899   2.780
 3918TIP3    H111699   3.217   0.986   2.821
 3918TIP3    H211700   3.239   0.838   2.847
 3919TIP3   OH211701   7.444   5.360   2.363
 3919TIP3    H111702   7.400   5.411   2.296
 3919TIP3    H211703   7.376   5.340   2.427
 3920TIP3   OH211704   2.174   3.221   6.366
 3920TIP3    H111705   2.218   3.303   6.386
 3920TIP3    H211706   2.102   3.216   6.428
 3921TIP3   OH211707   0.991   1.203   1.529
 3921TIP3    H111708   0.904   1.172   1.554
 3921TIP3    H211709   1.009   1.159   1.446
 3922TIP3   OH211710   7.744   6.875   4.754
 3922TIP3    H111711   7.712   6.800   4.704
 3922TIP3    H211712   7.667   6.932   4.762
 3923TIP3   OH211713   7.810   6.103   0.289
 3923TIP3    H111714   7.793   6.142   0.203
 3923TIP3    H211715   7.892   6.144   0.317
 3924TIP3   OH211716   3.898   0.967   3.675
 3924TIP3    H111717   3.956   0.912   3.727
 3924TIP3    H211718   3.917   1.056   3.704
 3925TIP3   OH211719   5.018   3.095   4.157
 3925TIP3    H111720   4.966   3.175   4.149
 3925TIP3    H211721   5.009   3.070   4.249
 3926TIP3   OH211722   0.065   2.551   2.781
 3926TIP3    H111723   0.130   2.483   2.799
 3926TIP3    H211724   0.112   2.634   2.794
 3927TIP3   OH211725   0.642   2.833   0.470
 3927TIP3    H111726   0.557   2.794   0.491
 3927TIP3    H211727   0.620   2.913   0.422
 3928TIP3   OH211728   0.833   2.534   5.282
 3928TIP3    H111729   0.874   2.587   5.350
 3928TIP3    H211730   0.746   2.571   5.272
 3929TIP3   OH211731   7.540   1.366   4.136
 3929TIP3    H111732   7.578   1.445   4.175
 3929TIP3    H211733   7.450   1.366   4.168
 3930TIP3   OH211734   0.148   2.309   1.067
 3930TIP3    H111735   0.152   2.334   1.159
 3930TIP3    H211736   0.237   2.283   1.045
 3931TIP3   OH211737   3.102   2.605   3.059
 3931TIP3    H111738   3.121   2.684   3.110
 3931TIP3    H211739   3.064   2.637   2.978
 3932TIP3   OH211740   4.007   1.059   1.347
 3932TIP3    H111741   4.069   1.017   1.405
 3932TIP3    H211742   3.921   1.033   1.380
 3933TIP3   OH211743   2.190   5.649   1.616
 3933TIP3    H111744   2.216   5.663   1.525
 3933TIP3    H211745   2.243   5.576   1.646
 3934TIP3   OH211746   2.591   0.879   5.462
 3934TIP3    H111747   2.686   0.884   5.462
 3934TIP3    H211748   2.562   0.964   5.495
 3935TIP3   OH211749   8.163   7.470   2.094
 3935TIP3    H111750   8.096   7.461   2.162
 3935TIP3    H211751   8.185   7.563   2.094
 3936TIP3   OH211752   5.696   3.413   6.692
 3936TIP3    H111753   5.643   3.334   6.692
 3936TIP3    H211754   5.682   3.452   6.606
 3937TIP3   OH211755   6.446   1.455   5.458
 3937TIP3    H111756   6.361   1.436   5.419
 3937TIP3    H211757   6.425   1.494   5.543
 3938TIP3   OH211758   8.249   6.405   1.276
 3938TIP3    H111759   8.160   6.399   1.310
 3938TIP3    H211760   8.240   6.390   1.182
 3939TIP3   OH211761   0.892   7.342   5.623
 3939TIP3    H111762   0.933   7.285   5.687
 3939TIP3    H211763   0.929   7.429   5.640
 3940TIP3   OH211764   3.445   6.041   5.866
 3940TIP3    H111765   3.515   6.031   5.801
 3940TIP3    H211766   3.374   6.083   5.817
 3941TIP3   OH211767   6.171   1.566   1.734
 3941TIP3    H111768   6.076   1.575   1.725
 3941TIP3    H211769   6.184   1.541   1.826
 3942TIP3   OH211770   4.398   2.685   0.092
 3942TIP3    H111771   4.362   2.608   0.047
 3942TIP3    H211772   4.464   2.719   0.031
 3943TIP3   OH211773   2.573   0.004   6.189
 3943TIP3    H111774   2.511  -0.010   6.117
 3943TIP3    H211775   2.532   0.072   6.242
 3944TIP3   OH211776   0.352   6.414   0.586
 3944TIP3    H111777   0.295   6.346   0.549
 3944TIP3    H211778   0.394   6.371   0.661
 3945TIP3   OH211779   0.609   2.651   4.452
 3945TIP3    H111780   0.654   2.622   4.531
 3945TIP3    H211781   0.667   2.718   4.414
 3946TIP3   OH211782   1.420   3.306   5.561
 3946TIP3    H111783   1.438   3.396   5.536
 3946TIP3    H211784   1.476   3.253   5.503
 3947TIP3   OH211785   4.185   2.270   0.134
 3947TIP3    H111786   4.169   2.179   0.110
 3947TIP3    H211787   4.107   2.296   0.183
 3948TIP3   OH211788   1.765   0.827   0.327
 3948TIP3    H111789   1.683   0.778   0.331
 3948TIP3    H211790   1.741   0.910   0.287
 3949TIP3   OH211791   2.229   6.258   0.612
 3949TIP3    H111792   2.210   6.201   0.537
 3949TIP3    H211793   2.284   6.328   0.576
 3950TIP3   OH211794   0.336   5.980   1.001
 3950TIP3    H111795   0.333   5.885   1.015
 3950TIP3    H211796   0.359   6.016   1.086
 3951TIP3   OH211797   6.861   6.185   6.310
 3951TIP3    H111798   6.914   6.174   6.231
 3951TIP3    H211799   6.788   6.239   6.282
 3952TIP3   OH211800   8.245   6.327   2.315
 3952TIP3    H111801   8.224   6.372   2.233
 3952TIP3    H211802   8.288   6.394   2.369
 3953TIP3   OH211803   2.591   0.933   5.159
 3953TIP3    H111804   2.544   0.993   5.102
 3953TIP3    H211805   2.683   0.946   5.136
 3954TIP3   OH211806   3.455   6.816   1.122
 3954TIP3    H111807   3.428   6.833   1.032
 3954TIP3    H211808   3.464   6.903   1.162
 3955TIP3   OH211809   8.130   5.107   3.019
 3955TIP3    H111810   8.218   5.138   3.038
 3955TIP3    H211811   8.134   5.013   3.037
 3956TIP3   OH211812   1.207   0.950   6.264
 3956TIP3    H111813   1.268   1.019   6.290
 3956TIP3    H211814   1.257   0.896   6.204
 3957TIP3   OH211815   1.057   6.446   1.778
 3957TIP3    H111816   1.056   6.368   1.833
 3957TIP3    H211817   1.083   6.415   1.691
 3958TIP3   OH211818   2.879   5.651   4.638
 3958TIP3    H111819   2.890   5.559   4.662
 3958TIP3    H211820   2.851   5.694   4.719
 3959TIP3   OH211821   1.523   6.466   4.349
 3959TIP3    H111822   1.505   6.372   4.339
 3959TIP3    H211823   1.591   6.483   4.284
 3960TIP3   OH211824   4.025   3.862   3.588
 3960TIP3    H111825   4.066   3.944   3.612
 3960TIP3    H211826   4.078   3.828   3.516
 3961TIP3   OH211827   3.475   4.904   6.620
 3961TIP3    H111828   3.470   4.809   6.627
 3961TIP3    H211829   3.416   4.936   6.688
 3962TIP3   OH211830   3.368   3.703   3.902
 3962TIP3    H111831   3.308   3.710   3.976
 3962TIP3    H211832   3.323   3.646   3.839
 3963TIP3   OH211833   1.189   5.707   4.996
 3963TIP3    H111834   1.146   5.755   5.066
 3963TIP3    H211835   1.122   5.649   4.962
 3964TIP3   OH211836   2.456   0.641   1.903
 3964TIP3    H111837   2.505   0.723   1.910
 3964TIP3    H211838   2.376   0.657   1.953
 3965TIP3   OH211839   7.540   7.662   6.305
 3965TIP3    H111840   7.570   7.641   6.393
 3965TIP3    H211841   7.613   7.637   6.248
 3966TIP3   OH211842   4.663   4.220   1.891
 3966TIP3    H111843   4.644   4.248   1.981
 3966TIP3    H211844   4.713   4.293   1.854
 3967TIP3   OH211845   7.622   5.071   3.252
 3967TIP3    H111846   7.549   5.106   3.201
 3967TIP3    H211847   7.626   5.126   3.330
 3968TIP3   OH211848   4.000   3.872   2.628
 3968TIP3    H111849   3.974   3.780   2.625
 3968TIP3    H211850   3.960   3.905   2.708
 3969TIP3   OH211851   3.122   5.381   5.281
 3969TIP3    H111852   3.073   5.400   5.361
 3969TIP3    H211853   3.198   5.330   5.311
 3970TIP3   OH211854   2.001   0.307   4.021
 3970TIP3    H111855   1.922   0.257   4.039
 3970TIP3    H211856   2.005   0.314   3.926
 3971TIP3   OH211857   2.900   0.285   1.692
 3971TIP3    H111858   2.914   0.376   1.667
 3971TIP3    H211859   2.966   0.236   1.642
 3972TIP3   OH211860   1.076   3.634   0.076
 3972TIP3    H111861   1.043   3.634  -0.014
 3972TIP3    H211862   1.171   3.622   0.066
 3973TIP3   OH211863   1.302   7.056   5.347
 3973TIP3    H111864   1.302   7.110   5.426
 3973TIP3    H211865   1.222   7.080   5.301
 3974TIP3   OH211866   4.668   1.454   2.845
 3974TIP3    H111867   4.730   1.385   2.870
 3974TIP3    H211868   4.724   1.529   2.825
 3975TIP3   OH211869   0.152   2.943   2.848
 3975TIP3    H111870   0.067   2.929   2.890
 3975TIP3    H211871   0.168   3.037   2.857
 3976TIP3   OH211872   0.845   4.550   5.064
 3976TIP3    H111873   0.934   4.550   5.100
 3976TIP3    H211874   0.788   4.563   5.139
 3977TIP3   OH211875   4.616   4.192   5.327
 3977TIP3    H111876   4.666   4.203   5.246
 3977TIP3    H211877   4.596   4.281   5.356
 3978TIP3   OH211878   7.950   1.975   1.046
 3978TIP3    H111879   8.006   2.050   1.065
 3978TIP3    H211880   7.953   1.922   1.126
 3979TIP3   OH211881   7.228   1.813   4.791
 3979TIP3    H111882   7.324   1.807   4.799
 3979TIP3    H211883   7.208   1.760   4.714
 3980TIP3   OH211884   4.275   4.848   4.725
 3980TIP3    H111885   4.209   4.886   4.783
 3980TIP3    H211886   4.278   4.906   4.649
 3981TIP3   OH211887   3.784   4.642   6.104
 3981TIP3    H111888   3.811   4.696   6.030
 3981TIP3    H211889   3.695   4.670   6.123
 3982TIP3   OH211890   5.263   2.432   3.313
 3982TIP3    H111891   5.278   2.339   3.331
 3982TIP3    H211892   5.230   2.434   3.223
 3983TIP3   OH211893   0.694   1.871   0.013
 3983TIP3    H111894   0.665   1.865   0.104
 3983TIP3    H211895   0.737   1.956   0.008
 3984TIP3   OH211896   2.970   1.412   4.201
 3984TIP3    H111897   3.028   1.336   4.190
 3984TIP3    H211898   3.029   1.486   4.212
 3985TIP3   OH211899   3.440   5.623   3.578
 3985TIP3    H111900   3.448   5.532   3.609
 3985TIP3    H211901   3.520   5.666   3.610
 3986TIP3   OH211902   7.435   4.190   5.718
 3986TIP3    H111903   7.394   4.176   5.804
 3986TIP3    H211904   7.448   4.102   5.683
 3987TIP3   OH211905   6.117   6.163   4.269
 3987TIP3    H111906   6.060   6.239   4.259
 3987TIP3    H211907   6.057   6.090   4.283
 3988TIP3   OH211908   1.065   5.394   5.416
 3988TIP3    H111909   0.975   5.391   5.382
 3988TIP3    H211910   1.099   5.478   5.386
 3989TIP3   OH211911   4.979   2.223   3.035
 3989TIP3    H111912   4.931   2.237   3.116
 3989TIP3    H211913   4.965   2.131   3.014
 3990TIP3   OH211914   1.407   0.338   2.749
 3990TIP3    H111915   1.489   0.383   2.725
 3990TIP3    H211916   1.339   0.384   2.701
 3991TIP3   OH211917   0.201   4.662   6.315
 3991TIP3    H111918   0.199   4.647   6.409
 3991TIP3    H211919   0.262   4.735   6.303
 3992TIP3   OH211920   1.828   0.904   2.029
 3992TIP3    H111921   1.905   0.960   2.036
 3992TIP3    H211922   1.834   0.846   2.105
 3993TIP3   OH211923   6.233   3.266   5.296
 3993TIP3    H111924   6.239   3.262   5.392
 3993TIP3    H211925   6.319   3.240   5.266
 3994TIP3   OH211926   0.335   4.722   2.917
 3994TIP3    H111927   0.335   4.626   2.913
 3994TIP3    H211928   0.242   4.746   2.908
 3995TIP3   OH211929   5.155   5.951   5.895
 3995TIP3    H111930   5.127   6.010   5.965
 3995TIP3    H211931   5.195   5.878   5.941
 3996TIP3   OH211932   4.514   2.955   0.913
 3996TIP3    H111933   4.421   2.969   0.895
 3996TIP3    H211934   4.521   2.955   1.008
 3997TIP3   OH211935   6.491   0.532   4.529
 3997TIP3    H111936   6.419   0.482   4.568
 3997TIP3    H211937   6.539   0.468   4.476
 3998TIP3   OH211938   6.915   2.800   0.825
 3998TIP3    H111939   7.009   2.780   0.830
 3998TIP3    H211940   6.873   2.714   0.819
 3999TIP3   OH211941   1.284   6.572   3.719
 3999TIP3    H111942   1.222   6.635   3.682
 3999TIP3    H211943   1.368   6.593   3.678
 4000TIP3   OH211944   2.989   1.300   0.892
 4000TIP3    H111945   2.911   1.354   0.891
 4000TIP3    H211946   2.977   1.238   0.820
 4001TIP3   OH211947   1.277   7.638   5.848
 4001TIP3    H111948   1.300   7.643   5.941
 4001TIP3    H211949   1.336   7.701   5.806
 4002TIP3   OH211950   3.683   7.223   3.667
 4002TIP3    H111951   3.690   7.280   3.590
 4002TIP3    H211952   3.667   7.284   3.739
 4003TIP3   OH211953   1.413   3.793   1.749
 4003TIP3    H111954   1.323   3.795   1.782
 4003TIP3    H211955   1.443   3.884   1.753
 4004TIP3   OH211956   0.382   3.945   3.942
 4004TIP3    H111957   0.446   3.981   3.881
 4004TIP3    H211958   0.329   3.885   3.889
 4005TIP3   OH211959   2.563   3.898   1.877
 4005TIP3    H111960   2.609   3.982   1.870
 4005TIP3    H211961   2.504   3.897   1.802
 4006TIP3   OH211962   3.956   4.628   1.005
 4006TIP3    H111963   3.955   4.692   0.933
 4006TIP3    H211964   3.917   4.674   1.079
 4007TIP3   OH211965   0.693   6.039   2.615
 4007TIP3    H111966   0.624   6.051   2.680
 4007TIP3    H211967   0.663   5.967   2.560
 4008TIP3   OH211968   2.001   3.399   0.044
 4008TIP3    H111969   1.979   3.362   0.129
 4008TIP3    H211970   2.035   3.487   0.064
 4009TIP3   OH211971   6.928   6.932   2.850
 4009TIP3    H111972   6.867   6.958   2.780
 4009TIP3    H211973   7.004   6.898   2.804
 4010TIP3   OH211974   3.327   6.732   6.632
 4010TIP3    H111975   3.320   6.658   6.692
 4010TIP3    H211976   3.291   6.806   6.681
 4011TIP3   OH211977   6.388   4.911   0.651
 4011TIP3    H111978   6.411   4.838   0.593
 4011TIP3    H211979   6.401   4.876   0.739
 4012TIP3   OH211980   6.210   3.157   3.234
 4012TIP3    H111981   6.253   3.186   3.154
 4012TIP3    H211982   6.271   3.180   3.304
 4013TIP3   OH211983   7.187   5.159   0.582
 4013TIP3    H111984   7.142   5.181   0.664
 4013TIP3    H211985   7.156   5.072   0.560
 4014TIP3   OH211986   5.982   3.078   4.680
 4014TIP3    H111987   6.053   3.018   4.657
 4014TIP3    H211988   6.023   3.141   4.739
 4015TIP3   OH211989   7.271   5.642   6.049
 4015TIP3    H111990   7.303   5.638   6.139
 4015TIP3    H211991   7.223   5.560   6.037
 4016TIP3   OH211992   6.602   3.225   4.138
 4016TIP3    H111993   6.523   3.250   4.090
 4016TIP3    H211994   6.593   3.131   4.151
 4017TIP3   OH211995   0.434   5.224   1.246
 4017TIP3    H111996   0.521   5.197   1.276
 4017TIP3    H211997   0.375   5.197   1.316
 4018TIP3   OH211998   6.572   5.407   5.618
 4018TIP3    H111999   6.527   5.439   5.540
 4018TIP3    H212000   6.659   5.384   5.586
 4019TIP3   OH212001   8.282   3.812   1.101
 4019TIP3    H112002   8.224   3.780   1.032
 4019TIP3    H212003   8.367   3.772   1.081
 4020TIP3   OH212004   4.602   5.557   2.571
 4020TIP3    H112005   4.680   5.583   2.522
 4020TIP3    H212006   4.534   5.546   2.504
 4021TIP3   OH212007   6.830   7.739   1.546
 4021TIP3    H112008   6.773   7.666   1.571
 4021TIP3    H212009   6.823   7.801   1.619
 4022TIP3   OH212010   0.111   5.922   5.329
 4022TIP3    H112011   0.029   5.911   5.282
 4022TIP3    H212012   0.179   5.900   5.265
 4023TIP3   OH212013   6.069   7.435   3.194
 4023TIP3    H112014   6.075   7.422   3.099
 4023TIP3    H212015   6.003   7.503   3.204
 4024TIP3   OH212016   3.907   1.772   4.247
 4024TIP3    H112017   3.863   1.836   4.302
 4024TIP3    H212018   3.999   1.778   4.272
 4025TIP3   OH212019   0.752   0.087   1.703
 4025TIP3    H112020   0.691   0.041   1.760
 4025TIP3    H212021   0.828   0.104   1.759
 4026TIP3   OH212022   6.941   7.308   1.235
 4026TIP3    H112023   6.940   7.221   1.274
 4026TIP3    H212024   6.882   7.303   1.160
 4027TIP3   OH212025   0.305   0.491   0.716
 4027TIP3    H112026   0.358   0.435   0.659
 4027TIP3    H212027   0.368   0.545   0.763
 4028TIP3   OH212028   1.273   7.183   2.379
 4028TIP3    H112029   1.352   7.237   2.378
 4028TIP3    H212030   1.219   7.218   2.309
 4029TIP3   OH212031   4.969   6.183   1.587
 4029TIP3    H112032   4.916   6.168   1.509
 4029TIP3    H212033   4.982   6.095   1.624
 4030TIP3   OH212034   6.755   2.922   4.413
 4030TIP3    H112035   6.671   2.912   4.458
 4030TIP3    H212036   6.820   2.929   4.483
 4031TIP3   OH212037   0.428   2.261   4.984
 4031TIP3    H112038   0.426   2.185   5.041
 4031TIP3    H212039   0.410   2.226   4.897
 4032TIP3   OH212040   0.992   4.187   4.954
 4032TIP3    H112041   0.943   4.180   5.036
 4032TIP3    H212042   1.084   4.188   4.982
 4033TIP3   OH212043   0.273   4.429   4.781
 4033TIP3    H112044   0.292   4.337   4.801
 4033TIP3    H212045   0.210   4.456   4.848
 4034TIP3   OH212046   7.617   1.003   4.509
 4034TIP3    H112047   7.580   1.057   4.439
 4034TIP3    H212048   7.649   0.925   4.464
 4035TIP3   OH212049   7.729   1.782   2.039
 4035TIP3    H112050   7.768   1.760   1.955
 4035TIP3    H212051   7.793   1.754   2.104
 4036TIP3   OH212052   1.299   3.648   2.660
 4036TIP3    H112053   1.218   3.681   2.621
 4036TIP3    H212054   1.316   3.707   2.733
 4037TIP3   OH212055   1.770   4.474   3.145
 4037TIP3    H112056   1.786   4.567   3.128
 4037TIP3    H212057   1.675   4.464   3.139
 4038TIP3   OH212058   5.803   2.089   0.372
 4038TIP3    H112059   5.765   2.031   0.437
 4038TIP3    H212060   5.788   2.177   0.407
 4039TIP3   OH212061   7.196   6.362   2.819
 4039TIP3    H112062   7.235   6.432   2.767
 4039TIP3    H212063   7.157   6.303   2.755
 4040TIP3   OH212064   5.361   7.814   0.593
 4040TIP3    H112065   5.352   7.766   0.511
 4040TIP3    H212066   5.362   7.747   0.661
 4041TIP3   OH212067   6.927   7.783   1.270
 4041TIP3    H112068   6.832   7.798   1.277
 4041TIP3    H212069   6.952   7.752   1.357
 4042TIP3   OH212070   5.401   5.250   1.369
 4042TIP3    H112071   5.320   5.284   1.329
 4042TIP3    H212072   5.371   5.199   1.444
 4043TIP3   OH212073   4.922   5.170   3.602
 4043TIP3    H112074   5.015   5.147   3.607
 4043TIP3    H212075   4.883   5.101   3.549
 4044TIP3   OH212076   0.670   3.627   2.740
 4044TIP3    H112077   0.668   3.657   2.831
 4044TIP3    H212078   0.736   3.558   2.739
 4045TIP3   OH212079   5.299   2.118   2.156
 4045TIP3    H112080   5.377   2.079   2.196
 4045TIP3    H212081   5.328   2.146   2.069
 4046TIP3   OH212082   0.805   7.467   0.734
 4046TIP3    H112083   0.860   7.389   0.736
 4046TIP3    H212084   0.760   7.462   0.649
 4047TIP3   OH212085   7.046   4.058   3.666
 4047TIP3    H112086   6.988   3.982   3.671
 4047TIP3    H212087   7.030   4.105   3.748
 4048TIP3   OH212088   2.054   0.123   3.160
 4048TIP3    H112089   2.042   0.211   3.124
 4048TIP3    H212090   2.147   0.119   3.183
 4049TIP3   OH212091   2.720   7.814   2.153
 4049TIP3    H112092   2.631   7.808   2.121
 4049TIP3    H212093   2.771   7.759   2.093
 4050TIP3   OH212094   4.567   4.543   3.797
 4050TIP3    H112095   4.522   4.472   3.751
 4050TIP3    H212096   4.549   4.527   3.889
 4051TIP3   OH212097   5.456   3.521   0.479
 4051TIP3    H112098   5.445   3.427   0.494
 4051TIP3    H212099   5.500   3.553   0.558
 4052TIP3   OH212100   1.882   3.090   4.154
 4052TIP3    H112101   1.916   3.074   4.067
 4052TIP3    H212102   1.932   3.165   4.187
 4053TIP3   OH212103   5.254   2.976   2.905
 4053TIP3    H112104   5.181   3.027   2.939
 4053TIP3    H212105   5.212   2.905   2.856
 4054TIP3   OH212106   1.267   0.344   2.035
 4054TIP3    H112107   1.266   0.408   2.106
 4054TIP3    H212108   1.357   0.310   2.036
 4055TIP3   OH212109   5.797   5.087   0.782
 4055TIP3    H112110   5.706   5.080   0.812
 4055TIP3    H212111   5.795   5.058   0.691
 4056TIP3   OH212112   3.872   4.706   6.593
 4056TIP3    H112113   3.926   4.635   6.559
 4056TIP3    H212114   3.785   4.689   6.556
 4057TIP3   OH212115   6.959   2.556   0.109
 4057TIP3    H112116   6.959   2.460   0.110
 4057TIP3    H212117   6.978   2.579   0.018
 4058TIP3   OH212118   4.291   4.341   4.938
 4058TIP3    H112119   4.238   4.304   4.867
 4058TIP3    H212120   4.228   4.357   5.008
 4059TIP3   OH212121   2.540   0.065   2.309
 4059TIP3    H112122   2.445   0.072   2.320
 4059TIP3    H212123   2.551   0.017   2.227
 4060TIP3   OH212124   1.697   2.335   3.106
 4060TIP3    H112125   1.634   2.263   3.101
 4060TIP3    H212126   1.647   2.409   3.140
 4061TIP3   OH212127   4.630   5.318   0.180
 4061TIP3    H112128   4.610   5.384   0.113
 4061TIP3    H212129   4.680   5.251   0.133
 4062TIP3   OH212130   0.728   1.790   4.766
 4062TIP3    H112131   0.713   1.876   4.807
 4062TIP3    H212132   0.782   1.809   4.689
 4063TIP3   OH212133   4.329   7.379   3.632
 4063TIP3    H112134   4.286   7.463   3.615
 4063TIP3    H212135   4.326   7.334   3.548
 4064TIP3   OH212136   2.727   1.700   4.822
 4064TIP3    H112137   2.693   1.720   4.910
 4064TIP3    H212138   2.658   1.647   4.782
 4065TIP3   OH212139   4.352   3.250   2.577
 4065TIP3    H112140   4.372   3.173   2.523
 4065TIP3    H212141   4.290   3.300   2.524
 4066TIP3   OH212142   1.559   1.642   3.755
 4066TIP3    H112143   1.504   1.572   3.717
 4066TIP3    H212144   1.499   1.716   3.764
 4067TIP3   OH212145   0.836   0.719   3.953
 4067TIP3    H112146   0.798   0.631   3.948
 4067TIP3    H212147   0.835   0.741   4.047
 4068TIP3   OH212148   4.346   2.298   5.266
 4068TIP3    H112149   4.256   2.265   5.273
 4068TIP3    H212150   4.378   2.261   5.184
 4069TIP3   OH212151   4.871   4.088   1.747
 4069TIP3    H112152   4.929   4.109   1.820
 4069TIP3    H212153   4.787   4.126   1.772
 4070TIP3   OH212154   6.548   1.999   3.564
 4070TIP3    H112155   6.482   1.970   3.627
 4070TIP3    H212156   6.520   2.087   3.539
 4071TIP3   OH212157   8.329   0.770   1.186
 4071TIP3    H112158   8.291   0.793   1.101
 4071TIP3    H212159   8.257   0.779   1.248
 4072TIP3   OH212160   3.102   0.604   4.620
 4072TIP3    H112161   3.060   0.530   4.577
 4072TIP3    H212162   3.089   0.678   4.560
 4073TIP3   OH212163   5.824   2.187   4.910
 4073TIP3    H112164   5.855   2.162   4.997
 4073TIP3    H212165   5.729   2.195   4.921
 4074TIP3   OH212166   0.847   0.447   5.884
 4074TIP3    H112167   0.821   0.537   5.902
 4074TIP3    H212168   0.935   0.454   5.849
 4075TIP3   OH212169   0.011   2.700   5.181
 4075TIP3    H112170  -0.022   2.638   5.246
 4075TIP3    H212171   0.025   2.648   5.102
 4076TIP3   OH212172   4.087   6.105   2.995
 4076TIP3    H112173   4.152   6.042   3.026
 4076TIP3    H212174   4.129   6.149   2.922
 4077TIP3   OH212175   2.164   5.131   5.867
 4077TIP3    H112176   2.194   5.138   5.777
 4077TIP3    H212177   2.141   5.038   5.878
 4078TIP3   OH212178   1.852   1.375   4.858
 4078TIP3    H112179   1.860   1.311   4.928
 4078TIP3    H212180   1.765   1.412   4.869
 4079TIP3   OH212181   7.325   1.843   0.426
 4079TIP3    H112182   7.369   1.928   0.427
 4079TIP3    H212183   7.314   1.821   0.518
 4080TIP3   OH212184   0.271   5.056   4.541
 4080TIP3    H112185   0.241   5.144   4.566
 4080TIP3    H212186   0.317   5.024   4.618
 4081TIP3   OH212187   2.581   4.165   5.894
 4081TIP3    H112188   2.600   4.248   5.938
 4081TIP3    H212189   2.525   4.117   5.955
 4082TIP3   OH212190   1.242   7.578   1.475
 4082TIP3    H112191   1.215   7.557   1.565
 4082TIP3    H212192   1.255   7.493   1.433
 4083TIP3   OH212193   7.625   0.615   6.737
 4083TIP3    H112194   7.710   0.602   6.778
 4083TIP3    H212195   7.622   0.709   6.718
 4084TIP3   OH212196   1.762   4.220   2.887
 4084TIP3    H112197   1.740   4.313   2.885
 4084TIP3    H212198   1.793   4.201   2.798
 4085TIP3   OH212199   7.490   7.581   0.249
 4085TIP3    H112200   7.499   7.493   0.214
 4085TIP3    H212201   7.447   7.631   0.179
 4086TIP3   OH212202   2.074   3.738   2.633
 4086TIP3    H112203   2.087   3.797   2.707
 4086TIP3    H212204   2.076   3.650   2.673
 4087TIP3   OH212205   1.781   4.061   6.675
 4087TIP3    H112206   1.779   3.966   6.670
 4087TIP3    H212207   1.875   4.082   6.679
 4088TIP3   OH212208   2.922   3.896   0.014
 4088TIP3    H112209   2.941   3.876   0.105
 4088TIP3    H212210   2.998   3.945  -0.017
 4089TIP3   OH212211   5.663   6.854   0.315
 4089TIP3    H112212   5.655   6.831   0.408
 4089TIP3    H212213   5.753   6.884   0.306
 4090TIP3   OH212214   3.328   1.903   4.688
 4090TIP3    H112215   3.237   1.927   4.673
 4090TIP3    H212216   3.323   1.829   4.748
 4091TIP3   OH212217   0.671   5.640   1.501
 4091TIP3    H112218   0.578   5.662   1.508
 4091TIP3    H212219   0.713   5.686   1.574
 4092TIP3   OH212220   7.263   2.978   2.428
 4092TIP3    H112221   7.177   2.940   2.413
 4092TIP3    H212222   7.318   2.943   2.357
 4093TIP3   OH212223   6.986   5.168   4.795
 4093TIP3    H112224   6.961   5.167   4.703
 4093TIP3    H212225   6.979   5.260   4.821
 4094TIP3   OH212226   1.631   6.946   3.052
 4094TIP3    H112227   1.678   7.025   3.080
 4094TIP3    H212228   1.628   6.953   2.957
 4095TIP3   OH212229   5.806   5.858   0.065
 4095TIP3    H112230   5.883   5.840   0.119
 4095TIP3    H212231   5.735   5.868   0.128
 4096TIP3   OH212232   6.280   0.013   1.868
 4096TIP3    H112233   6.214   0.063   1.821
 4096TIP3    H212234   6.317   0.076   1.930
 4097TIP3   OH212235   4.556   5.127   3.972
 4097TIP3    H112236   4.610   5.133   4.051
 4097TIP3    H212237   4.593   5.053   3.924
 4098TIP3   OH212238   6.797   3.512   1.549
 4098TIP3    H112239   6.806   3.562   1.629
 4098TIP3    H212240   6.714   3.466   1.558
 4099TIP3   OH212241   7.606   4.355   4.863
 4099TIP3    H112242   7.535   4.373   4.924
 4099TIP3    H212243   7.609   4.259   4.857
 4100TIP3   OH212244   4.537   7.435   4.260
 4100TIP3    H112245   4.577   7.513   4.219
 4100TIP3    H212246   4.561   7.363   4.202
 4101TIP3   OH212247   0.843   6.747   6.233
 4101TIP3    H112248   0.841   6.834   6.193
 4101TIP3    H212249   0.878   6.763   6.321
 4102TIP3   OH212250   5.397   2.053   5.950
 4102TIP3    H112251   5.392   2.106   6.029
 4102TIP3    H212252   5.340   1.978   5.968
 4103TIP3   OH212253   5.540   4.897   6.535
 4103TIP3    H112254   5.599   4.913   6.609
 4103TIP3    H212255   5.588   4.837   6.478
 4104TIP3   OH212256   4.838   3.560   2.429
 4104TIP3    H112257   4.777   3.530   2.362
 4104TIP3    H212258   4.789   3.553   2.511
 4105TIP3   OH212259   3.005   0.117   5.316
 4105TIP3    H112260   2.999   0.171   5.237
 4105TIP3    H212261   2.996   0.027   5.284
 4106TIP3   OH212262   7.609   4.625   5.320
 4106TIP3    H112263   7.557   4.640   5.240
 4106TIP3    H212264   7.687   4.578   5.289
 4107TIP3   OH212265   3.627   1.874   2.410
 4107TIP3    H112266   3.629   1.868   2.506
 4107TIP3    H212267   3.536   1.856   2.387
 4108TIP3   OH212268   2.135   5.598   4.054
 4108TIP3    H112269   2.159   5.673   4.109
 4108TIP3    H212270   2.217   5.572   4.011
 4109TIP3   OH212271   6.914   2.992   0.058
 4109TIP3    H112272   6.949   3.081   0.049
 4109TIP3    H212273   6.927   2.971   0.150
 4110TIP3   OH212274   6.020   1.671   4.175
 4110TIP3    H112275   6.048   1.754   4.212
 4110TIP3    H212276   6.075   1.605   4.218
 4111TIP3   OH212277   1.451   1.922   0.420
 4111TIP3    H112278   1.357   1.925   0.407
 4111TIP3    H212279   1.488   1.938   0.333
 4112TIP3   OH212280   6.422   4.283   1.537
 4112TIP3    H112281   6.373   4.210   1.575
 4112TIP3    H212282   6.410   4.355   1.598
 4113TIP3   OH212283   3.538   5.356   4.069
 4113TIP3    H112284   3.474   5.370   4.139
 4113TIP3    H212285   3.617   5.401   4.099
 4114TIP3   OH212286   0.195   2.715   6.317
 4114TIP3    H112287   0.120   2.675   6.275
 4114TIP3    H212288   0.241   2.761   6.247
 4115TIP3   OH212289   5.146   2.919   0.388
 4115TIP3    H112290   5.121   2.970   0.311
 4115TIP3    H212291   5.069   2.923   0.445
 4116TIP3   OH212292   0.159   0.765   1.742
 4116TIP3    H112293   0.065   0.779   1.757
 4116TIP3    H212294   0.196   0.755   1.830
 4117TIP3   OH212295   0.325   5.382   5.412
 4117TIP3    H112296   0.291   5.405   5.325
 4117TIP3    H212297   0.412   5.345   5.394
 4118TIP3   OH212298   6.992   5.717   6.108
 4118TIP3    H112299   6.908   5.754   6.137
 4118TIP3    H212300   7.051   5.730   6.182
 4119TIP3   OH212301   3.744   5.414   5.204
 4119TIP3    H112302   3.830   5.455   5.218
 4119TIP3    H212303   3.684   5.466   5.258
 4120TIP3   OH212304   7.813   1.218   6.229
 4120TIP3    H112305   7.815   1.157   6.155
 4120TIP3    H212306   7.905   1.234   6.250
 4121TIP3   OH212307   4.415   4.795   0.936
 4121TIP3    H112308   4.473   4.730   0.976
 4121TIP3    H212309   4.327   4.766   0.958
 4122TIP3   OH212310   3.112   7.361   3.465
 4122TIP3    H112311   3.147   7.273   3.458
 4122TIP3    H212312   3.163   7.413   3.403
 4123TIP3   OH212313   0.202   0.819   0.265
 4123TIP3    H112314   0.241   0.905   0.276
 4123TIP3    H212315   0.185   0.788   0.354
 4124TIP3   OH212316   4.459   0.530   2.603
 4124TIP3    H112317   4.380   0.484   2.630
 4124TIP3    H212318   4.524   0.507   2.670
 4125TIP3   OH212319   3.175   1.870   0.264
 4125TIP3    H112320   3.116   1.882   0.339
 4125TIP3    H212321   3.133   1.919   0.193
 4126TIP3   OH212322   0.418   6.781   2.728
 4126TIP3    H112323   0.363   6.730   2.669
 4126TIP3    H212324   0.471   6.716   2.774
 4127TIP3   OH212325   8.108   4.618   5.817
 4127TIP3    H112326   8.057   4.538   5.815
 4127TIP3    H212327   8.198   4.588   5.831
 4128TIP3   OH212328   4.441   6.728   1.495
 4128TIP3    H112329   4.367   6.681   1.457
 4128TIP3    H212330   4.460   6.798   1.433
 4129TIP3   OH212331   5.406   1.854   4.591
 4129TIP3    H112332   5.465   1.909   4.541
 4129TIP3    H212333   5.346   1.818   4.526
 4130TIP3   OH212334   1.934   0.574   2.862
 4130TIP3    H112335   1.987   0.562   2.783
 4130TIP3    H212336   1.910   0.666   2.861
 4131TIP3   OH212337   0.490   2.659   0.682
 4131TIP3    H112338   0.426   2.711   0.730
 4131TIP3    H212339   0.440   2.617   0.612
 4132TIP3   OH212340   1.556   0.072   1.089
 4132TIP3    H112341   1.526   0.162   1.077
 4132TIP3    H212342   1.504   0.039   1.162
 4133TIP3   OH212343   5.590   3.774   3.838
 4133TIP3    H112344   5.613   3.861   3.872
 4133TIP3    H212345   5.500   3.760   3.867
 4134TIP3   OH212346   5.525   7.220   1.864
 4134TIP3    H112347   5.590   7.159   1.898
 4134TIP3    H212348   5.460   7.165   1.821
 4135TIP3   OH212349   3.796   0.373   2.914
 4135TIP3    H112350   3.765   0.283   2.904
 4135TIP3    H212351   3.801   0.406   2.825
 4136TIP3   OH212352   2.250   4.904   2.008
 4136TIP3    H112353   2.154   4.904   2.015
 4136TIP3    H212354   2.279   4.950   2.087
 4137TIP3   OH212355   8.263   3.844   0.380
 4137TIP3    H112356   8.342   3.856   0.327
 4137TIP3    H212357   8.201   3.909   0.347
 4138TIP3   OH212358   7.911   2.626   0.377
 4138TIP3    H112359   7.972   2.625   0.303
 4138TIP3    H212360   7.953   2.573   0.444
 4139TIP3   OH212361   2.009   3.131   2.829
 4139TIP3    H112362   2.053   3.118   2.745
 4139TIP3    H212363   2.071   3.182   2.881
 4140TIP3   OH212364   6.015   4.844   2.772
 4140TIP3    H112365   5.994   4.937   2.775
 4140TIP3    H212366   6.106   4.840   2.743
 4141TIP3   OH212367   7.837   3.543   5.795
 4141TIP3    H112368   7.877   3.568   5.878
 4141TIP3    H212369   7.897   3.479   5.758
 4142TIP3   OH212370   0.085   1.196   3.465
 4142TIP3    H112371   0.038   1.119   3.434
 4142TIP3    H212372   0.019   1.264   3.473
 4143TIP3   OH212373   3.864   2.673   6.469
 4143TIP3    H112374   3.825   2.673   6.557
 4143TIP3    H212375   3.864   2.765   6.443
 4144TIP3   OH212376   1.667   7.719   3.543
 4144TIP3    H112377   1.614   7.716   3.622
 4144TIP3    H212378   1.630   7.651   3.486
 4145TIP3   OH212379   0.289   7.327   4.628
 4145TIP3    H112380   0.227   7.392   4.596
 4145TIP3    H212381   0.246   7.288   4.704
 4146TIP3   OH212382   2.824   1.879   2.195
 4146TIP3    H112383   2.864   1.913   2.275
 4146TIP3    H212384   2.772   1.804   2.224
 4147TIP3   OH212385   2.022   2.091   0.517
 4147TIP3    H112386   2.061   2.011   0.553
 4147TIP3    H212387   1.931   2.067   0.499
 4148TIP3   OH212388   2.971   6.962   2.341
 4148TIP3    H112389   2.879   6.960   2.369
 4148TIP3    H212390   2.971   6.914   2.258
 4149TIP3   OH212391   4.032   3.297   2.722
 4149TIP3    H112392   3.954   3.324   2.771
 4149TIP3    H212393   4.042   3.365   2.655
 4150TIP3   OH212394   7.902   4.352   1.387
 4150TIP3    H112395   7.855   4.274   1.357
 4150TIP3    H212396   7.991   4.341   1.353
 4151TIP3   OH212397   7.973   4.149   3.574
 4151TIP3    H112398   7.896   4.092   3.570
 4151TIP3    H212399   7.938   4.237   3.558
 4152TIP3   OH212400   4.202   1.036   1.874
 4152TIP3    H112401   4.188   1.095   1.800
 4152TIP3    H212402   4.278   1.072   1.920
 4153TIP3   OH212403   1.022   4.522   5.783
 4153TIP3    H112404   0.973   4.481   5.855
 4153TIP3    H212405   1.015   4.616   5.800
 4154TIP3   OH212406   7.558   0.828   6.093
 4154TIP3    H112407   7.586   0.748   6.048
 4154TIP3    H212408   7.559   0.804   6.186
 4155TIP3   OH212409   7.541   2.958   1.362
 4155TIP3    H112410   7.528   3.052   1.366
 4155TIP3    H212411   7.493   2.930   1.284
 4156TIP3   OH212412   6.251   2.336   6.097
 4156TIP3    H112413   6.330   2.290   6.068
 4156TIP3    H212414   6.178   2.283   6.064
 4157TIP3   OH212415   0.416   2.903   3.035
 4157TIP3    H112416   0.456   2.878   2.952
 4157TIP3    H212417   0.483   2.954   3.080
 4158TIP3   OH212418   6.872   6.543   1.388
 4158TIP3    H112419   6.901   6.613   1.446
 4158TIP3    H212420   6.949   6.522   1.335
 4159TIP3   OH212421   2.738   7.114   2.844
 4159TIP3    H112422   2.744   7.192   2.899
 4159TIP3    H212423   2.795   7.133   2.770
 4160TIP3   OH212424   6.582   2.306   3.098
 4160TIP3    H112425   6.537   2.365   3.037
 4160TIP3    H212426   6.600   2.227   3.046
 4161TIP3   OH212427   7.205   0.744   0.984
 4161TIP3    H112428   7.177   0.804   1.053
 4161TIP3    H212429   7.296   0.723   1.005
 4162TIP3   OH212430   5.039   0.026   4.865
 4162TIP3    H112431   5.049  -0.053   4.812
 4162TIP3    H212432   5.064   0.097   4.805
 4163TIP3   OH212433   4.863   4.934   5.432
 4163TIP3    H112434   4.793   4.908   5.492
 4163TIP3    H212435   4.818   4.967   5.354
 4164TIP3   OH212436   8.246   2.383   3.378
 4164TIP3    H112437   8.333   2.418   3.361
 4164TIP3    H212438   8.191   2.420   3.309
 4165TIP3   OH212439   2.181   2.801   3.463
 4165TIP3    H112440   2.095   2.833   3.434
 4165TIP3    H212441   2.169   2.707   3.475
 4166TIP3   OH212442   6.868   2.250   2.300
 4166TIP3    H112443   6.919   2.315   2.251
 4166TIP3    H212444   6.913   2.243   2.384
 4167TIP3   OH212445   3.219   6.746   2.859
 4167TIP3    H112446   3.247   6.655   2.865
 4167TIP3    H212447   3.127   6.742   2.833
 4168TIP3   OH212448   8.176   4.459   3.468
 4168TIP3    H112449   8.172   4.382   3.526
 4168TIP3    H212450   8.194   4.532   3.527
 4169TIP3   OH212451   4.957   4.097   6.359
 4169TIP3    H112452   5.018   4.140   6.300
 4169TIP3    H212453   4.949   4.157   6.433
 4170TIP3   OH212454   2.654   5.911   2.011
 4170TIP3    H112455   2.566   5.902   1.975
 4170TIP3    H212456   2.689   5.822   2.013
 4171TIP3   OH212457   7.044   5.188   6.351
 4171TIP3    H112458   7.067   5.178   6.258
 4171TIP3    H212459   7.128   5.182   6.397
 4172TIP3   OH212460   4.073   1.910   1.352
 4172TIP3    H112461   3.990   1.957   1.360
 4172TIP3    H212462   4.076   1.882   1.260
 4173TIP3   OH212463   1.798   6.656   3.471
 4173TIP3    H112464   1.776   6.689   3.384
 4173TIP3    H212465   1.871   6.711   3.499
 4174TIP3   OH212466   5.768   3.174   6.327
 4174TIP3    H112467   5.773   3.250   6.269
 4174TIP3    H212468   5.850   3.176   6.377
 4175TIP3   OH212469   5.635   0.871   0.715
 4175TIP3    H112470   5.726   0.861   0.743
 4175TIP3    H212471   5.634   0.834   0.626
 4176TIP3   OH212472   0.304   1.136   4.884
 4176TIP3    H112473   0.247   1.183   4.822
 4176TIP3    H212474   0.352   1.074   4.830
 4177TIP3   OH212475   7.256   1.254   4.915
 4177TIP3    H112476   7.327   1.192   4.930
 4177TIP3    H212477   7.298   1.329   4.872
 4178TIP3   OH212478   0.931   5.283   2.103
 4178TIP3    H112479   1.002   5.311   2.160
 4178TIP3    H212480   0.974   5.250   2.025
 4179TIP3   OH212481   5.668   2.932   5.257
 4179TIP3    H112482   5.721   2.875   5.313
 4179TIP3    H212483   5.727   3.003   5.233
 4180TIP3   OH212484   5.176   6.597   4.070
 4180TIP3    H112485   5.207   6.685   4.049
 4180TIP3    H212486   5.171   6.595   4.166
 4181TIP3   OH212487   3.222   5.102   1.029
 4181TIP3    H112488   3.208   5.018   0.987
 4181TIP3    H212489   3.282   5.083   1.102
 4182TIP3   OH212490   2.415   3.372   5.489
 4182TIP3    H112491   2.387   3.453   5.532
 4182TIP3    H212492   2.372   3.375   5.403
 4183TIP3   OH212493   1.186   4.517   2.687
 4183TIP3    H112494   1.158   4.604   2.715
 4183TIP3    H212495   1.162   4.513   2.594
 4184TIP3   OH212496   0.299   3.503   1.341
 4184TIP3    H112497   0.211   3.536   1.327
 4184TIP3    H212498   0.287   3.422   1.390
 4185TIP3   OH212499   1.508   1.932   2.677
 4185TIP3    H112500   1.590   1.968   2.644
 4185TIP3    H212501   1.469   2.004   2.726
 4186TIP3   OH212502   6.833   5.202   1.696
 4186TIP3    H112503   6.805   5.293   1.687
 4186TIP3    H212504   6.886   5.202   1.776
 4187TIP3   OH212505   1.654   2.583   4.005
 4187TIP3    H112506   1.657   2.668   4.050
 4187TIP3    H212507   1.737   2.578   3.958
 4188TIP3   OH212508   1.647   4.314   4.787
 4188TIP3    H112509   1.718   4.376   4.803
 4188TIP3    H212510   1.685   4.251   4.725
 4189TIP3   OH212511   7.870   6.410   5.749
 4189TIP3    H112512   7.811   6.419   5.824
 4189TIP3    H212513   7.825   6.349   5.690
 4190TIP3   OH212514   5.746   6.543   6.337
 4190TIP3    H112515   5.713   6.456   6.314
 4190TIP3    H212516   5.696   6.602   6.280
 4191TIP3   OH212517   3.102   4.479   1.993
 4191TIP3    H112518   3.150   4.545   2.043
 4191TIP3    H212519   3.166   4.442   1.933
 4192TIP3   OH212520   2.223   7.247   3.252
 4192TIP3    H112521   2.193   7.337   3.237
 4192TIP3    H212522   2.297   7.256   3.312
 4193TIP3   OH212523   7.061   2.617   1.322
 4193TIP3    H112524   7.119   2.671   1.375
 4193TIP3    H212525   7.017   2.678   1.263
 4194TIP3   OH212526   3.480   6.232   1.088
 4194TIP3    H112527   3.549   6.221   1.154
 4194TIP3    H212528   3.491   6.157   1.029
 4195TIP3   OH212529   3.724   6.484   0.582
 4195TIP3    H112530   3.766   6.420   0.639
 4195TIP3    H212531   3.635   6.452   0.570
 4196TIP3   OH212532   7.801   2.839   0.520
 4196TIP3    H112533   7.791   2.902   0.448
 4196TIP3    H212534   7.861   2.773   0.485
 4197TIP3   OH212535   4.746   6.321   4.681
 4197TIP3    H112536   4.703   6.239   4.655
 4197TIP3    H212537   4.839   6.298   4.687
 4198TIP3   OH212538   6.516   7.417   2.575
 4198TIP3    H112539   6.598   7.425   2.527
 4198TIP3    H212540   6.452   7.389   2.510
 4199TIP3   OH212541   7.972   2.333   2.219
 4199TIP3    H112542   7.977   2.413   2.167
 4199TIP3    H212543   8.021   2.353   2.299
 4200TIP3   OH212544   2.161   0.198   6.176
 4200TIP3    H112545   2.198   0.175   6.261
 4200TIP3    H212546   2.078   0.150   6.172
 4201TIP3   OH212547   2.364   0.283   0.587
 4201TIP3    H112548   2.433   0.237   0.538
 4201TIP3    H212549   2.284   0.237   0.563
 4202TIP3   OH212550   6.043   4.492   3.081
 4202TIP3    H112551   6.090   4.436   3.020
 4202TIP3    H212552   6.041   4.443   3.163
 4203TIP3   OH212553   2.401   1.426   5.226
 4203TIP3    H112554   2.345   1.480   5.170
 4203TIP3    H212555   2.432   1.486   5.294
 4204TIP3   OH212556   1.485   2.461   0.519
 4204TIP3    H112557   1.413   2.401   0.533
 4204TIP3    H212558   1.457   2.543   0.560
 4205TIP3   OH212559   4.623   5.724   2.892
 4205TIP3    H112560   4.667   5.772   2.962
 4205TIP3    H212561   4.560   5.786   2.856
 4206TIP3   OH212562   1.518   6.203   0.197
 4206TIP3    H112563   1.438   6.205   0.250
 4206TIP3    H212564   1.519   6.114   0.160
 4207TIP3   OH212565   0.083   7.220   1.203
 4207TIP3    H112566   0.087   7.281   1.277
 4207TIP3    H212567   0.035   7.144   1.236
 4208TIP3   OH212568   4.730   6.743   5.068
 4208TIP3    H112569   4.649   6.771   5.110
 4208TIP3    H212570   4.781   6.702   5.138
 4209TIP3   OH212571   6.413   7.242   6.805
 4209TIP3    H112572   6.509   7.244   6.802
 4209TIP3    H212573   6.386   7.257   6.715
 4210TIP3   OH212574   5.385   4.401   2.186
 4210TIP3    H112575   5.332   4.477   2.162
 4210TIP3    H212576   5.476   4.433   2.185
 4211TIP3   OH212577   3.464   5.917   2.690
 4211TIP3    H112578   3.394   5.864   2.650
 4211TIP3    H212579   3.541   5.861   2.683
 4212TIP3   OH212580   0.430   3.799   4.756
 4212TIP3    H112581   0.479   3.881   4.748
 4212TIP3    H212582   0.453   3.767   4.844
 4213TIP3   OH212583   4.016   6.517   6.702
 4213TIP3    H112584   3.944   6.541   6.644
 4213TIP3    H212585   3.983   6.535   6.790
 4214TIP3   OH212586   3.706   3.721   4.839
 4214TIP3    H112587   3.619   3.729   4.877
 4214TIP3    H212588   3.765   3.719   4.914
 4215TIP3   OH212589   6.982   7.733   6.777
 4215TIP3    H112590   6.945   7.821   6.781
 4215TIP3    H212591   7.073   7.746   6.749
 4216TIP3   OH212592   5.113   1.558   0.084
 4216TIP3    H112593   5.175   1.502   0.037
 4216TIP3    H212594   5.121   1.643   0.043
 4217TIP3   OH212595   8.068   0.992   1.127
 4217TIP3    H112596   8.130   0.949   1.068
 4217TIP3    H212597   8.083   1.086   1.113
 4218TIP3   OH212598   1.158   0.368   2.317
 4218TIP3    H112599   1.101   0.323   2.380
 4218TIP3    H212600   1.099   0.419   2.263
 4219TIP3   OH212601   2.870   1.372   4.744
 4219TIP3    H112602   2.799   1.313   4.768
 4219TIP3    H212603   2.864   1.379   4.649
 4220TIP3   OH212604   1.607   5.158   6.202
 4220TIP3    H112605   1.701   5.148   6.217
 4220TIP3    H212606   1.576   5.069   6.184
 4221TIP3   OH212607   4.266   2.334   1.545
 4221TIP3    H112608   4.171   2.339   1.536
 4221TIP3    H212609   4.288   2.246   1.515
 4222TIP3   OH212610   0.426   1.030   5.242
 4222TIP3    H112611   0.353   1.073   5.198
 4222TIP3    H212612   0.486   1.101   5.265
 4223TIP3   OH212613   1.232   2.228   1.056
 4223TIP3    H112614   1.238   2.311   1.104
 4223TIP3    H212615   1.290   2.240   0.981
 4224TIP3   OH212616   7.192   2.933   5.666
 4224TIP3    H112617   7.230   2.846   5.674
 4224TIP3    H212618   7.100   2.917   5.645
 4225TIP3   OH212619   3.046   1.996   0.476
 4225TIP3    H112620   3.121   2.053   0.460
 4225TIP3    H212621   2.993   2.044   0.540
 4226TIP3   OH212622   7.200   2.914   3.966
 4226TIP3    H112623   7.184   2.963   3.885
 4226TIP3    H212624   7.232   2.829   3.936
 4227TIP3   OH212625   4.738   3.885   6.490
 4227TIP3    H112626   4.777   3.936   6.561
 4227TIP3    H212627   4.748   3.794   6.518
 4228TIP3   OH212628   6.238   4.243   4.670
 4228TIP3    H112629   6.312   4.184   4.686
 4228TIP3    H212630   6.190   4.201   4.598
 4229TIP3   OH212631   4.268   0.204   0.833
 4229TIP3    H112632   4.326   0.194   0.758
 4229TIP3    H212633   4.326   0.228   0.905
 4230TIP3   OH212634   2.750   6.448   5.549
 4230TIP3    H112635   2.743   6.539   5.577
 4230TIP3    H212636   2.666   6.409   5.571
 4231TIP3   OH212637   7.265   0.575   5.911
 4231TIP3    H112638   7.258   0.645   5.846
 4231TIP3    H212639   7.174   0.559   5.939
 4232TIP3   OH212640   8.245   4.417   1.338
 4232TIP3    H112641   8.258   4.382   1.426
 4232TIP3    H212642   8.275   4.348   1.280
 4233TIP3   OH212643   4.674   1.349   0.253
 4233TIP3    H112644   4.677   1.253   0.250
 4233TIP3    H212645   4.761   1.377   0.226
 4234TIP3   OH212646   3.539   0.689   0.246
 4234TIP3    H112647   3.631   0.664   0.259
 4234TIP3    H212648   3.489   0.620   0.290
 4235TIP3   OH212649   0.176   0.389   3.668
 4235TIP3    H112650   0.171   0.472   3.717
 4235TIP3    H212651   0.103   0.337   3.702
 4236TIP3   OH212652   1.903   2.884   2.889
 4236TIP3    H112653   1.929   2.973   2.867
 4236TIP3    H212654   1.924   2.875   2.982
 4237TIP3   OH212655   5.136   3.281   5.193
 4237TIP3    H112656   5.043   3.262   5.180
 4237TIP3    H212657   5.170   3.201   5.233
 4238TIP3   OH212658   4.042   6.772   5.666
 4238TIP3    H112659   4.082   6.751   5.751
 4238TIP3    H212660   4.068   6.700   5.609
 4239TIP3   OH212661   2.174   2.869   3.013
 4239TIP3    H112662   2.114   2.806   3.051
 4239TIP3    H212663   2.216   2.822   2.941
 4240TIP3   OH212664   6.878   2.878   2.836
 4240TIP3    H112665   6.799   2.933   2.837
 4240TIP3    H212666   6.946   2.933   2.876
 4241TIP3   OH212667   7.818   6.602   0.385
 4241TIP3    H112668   7.800   6.540   0.455
 4241TIP3    H212669   7.893   6.564   0.338
 4242TIP3   OH212670   5.222   4.231   3.317
 4242TIP3    H112671   5.141   4.275   3.293
 4242TIP3    H212672   5.280   4.246   3.243
 4243TIP3   OH212673   5.376   7.602   4.012
 4243TIP3    H112674   5.333   7.540   3.953
 4243TIP3    H212675   5.345   7.688   3.984
 4244TIP3   OH212676   4.048   7.262   3.772
 4244TIP3    H112677   3.987   7.234   3.704
 4244TIP3    H212678   4.082   7.345   3.740
 4245TIP3   OH212679   7.445   6.336   6.068
 4245TIP3    H112680   7.539   6.352   6.078
 4245TIP3    H212681   7.422   6.279   6.141
 4246TIP3   OH212682   1.733   2.645   4.325
 4246TIP3    H112683   1.710   2.553   4.340
 4246TIP3    H212684   1.660   2.680   4.273
 4247TIP3   OH212685   6.497   7.165   0.348
 4247TIP3    H112686   6.413   7.202   0.375
 4247TIP3    H212687   6.530   7.121   0.426
 4248TIP3   OH212688   4.304   1.812   6.730
 4248TIP3    H112689   4.289   1.886   6.672
 4248TIP3    H212690   4.234   1.818   6.796
 4249TIP3   OH212691   2.751   1.215   5.287
 4249TIP3    H112692   2.664   1.197   5.253
 4249TIP3    H212693   2.770   1.304   5.258
 4250TIP3   OH212694   2.155   4.064   3.658
 4250TIP3    H112695   2.079   4.121   3.675
 4250TIP3    H212696   2.168   4.070   3.564
 4251TIP3   OH212697   5.270   2.950   0.804
 4251TIP3    H112698   5.293   2.928   0.713
 4251TIP3    H212699   5.321   3.028   0.823
 4252TIP3   OH212700   5.186   3.506   0.595
 4252TIP3    H112701   5.142   3.453   0.662
 4252TIP3    H212702   5.183   3.452   0.516
 4253TIP3   OH212703   5.548   5.460   1.604
 4253TIP3    H112704   5.575   5.544   1.640
 4253TIP3    H212705   5.479   5.481   1.541
 4254TIP3   OH212706   0.758   2.188   5.119
 4254TIP3    H112707   0.786   2.274   5.088
 4254TIP3    H212708   0.837   2.133   5.113
 4255TIP3   OH212709   2.941   3.152   0.392
 4255TIP3    H112710   2.975   3.065   0.409
 4255TIP3    H212711   3.003   3.211   0.436
 4256TIP3   OH212712   3.276   6.876   5.524
 4256TIP3    H112713   3.338   6.921   5.581
 4256TIP3    H212714   3.330   6.843   5.452
 4257TIP3   OH212715   2.914   2.684   5.594
 4257TIP3    H112716   2.963   2.759   5.562
 4257TIP3    H212717   2.833   2.684   5.542
 4258TIP3   OH212718   5.301   4.280   6.204
 4258TIP3    H112719   5.224   4.250   6.156
 4258TIP3    H212720   5.351   4.332   6.140
 4259TIP3   OH212721   0.726   6.572   3.294
 4259TIP3    H112722   0.729   6.627   3.372
 4259TIP3    H212723   0.777   6.621   3.229
 4260TIP3   OH212724   6.779   0.824   1.030
 4260TIP3    H112725   6.744   0.872   1.106
 4260TIP3    H212726   6.854   0.876   1.001
 4261TIP3   OH212727   4.020   6.303   4.576
 4261TIP3    H112728   4.088   6.368   4.591
 4261TIP3    H212729   4.039   6.269   4.489
 4262TIP3   OH212730   7.902   4.857   2.150
 4262TIP3    H112731   7.930   4.797   2.081
 4262TIP3    H212732   7.848   4.803   2.209
 4263TIP3   OH212733   0.732   0.671   3.677
 4263TIP3    H112734   0.686   0.598   3.718
 4263TIP3    H212735   0.668   0.742   3.674
 4264TIP3   OH212736   1.586   6.957   1.331
 4264TIP3    H112737   1.622   7.030   1.382
 4264TIP3    H212738   1.658   6.931   1.273
 4265TIP3   OH212739   7.619   5.563   6.628
 4265TIP3    H112740   7.654   5.508   6.558
 4265TIP3    H212741   7.605   5.503   6.701
 4266TIP3   OH212742   6.414   1.220   0.089
 4266TIP3    H112743   6.349   1.264   0.035
 4266TIP3    H212744   6.420   1.132   0.053
 4267TIP3   OH212745   1.783   0.293   1.930
 4267TIP3    H112746   1.818   0.329   1.849
 4267TIP3    H212747   1.779   0.199   1.916
 4268TIP3   OH212748   3.679   2.651   1.468
 4268TIP3    H112749   3.747   2.710   1.500
 4268TIP3    H212750   3.637   2.699   1.397
 4269TIP3   OH212751   0.227   4.177   4.839
 4269TIP3    H112752   0.150   4.195   4.786
 4269TIP3    H212753   0.198   4.113   4.904
 4270TIP3   OH212754   1.152   1.884   6.008
 4270TIP3    H112755   1.218   1.900   6.075
 4270TIP3    H212756   1.156   1.790   5.991
 4271TIP3   OH212757   0.513   1.114   3.307
 4271TIP3    H112758   0.453   1.145   3.375
 4271TIP3    H212759   0.558   1.193   3.276
 4272TIP3   OH212760   3.679   3.455   2.457
 4272TIP3    H112761   3.587   3.430   2.457
 4272TIP3    H212762   3.698   3.477   2.365
 4273TIP3   OH212763   7.209   5.352   5.784
 4273TIP3    H112764   7.129   5.356   5.731
 4273TIP3    H212765   7.249   5.439   5.774
 4274TIP3   OH212766   2.421   5.342   1.913
 4274TIP3    H112767   2.441   5.321   1.822
 4274TIP3    H212768   2.331   5.312   1.925
 4275TIP3   OH212769   4.152   2.926   2.828
 4275TIP3    H112770   4.131   2.846   2.877
 4275TIP3    H212771   4.094   2.993   2.864
 4276TIP3   OH212772   2.247   2.242   0.501
 4276TIP3    H112773   2.162   2.198   0.503
 4276TIP3    H212774   2.253   2.278   0.412
 4277TIP3   OH212775   3.399   0.030   6.395
 4277TIP3    H112776   3.390   0.009   6.488
 4277TIP3    H212777   3.319   0.079   6.374
 4278TIP3   OH212778   6.179   0.261   5.397
 4278TIP3    H112779   6.244   0.194   5.374
 4278TIP3    H212780   6.176   0.318   5.320
 4279TIP3   OH212781   3.312   6.211   3.720
 4279TIP3    H112782   3.342   6.134   3.671
 4279TIP3    H212783   3.372   6.281   3.694
 4280TIP3   OH212784   1.654   5.028   3.944
 4280TIP3    H112785   1.620   4.950   3.987
 4280TIP3    H212786   1.728   5.055   3.999
 4281TIP3   OH212787   2.124   7.458   1.141
 4281TIP3    H112788   2.127   7.363   1.145
 4281TIP3    H212789   2.117   7.478   1.048
 4282TIP3   OH212790   7.314   5.607   5.731
 4282TIP3    H112791   7.338   5.684   5.680
 4282TIP3    H212792   7.348   5.625   5.819
 4283TIP3   OH212793   3.440   2.915   3.247
 4283TIP3    H112794   3.483   2.958   3.173
 4283TIP3    H212795   3.478   2.958   3.325
 4284TIP3   OH212796   7.551   2.157   0.705
 4284TIP3    H112797   7.503   2.076   0.723
 4284TIP3    H212798   7.625   2.155   0.766
 4285TIP3   OH212799   3.345   3.278   5.205
 4285TIP3    H112800   3.420   3.269   5.263
 4285TIP3    H212801   3.379   3.324   5.128
 4286TIP3   OH212802   3.794   1.249   5.448
 4286TIP3    H112803   3.769   1.192   5.521
 4286TIP3    H212804   3.714   1.294   5.423
 4287TIP3   OH212805   0.224   2.890   0.354
 4287TIP3    H112806   0.134   2.876   0.384
 4287TIP3    H212807   0.248   2.976   0.387
 4288TIP3   OH212808   7.776   4.848   4.420
 4288TIP3    H112809   7.803   4.910   4.351
 4288TIP3    H212810   7.859   4.814   4.455
 4289TIP3   OH212811   1.744   2.582   1.252
 4289TIP3    H112812   1.810   2.641   1.289
 4289TIP3    H212813   1.738   2.607   1.160
 4290TIP3   OH212814   5.675   4.903   4.575
 4290TIP3    H112815   5.766   4.923   4.551
 4290TIP3    H212816   5.665   4.938   4.664
 4291TIP3   OH212817   3.905   3.601   0.250
 4291TIP3    H112818   3.972   3.606   0.181
 4291TIP3    H212819   3.919   3.516   0.292
 4292TIP3   OH212820   1.649   0.153   5.624
 4292TIP3    H112821   1.569   0.157   5.570
 4292TIP3    H212822   1.720   0.143   5.561
 4293TIP3   OH212823   8.148   1.215   3.749
 4293TIP3    H112824   8.152   1.297   3.699
 4293TIP3    H212825   8.152   1.146   3.682
 4294TIP3   OH212826   6.086   6.628   4.692
 4294TIP3    H112827   6.065   6.609   4.783
 4294TIP3    H212828   6.015   6.685   4.662
 4295TIP3   OH212829   7.378   3.725   4.430
 4295TIP3    H112830   7.325   3.801   4.456
 4295TIP3    H212831   7.427   3.702   4.509
 4296TIP3   OH212832   0.545   2.964   1.482
 4296TIP3    H112833   0.553   2.878   1.524
 4296TIP3    H212834   0.541   3.026   1.555
 4297TIP3   OH212835   5.235   4.753   3.755
 4297TIP3    H112836   5.202   4.731   3.841
 4297TIP3    H212837   5.157   4.775   3.703
 4298TIP3   OH212838   6.163   6.612   3.073
 4298TIP3    H112839   6.210   6.552   3.131
 4298TIP3    H212840   6.075   6.575   3.066
 4299TIP3   OH212841   7.853   1.115   4.969
 4299TIP3    H112842   7.889   1.030   4.994
 4299TIP3    H212843   7.782   1.094   4.908
 4300TIP3   OH212844   4.729   7.550   5.324
 4300TIP3    H112845   4.668   7.569   5.253
 4300TIP3    H212846   4.680   7.571   5.403
 4301TIP3   OH212847   3.914   2.615   1.902
 4301TIP3    H112848   3.824   2.648   1.898
 4301TIP3    H212849   3.955   2.666   1.972
 4302TIP3   OH212850   3.492   4.012   2.767
 4302TIP3    H112851   3.569   4.063   2.740
 4302TIP3    H212852   3.421   4.044   2.712
 4303TIP3   OH212853   4.129   0.827   1.664
 4303TIP3    H112854   4.171   0.880   1.596
 4303TIP3    H212855   4.136   0.880   1.743
 4304TIP3   OH212856   0.443   4.696   0.905
 4304TIP3    H112857   0.363   4.645   0.909
 4304TIP3    H212858   0.453   4.733   0.992
 4305TIP3   OH212859   2.975   4.760   1.363
 4305TIP3    H112860   2.974   4.833   1.425
 4305TIP3    H212861   3.064   4.726   1.367
 4306TIP3   OH212862   0.664   2.576   6.486
 4306TIP3    H112863   0.719   2.572   6.564
 4306TIP3    H212864   0.621   2.661   6.491
 4307TIP3   OH212865   3.531   5.456   0.984
 4307TIP3    H112866   3.526   5.361   0.991
 4307TIP3    H212867   3.442   5.486   1.002
 4308TIP3   OH212868   4.241   6.277   1.988
 4308TIP3    H112869   4.161   6.298   2.037
 4308TIP3    H212870   4.262   6.188   2.015
 4309TIP3   OH212871   6.686   7.155   4.121
 4309TIP3    H112872   6.629   7.079   4.109
 4309TIP3    H212873   6.760   7.122   4.172
 4310TIP3   OH212874   0.394   0.117   0.572
 4310TIP3    H112875   0.436   0.163   0.645
 4310TIP3    H212876   0.342   0.184   0.529
 4311TIP3   OH212877   5.624   2.418   5.389
 4311TIP3    H112878   5.677   2.481   5.340
 4311TIP3    H212879   5.534   2.442   5.367
 4312TIP3   OH212880   6.726   5.322   4.031
 4312TIP3    H112881   6.764   5.398   3.986
 4312TIP3    H212882   6.697   5.356   4.115
 4313TIP3   OH212883   1.319   4.528   5.768
 4313TIP3    H112884   1.342   4.607   5.718
 4313TIP3    H212885   1.225   4.517   5.752
 4314TIP3   OH212886   1.753   4.002   4.111
 4314TIP3    H112887   1.662   3.993   4.137
 4314TIP3    H212888   1.751   4.002   4.015
 4315TIP3   OH212889   4.536   3.868   4.113
 4315TIP3    H112890   4.457   3.827   4.148
 4315TIP3    H212891   4.563   3.929   4.183
 4316TIP3   OH212892   6.627   7.612   3.141
 4316TIP3    H112893   6.535   7.639   3.141
 4316TIP3    H212894   6.633   7.546   3.209
 4317TIP3   OH212895   3.597   6.527   4.435
 4317TIP3    H112896   3.673   6.471   4.419
 4317TIP3    H212897   3.576   6.513   4.528
 4318TIP3   OH212898   2.539   0.036   3.066
 4318TIP3    H112899   2.634   0.021   3.064
 4318TIP3    H212900   2.524   0.107   3.005
 4319TIP3   OH212901   7.961   1.841   2.838
 4319TIP3    H112902   8.035   1.803   2.791
 4319TIP3    H212903   7.898   1.864   2.769
 4320TIP3   OH212904   3.570   6.409   3.631
 4320TIP3    H112905   3.600   6.414   3.541
 4320TIP3    H212906   3.485   6.454   3.631
 4321TIP3   OH212907   4.838   5.173   0.077
 4321TIP3    H112908   4.906   5.106   0.068
 4321TIP3    H212909   4.875   5.237   0.137
 4322TIP3   OH212910   3.046   0.196   3.581
 4322TIP3    H112911   3.083   0.207   3.493
 4322TIP3    H212912   3.110   0.140   3.626
 4323TIP3   OH212913   5.355   5.587   1.195
 4323TIP3    H112914   5.313   5.501   1.198
 4323TIP3    H212915   5.283   5.649   1.191
 4324TIP3   OH212916   4.232   0.239   6.274
 4324TIP3    H112917   4.204   0.214   6.186
 4324TIP3    H212918   4.190   0.324   6.289
 4325TIP3   OH212919   6.980   7.329   6.141
 4325TIP3    H112920   6.982   7.418   6.175
 4325TIP3    H212921   6.923   7.281   6.201
 4326TIP3   OH212922   3.198   2.376   5.543
 4326TIP3    H112923   3.197   2.405   5.451
 4326TIP3    H212924   3.287   2.396   5.573
 4327TIP3   OH212925   1.677   5.865   1.196
 4327TIP3    H112926   1.741   5.800   1.168
 4327TIP3    H212927   1.601   5.850   1.140
 4328TIP3   OH212928   3.079   4.340   5.470
 4328TIP3    H112929   3.049   4.392   5.396
 4328TIP3    H212930   3.174   4.353   5.472
 4329TIP3   OH212931   3.508   5.402   3.359
 4329TIP3    H112932   3.494   5.388   3.453
 4329TIP3    H212933   3.450   5.475   3.338
 4330TIP3   OH212934   2.705   7.271   3.122
 4330TIP3    H112935   2.676   7.363   3.124
 4330TIP3    H212936   2.704   7.244   3.214
 4331TIP3   OH212937   7.855   5.569   1.263
 4331TIP3    H112938   7.882   5.479   1.283
 4331TIP3    H212939   7.860   5.614   1.347
 4332TIP3   OH212940   0.497   1.522   3.708
 4332TIP3    H112941   0.480   1.609   3.673
 4332TIP3    H212942   0.541   1.538   3.792
 4333TIP3   OH212943   3.592   3.837   4.439
 4333TIP3    H112944   3.512   3.858   4.391
 4333TIP3    H212945   3.637   3.921   4.449
 4334TIP3   OH212946   4.062   0.923   6.024
 4334TIP3    H112947   4.053   0.976   6.103
 4334TIP3    H212948   3.977   0.928   5.981
 4335TIP3   OH212949   1.866   2.625   0.487
 4335TIP3    H112950   1.946   2.599   0.442
 4335TIP3    H212951   1.891   2.635   0.579
 4336TIP3   OH212952   0.754   3.325   4.811
 4336TIP3    H112953   0.805   3.286   4.740
 4336TIP3    H212954   0.681   3.369   4.768
 4337TIP3   OH212955   4.449   2.184   6.325
 4337TIP3    H112956   4.454   2.211   6.233
 4337TIP3    H212957   4.377   2.121   6.327
 4338TIP3   OH212958   1.417   6.857   3.413
 4338TIP3    H112959   1.354   6.842   3.342
 4338TIP3    H212960   1.428   6.771   3.453
 4339TIP3   OH212961   2.148   3.290   3.010
 4339TIP3    H112962   2.156   3.372   3.058
 4339TIP3    H212963   2.177   3.223   3.072
 4340TIP3   OH212964   3.928   6.006   5.597
 4340TIP3    H112965   3.920   6.005   5.501
 4340TIP3    H212966   3.999   6.067   5.615
 4341TIP3   OH212967   4.812   2.675   3.156
 4341TIP3    H112968   4.773   2.595   3.192
 4341TIP3    H212969   4.742   2.740   3.163
 4342TIP3   OH212970   3.366   1.368   3.125
 4342TIP3    H112971   3.395   1.315   3.051
 4342TIP3    H212972   3.419   1.448   3.119
 4343TIP3   OH212973   2.029   4.955   4.823
 4343TIP3    H112974   1.941   4.927   4.850
 4343TIP3    H212975   2.080   4.953   4.904
 4344TIP3   OH212976   6.658   1.287   3.165
 4344TIP3    H112977   6.669   1.305   3.072
 4344TIP3    H212978   6.723   1.343   3.208
 4345TIP3   OH212979   7.698   5.843   2.640
 4345TIP3    H112980   7.760   5.899   2.687
 4345TIP3    H212981   7.661   5.900   2.572
 4346TIP3   OH212982   6.736   6.839   2.412
 4346TIP3    H112983   6.717   6.774   2.345
 4346TIP3    H212984   6.783   6.908   2.365
 4347TIP3   OH212985   3.061   6.606   0.581
 4347TIP3    H112986   3.110   6.668   0.526
 4347TIP3    H212987   3.119   6.530   0.588
 4348TIP3   OH212988   6.026   6.472   1.834
 4348TIP3    H112989   6.075   6.471   1.917
 4348TIP3    H212990   6.068   6.405   1.781
 4349TIP3   OH212991   3.051   1.879   5.796
 4349TIP3    H112992   3.143   1.906   5.796
 4349TIP3    H212993   3.025   1.883   5.888
 4350TIP3   OH212994   4.207   6.307   1.428
 4350TIP3    H112995   4.230   6.230   1.375
 4350TIP3    H212996   4.141   6.275   1.489
 4351TIP3   OH212997   5.503   2.279   3.815
 4351TIP3    H112998   5.583   2.254   3.769
 4351TIP3    H212999   5.437   2.286   3.746
 4352TIP3   OH213000   4.470   0.395   2.043
 4352TIP3    H113001   4.547   0.431   2.086
 4352TIP3    H213002   4.430   0.339   2.109
 4353TIP3   OH213003   0.667   5.860   5.818
 4353TIP3    H113004   0.711   5.843   5.902
 4353TIP3    H213005   0.639   5.774   5.788
 4354TIP3   OH213006   4.643   3.441   5.785
 4354TIP3    H113007   4.555   3.477   5.781
 4354TIP3    H213008   4.631   3.349   5.806
 4355TIP3   OH213009   2.597   4.301   0.111
 4355TIP3    H113010   2.625   4.311   0.020
 4355TIP3    H213011   2.674   4.267   0.156
 4356TIP3   OH213012   0.833   7.626   4.543
 4356TIP3    H113013   0.898   7.668   4.599
 4356TIP3    H213014   0.752   7.674   4.560
 4357TIP3   OH213015   3.116   6.158   0.853
 4357TIP3    H113016   3.136   6.073   0.893
 4357TIP3    H213017   3.022   6.170   0.866
 4358TIP3   OH213018   1.182   6.276   2.618
 4358TIP3    H113019   1.273   6.301   2.605
 4358TIP3    H213020   1.132   6.337   2.563
 4359TIP3   OH213021   1.282   2.920   6.365
 4359TIP3    H113022   1.235   2.992   6.406
 4359TIP3    H213023   1.219   2.849   6.362
 4360TIP3   OH213024   7.060   4.530   0.789
 4360TIP3    H113025   6.984   4.495   0.743
 4360TIP3    H213026   7.022   4.586   0.857
 4361TIP3   OH213027   0.467   6.851   3.587
 4361TIP3    H113028   0.455   6.766   3.629
 4361TIP3    H213029   0.381   6.893   3.592
 4362TIP3   OH213030   0.593   7.320   5.627
 4362TIP3    H113031   0.557   7.278   5.705
 4362TIP3    H213032   0.681   7.346   5.652
 4363TIP3   OH213033   5.381   4.504   2.866
 4363TIP3    H113034   5.465   4.461   2.855
 4363TIP3    H213035   5.325   4.467   2.797
 4364TIP3   OH213036   7.422   6.450   2.026
 4364TIP3    H113037   7.491   6.476   1.966
 4364TIP3    H213038   7.424   6.516   2.095
 4365TIP3   OH213039   6.224   0.281   0.599
 4365TIP3    H113040   6.269   0.228   0.665
 4365TIP3    H213041   6.282   0.278   0.523
 4366TIP3   OH213042   3.928   7.448   1.618
 4366TIP3    H113043   3.910   7.539   1.596
 4366TIP3    H213044   3.926   7.446   1.714
 4367TIP3   OH213045   7.417   6.106   3.039
 4367TIP3    H113046   7.422   6.137   2.949
 4367TIP3    H213047   7.458   6.175   3.091
 4368TIP3   OH213048   2.248   1.279   2.710
 4368TIP3    H113049   2.271   1.198   2.756
 4368TIP3    H213050   2.332   1.321   2.692
 4369TIP3   OH213051   4.311   5.071   0.819
 4369TIP3    H113052   4.225   5.045   0.852
 4369TIP3    H213053   4.298   5.078   0.724
 4370TIP3   OH213054   6.366   6.329   3.828
 4370TIP3    H113055   6.277   6.308   3.854
 4370TIP3    H213056   6.411   6.351   3.911
 4371TIP3   OH213057   1.554   6.241   0.515
 4371TIP3    H113058   1.542   6.231   0.420
 4371TIP3    H213059   1.477   6.289   0.544
 4372TIP3   OH213060   3.789   0.857   4.121
 4372TIP3    H113061   3.822   0.947   4.121
 4372TIP3    H213062   3.762   0.841   4.212
 4373TIP3   OH213063   0.869   4.972   4.509
 4373TIP3    H113064   0.806   5.036   4.541
 4373TIP3    H213065   0.822   4.889   4.511
 4374TIP3   OH213066   2.104   7.767   1.912
 4374TIP3    H113067   2.164   7.840   1.928
 4374TIP3    H213068   2.069   7.784   1.825
 4375TIP3   OH213069   7.955   1.461   0.242
 4375TIP3    H113070   7.961   1.554   0.264
 4375TIP3    H213071   8.045   1.435   0.222
 4376TIP3   OH213072   2.816   1.954   4.645
 4376TIP3    H113073   2.775   2.022   4.592
 4376TIP3    H213074   2.743   1.900   4.676
 4377TIP3   OH213075   6.142   4.043   1.630
 4377TIP3    H113076   6.105   4.131   1.618
 4377TIP3    H213077   6.072   3.984   1.603
 4378TIP3   OH213078   1.118   6.984   1.472
 4378TIP3    H113079   1.040   7.025   1.510
 4378TIP3    H213080   1.136   6.910   1.529
 4379TIP3   OH213081   7.793   6.232   1.846
 4379TIP3    H113082   7.888   6.219   1.853
 4379TIP3    H213083   7.756   6.149   1.876
 4380TIP3   OH213084   5.365   5.874   2.055
 4380TIP3    H113085   5.415   5.843   2.131
 4380TIP3    H213086   5.366   5.969   2.063
 4381TIP3   OH213087   2.778   0.087   2.427
 4381TIP3    H113088   2.827   0.136   2.362
 4381TIP3    H213089   2.692   0.074   2.387
 4382TIP3   OH213090   2.031   1.262   3.738
 4382TIP3    H113091   2.082   1.194   3.692
 4382TIP3    H213092   1.987   1.215   3.808
 4383TIP3   OH213093   2.762   6.200   2.587
 4383TIP3    H113094   2.797   6.160   2.507
 4383TIP3    H213095   2.667   6.198   2.574
 4384TIP3   OH213096   6.692   2.345   5.874
 4384TIP3    H113097   6.689   2.379   5.963
 4384TIP3    H213098   6.642   2.409   5.823
 4385TIP3   OH213099   6.988   0.841   5.574
 4385TIP3    H113100   7.030   0.827   5.659
 4385TIP3    H213101   7.005   0.934   5.554
 4386TIP3   OH213102   6.768   3.900   0.372
 4386TIP3    H113103   6.731   3.977   0.330
 4386TIP3    H213104   6.828   3.863   0.307
 4387TIP3   OH213105   7.880   6.058   2.133
 4387TIP3    H113106   7.973   6.067   2.152
 4387TIP3    H213107   7.836   6.077   2.217
 4388TIP3   OH213108   5.847   1.639   3.210
 4388TIP3    H113109   5.838   1.642   3.306
 4388TIP3    H213110   5.800   1.560   3.184
 4389TIP3   OH213111   4.007   2.012   4.545
 4389TIP3    H113112   4.030   2.049   4.460
 4389TIP3    H213113   4.030   2.080   4.608
 4390TIP3   OH213114   7.638   1.452   5.395
 4390TIP3    H113115   7.598   1.508   5.462
 4390TIP3    H213116   7.614   1.363   5.420
 4391TIP3   OH213117   6.172   3.123   4.172
 4391TIP3    H113118   6.132   3.039   4.148
 4391TIP3    H213119   6.110   3.162   4.232
 4392TIP3   OH213120   4.831   1.860   2.380
 4392TIP3    H113121   4.822   1.951   2.409
 4392TIP3    H213122   4.925   1.847   2.369
 4393TIP3   OH213123   6.659   0.744   1.892
 4393TIP3    H113124   6.702   0.781   1.969
 4393TIP3    H213125   6.708   0.664   1.873
 4394TIP3   OH213126   7.054   5.406   3.334
 4394TIP3    H113127   7.012   5.382   3.417
 4394TIP3    H213128   7.009   5.353   3.268
 4395TIP3   OH213129   6.224   0.634   0.747
 4395TIP3    H113130   6.299   0.689   0.721
 4395TIP3    H213131   6.173   0.625   0.666
 4396TIP3   OH213132   6.929   6.710   4.642
 4396TIP3    H113133   6.967   6.623   4.644
 4396TIP3    H213134   6.987   6.763   4.697
 4397TIP3   OH213135   7.037   5.359   6.640
 4397TIP3    H113136   6.981   5.376   6.715
 4397TIP3    H213137   7.038   5.264   6.631
 4398TIP3   OH213138   5.095   5.284   5.157
 4398TIP3    H113139   5.163   5.259   5.219
 4398TIP3    H213140   5.099   5.218   5.088
 4399TIP3   OH213141   0.909   3.061   5.288
 4399TIP3    H113142   0.954   2.977   5.297
 4399TIP3    H213143   0.837   3.056   5.351
 4400TIP3   OH213144   3.430   0.509   1.574
 4400TIP3    H113145   3.483   0.526   1.652
 4400TIP3    H213146   3.433   0.414   1.562
 4401TIP3   OH213147   1.530   3.554   5.173
 4401TIP3    H113148   1.571   3.468   5.160
 4401TIP3    H213149   1.513   3.587   5.085
 4402TIP3   OH213150   4.988   4.228   4.922
 4402TIP3    H113151   4.959   4.285   4.851
 4402TIP3    H213152   5.051   4.169   4.882
 4403TIP3   OH213153   2.719   3.517   1.279
 4403TIP3    H113154   2.646   3.558   1.232
 4403TIP3    H213155   2.680   3.480   1.358
 4404TIP3   OH213156   3.334   5.550   4.801
 4404TIP3    H113157   3.368   5.639   4.812
 4404TIP3    H213158   3.319   5.519   4.890
 4405TIP3   OH213159   4.601   1.280   0.687
 4405TIP3    H113160   4.606   1.293   0.782
 4405TIP3    H213161   4.651   1.200   0.671
 4406TIP3   OH213162   4.083   0.360   2.026
 4406TIP3    H113163   4.118   0.282   2.068
 4406TIP3    H213164   4.081   0.426   2.095
 4407TIP3   OH213165   3.067   0.957   5.428
 4407TIP3    H113166   3.000   0.901   5.467
 4407TIP3    H213167   3.103   1.006   5.502
 4408TIP3   OH213168   1.666   1.419   0.848
 4408TIP3    H113169   1.676   1.334   0.805
 4408TIP3    H213170   1.669   1.399   0.942
 4409TIP3   OH213171   1.111   0.110   2.179
 4409TIP3    H113172   1.146   0.198   2.168
 4409TIP3    H213173   1.171   0.067   2.240
 4410TIP3   OH213174   0.816   3.961   4.906
 4410TIP3    H113175   0.879   4.029   4.880
 4410TIP3    H213176   0.788   3.922   4.823
 4411TIP3   OH213177   3.264   2.738   4.313
 4411TIP3    H113178   3.295   2.763   4.226
 4411TIP3    H213179   3.324   2.781   4.374
 4412TIP3   OH213180   0.713   1.382   5.781
 4412TIP3    H113181   0.658   1.384   5.703
 4412TIP3    H213182   0.791   1.332   5.755
 4413TIP3   OH213183   7.444   5.799   6.491
 4413TIP3    H113184   7.431   5.864   6.560
 4413TIP3    H213185   7.456   5.716   6.537
 4414TIP3   OH213186   0.758   5.220   0.973
 4414TIP3    H113187   0.711   5.268   1.041
 4414TIP3    H213188   0.831   5.178   1.019
 4415TIP3   OH213189   4.688   5.879   3.120
 4415TIP3    H113190   4.654   5.921   3.199
 4415TIP3    H213191   4.777   5.854   3.143
 4416TIP3   OH213192   2.304   5.205   3.718
 4416TIP3    H113193   2.335   5.277   3.773
 4416TIP3    H213194   2.354   5.213   3.637
 4417TIP3   OH213195   8.036   7.745   3.468
 4417TIP3    H113196   8.038   7.728   3.562
 4417TIP3    H213197   8.128   7.754   3.444
 4418TIP3   OH213198   6.131   0.610   6.007
 4418TIP3    H113199   6.225   0.596   6.018
 4418TIP3    H213200   6.094   0.522   6.007
 4419TIP3   OH213201   2.659   0.902   3.479
 4419TIP3    H113202   2.582   0.957   3.464
 4419TIP3    H213203   2.628   0.831   3.535
 4420TIP3   OH213204   4.019   3.484   3.319
 4420TIP3    H113205   4.075   3.530   3.382
 4420TIP3    H213206   3.934   3.528   3.326
 4421TIP3   OH213207   4.050   4.574   2.013
 4421TIP3    H113208   3.966   4.528   2.006
 4421TIP3    H213209   4.057   4.598   2.105
 4422TIP3   OH213210   2.696   3.054   5.794
 4422TIP3    H113211   2.643   2.991   5.747
 4422TIP3    H213212   2.723   3.117   5.728
 4423TIP3   OH213213   8.142   7.628   6.663
 4423TIP3    H113214   8.140   7.534   6.684
 4423TIP3    H213215   8.163   7.671   6.746
 4424TIP3   OH213216   7.863   0.267   4.658
 4424TIP3    H113217   7.894   0.355   4.635
 4424TIP3    H213218   7.846   0.224   4.574
 4425TIP3   OH213219   0.573   1.320   2.220
 4425TIP3    H113220   0.598   1.404   2.259
 4425TIP3    H213221   0.582   1.333   2.126
 4426TIP3   OH213222   5.876   5.606   5.488
 4426TIP3    H113223   5.911   5.523   5.454
 4426TIP3    H213224   5.794   5.583   5.529
 4427TIP3   OH213225   0.077   3.704   5.936
 4427TIP3    H113226   0.169   3.696   5.910
 4427TIP3    H213227   0.035   3.626   5.900
 4428TIP3   OH213228   6.998   7.233   2.810
 4428TIP3    H113229   6.998   7.143   2.843
 4428TIP3    H213230   6.924   7.237   2.750
 4429TIP3   OH213231   8.195   2.644   6.276
 4429TIP3    H113232   8.170   2.650   6.183
 4429TIP3    H213233   8.147   2.569   6.309
 4430TIP3   OH213234   1.081   0.112   0.617
 4430TIP3    H113235   0.996   0.116   0.573
 4430TIP3    H213236   1.145   0.133   0.548
 4431TIP3   OH213237   0.808   1.345   0.099
 4431TIP3    H113238   0.839   1.435   0.108
 4431TIP3    H213239   0.872   1.304   0.040
 4432TIP3   OH213240   2.229   4.437   3.622
 4432TIP3    H113241   2.235   4.532   3.633
 4432TIP3    H213242   2.274   4.401   3.698
 4433TIP3   OH213243   3.874   4.029   5.699
 4433TIP3    H113244   3.922   4.086   5.759
 4433TIP3    H213245   3.892   3.941   5.731
 4434TIP3   OH213246   2.789   3.000   3.141
 4434TIP3    H113247   2.802   2.906   3.156
 4434TIP3    H213248   2.711   3.005   3.087
 4435TIP3   OH213249   2.338   6.317   1.483
 4435TIP3    H113250   2.370   6.312   1.573
 4435TIP3    H213251   2.383   6.246   1.437
 4436TIP3   OH213252   1.001   5.358   5.681
 4436TIP3    H113253   1.024   5.348   5.589
 4436TIP3    H213254   0.983   5.451   5.691
 4437TIP3   OH213255   5.010   0.750   3.604
 4437TIP3    H113256   5.007   0.818   3.671
 4437TIP3    H213257   5.033   0.796   3.523
 4438TIP3   OH213258   5.753   4.907   6.717
 4438TIP3    H113259   5.762   4.988   6.768
 4438TIP3    H213260   5.756   4.837   6.783
 4439TIP3   OH213261   5.043   5.814   2.580
 4439TIP3    H113262   5.018   5.766   2.659
 4439TIP3    H213263   4.989   5.893   2.582
 4440TIP3   OH213264   7.751   6.942   5.522
 4440TIP3    H113265   7.683   7.004   5.548
 4440TIP3    H213266   7.829   6.996   5.509
 4441TIP3   OH213267   5.794   2.695   3.394
 4441TIP3    H113268   5.761   2.684   3.305
 4441TIP3    H213269   5.883   2.728   3.383
 4442TIP3   OH213270   1.794   6.514   4.243
 4442TIP3    H113271   1.873   6.479   4.285
 4442TIP3    H213272   1.786   6.603   4.278
 4443TIP3   OH213273   5.901   3.016   3.993
 4443TIP3    H113274   5.806   3.008   3.990
 4443TIP3    H213275   5.916   3.110   3.995
 4444TIP3   OH213276   3.097   0.879   2.533
 4444TIP3    H113277   3.082   0.799   2.484
 4444TIP3    H213278   3.149   0.852   2.609
 4445TIP3   OH213279   2.935   4.439   3.946
 4445TIP3    H113280   2.889   4.421   4.028
 4445TIP3    H213281   2.878   4.404   3.878
 4446TIP3   OH213282   0.045   7.189   6.186
 4446TIP3    H113283   0.000   7.115   6.146
 4446TIP3    H213284   0.028   7.262   6.126
 4447TIP3   OH213285   4.932   4.286   0.871
 4447TIP3    H113286   4.960   4.375   0.850
 4447TIP3    H213287   4.977   4.231   0.807
 4448TIP3   OH213288   4.220   5.632   5.237
 4448TIP3    H113289   4.293   5.657   5.180
 4448TIP3    H213290   4.261   5.585   5.309
 4449TIP3   OH213291   2.550   5.602   2.237
 4449TIP3    H113292   2.645   5.592   2.245
 4449TIP3    H213293   2.514   5.541   2.301
 4450TIP3   OH213294   3.445   1.526   2.157
 4450TIP3    H113295   3.530   1.493   2.130
 4450TIP3    H213296   3.401   1.550   2.075
 4451TIP3   OH213297   6.288   5.085   4.492
 4451TIP3    H113298   6.337   5.004   4.506
 4451TIP3    H213299   6.249   5.105   4.577
 4452TIP3   OH213300   3.222   4.345   0.224
 4452TIP3    H113301   3.131   4.369   0.205
 4452TIP3    H213302   3.217   4.254   0.254
 4453TIP3   OH213303   0.640   6.153   0.779
 4453TIP3    H113304   0.605   6.077   0.732
 4453TIP3    H213305   0.723   6.123   0.815
 4454TIP3   OH213306   1.988   0.372   3.025
 4454TIP3    H113307   1.960   0.436   2.960
 4454TIP3    H213308   1.910   0.320   3.043
 4455TIP3   OH213309   8.124   7.779   5.402
 4455TIP3    H113310   8.084   7.697   5.376
 4455TIP3    H213311   8.169   7.759   5.484
 4456TIP3   OH213312   4.150   6.949   2.453
 4456TIP3    H113313   4.243   6.967   2.470
 4456TIP3    H213314   4.150   6.894   2.376
 4457TIP3   OH213315   7.187   6.413   0.796
 4457TIP3    H113316   7.121   6.476   0.769
 4457TIP3    H213317   7.155   6.329   0.764
 4458TIP3   OH213318   5.173   1.493   4.195
 4458TIP3    H113319   5.190   1.582   4.164
 4458TIP3    H213320   5.190   1.496   4.289
 4459TIP3   OH213321   8.298   6.872   5.385
 4459TIP3    H113322   8.222   6.840   5.336
 4459TIP3    H213323   8.367   6.808   5.367
 4460TIP3   OH213324   3.819   5.984   4.743
 4460TIP3    H113325   3.912   5.974   4.764
 4460TIP3    H213326   3.793   5.899   4.709
 4461TIP3   OH213327   1.529   6.679   6.466
 4461TIP3    H113328   1.561   6.590   6.451
 4461TIP3    H213329   1.492   6.706   6.382
 4462TIP3   OH213330   1.384   2.581   4.358
 4462TIP3    H113331   1.418   2.654   4.306
 4462TIP3    H213332   1.364   2.513   4.295
 4463TIP3   OH213333   2.077   0.707   3.242
 4463TIP3    H113334   2.081   0.612   3.243
 4463TIP3    H213335   1.984   0.728   3.234
 4464TIP3   OH213336   0.286   3.776   2.281
 4464TIP3    H113337   0.271   3.707   2.346
 4464TIP3    H213338   0.350   3.835   2.323
 4465TIP3   OH213339   5.382   2.372   4.269
 4465TIP3    H113340   5.439   2.331   4.204
 4465TIP3    H213341   5.369   2.305   4.336
 4466TIP3   OH213342   4.741   6.241   5.068
 4466TIP3    H113343   4.809   6.269   5.007
 4466TIP3    H213344   4.778   6.260   5.155
 4467TIP3   OH213345   6.736   7.509   2.473
 4467TIP3    H113346   6.812   7.555   2.438
 4467TIP3    H213347   6.743   7.519   2.567
 4468TIP3   OH213348   2.959   1.461   0.070
 4468TIP3    H113349   2.895   1.390   0.076
 4468TIP3    H213350   2.907   1.537   0.043
 4469TIP3   OH213351   6.853   3.415   0.518
 4469TIP3    H113352   6.763   3.384   0.532
 4469TIP3    H213353   6.845   3.483   0.451
 4470TIP3   OH213354   7.708   7.497   3.084
 4470TIP3    H113355   7.643   7.561   3.055
 4470TIP3    H213356   7.779   7.550   3.119
 4471TIP3   OH213357   1.665   7.350   1.684
 4471TIP3    H113358   1.647   7.277   1.743
 4471TIP3    H213359   1.580   7.392   1.671
 4472TIP3   OH213360   4.782   2.569   0.225
 4472TIP3    H113361   4.785   2.479   0.257
 4472TIP3    H213362   4.721   2.613   0.283
 4473TIP3   OH213363   7.875   0.244   1.290
 4473TIP3    H113364   7.956   0.278   1.251
 4473TIP3    H213365   7.902   0.166   1.338
 4474TIP3   OH213366   7.416   4.876   2.619
 4474TIP3    H113367   7.458   4.790   2.626
 4474TIP3    H213368   7.457   4.916   2.542
 4475TIP3   OH213369   3.797   0.368   2.639
 4475TIP3    H113370   3.749   0.420   2.575
 4475TIP3    H213371   3.826   0.291   2.591
 4476TIP3   OH213372   1.594   3.462   6.015
 4476TIP3    H113373   1.673   3.438   6.063
 4476TIP3    H213374   1.529   3.396   6.040
 4477TIP3   OH213375   7.811   4.252   6.677
 4477TIP3    H113376   7.759   4.330   6.694
 4477TIP3    H213377   7.773   4.185   6.734
 4478TIP3   OH213378   7.399   3.110   4.950
 4478TIP3    H113379   7.354   3.155   5.022
 4478TIP3    H213380   7.344   3.126   4.873
 4479TIP3   OH213381   7.894   3.509   6.583
 4479TIP3    H113382   7.872   3.602   6.585
 4479TIP3    H213383   7.979   3.503   6.626
 4480TIP3   OH213384   6.592   0.900   2.650
 4480TIP3    H113385   6.504   0.873   2.675
 4480TIP3    H213386   6.644   0.819   2.654
 4481TIP3   OH213387   1.157   5.814   0.611
 4481TIP3    H113388   1.077   5.861   0.587
 4481TIP3    H213389   1.210   5.815   0.531
 4482TIP3   OH213390   6.701   5.706   3.063
 4482TIP3    H113391   6.704   5.693   3.158
 4482TIP3    H213392   6.649   5.634   3.030
 4483TIP3   OH213393   6.441   7.277   3.315
 4483TIP3    H113394   6.468   7.188   3.336
 4483TIP3    H213395   6.348   7.280   3.336
 4484TIP3   OH213396   5.051   4.444   6.503
 4484TIP3    H113397   4.989   4.373   6.518
 4484TIP3    H213398   5.125   4.403   6.458
 4485TIP3   OH213399   6.540   7.149   1.053
 4485TIP3    H113400   6.615   7.209   1.053
 4485TIP3    H213401   6.578   7.063   1.038
 4486TIP3   OH213402   8.310   3.796   1.934
 4486TIP3    H113403   8.265   3.764   2.013
 4486TIP3    H213404   8.295   3.727   1.869
 4487TIP3   OH213405   1.918   0.479   6.219
 4487TIP3    H113406   1.948   0.475   6.128
 4487TIP3    H213407   1.864   0.558   6.223
 4488TIP3   OH213408   4.942   5.999   6.799
 4488TIP3    H113409   5.006   5.984   6.730
 4488TIP3    H213410   4.874   5.933   6.784
 4489TIP3   OH213411   0.861   1.955   0.787
 4489TIP3    H113412   0.873   1.932   0.879
 4489TIP3    H213413   0.766   1.963   0.777
 4490TIP3   OH213414   4.456   0.922   3.240
 4490TIP3    H113415   4.394   0.859   3.204
 4490TIP3    H213416   4.409   1.006   3.235
 4491TIP3   OH213417   6.300   5.878   1.163
 4491TIP3    H113418   6.308   5.931   1.242
 4491TIP3    H213419   6.255   5.798   1.192
 4492TIP3   OH213420   7.572   7.464   2.762
 4492TIP3    H113421   7.557   7.554   2.733
 4492TIP3    H213422   7.645   7.434   2.707
 4493TIP3   OH213423   3.836   1.492   0.272
 4493TIP3    H113424   3.796   1.405   0.279
 4493TIP3    H213425   3.815   1.535   0.355
 4494TIP3   OH213426   6.324   5.410   3.288
 4494TIP3    H113427   6.288   5.395   3.201
 4494TIP3    H213428   6.298   5.333   3.339
 4495TIP3   OH213429   3.873   6.262   0.764
 4495TIP3    H113430   3.886   6.230   0.675
 4495TIP3    H213431   3.939   6.216   0.816
 4496TIP3   OH213432   0.638   4.184   4.422
 4496TIP3    H113433   0.548   4.154   4.432
 4496TIP3    H213434   0.661   4.162   4.332
 4497TIP3   OH213435   6.053   5.301   1.672
 4497TIP3    H113436   5.999   5.243   1.619
 4497TIP3    H213437   6.001   5.380   1.681
 4498TIP3   OH213438   2.484   4.513   0.915
 4498TIP3    H113439   2.555   4.472   0.964
 4498TIP3    H213440   2.410   4.513   0.976
 4499TIP3   OH213441   2.550   3.443   4.269
 4499TIP3    H113442   2.506   3.398   4.197
 4499TIP3    H213443   2.478   3.478   4.322
 4500TIP3   OH213444   6.174   5.584   4.108
 4500TIP3    H113445   6.176   5.636   4.188
 4500TIP3    H213446   6.193   5.495   4.137
 4501TIP3   OH213447   6.366   0.864   2.937
 4501TIP3    H113448   6.437   0.911   2.979
 4501TIP3    H213449   6.305   0.933   2.909
 4502TIP3   OH213450   4.499   5.769   1.165
 4502TIP3    H113451   4.508   5.862   1.185
 4502TIP3    H213452   4.557   5.725   1.227
 4503TIP3   OH213453   2.493   3.866   3.398
 4503TIP3    H113454   2.573   3.816   3.385
 4503TIP3    H213455   2.517   3.957   3.380
 4504TIP3   OH213456   2.448   1.976   5.056
 4504TIP3    H113457   2.537   1.966   5.090
 4504TIP3    H213458   2.403   2.031   5.121
 4505TIP3   OH213459   1.770   6.527   6.760
 4505TIP3    H113460   1.732   6.614   6.764
 4505TIP3    H213461   1.697   6.469   6.741
 4506TIP3   OH213462   2.660   5.765   4.030
 4506TIP3    H113463   2.713   5.819   4.088
 4506TIP3    H213464   2.693   5.783   3.942
 4507TIP3   OH213465   0.933   7.102   6.380
 4507TIP3    H113466   0.954   7.010   6.391
 4507TIP3    H213467   0.839   7.108   6.399
 4508TIP3   OH213468   7.332   7.032   5.573
 4508TIP3    H113469   7.414   7.058   5.615
 4508TIP3    H213470   7.338   6.936   5.567
 4509TIP3   OH213471   0.507   2.122   2.653
 4509TIP3    H113472   0.512   2.187   2.724
 4509TIP3    H213473   0.438   2.062   2.680
 4510TIP3   OH213474   4.739   1.101   3.285
 4510TIP3    H113475   4.685   1.117   3.207
 4510TIP3    H213476   4.679   1.117   3.358
 4511TIP3   OH213477   5.735   4.585   4.651
 4511TIP3    H113478   5.754   4.634   4.731
 4511TIP3    H213479   5.646   4.551   4.665
 4512TIP3   OH213480   4.492   6.305   5.955
 4512TIP3    H113481   4.567   6.247   5.968
 4512TIP3    H213482   4.524   6.392   5.982
 4513TIP3   OH213483   2.363   1.978   5.597
 4513TIP3    H113484   2.324   1.957   5.513
 4513TIP3    H213485   2.425   2.049   5.578
 4514TIP3   OH213486   6.779   6.490   6.104
 4514TIP3    H113487   6.740   6.575   6.088
 4514TIP3    H213488   6.723   6.449   6.170
 4515TIP3   OH213489   4.058   2.598   3.226
 4515TIP3    H113490   4.015   2.524   3.183
 4515TIP3    H213491   4.063   2.573   3.318
 4516TIP3   OH213492   0.496   3.277   6.343
 4516TIP3    H113493   0.409   3.303   6.375
 4516TIP3    H213494   0.489   3.282   6.248
 4517TIP3   OH213495   0.847   6.761   1.481
 4517TIP3    H113496   0.825   6.726   1.567
 4517TIP3    H213497   0.879   6.686   1.432
 4518TIP3   OH213498   6.848   1.023   5.794
 4518TIP3    H113499   6.885   1.103   5.832
 4518TIP3    H213500   6.892   0.952   5.840
 4519TIP3   OH213501   3.888   5.338   4.560
 4519TIP3    H113502   3.889   5.392   4.638
 4519TIP3    H213503   3.894   5.248   4.592
 4520TIP3   OH213504   7.028   1.947   2.702
 4520TIP3    H113505   7.070   1.933   2.617
 4520TIP3    H213506   7.070   1.882   2.759
 4521TIP3   OH213507   0.237   2.257   5.797
 4521TIP3    H113508   0.320   2.237   5.753
 4521TIP3    H213509   0.170   2.222   5.737
 4522TIP3   OH213510   1.603   2.591   3.188
 4522TIP3    H113511   1.654   2.609   3.109
 4522TIP3    H213512   1.609   2.672   3.239
 4523TIP3   OH213513   3.560   4.859   4.387
 4523TIP3    H113514   3.630   4.842   4.450
 4523TIP3    H213515   3.606   4.869   4.303
 4524TIP3   OH213516   6.178   7.440   1.957
 4524TIP3    H113517   6.234   7.385   2.013
 4524TIP3    H213518   6.104   7.383   1.935
 4525TIP3   OH213519   7.779   4.503   5.133
 4525TIP3    H113520   7.730   4.570   5.086
 4525TIP3    H213521   7.733   4.421   5.113
 4526TIP3   OH213522   4.874   0.082   3.461
 4526TIP3    H113523   4.922   0.149   3.510
 4526TIP3    H213524   4.821   0.037   3.527
 4527TIP3   OH213525   4.364   1.072   4.985
 4527TIP3    H113526   4.441   1.126   5.002
 4527TIP3    H213527   4.393   1.009   4.919
 4528TIP3   OH213528   1.193   2.805   4.922
 4528TIP3    H113529   1.192   2.848   4.836
 4528TIP3    H213530   1.208   2.876   4.984
 4529TIP3   OH213531   2.506   4.826   3.999
 4529TIP3    H113532   2.462   4.871   3.927
 4529TIP3    H213533   2.586   4.877   4.014
 4530TIP3   OH213534   5.868   0.922   4.966
 4530TIP3    H113535   5.895   1.013   4.948
 4530TIP3    H213536   5.904   0.872   4.892
 4531TIP3   OH213537   1.394   0.847   5.448
 4531TIP3    H113538   1.445   0.767   5.449
 4531TIP3    H213539   1.328   0.835   5.517
 4532TIP3   OH213540   3.700   3.800   0.051
 4532TIP3    H113541   3.786   3.819   0.015
 4532TIP3    H213542   3.647   3.777  -0.025
 4533TIP3   OH213543   0.832   7.724   6.268
 4533TIP3    H113544   0.757   7.768   6.308
 4533TIP3    H213545   0.795   7.680   6.191
 4534TIP3   OH213546   5.238   5.004   2.457
 4534TIP3    H113547   5.274   4.943   2.521
 4534TIP3    H213548   5.227   4.952   2.377
 4535TIP3   OH213549   0.924   6.461   5.895
 4535TIP3    H113550   0.947   6.464   5.988
 4535TIP3    H213551   0.851   6.399   5.890
 4536TIP3   OH213552   1.793   2.713   6.459
 4536TIP3    H113553   1.709   2.726   6.415
 4536TIP3    H213554   1.851   2.681   6.391
 4537TIP3   OH213555   6.297   7.656   6.636
 4537TIP3    H113556   6.202   7.662   6.633
 4537TIP3    H213557   6.324   7.653   6.544
 4538TIP3   OH213558   3.012   1.592   6.659
 4538TIP3    H113559   3.053   1.602   6.745
 4538TIP3    H213560   2.923   1.563   6.678
 4539TIP3   OH213561   4.908   3.600   4.397
 4539TIP3    H113562   4.855   3.672   4.362
 4539TIP3    H213563   4.998   3.631   4.391
 4540TIP3   OH213564   3.286   3.158   6.067
 4540TIP3    H113565   3.364   3.188   6.114
 4540TIP3    H213566   3.214   3.169   6.129
 4541TIP3   OH213567   0.199   0.650   5.181
 4541TIP3    H113568   0.103   0.646   5.182
 4541TIP3    H213569   0.221   0.667   5.089
 4542TIP3   OH213570   4.374   3.105   5.537
 4542TIP3    H113571   4.387   3.077   5.446
 4542TIP3    H213572   4.347   3.026   5.583
 4543TIP3   OH213573   7.029   1.133   5.535
 4543TIP3    H113574   7.006   1.167   5.448
 4543TIP3    H213575   6.959   1.164   5.592
 4544TIP3   OH213576   0.573   6.891   0.958
 4544TIP3    H113577   0.487   6.858   0.933
 4544TIP3    H213578   0.555   6.972   1.006
 4545TIP3   OH213579   0.355   1.993   5.076
 4545TIP3    H113580   0.389   1.934   5.143
 4545TIP3    H213581   0.294   1.940   5.025
 4546TIP3   OH213582   6.799   0.861   6.101
 4546TIP3    H113583   6.747   0.827   6.174
 4546TIP3    H213584   6.852   0.930   6.140
 4547TIP3   OH213585   1.836   5.717   4.299
 4547TIP3    H113586   1.920   5.749   4.331
 4547TIP3    H213587   1.809   5.651   4.362
 4548TIP3   OH213588   6.680  -0.003   1.693
 4548TIP3    H113589   6.643   0.082   1.718
 4548TIP3    H213590   6.704  -0.044   1.776
 4549TIP3   OH213591   5.599   5.292   2.994
 4549TIP3    H113592   5.600   5.217   3.053
 4549TIP3    H213593   5.682   5.287   2.947
 4550TIP3   OH213594   7.437   2.721   4.112
 4550TIP3    H113595   7.468   2.684   4.029
 4550TIP3    H213596   7.421   2.813   4.092
 4551TIP3   OH213597   0.245   6.101   5.769
 4551TIP3    H113598   0.255   6.124   5.676
 4551TIP3    H213599   0.208   6.179   5.810
 4552TIP3   OH213600   6.217   4.931   0.120
 4552TIP3    H113601   6.138   4.906   0.167
 4552TIP3    H213602   6.248   4.850   0.080
 4553TIP3   OH213603   3.210   1.131   2.916
 4553TIP3    H113604   3.282   1.187   2.884
 4553TIP3    H213605   3.136   1.190   2.926
 4554TIP3   OH213606   4.446   4.722   6.395
 4554TIP3    H113607   4.409   4.748   6.479
 4554TIP3    H213608   4.514   4.659   6.418
 4555TIP3   OH213609   5.847   3.057   6.023
 4555TIP3    H113610   5.925   3.107   6.049
 4555TIP3    H213611   5.867   2.967   6.046
 4556TIP3   OH213612   0.812   6.314   4.178
 4556TIP3    H113613   0.895   6.333   4.221
 4556TIP3    H213614   0.756   6.279   4.248
 4557TIP3   OH213615   3.221   4.855   5.071
 4557TIP3    H113616   3.261   4.903   4.999
 4557TIP3    H213617   3.285   4.860   5.142
 4558TIP3   OH213618   3.786   3.233   4.414
 4558TIP3    H113619   3.715   3.292   4.441
 4558TIP3    H213620   3.866   3.283   4.428
 4559TIP3   OH213621   6.486   4.663   5.607
 4559TIP3    H113622   6.451   4.642   5.694
 4559TIP3    H213623   6.468   4.757   5.596
 4560TIP3   OH213624   3.707   2.891   2.719
 4560TIP3    H113625   3.700   2.950   2.643
 4560TIP3    H213626   3.775   2.828   2.694
 4561TIP3   OH213627   2.766   5.639   2.028
 4561TIP3    H113628   2.847   5.612   1.985
 4561TIP3    H213629   2.759   5.580   2.104
 4562TIP3   OH213630   2.402   2.886   1.580
 4562TIP3    H113631   2.478   2.845   1.537
 4562TIP3    H213632   2.420   2.878   1.673
 4563TIP3   OH213633   7.074   7.775   3.579
 4563TIP3    H113634   7.081   7.726   3.497
 4563TIP3    H213635   7.012   7.724   3.632
 4564TIP3   OH213636   5.345   2.287   3.593
 4564TIP3    H113637   5.250   2.294   3.600
 4564TIP3    H213638   5.360   2.240   3.512
 4565TIP3   OH213639   3.046   3.365   4.577
 4565TIP3    H113640   3.092   3.409   4.505
 4565TIP3    H213641   3.089   3.281   4.585
 4566TIP3   OH213642   0.601   6.298   2.554
 4566TIP3    H113643   0.622   6.205   2.550
 4566TIP3    H213644   0.530   6.304   2.617
 4567TIP3   OH213645   1.797   7.566   3.867
 4567TIP3    H113646   1.750   7.526   3.794
 4567TIP3    H213647   1.791   7.502   3.938
 4568TIP3   OH213648   1.914   4.146   2.670
 4568TIP3    H113649   1.984   4.119   2.729
 4568TIP3    H213650   1.956   4.159   2.585
 4569TIP3   OH213651   4.690   4.394   5.801
 4569TIP3    H113652   4.747   4.321   5.780
 4569TIP3    H213653   4.684   4.393   5.896
 4570TIP3   OH213654   2.422   6.445   0.492
 4570TIP3    H113655   2.468   6.400   0.422
 4570TIP3    H213656   2.415   6.535   0.462
 4571TIP3   OH213657   4.634   2.595   0.906
 4571TIP3    H113658   4.715   2.646   0.902
 4571TIP3    H213659   4.663   2.506   0.930
 4572TIP3   OH213660   2.886   5.013   1.225
 4572TIP3    H113661   2.961   5.030   1.282
 4572TIP3    H213662   2.913   4.938   1.172
 4573TIP3   OH213663   2.692   5.104   4.726
 4573TIP3    H113664   2.722   5.016   4.703
 4573TIP3    H213665   2.596   5.100   4.718
 4574TIP3   OH213666   0.517   4.720   1.465
 4574TIP3    H113667   0.493   4.653   1.530
 4574TIP3    H213668   0.606   4.696   1.438
 4575TIP3   OH213669   5.249   1.940   2.914
 4575TIP3    H113670   5.248   1.846   2.892
 4575TIP3    H213671   5.198   1.981   2.844
 4576TIP3   OH213672   3.224   4.599   4.941
 4576TIP3    H113673   3.204   4.685   4.977
 4576TIP3    H213674   3.292   4.616   4.876
 4577TIP3   OH213675   3.839   0.285   3.221
 4577TIP3    H113676   3.821   0.209   3.165
 4577TIP3    H213677   3.803   0.261   3.307
 4578TIP3   OH213678   0.941   0.560   0.088
 4578TIP3    H113679   0.962   0.653   0.077
 4578TIP3    H213680   0.911   0.552   0.178
 4579TIP3   OH213681   4.994   2.154   2.500
 4579TIP3    H113682   5.037   2.081   2.455
 4579TIP3    H213683   4.904   2.151   2.469
 4580TIP3   OH213684   5.286   5.537   0.098
 4580TIP3    H113685   5.310   5.624   0.133
 4580TIP3    H213686   5.192   5.530   0.114
 4581TIP3   OH213687   6.657   1.177   3.568
 4581TIP3    H113688   6.626   1.245   3.628
 4581TIP3    H213689   6.641   1.095   3.615
 4582TIP3   OH213690   1.005   0.920   0.843
 4582TIP3    H113691   0.972   0.831   0.852
 4582TIP3    H213692   0.989   0.944   0.752
 4583TIP3   OH213693   5.553   2.677   5.624
 4583TIP3    H113694   5.550   2.762   5.668
 4583TIP3    H213695   5.570   2.614   5.694
 4584TIP3   OH213696   0.377   2.238   1.726
 4584TIP3    H113697   0.427   2.319   1.731
 4584TIP3    H213698   0.367   2.222   1.632
 4585TIP3   OH213699   7.588   5.368   0.601
 4585TIP3    H113700   7.549   5.284   0.575
 4585TIP3    H213701   7.666   5.343   0.651
 4586TIP3   OH213702   0.254   7.094   6.542
 4586TIP3    H113703   0.232   7.142   6.462
 4586TIP3    H213704   0.324   7.146   6.582
 4587TIP3   OH213705   5.494   7.811   2.785
 4587TIP3    H113706   5.583   7.841   2.804
 4587TIP3    H213707   5.495   7.718   2.806
 4588TIP3   OH213708   1.075   2.865   3.085
 4588TIP3    H113709   1.104   2.828   3.001
 4588TIP3    H213710   0.980   2.861   3.081
 4589TIP3   OH213711   6.325   4.266   3.730
 4589TIP3    H113712   6.283   4.302   3.652
 4589TIP3    H213713   6.357   4.342   3.778
 4590TIP3   OH213714   2.803   0.221   6.735
 4590TIP3    H113715   2.819   0.196   6.644
 4590TIP3    H213716   2.776   0.141   6.778
 4591TIP3   OH213717   5.182   4.656   3.208
 4591TIP3    H113718   5.194   4.605   3.287
 4591TIP3    H213719   5.092   4.638   3.181
 4592TIP3   OH213720   1.507   6.356   1.348
 4592TIP3    H113721   1.434   6.302   1.318
 4592TIP3    H213722   1.572   6.351   1.277
 4593TIP3   OH213723   6.549   3.655   4.637
 4593TIP3    H113724   6.631   3.704   4.642
 4593TIP3    H213725   6.571   3.567   4.670
 4594TIP3   OH213726   1.023   5.684   3.278
 4594TIP3    H113727   0.986   5.737   3.349
 4594TIP3    H213728   0.951   5.676   3.215
 4595TIP3   OH213729   2.641   5.918   4.332
 4595TIP3    H113730   2.644   6.006   4.368
 4595TIP3    H213731   2.705   5.919   4.260
 4596TIP3   OH213732   1.466   5.522   1.995
 4596TIP3    H113733   1.556   5.528   1.964
 4596TIP3    H213734   1.413   5.545   1.919
 4597TIP3   OH213735   6.976   4.007   5.670
 4597TIP3    H113736   6.937   4.089   5.639
 4597TIP3    H213737   6.934   3.991   5.754
 4598TIP3   OH213738   1.386   6.608   0.661
 4598TIP3    H113739   1.399   6.537   0.723
 4598TIP3    H213740   1.425   6.684   0.704
 4599TIP3   OH213741   1.615   4.827   6.705
 4599TIP3    H113742   1.565   4.817   6.786
 4599TIP3    H213743   1.689   4.882   6.728
 4600TIP3   OH213744   7.542   2.501   3.345
 4600TIP3    H113745   7.583   2.541   3.268
 4600TIP3    H213746   7.448   2.521   3.335
 4601TIP3   OH213747   1.430   1.425   0.372
 4601TIP3    H113748   1.387   1.403   0.289
 4601TIP3    H213749   1.358   1.432   0.435
 4602TIP3   OH213750   1.771   6.932   1.089
 4602TIP3    H113751   1.723   6.849   1.082
 4602TIP3    H213752   1.832   6.931   1.015
 4603TIP3   OH213753   3.027   3.305   1.807
 4603TIP3    H113754   3.030   3.224   1.755
 4603TIP3    H213755   3.012   3.276   1.896
 4604TIP3   OH213756   2.739   4.178   5.670
 4604TIP3    H113757   2.688   4.164   5.750
 4604TIP3    H213758   2.681   4.150   5.599
 4605TIP3   OH213759   5.512   4.996   0.791
 4605TIP3    H113760   5.456   4.961   0.722
 4605TIP3    H213761   5.467   5.075   0.821
 4606TIP3   OH213762   6.494   4.948   2.522
 4606TIP3    H113763   6.540   4.883   2.470
 4606TIP3    H213764   6.561   5.010   2.549
 4607TIP3   OH213765   2.576   7.795   1.203
 4607TIP3    H113766   2.657   7.778   1.155
 4607TIP3    H213767   2.586   7.883   1.239
 4608TIP3   OH213768   6.296   3.245   1.804
 4608TIP3    H113769   6.256   3.321   1.761
 4608TIP3    H213770   6.331   3.193   1.732
 4609TIP3   OH213771   1.128   3.581   1.069
 4609TIP3    H113772   1.215   3.547   1.092
 4609TIP3    H213773   1.113   3.548   0.980
 4610TIP3   OH213774   3.613   3.884   1.747
 4610TIP3    H113775   3.634   3.891   1.841
 4610TIP3    H213776   3.562   3.804   1.740
 4611TIP3   OH213777   4.381   6.132   4.551
 4611TIP3    H113778   4.453   6.149   4.612
 4611TIP3    H213779   4.409   6.054   4.503
 4612TIP3   OH213780   7.643   0.683   2.805
 4612TIP3    H113781   7.557   0.703   2.767
 4612TIP3    H213782   7.705   0.699   2.734
 4613TIP3   OH213783   6.396   5.477   1.356
 4613TIP3    H113784   6.310   5.503   1.390
 4613TIP3    H213785   6.384   5.387   1.327
 4614TIP3   OH213786   0.959   6.012   2.090
 4614TIP3    H113787   0.988   5.923   2.073
 4614TIP3    H213788   0.960   6.020   2.186
 4615TIP3   OH213789   7.389   0.204   5.265
 4615TIP3    H113790   7.434   0.156   5.195
 4615TIP3    H213791   7.361   0.286   5.224
 4616TIP3   OH213792   1.002   0.666   6.608
 4616TIP3    H113793   1.052   0.727   6.555
 4616TIP3    H213794   0.983   0.714   6.688
 4617TIP3   OH213795   1.404   1.728   5.850
 4617TIP3    H113796   1.414   1.762   5.939
 4617TIP3    H213797   1.327   1.672   5.854
 4618TIP3   OH213798   6.079   3.486   1.891
 4618TIP3    H113799   6.107   3.448   1.974
 4618TIP3    H213800   5.983   3.478   1.892
 4619TIP3   OH213801   1.615   3.502   1.859
 4619TIP3    H113802   1.551   3.525   1.926
 4619TIP3    H213803   1.574   3.528   1.777
 4620TIP3   OH213804   0.419   7.692   6.695
 4620TIP3    H113805   0.390   7.643   6.772
 4620TIP3    H213806   0.515   7.687   6.698
 4621TIP3   OH213807   4.674   0.855   3.941
 4621TIP3    H113808   4.723   0.832   4.020
 4621TIP3    H213809   4.670   0.773   3.892
 4622TIP3   OH213810   0.737   6.361   1.081
 4622TIP3    H113811   0.660   6.361   1.137
 4622TIP3    H213812   0.704   6.380   0.994
 4623TIP3   OH213813   2.498   2.736   3.202
 4623TIP3    H113814   2.481   2.692   3.119
 4623TIP3    H213815   2.467   2.674   3.269
 4624TIP3   OH213816   6.500   0.681   3.704
 4624TIP3    H113817   6.507   0.671   3.609
 4624TIP3    H213818   6.502   0.591   3.737
 4625TIP3   OH213819   7.876   1.954   5.397
 4625TIP3    H113820   7.818   2.020   5.359
 4625TIP3    H213821   7.816   1.891   5.437
 4626TIP3   OH213822   1.345   4.315   1.070
 4626TIP3    H113823   1.434   4.327   1.039
 4626TIP3    H213824   1.315   4.234   1.028
 4627TIP3   OH213825   7.632   6.753   4.528
 4627TIP3    H113826   7.709   6.759   4.472
 4627TIP3    H213827   7.578   6.829   4.503
 4628TIP3   OH213828   5.619   0.299   5.763
 4628TIP3    H113829   5.583   0.362   5.700
 4628TIP3    H213830   5.692   0.346   5.804
 4629TIP3   OH213831   5.176   7.337   2.359
 4629TIP3    H113832   5.082   7.333   2.373
 4629TIP3    H213833   5.197   7.430   2.359
 4630TIP3   OH213834   8.222   5.734   6.685
 4630TIP3    H113835   8.255   5.760   6.599
 4630TIP3    H213836   8.127   5.745   6.679
 4631TIP3   OH213837   2.912   7.285   6.185
 4631TIP3    H113838   2.855   7.223   6.230
 4631TIP3    H213839   3.000   7.263   6.217
 4632TIP3   OH213840   4.726   4.940   3.839
 4632TIP3    H113841   4.778   4.879   3.890
 4632TIP3    H213842   4.772   4.947   3.755
 4633TIP3   OH213843   6.036   0.149   6.279
 4633TIP3    H113844   6.113   0.106   6.241
 4633TIP3    H213845   5.962   0.097   6.248
 4634TIP3   OH213846   2.358   2.800   5.024
 4634TIP3    H113847   2.269   2.763   5.020
 4634TIP3    H213848   2.367   2.849   4.942
 4635TIP3   OH213849   4.242   3.624   6.603
 4635TIP3    H113850   4.329   3.654   6.574
 4635TIP3    H213851   4.181   3.681   6.557
 4636TIP3   OH213852   0.351   2.798   2.075
 4636TIP3    H113853   0.386   2.823   2.160
 4636TIP3    H213854   0.274   2.853   2.063
 4637TIP3   OH213855   1.077   2.604   2.915
 4637TIP3    H113856   1.076   2.542   2.988
 4637TIP3    H213857   0.992   2.592   2.873
 4638TIP3   OH213858   7.435   4.424   4.431
 4638TIP3    H113859   7.501   4.398   4.367
 4638TIP3    H213860   7.485   4.444   4.510
 4639TIP3   OH213861   1.091   4.588   1.095
 4639TIP3    H113862   1.012   4.563   1.047
 4639TIP3    H213863   1.089   4.535   1.175
 4640TIP3   OH213864   2.021   5.838   5.502
 4640TIP3    H113865   2.017   5.875   5.590
 4640TIP3    H213866   2.105   5.792   5.499
 4641TIP3   OH213867   8.277   1.306   5.128
 4641TIP3    H113868   8.250   1.251   5.054
 4641TIP3    H213869   8.219   1.381   5.125
 4642TIP3   OH213870   7.802   5.058   2.902
 4642TIP3    H113871   7.708   5.076   2.904
 4642TIP3    H213872   7.837   5.113   2.972
 4643TIP3   OH213873   0.062   3.486   0.253
 4643TIP3    H113874   0.071   3.391   0.250
 4643TIP3    H213875   0.051   3.513   0.162
 4644TIP3   OH213876   0.293   7.201   5.914
 4644TIP3    H113877   0.305   7.109   5.939
 4644TIP3    H213878   0.199   7.215   5.921
 4645TIP3   OH213879   7.121   5.336   3.653
 4645TIP3    H113880   7.141   5.249   3.688
 4645TIP3    H213881   7.206   5.373   3.632
 4646TIP3   OH213882   8.026   6.305   6.619
 4646TIP3    H113883   7.998   6.396   6.630
 4646TIP3    H213884   7.957   6.266   6.565
 4647TIP3   OH213885   1.077   7.657   0.775
 4647TIP3    H113886   1.079   7.751   0.794
 4647TIP3    H213887   1.002   7.645   0.717
 4648TIP3   OH213888   4.260   2.858   0.254
 4648TIP3    H113889   4.346   2.841   0.215
 4648TIP3    H213890   4.209   2.780   0.232
 4649TIP3   OH213891   5.207   0.349   2.297
 4649TIP3    H113892   5.232   0.438   2.319
 4649TIP3    H213893   5.281   0.295   2.326
 4650TIP3   OH213894   8.248   4.182   2.581
 4650TIP3    H113895   8.263   4.097   2.540
 4650TIP3    H213896   8.259   4.246   2.511
 4651TIP3   OH213897   0.616   2.420   0.230
 4651TIP3    H113898   0.611   2.371   0.148
 4651TIP3    H213899   0.709   2.419   0.253
 4652TIP3   OH213900   7.705   6.039   3.649
 4652TIP3    H113901   7.733   5.962   3.599
 4652TIP3    H213902   7.785   6.073   3.688
 4653TIP3   OH213903   6.390   5.936   4.993
 4653TIP3    H113904   6.460   5.985   4.950
 4653TIP3    H213905   6.401   5.956   5.086
 4654TIP3   OH213906   7.283   0.371   2.566
 4654TIP3    H113907   7.274   0.417   2.482
 4654TIP3    H213908   7.220   0.414   2.624
 4655TIP3   OH213909   3.707   1.609   6.701
 4655TIP3    H113910   3.696   1.582   6.792
 4655TIP3    H213911   3.678   1.534   6.649
 4656TIP3   OH213912   0.127   3.513   4.059
 4656TIP3    H113913   0.032   3.505   4.068
 4656TIP3    H213914   0.153   3.574   4.128
 4657TIP3   OH213915   2.204   0.681   5.403
 4657TIP3    H113916   2.213   0.707   5.312
 4657TIP3    H213917   2.255   0.601   5.412
 4658TIP3   OH213918   2.296   3.096   1.038
 4658TIP3    H113919   2.386   3.126   1.050
 4658TIP3    H213920   2.304   3.006   1.006
 4659TIP3   OH213921   5.368   5.788   5.623
 4659TIP3    H113922   5.431   5.730   5.580
 4659TIP3    H213923   5.290   5.783   5.569
 4660TIP3   OH213924   8.187   5.518   6.440
 4660TIP3    H113925   8.244   5.445   6.415
 4660TIP3    H213926   8.108   5.505   6.389
 4661TIP3   OH213927   5.991   0.716   4.810
 4661TIP3    H113928   6.025   0.802   4.786
 4661TIP3    H213929   5.972   0.673   4.726
 4662TIP3   OH213930   5.438   5.340   1.912
 4662TIP3    H113931   5.437   5.259   1.962
 4662TIP3    H213932   5.348   5.371   1.913
 4663TIP3   OH213933   4.177   4.572   0.250
 4663TIP3    H113934   4.113   4.516   0.206
 4663TIP3    H213935   4.260   4.552   0.207
 4664TIP3   OH213936   1.059   0.918   3.188
 4664TIP3    H113937   1.097   0.907   3.275
 4664TIP3    H213938   1.133   0.908   3.128
 4665TIP3   OH213939   3.349   1.872   0.004
 4665TIP3    H113940   3.281   1.906   0.062
 4665TIP3    H213941   3.404   1.948  -0.014
 4666TIP3   OH213942   4.055   3.677   4.886
 4666TIP3    H113943   4.116   3.741   4.849
 4666TIP3    H213944   4.030   3.714   4.971
 4667TIP3   OH213945   4.350   7.463   6.360
 4667TIP3    H113946   4.328   7.556   6.355
 4667TIP3    H213947   4.429   7.460   6.414
 4668TIP3   OH213948   0.320   0.513   2.390
 4668TIP3    H113949   0.396   0.482   2.441
 4668TIP3    H213950   0.330   0.608   2.389
 4669TIP3   OH213951   5.035   3.847   5.766
 4669TIP3    H113952   5.104   3.912   5.781
 4669TIP3    H213953   5.012   3.856   5.674
 4670TIP3   OH213954   2.640   1.141   0.708
 4670TIP3    H113955   2.613   1.202   0.640
 4670TIP3    H213956   2.617   1.184   0.791
 4671TIP3   OH213957   6.822   4.703   4.699
 4671TIP3    H113958   6.826   4.610   4.677
 4671TIP3    H213959   6.870   4.746   4.628
 4672TIP3   OH213960   6.770   1.405   5.027
 4672TIP3    H113961   6.813   1.321   5.046
 4672TIP3    H213962   6.690   1.381   4.981
 4673TIP3   OH213963   1.950   6.296   1.060
 4673TIP3    H113964   1.903   6.218   1.030
 4673TIP3    H213965   2.000   6.325   0.983
 4674TIP3   OH213966   3.620   6.874   1.847
 4674TIP3    H113967   3.611   6.896   1.940
 4674TIP3    H213968   3.711   6.894   1.827
 4675TIP3   OH213969   1.222   6.624   2.927
 4675TIP3    H113970   1.235   6.539   2.969
 4675TIP3    H213971   1.127   6.628   2.912
 4676TIP3   OH213972   1.995   1.100   0.879
 4676TIP3    H113973   2.033   1.014   0.898
 4676TIP3    H213974   2.033   1.158   0.945
 4677TIP3   OH213975   4.007   3.920   1.211
 4677TIP3    H113976   3.914   3.918   1.231
 4677TIP3    H213977   4.042   3.841   1.253
 4678TIP3   OH213978   8.099   2.041   5.557
 4678TIP3    H113979   8.174   2.030   5.498
 4678TIP3    H213980   8.023   2.018   5.503
 4679TIP3   OH213981   2.123   4.255   4.079
 4679TIP3    H113982   2.097   4.191   4.145
 4679TIP3    H213983   2.162   4.327   4.129
 4680TIP3   OH213984   7.784   4.409   0.037
 4680TIP3    H113985   7.727   4.335   0.059
 4680TIP3    H213986   7.849   4.373  -0.023
 4681TIP3   OH213987   1.410   5.740   3.429
 4681TIP3    H113988   1.460   5.805   3.380
 4681TIP3    H213989   1.470   5.709   3.496
 4682TIP3   OH213990   2.019   4.313   3.502
 4682TIP3    H113991   2.001   4.363   3.422
 4682TIP3    H213992   2.103   4.347   3.533
 4683TIP3   OH213993   1.154   0.143   3.040
 4683TIP3    H113994   1.147   0.091   3.121
 4683TIP3    H213995   1.176   0.231   3.070
 4684TIP3   OH213996   3.863   0.146   5.850
 4684TIP3    H113997   3.786   0.198   5.827
 4684TIP3    H213998   3.884   0.098   5.770
 4685TIP3   OH213999   0.370   1.910   6.628
 4685TIP3    H114000   0.465   1.906   6.616
 4685TIP3    H214001   0.346   1.825   6.665
 4686TIP3   OH214002   1.562   7.719   5.117
 4686TIP3    H114003   1.656   7.701   5.110
 4686TIP3    H214004   1.532   7.660   5.186
 4687TIP3   OH214005   6.270   1.615   0.543
 4687TIP3    H114006   6.214   1.692   0.527
 4687TIP3    H214007   6.321   1.638   0.621
 4688TIP3   OH214008   6.543   6.100   0.642
 4688TIP3    H114009   6.456   6.136   0.626
 4688TIP3    H214010   6.575   6.147   0.719
 4689TIP3   OH214011   0.528   2.474   3.271
 4689TIP3    H114012   0.434   2.478   3.289
 4689TIP3    H214013   0.565   2.428   3.347
 4690TIP3   OH214014   3.781   7.189   4.127
 4690TIP3    H114015   3.694   7.155   4.105
 4690TIP3    H214016   3.763   7.270   4.175
 4691TIP3   OH214017   2.526   1.854   3.021
 4691TIP3    H114018   2.590   1.784   3.010
 4691TIP3    H214019   2.572   1.919   3.076
 4692TIP3   OH214020   2.920   6.682   6.506
 4692TIP3    H114021   2.966   6.732   6.439
 4692TIP3    H214022   2.962   6.596   6.504
 4693TIP3   OH214023   2.986   0.238   4.217
 4693TIP3    H114024   2.941   0.305   4.268
 4693TIP3    H214025   2.966   0.260   4.126
 4694TIP3   OH214026   6.623   3.789   1.529
 4694TIP3    H114027   6.710   3.824   1.509
 4694TIP3    H214028   6.605   3.727   1.458
 4695TIP3   OH214029   4.174   1.222   1.645
 4695TIP3    H114030   4.264   1.238   1.618
 4695TIP3    H214031   4.121   1.250   1.570
 4696TIP3   OH214032   7.698   0.757   4.388
 4696TIP3    H114033   7.688   0.699   4.463
 4696TIP3    H214034   7.614   0.754   4.343
 4697TIP3   OH214035   4.998   2.687   2.508
 4697TIP3    H114036   4.986   2.769   2.460
 4697TIP3    H214037   5.018   2.622   2.441
 4698TIP3   OH214038   2.721   2.289   2.847
 4698TIP3    H114039   2.681   2.318   2.930
 4698TIP3    H214040   2.648   2.280   2.787
 4699TIP3   OH214041   7.020   7.675   4.570
 4699TIP3    H114042   7.095   7.690   4.627
 4699TIP3    H214043   6.974   7.601   4.610
 4700TIP3   OH214044   7.936   6.853   4.147
 4700TIP3    H114045   7.917   6.772   4.099
 4700TIP3    H214046   7.903   6.923   4.090
 4701TIP3   OH214047   3.331   3.932   4.856
 4701TIP3    H114048   3.274   3.856   4.872
 4701TIP3    H214049   3.376   3.945   4.939
 4702TIP3   OH214050   2.265   6.148   0.364
 4702TIP3    H114051   2.261   6.222   0.304
 4702TIP3    H214052   2.348   6.106   0.345
 4703TIP3   OH214053   3.767   2.949   3.164
 4703TIP3    H114054   3.801   2.887   3.228
 4703TIP3    H214055   3.690   2.987   3.206
 4704TIP3   OH214056   4.308   3.885   2.844
 4704TIP3    H114057   4.359   3.803   2.849
 4704TIP3    H214058   4.222   3.857   2.815
 4705TIP3   OH214059   2.928   1.960   5.545
 4705TIP3    H114060   2.893   2.046   5.567
 4705TIP3    H214061   2.988   1.939   5.616
 4706TIP3   OH214062   4.372   1.674   5.604
 4706TIP3    H114063   4.396   1.749   5.549
 4706TIP3    H214064   4.329   1.613   5.544
 4707TIP3   OH214065   1.245   0.546   4.700
 4707TIP3    H114066   1.303   0.612   4.738
 4707TIP3    H214067   1.160   0.590   4.694
 4708TIP3   OH214068   7.268   5.104   5.569
 4708TIP3    H114069   7.311   5.156   5.500
 4708TIP3    H214070   7.176   5.103   5.544
 4709TIP3   OH214071   7.921   2.411   1.195
 4709TIP3    H114072   7.934   2.490   1.142
 4709TIP3    H214073   7.994   2.354   1.171
 4710TIP3   OH214074   7.979   7.299   0.157
 4710TIP3    H114075   7.973   7.286   0.251
 4710TIP3    H214076   8.049   7.363   0.146
 4711TIP3   OH214077   3.551   2.158   1.584
 4711TIP3    H114078   3.480   2.133   1.525
 4711TIP3    H214079   3.539   2.252   1.598
 4712TIP3   OH214080   3.038   7.224   1.214
 4712TIP3    H114081   2.944   7.206   1.214
 4712TIP3    H214082   3.073   7.167   1.146
 4713TIP3   OH214083   5.594   4.586   1.168
 4713TIP3    H114084   5.530   4.515   1.167
 4713TIP3    H214085   5.565   4.646   1.100
 4714TIP3   OH214086   1.396   1.078   5.997
 4714TIP3    H114087   1.464   1.013   6.012
 4714TIP3    H214088   1.408   1.106   5.907
 4715TIP3   OH214089   1.023   0.005   4.804
 4715TIP3    H114090   1.027   0.097   4.779
 4715TIP3    H214091   0.937  -0.024   4.773
 4716TIP3   OH214092   6.409   7.207   6.540
 4716TIP3    H114093   6.431   7.293   6.504
 4716TIP3    H214094   6.387   7.154   6.464
 4717TIP3   OH214095   3.016   3.755   4.554
 4717TIP3    H114096   3.063   3.673   4.536
 4717TIP3    H214097   3.084   3.822   4.550
 4718TIP3   OH214098   7.882   4.189   6.340
 4718TIP3    H114099   7.866   4.107   6.388
 4718TIP3    H214100   7.954   4.231   6.386
 4719TIP3   OH214101   6.922   2.279   5.429
 4719TIP3    H114102   6.951   2.354   5.377
 4719TIP3    H214103   6.867   2.317   5.497
 4720TIP3   OH214104   6.439   2.630   3.305
 4720TIP3    H114105   6.502   2.612   3.236
 4720TIP3    H214106   6.354   2.624   3.262
 4721TIP3   OH214107   2.134   6.508   1.954
 4721TIP3    H114108   2.076   6.548   1.890
 4721TIP3    H214109   2.217   6.498   1.908
 4722TIP3   OH214110   1.347   3.535   5.885
 4722TIP3    H114111   1.426   3.502   5.929
 4722TIP3    H214112   1.300   3.457   5.858
 4723TIP3   OH214113   1.894   0.044   6.190
 4723TIP3    H114114   1.890   0.002   6.104
 4723TIP3    H214115   1.936  -0.020   6.247
 4724TIP3   OH214116   1.345   5.055   4.869
 4724TIP3    H114117   1.363   5.101   4.952
 4724TIP3    H214118   1.263   5.008   4.885
 4725TIP3   OH214119   7.371   3.372   5.496
 4725TIP3    H114120   7.320   3.293   5.479
 4725TIP3    H214121   7.462   3.344   5.493
 4726TIP3   OH214122   1.582   6.750   2.697
 4726TIP3    H114123   1.536   6.668   2.714
 4726TIP3    H214124   1.675   6.728   2.705
 4727TIP3   OH214125   5.225   1.037   1.597
 4727TIP3    H114126   5.241   1.022   1.690
 4727TIP3    H214127   5.132   1.017   1.586
 4728TIP3   OH214128   0.037   7.227   4.206
 4728TIP3    H114129   0.125   7.224   4.242
 4728TIP3    H214130  -0.008   7.152   4.244
 4729TIP3   OH214131   5.611   2.462   6.428
 4729TIP3    H114132   5.696   2.419   6.420
 4729TIP3    H214133   5.619   2.519   6.504
 4730TIP3   OH214134   3.267   1.220   5.506
 4730TIP3    H114135   3.207   1.267   5.447
 4730TIP3    H214136   3.239   1.247   5.594
 4731TIP3   OH214137   1.090   3.244   0.296
 4731TIP3    H114138   1.077   3.203   0.382
 4731TIP3    H214139   1.183   3.268   0.295
 4732TIP3   OH214140   4.083   1.739   1.801
 4732TIP3    H114141   4.058   1.655   1.763
 4732TIP3    H214142   4.172   1.725   1.834
 4733TIP3   OH214143   6.614   1.079   6.038
 4733TIP3    H114144   6.612   1.130   5.957
 4733TIP3    H214145   6.677   1.009   6.021
 4734TIP3   OH214146   2.874   5.516   3.917
 4734TIP3    H114147   2.920   5.530   4.000
 4734TIP3    H214148   2.853   5.604   3.886
 4735TIP3   OH214149   3.818   5.570   2.874
 4735TIP3    H114150   3.724   5.581   2.890
 4735TIP3    H214151   3.859   5.642   2.922
 4736TIP3   OH214152   0.520   0.040   1.938
 4736TIP3    H114153   0.569  -0.036   1.905
 4736TIP3    H214154   0.439   0.002   1.971
 4737TIP3   OH214155   3.272   3.824   0.351
 4737TIP3    H114156   3.315   3.760   0.409
 4737TIP3    H214157   3.320   3.817   0.269
 4738TIP3   OH214158   4.523   1.283   5.949
 4738TIP3    H114159   4.609   1.324   5.959
 4738TIP3    H214160   4.474   1.311   6.027
 4739TIP3   OH214161   5.912   0.820   2.652
 4739TIP3    H114162   5.819   0.800   2.642
 4739TIP3    H214163   5.922   0.844   2.744
 4740TIP3   OH214164   1.724   5.538   1.861
 4740TIP3    H114165   1.817   5.561   1.863
 4740TIP3    H214166   1.681   5.614   1.823
 4741TIP3   OH214167   5.968   3.195   4.329
 4741TIP3    H114168   5.922   3.230   4.406
 4741TIP3    H214169   5.902   3.196   4.260
 4742TIP3   OH214170   7.084   3.265   0.067
 4742TIP3    H114171   7.012   3.319   0.036
 4742TIP3    H214172   7.154   3.277   0.002
 4743TIP3   OH214173   5.091   1.614   2.512
 4743TIP3    H114174   5.073   1.693   2.563
 4743TIP3    H214175   5.186   1.611   2.504
 4744TIP3   OH214176   0.324   4.607   2.550
 4744TIP3    H114177   0.295   4.690   2.588
 4744TIP3    H214178   0.378   4.567   2.619
 4745TIP3   OH214179   4.052   0.268   1.130
 4745TIP3    H114180   4.095   0.184   1.110
 4745TIP3    H214181   3.961   0.255   1.104
 4746TIP3   OH214182   6.865   2.335   4.956
 4746TIP3    H114183   6.887   2.402   4.892
 4746TIP3    H214184   6.948   2.314   4.999
 4747TIP3   OH214185   2.410   0.579   0.227
 4747TIP3    H114186   2.434   0.669   0.251
 4747TIP3    H214187   2.399   0.582   0.132
 4748TIP3   OH214188   7.353   0.499   6.291
 4748TIP3    H114189   7.423   0.449   6.249
 4748TIP3    H214190   7.350   0.466   6.381
 4749TIP3   OH214191   2.191   4.722   0.868
 4749TIP3    H114192   2.266   4.722   0.927
 4749TIP3    H214193   2.228   4.712   0.781
 4750TIP3   OH214194   1.402   2.032   5.313
 4750TIP3    H114195   1.396   1.939   5.290
 4750TIP3    H214196   1.355   2.077   5.242
 4751TIP3   OH214197   5.311   5.839   4.358
 4751TIP3    H114198   5.279   5.874   4.275
 4751TIP3    H214199   5.381   5.779   4.333
 4752TIP3   OH214200   7.826   7.077   3.966
 4752TIP3    H114201   7.781   7.055   3.885
 4752TIP3    H214202   7.884   7.149   3.943
 4753TIP3   OH214203   3.085   4.897   1.637
 4753TIP3    H114204   3.080   4.924   1.729
 4753TIP3    H214205   3.126   4.811   1.639
 4754TIP3   OH214206   5.077   6.833   0.759
 4754TIP3    H114207   5.139   6.813   0.688
 4754TIP3    H214208   4.991   6.828   0.717
 4755TIP3   OH214209   4.201   1.815   4.334
 4755TIP3    H114210   4.234   1.893   4.379
 4755TIP3    H214211   4.271   1.792   4.273
 4756TIP3   OH214212   7.118   5.436   5.516
 4756TIP3    H114213   7.159   5.363   5.470
 4756TIP3    H214214   7.191   5.491   5.543
 4757TIP3   OH214215   2.712   3.510   6.409
 4757TIP3    H114216   2.673   3.436   6.456
 4757TIP3    H214217   2.637   3.559   6.376
 4758TIP3   OH214218   2.906   5.764   5.481
 4758TIP3    H114219   2.820   5.789   5.516
 4758TIP3    H214220   2.910   5.808   5.396
 4759TIP3   OH214221   3.267   4.692   1.290
 4759TIP3    H114222   3.255   4.598   1.304
 4759TIP3    H214223   3.293   4.699   1.198
 4760TIP3   OH214224   6.645   5.890   5.259
 4760TIP3    H114225   6.728   5.849   5.234
 4760TIP3    H214226   6.670   5.970   5.304
 4761TIP3   OH214227   4.537   7.129   4.460
 4761TIP3    H114228   4.541   7.116   4.365
 4761TIP3    H214229   4.577   7.050   4.497
 4762TIP3   OH214230   6.229   3.357   0.614
 4762TIP3    H114231   6.211   3.339   0.522
 4762TIP3    H214232   6.297   3.293   0.638
 4763TIP3   OH214233   5.173   0.337   0.715
 4763TIP3    H114234   5.163   0.346   0.810
 4763TIP3    H214235   5.224   0.256   0.704
 4764TIP3   OH214236   4.229   4.113   3.554
 4764TIP3    H114237   4.256   4.199   3.523
 4764TIP3    H214238   4.306   4.057   3.542
 4765TIP3   OH214239   8.052   5.990   6.473
 4765TIP3    H114240   8.113   6.064   6.473
 4765TIP3    H214241   8.059   5.953   6.385
 4766TIP3   OH214242   1.338   2.456   1.415
 4766TIP3    H114243   1.389   2.419   1.343
 4766TIP3    H214244   1.278   2.386   1.442
 4767TIP3   OH214245   4.516   7.150   0.319
 4767TIP3    H114246   4.504   7.059   0.293
 4767TIP3    H214247   4.607   7.170   0.298
 4768TIP3   OH214248   4.535   6.028   5.399
 4768TIP3    H114249   4.488   5.947   5.381
 4768TIP3    H214250   4.574   6.052   5.315
 4769TIP3   OH214251   3.263   0.789   3.950
 4769TIP3    H114252   3.305   0.855   3.894
 4769TIP3    H214253   3.201   0.745   3.892
 4770TIP3   OH214254   1.169   4.511   4.857
 4770TIP3    H114255   1.088   4.477   4.821
 4770TIP3    H214256   1.222   4.434   4.876
 4771TIP3   OH214257   5.597   5.625   0.513
 4771TIP3    H114258   5.528   5.686   0.540
 4771TIP3    H214259   5.619   5.577   0.594
 4772TIP3   OH214260   7.984   0.846   3.326
 4772TIP3    H114261   8.049   0.776   3.333
 4772TIP3    H214262   7.901   0.800   3.314
 4773TIP3   OH214263   4.545   5.062   5.705
 4773TIP3    H114264   4.518   5.037   5.616
 4773TIP3    H214265   4.463   5.080   5.751
 4774TIP3   OH214266   2.370   5.074   0.922
 4774TIP3    H114267   2.346   5.087   1.014
 4774TIP3    H214268   2.463   5.097   0.918
 4775TIP3   OH214269   1.884   5.798   3.743
 4775TIP3    H114270   1.790   5.800   3.726
 4775TIP3    H214271   1.892   5.817   3.837
 4776TIP3   OH214272   3.645   4.601   6.465
 4776TIP3    H114273   3.646   4.538   6.393
 4776TIP3    H214274   3.553   4.603   6.494
 4777TIP3   OH214275   4.987   0.129   2.681
 4777TIP3    H114276   4.964   0.198   2.618
 4777TIP3    H214277   5.070   0.093   2.647
 4778TIP3   OH214278   4.115   7.082   5.203
 4778TIP3    H114279   4.149   7.104   5.116
 4778TIP3    H214280   4.100   7.167   5.244
 4779TIP3   OH214281   1.362   5.810   1.515
 4779TIP3    H114282   1.270   5.789   1.532
 4779TIP3    H214283   1.359   5.882   1.451
 4780TIP3   OH214284   6.785   1.289   6.514
 4780TIP3    H114285   6.869   1.260   6.478
 4780TIP3    H214286   6.722   1.228   6.477
 4781TIP3   OH214287   2.309   6.455   3.704
 4781TIP3    H114288   2.401   6.438   3.723
 4781TIP3    H214289   2.275   6.372   3.672
 4782TIP3   OH214290   7.873   2.371   6.576
 4782TIP3    H114291   7.908   2.323   6.651
 4782TIP3    H214292   7.801   2.316   6.543
 4783TIP3   OH214293   2.143   2.293   4.540
 4783TIP3    H114294   2.057   2.253   4.526
 4783TIP3    H214295   2.133   2.384   4.512
 4784TIP3   OH214296   0.885   2.821   0.602
 4784TIP3    H114297   0.926   2.906   0.614
 4784TIP3    H214298   0.816   2.837   0.537
 4785TIP3   OH214299   6.414   3.136   3.928
 4785TIP3    H114300   6.387   3.216   3.973
 4785TIP3    H214301   6.333   3.085   3.919
 4786TIP3   OH214302   5.102   7.747   6.207
 4786TIP3    H114303   5.025   7.723   6.258
 4786TIP3    H214304   5.170   7.764   6.273
 4787TIP3   OH214305   0.626   3.737   2.125
 4787TIP3    H114306   0.559   3.672   2.104
 4787TIP3    H214307   0.644   3.782   2.042
 4788TIP3   OH214308   6.913   5.384   5.237
 4788TIP3    H114309   6.878   5.469   5.263
 4788TIP3    H214310   6.839   5.339   5.197
 4789TIP3   OH214311   6.366   2.193   2.706
 4789TIP3    H114312   6.359   2.104   2.673
 4789TIP3    H214313   6.430   2.188   2.777
 4790TIP3   OH214314   0.932   0.029   3.507
 4790TIP3    H114315   0.989   0.018   3.430
 4790TIP3    H214316   0.987   0.073   3.571
 4791TIP3   OH214317   6.159   7.009   0.310
 4791TIP3    H114318   6.097   6.964   0.252
 4791TIP3    H214319   6.139   6.977   0.397
 4792TIP3   OH214320   3.065   3.964   3.700
 4792TIP3    H114321   3.068   3.903   3.774
 4792TIP3    H214322   3.073   4.050   3.740
 4793TIP3   OH214323   6.084   6.413   2.131
 4793TIP3    H114324   6.065   6.386   2.220
 4793TIP3    H214325   6.097   6.507   2.136
 4794TIP3   OH214326   3.211   7.314   1.554
 4794TIP3    H114327   3.242   7.297   1.465
 4794TIP3    H214328   3.176   7.403   1.551
 4795TIP3   OH214329   4.054   1.349   2.922
 4795TIP3    H114330   4.052   1.341   3.017
 4795TIP3    H214331   4.147   1.350   2.900
 4796TIP3   OH214332   2.667   3.308   4.781
 4796TIP3    H114333   2.632   3.228   4.821
 4796TIP3    H214334   2.673   3.288   4.688
 4797TIP3   OH214335   7.869   7.611   2.877
 4797TIP3    H114336   7.799   7.561   2.920
 4797TIP3    H214337   7.917   7.650   2.950
 4798TIP3   OH214338   3.799   1.953   3.644
 4798TIP3    H114339   3.709   1.975   3.619
 4798TIP3    H214340   3.833   1.903   3.570
 4799TIP3   OH214341   4.821   5.151   0.943
 4799TIP3    H114342   4.822   5.064   0.981
 4799TIP3    H214343   4.731   5.163   0.912
 4800TIP3   OH214344   4.933   0.174   0.093
 4800TIP3    H114345   4.947   0.110   0.164
 4800TIP3    H214346   4.956   0.258   0.133
 4801TIP3   OH214347   6.555   6.429   4.086
 4801TIP3    H114348   6.574   6.445   4.179
 4801TIP3    H214349   6.620   6.365   4.059
 4802TIP3   OH214350   1.579   3.333   0.530
 4802TIP3    H114351   1.607   3.400   0.467
 4802TIP3    H214352   1.659   3.312   0.578
 4803TIP3   OH214353   5.175   3.963   5.380
 4803TIP3    H114354   5.126   4.015   5.444
 4803TIP3    H214355   5.152   3.873   5.401
 4804TIP3   OH214356   4.963   6.445   3.080
 4804TIP3    H114357   5.026   6.412   3.017
 4804TIP3    H214358   4.999   6.423   3.166
 4805TIP3   OH214359   0.024   0.146   5.241
 4805TIP3    H114360   0.106   0.192   5.221
 4805TIP3    H214361   0.036   0.115   5.330
 4806TIP3   OH214362   7.147   3.600   4.329
 4806TIP3    H114363   7.142   3.505   4.314
 4806TIP3    H214364   7.229   3.612   4.377
 4807TIP3   OH214365   3.179   0.125   6.219
 4807TIP3    H114366   3.093   0.085   6.206
 4807TIP3    H214367   3.162   0.219   6.216
 4808TIP3   OH214368   5.644   5.280   4.556
 4808TIP3    H114369   5.640   5.363   4.604
 4808TIP3    H214370   5.659   5.214   4.624
 4809TIP3   OH214371   5.072   5.706   6.135
 4809TIP3    H114372   4.999   5.651   6.163
 4809TIP3    H214373   5.092   5.675   6.046
 4810TIP3   OH214374   1.059   5.463   0.327
 4810TIP3    H114375   1.094   5.503   0.406
 4810TIP3    H214376   0.970   5.498   0.320
 4811TIP3   OH214377   5.222   2.679   1.250
 4811TIP3    H114378   5.304   2.728   1.254
 4811TIP3    H214379   5.242   2.606   1.191
 4812TIP3   OH214380   0.553   0.661   5.708
 4812TIP3    H114381   0.490   0.734   5.706
 4812TIP3    H214382   0.538   0.618   5.792
 4813TIP3   OH214383   4.973   1.867   5.600
 4813TIP3    H114384   4.985   1.900   5.689
 4813TIP3    H214385   5.053   1.817   5.583
 4814TIP3   OH214386   1.343   2.980   2.192
 4814TIP3    H114387   1.417   2.945   2.141
 4814TIP3    H214388   1.321   3.063   2.149
 4815TIP3   OH214389   3.063   6.086   0.116
 4815TIP3    H114390   3.055   6.153   0.185
 4815TIP3    H214391   3.153   6.054   0.124
 4816TIP3   OH214392   0.142   7.006   2.252
 4816TIP3    H114393   0.119   7.084   2.202
 4816TIP3    H214394   0.237   7.010   2.261
 4817TIP3   OH214395   1.328   0.915   1.495
 4817TIP3    H114396   1.364   0.997   1.527
 4817TIP3    H214397   1.298   0.869   1.574
 4818TIP3   OH214398   2.591   6.871   4.833
 4818TIP3    H114399   2.666   6.843   4.886
 4818TIP3    H214400   2.560   6.951   4.877
 4819TIP3   OH214401   5.032   7.790   1.386
 4819TIP3    H114402   5.077   7.741   1.317
 4819TIP3    H214403   5.065   7.753   1.468
 4820TIP3   OH214404   7.587   5.563   6.016
 4820TIP3    H114405   7.542   5.627   6.072
 4820TIP3    H214406   7.540   5.481   6.032
 4821TIP3   OH214407   4.487   3.776   6.545
 4821TIP3    H114408   4.579   3.784   6.521
 4821TIP3    H214409   4.443   3.847   6.496
 4822TIP3   OH214410   5.020   0.878   6.363
 4822TIP3    H114411   4.985   0.797   6.328
 4822TIP3    H214412   4.944   0.923   6.400
 4823TIP3   OH214413   5.539   1.878   3.235
 4823TIP3    H114414   5.545   1.783   3.232
 4823TIP3    H214415   5.481   1.901   3.162
 4824TIP3   OH214416   3.280   3.845   0.682
 4824TIP3    H114417   3.224   3.920   0.704
 4824TIP3    H214418   3.367   3.883   0.670
 4825TIP3   OH214419   1.863   2.472   2.745
 4825TIP3    H114420   1.872   2.387   2.788
 4825TIP3    H214421   1.945   2.518   2.763
 4826TIP3   OH214422   6.431   6.212   3.341
 4826TIP3    H114423   6.493   6.140   3.326
 4826TIP3    H214424   6.419   6.213   3.436
 4827TIP3   OH214425   4.413   5.210   1.964
 4827TIP3    H114426   4.391   5.298   1.934
 4827TIP3    H214427   4.508   5.212   1.975
 4828TIP3   OH214428   6.009   1.225   4.190
 4828TIP3    H114429   6.005   1.175   4.109
 4828TIP3    H214430   5.978   1.165   4.258
 4829TIP3   OH214431   1.525   1.142   1.077
 4829TIP3    H114432   1.476   1.083   1.134
 4829TIP3    H214433   1.469   1.220   1.069
 4830TIP3   OH214434   4.210   0.675   4.857
 4830TIP3    H114435   4.132   0.652   4.908
 4830TIP3    H214436   4.179   0.743   4.796
 4831TIP3   OH214437   3.860   4.367   2.685
 4831TIP3    H114438   3.930   4.338   2.744
 4831TIP3    H214439   3.888   4.454   2.656
 4832TIP3   OH214440   5.647   5.912   3.360
 4832TIP3    H114441   5.715   5.876   3.416
 4832TIP3    H214442   5.570   5.859   3.379
 4833TIP3   OH214443   2.613   3.847   1.369
 4833TIP3    H114444   2.526   3.823   1.402
 4833TIP3    H214445   2.618   3.806   1.283
 4834TIP3   OH214446   7.484   7.616   1.170
 4834TIP3    H114447   7.486   7.635   1.076
 4834TIP3    H214448   7.459   7.699   1.211
 4835TIP3   OH214449   4.194   7.463   2.288
 4835TIP3    H114450   4.271   7.410   2.306
 4835TIP3    H214451   4.132   7.440   2.358
 4836TIP3   OH214452  -0.024   3.299   3.904
 4836TIP3    H114453  -0.016   3.293   3.809
 4836TIP3    H214454   0.062   3.275   3.938
 4837TIP3   OH214455   6.792   4.531   5.995
 4837TIP3    H114456   6.792   4.543   5.900
 4837TIP3    H214457   6.841   4.450   6.009
 4838TIP3   OH214458   4.852   0.411   4.872
 4838TIP3    H114459   4.946   0.426   4.858
 4838TIP3    H214460   4.835   0.446   4.959
 4839TIP3   OH214461   0.389   6.606   1.753
 4839TIP3    H114462   0.318   6.548   1.780
 4839TIP3    H214463   0.400   6.589   1.659
 4840TIP3   OH214464   1.506   3.141   5.307
 4840TIP3    H114465   1.503   3.134   5.212
 4840TIP3    H214466   1.589   3.183   5.326
 4841TIP3   OH214467   3.763   6.964   0.213
 4841TIP3    H114468   3.715   7.018   0.276
 4841TIP3    H214469   3.853   6.965   0.246
 4842TIP3   OH214470   3.614   1.172   2.657
 4842TIP3    H114471   3.538   1.169   2.600
 4842TIP3    H214472   3.682   1.214   2.604
 4843TIP3   OH214473   8.244   6.315   1.004
 4843TIP3    H114474   8.238   6.405   0.974
 4843TIP3    H214475   8.334   6.288   0.983
 4844TIP3   OH214476   7.846   6.990   5.938
 4844TIP3    H114477   7.769   7.047   5.935
 4844TIP3    H214478   7.916   7.041   5.899
 4845TIP3   OH214479   7.774   0.129   4.435
 4845TIP3    H114480   7.845   0.136   4.371
 4845TIP3    H214481   7.702   0.088   4.387
 4846TIP3   OH214482   6.780   4.069   1.018
 4846TIP3    H114483   6.822   4.012   1.083
 4846TIP3    H214484   6.842   4.073   0.946
 4847TIP3   OH214485   5.448   4.130   2.119
 4847TIP3    H114486   5.427   4.223   2.128
 4847TIP3    H214487   5.494   4.108   2.200
 4848TIP3   OH214488   7.016   5.247   0.796
 4848TIP3    H114489   6.946   5.191   0.763
 4848TIP3    H214490   6.986   5.336   0.777
 4849TIP3   OH214491   6.814   6.088   0.887
 4849TIP3    H114492   6.751   6.151   0.921
 4849TIP3    H214493   6.899   6.120   0.918
 4850TIP3   OH214494   6.324   0.294   1.391
 4850TIP3    H114495   6.360   0.330   1.310
 4850TIP3    H214496   6.232   0.317   1.388
 4851TIP3   OH214497   2.805   5.426   1.493
 4851TIP3    H114498   2.891   5.389   1.477
 4851TIP3    H214499   2.822   5.512   1.533
 4852TIP3   OH214500   5.693   2.668   0.468
 4852TIP3    H114501   5.651   2.718   0.398
 4852TIP3    H214502   5.621   2.640   0.524
 4853TIP3   OH214503   0.988   2.864   6.686
 4853TIP3    H114504   0.999   2.958   6.673
 4853TIP3    H214505   0.998   2.851   6.780
 4854TIP3   OH214506   3.239   0.260   2.653
 4854TIP3    H114507   3.176   0.293   2.590
 4854TIP3    H214508   3.296   0.335   2.672
 4855TIP3   OH214509   5.315   4.247   5.257
 4855TIP3    H114510   5.346   4.327   5.301
 4855TIP3    H214511   5.220   4.249   5.271
 4856TIP3   OH214512   7.358   3.496   3.009
 4856TIP3    H114513   7.352   3.554   2.933
 4856TIP3    H214514   7.269   3.489   3.042
 4857TIP3   OH214515   0.959   1.177   4.921
 4857TIP3    H114516   1.021   1.118   4.876
 4857TIP3    H214517   0.976   1.162   5.014
 4858TIP3   OH214518   1.803   3.891   3.175
 4858TIP3    H114519   1.723   3.850   3.208
 4858TIP3    H214520   1.872   3.826   3.191
 4859TIP3   OH214521   5.449   7.256   6.309
 4859TIP3    H114522   5.397   7.244   6.229
 4859TIP3    H214523   5.520   7.192   6.301
 4860TIP3   OH214524   1.163   4.789   2.682
 4860TIP3    H114525   1.160   4.826   2.594
 4860TIP3    H214526   1.161   4.865   2.740
 4861TIP3   OH214527   7.324   4.443   5.332
 4861TIP3    H114528   7.382   4.478   5.400
 4861TIP3    H214529   7.256   4.509   5.322
 4862TIP3   OH214530   5.603   4.162   5.916
 4862TIP3    H114531   5.593   4.197   5.828
 4862TIP3    H214532   5.547   4.218   5.970
 4863TIP3   OH214533   5.054   5.536   5.061
 4863TIP3    H114534   5.124   5.575   5.115
 4863TIP3    H214535   5.045   5.447   5.095
 4864TIP3   OH214536   3.392   3.247   3.993
 4864TIP3    H114537   3.331   3.184   3.956
 4864TIP3    H214538   3.351   3.333   3.980
 4865TIP3   OH214539   4.578   1.968   5.725
 4865TIP3    H114540   4.527   1.897   5.765
 4865TIP3    H214541   4.603   1.933   5.639
 4866TIP3   OH214542   6.878   6.225   4.732
 4866TIP3    H114543   6.906   6.151   4.678
 4866TIP3    H214544   6.837   6.184   4.808
 4867TIP3   OH214545   2.545   3.558   4.824
 4867TIP3    H114546   2.581   3.469   4.819
 4867TIP3    H214547   2.621   3.615   4.815
 4868TIP3   OH214548   3.052   0.880   0.833
 4868TIP3    H114549   3.049   0.811   0.900
 4868TIP3    H214550   3.108   0.948   0.871
 4869TIP3   OH214551   3.759   1.785   4.720
 4869TIP3    H114552   3.697   1.841   4.768
 4869TIP3    H214553   3.752   1.814   4.629
 4870TIP3   OH214554   5.635   1.019   2.277
 4870TIP3    H114555   5.563   1.012   2.340
 4870TIP3    H214556   5.594   1.057   2.199
 4871TIP3   OH214557   5.472   1.439   3.402
 4871TIP3    H114558   5.561   1.458   3.431
 4871TIP3    H214559   5.436   1.383   3.471
 4872TIP3   OH214560   3.673   4.708   0.033
 4872TIP3    H114561   3.647   4.693   0.124
 4872TIP3    H214562   3.596   4.685  -0.019
 4873TIP3   OH214563   2.718   4.149   0.557
 4873TIP3    H114564   2.740   4.064   0.594
 4873TIP3    H214565   2.648   4.131   0.494
 4874TIP3   OH214566   5.380   4.565   6.618
 4874TIP3    H114567   5.404   4.573   6.526
 4874TIP3    H214568   5.425   4.486   6.647
 4875TIP3   OH214569   6.690   3.020   3.324
 4875TIP3    H114570   6.651   3.054   3.244
 4875TIP3    H214571   6.725   3.097   3.368
 4876TIP3   OH214572   0.040   3.912   6.118
 4876TIP3    H114573  -0.049   3.934   6.090
 4876TIP3    H214574   0.075   3.857   6.047
 4877TIP3   OH214575   7.722   2.159   5.237
 4877TIP3    H114576   7.635   2.197   5.225
 4877TIP3    H214577   7.781   2.234   5.242
 4878TIP3   OH214578   7.977   4.173   4.908
 4878TIP3    H114579   7.955   4.114   4.980
 4878TIP3    H214580   8.020   4.117   4.844
 4879TIP3   OH214581   7.070   7.145   4.096
 4879TIP3    H114582   7.020   7.150   4.015
 4879TIP3    H214583   7.085   7.236   4.122
 4880TIP3   OH214584   2.539   2.163   5.545
 4880TIP3    H114585   2.592   2.198   5.616
 4880TIP3    H214586   2.593   2.174   5.467
 4881TIP3   OH214587   2.988   0.331   3.089
 4881TIP3    H114588   3.048   0.343   3.015
 4881TIP3    H214589   2.997   0.412   3.140
 4882TIP3   OH214590   0.896   1.848   0.259
 4882TIP3    H114591   0.936   1.783   0.201
 4882TIP3    H214592   0.937   1.833   0.344
 4883TIP3   OH214593   1.563   3.128   2.973
 4883TIP3    H114594   1.556   3.131   2.878
 4883TIP3    H214595   1.538   3.216   3.002
 4884TIP3   OH214596   7.116   7.733   3.068
 4884TIP3    H114597   7.199   7.705   3.106
 4884TIP3    H214598   7.059   7.657   3.076
 4885TIP3   OH214599   1.039   6.617   6.807
 4885TIP3    H114600   0.946   6.632   6.788
 4885TIP3    H214601   1.071   6.566   6.733
 4886TIP3   OH214602   2.970   4.862   5.915
 4886TIP3    H114603   3.003   4.948   5.942
 4886TIP3    H214604   2.999   4.853   5.824
 4887TIP3   OH214605   6.363   3.775   1.151
 4887TIP3    H114606   6.442   3.817   1.116
 4887TIP3    H214607   6.292   3.833   1.126
 4888TIP3   OH214608   5.433   3.677   3.436
 4888TIP3    H114609   5.469   3.765   3.449
 4888TIP3    H214610   5.390   3.681   3.351
 4889TIP3   OH214611   7.021   6.981   5.820
 4889TIP3    H114612   7.038   7.061   5.770
 4889TIP3    H214613   7.058   6.999   5.906
 4890TIP3   OH214614   4.156   3.387   2.448
 4890TIP3    H114615   4.095   3.334   2.397
 4890TIP3    H214616   4.151   3.474   2.408
 4891TIP3   OH214617   2.772   4.544   5.838
 4891TIP3    H114618   2.807   4.585   5.759
 4891TIP3    H214619   2.695   4.495   5.808
 4892TIP3   OH214620   5.601   7.484   1.771
 4892TIP3    H114621   5.576   7.397   1.804
 4892TIP3    H214622   5.695   7.489   1.787
 4893TIP3   OH214623   1.500   0.447   1.381
 4893TIP3    H114624   1.491   0.481   1.292
 4893TIP3    H214625   1.416   0.465   1.423
 4894TIP3   OH214626   5.876   0.491   0.564
 4894TIP3    H114627   5.819   0.543   0.507
 4894TIP3    H214628   5.958   0.483   0.516
 4895TIP3   OH214629   1.856   5.264   0.559
 4895TIP3    H114630   1.879   5.172   0.568
 4895TIP3    H214631   1.940   5.310   0.556
 4896TIP3   OH214632   3.557   5.391   4.745
 4896TIP3    H114633   3.549   5.372   4.651
 4896TIP3    H214634   3.481   5.445   4.765
 4897TIP3   OH214635   5.325   1.420   3.099
 4897TIP3    H114636   5.386   1.488   3.126
 4897TIP3    H214637   5.364   1.338   3.131
 4898TIP3   OH214638   0.389   3.390   5.672
 4898TIP3    H114639   0.438   3.345   5.603
 4898TIP3    H214640   0.453   3.449   5.712
 4899TIP3   OH214641   7.518   4.055   6.637
 4899TIP3    H114642   7.558   4.048   6.724
 4899TIP3    H214643   7.433   4.096   6.653
 4900TIP3   OH214644   0.925   2.127   1.951
 4900TIP3    H114645   0.927   2.051   1.893
 4900TIP3    H214646   0.988   2.106   2.021
 4901TIP3   OH214647   4.702   4.492   3.459
 4901TIP3    H114648   4.665   4.560   3.403
 4901TIP3    H214649   4.705   4.531   3.546
 4902TIP3   OH214650   6.681   6.768   6.095
 4902TIP3    H114651   6.662   6.852   6.137
 4902TIP3    H214652   6.611   6.710   6.124
 4903TIP3   OH214653   5.660   2.743   4.474
 4903TIP3    H114654   5.659   2.802   4.549
 4903TIP3    H214655   5.568   2.730   4.452
 4904TIP3   OH214656   2.802   0.433   5.603
 4904TIP3    H114657   2.797   0.352   5.552
 4904TIP3    H214658   2.882   0.423   5.656
 4905TIP3   OH214659   6.073   4.995   6.365
 4905TIP3    H114660   6.062   5.085   6.334
 4905TIP3    H214661   6.105   5.004   6.455
 4906TIP3   OH214662   3.006   0.347   5.178
 4906TIP3    H114663   3.013   0.396   5.095
 4906TIP3    H214664   2.980   0.413   5.242
 4907TIP3   OH214665   4.221   1.440   6.646
 4907TIP3    H114666   4.315   1.419   6.649
 4907TIP3    H214667   4.215   1.512   6.583
 4908TIP3   OH214668   5.280   0.940   2.772
 4908TIP3    H114669   5.266   0.991   2.693
 4908TIP3    H214670   5.330   0.999   2.830
 4909TIP3   OH214671   4.396   5.549   4.407
 4909TIP3    H114672   4.471   5.592   4.365
 4909TIP3    H214673   4.335   5.531   4.336
 4910TIP3   OH214674   1.731   3.267   1.020
 4910TIP3    H114675   1.795   3.198   1.041
 4910TIP3    H214676   1.673   3.226   0.956
 4911TIP3   OH214677   5.593   6.756   2.100
 4911TIP3    H114678   5.518   6.738   2.043
 4911TIP3    H214679   5.641   6.673   2.104
 4912TIP3   OH214680   3.517   1.354   5.845
 4912TIP3    H114681   3.448   1.324   5.904
 4912TIP3    H214682   3.482   1.435   5.807
 4913TIP3   OH214683   2.548   5.122   0.542
 4913TIP3    H114684   2.501   5.179   0.602
 4913TIP3    H214685   2.621   5.087   0.594
 4914TIP3   OH214686   2.744   6.937   0.924
 4914TIP3    H114687   2.810   7.002   0.902
 4914TIP3    H214688   2.671   6.988   0.961
 4915TIP3   OH214689   7.904   5.738   5.714
 4915TIP3    H114690   7.944   5.799   5.776
 4915TIP3    H214691   7.820   5.715   5.752
 4916TIP3   OH214692   5.157   4.642   1.831
 4916TIP3    H114693   5.109   4.668   1.910
 4916TIP3    H214694   5.181   4.551   1.847
 4917TIP3   OH214695   0.678   3.688   5.170
 4917TIP3    H114696   0.598   3.684   5.118
 4917TIP3    H214697   0.748   3.663   5.110
 4918TIP3   OH214698   4.568   5.743   2.019
 4918TIP3    H114699   4.609   5.820   1.979
 4918TIP3    H214700   4.641   5.689   2.047
 4919TIP3   OH214701   3.022   3.799   0.256
 4919TIP3    H114702   2.957   3.774   0.323
 4919TIP3    H214703   3.105   3.803   0.303
 4920TIP3   OH214704   0.946   6.905   5.058
 4920TIP3    H114705   0.867   6.858   5.031
 4920TIP3    H214706   1.017   6.842   5.042
 4921TIP3   OH214707   5.806   3.806   2.901
 4921TIP3    H114708   5.717   3.790   2.932
 4921TIP3    H214709   5.832   3.888   2.942
 4922TIP3   OH214710   0.122   4.516   4.987
 4922TIP3    H114711   0.079   4.578   4.928
 4922TIP3    H214712   0.151   4.570   5.061
 4923TIP3   OH214713   7.058   5.554   1.175
 4923TIP3    H114714   7.124   5.489   1.149
 4923TIP3    H214715   7.085   5.634   1.131
 4924TIP3   OH214716   3.070   7.751   4.204
 4924TIP3    H114717   3.160   7.732   4.180
 4924TIP3    H214718   3.075   7.832   4.254
 4925TIP3   OH214719   4.412   4.972   4.189
 4925TIP3    H114720   4.406   4.978   4.093
 4925TIP3    H214721   4.495   5.015   4.210
 4926TIP3   OH214722   0.680   0.981   5.626
 4926TIP3    H114723   0.690   1.039   5.551
 4926TIP3    H214724   0.721   0.899   5.599
 4927TIP3   OH214725   7.281   5.189   4.794
 4927TIP3    H114726   7.361   5.170   4.745
 4927TIP3    H214727   7.218   5.123   4.765
 4928TIP3   OH214728   2.786   6.739   1.462
 4928TIP3    H114729   2.737   6.804   1.511
 4928TIP3    H214730   2.753   6.655   1.494
 4929TIP3   OH214731   4.025   1.416   4.927
 4929TIP3    H114732   4.062   1.504   4.920
 4929TIP3    H214733   4.087   1.367   4.981
 4930TIP3   OH214734   3.990   6.581   6.253
 4930TIP3    H114735   3.992   6.487   6.238
 4930TIP3    H214736   4.019   6.591   6.344
 4931TIP3   OH214737   2.730   2.497   5.142
 4931TIP3    H114738   2.700   2.502   5.233
 4931TIP3    H214739   2.680   2.565   5.097
 4932TIP3   OH214740   1.649   6.430   6.227
 4932TIP3    H114741   1.661   6.511   6.177
 4932TIP3    H214742   1.634   6.363   6.161
 4933TIP3   OH214743   6.687   0.066   6.403
 4933TIP3    H114744   6.721   0.058   6.493
 4933TIP3    H214745   6.596   0.092   6.414
 4934TIP3   OH214746   4.141   6.128   0.225
 4934TIP3    H114747   4.224   6.129   0.177
 4934TIP3    H214748   4.164   6.160   0.313
 4935TIP3   OH214749   1.746   1.925   1.004
 4935TIP3    H114750   1.773   1.833   1.004
 4935TIP3    H214751   1.655   1.923   0.973
 4936TIP3   OH214752   1.320   4.839   2.195
 4936TIP3    H114753   1.414   4.821   2.206
 4936TIP3    H214754   1.314   4.934   2.198
 4937TIP3   OH214755   1.915   5.869   5.070
 4937TIP3    H114756   1.893   5.806   5.001
 4937TIP3    H214757   1.980   5.927   5.029
 4938TIP3   OH214758   6.648   2.816   4.955
 4938TIP3    H114759   6.579   2.767   5.000
 4938TIP3    H214760   6.619   2.819   4.864
 4939TIP3   OH214761   3.351   4.095   5.484
 4939TIP3    H114762   3.326   4.097   5.576
 4939TIP3    H214763   3.442   4.125   5.482
 4940TIP3   OH214764   6.454   1.908   5.195
 4940TIP3    H114765   6.400   1.888   5.271
 4940TIP3    H214766   6.394   1.901   5.120
 4941TIP3   OH214767   2.458   1.391   6.315
 4941TIP3    H114768   2.410   1.409   6.234
 4941TIP3    H214769   2.396   1.343   6.370
 4942TIP3   OH214770   4.599   2.522   6.746
 4942TIP3    H114771   4.662   2.588   6.717
 4942TIP3    H214772   4.639   2.484   6.825
 4943TIP3   OH214773   7.747   7.417   2.532
 4943TIP3    H114774   7.800   7.483   2.577
 4943TIP3    H214775   7.767   7.429   2.439
 4944TIP3   OH214776   8.014   6.902   1.679
 4944TIP3    H114777   7.991   6.842   1.750
 4944TIP3    H214778   8.106   6.923   1.695
 4945TIP3   OH214779   7.296   3.223   6.673
 4945TIP3    H114780   7.369   3.182   6.626
 4945TIP3    H214781   7.279   3.165   6.747
 4946TIP3   OH214782   7.019   1.518   4.854
 4946TIP3    H114783   6.972   1.600   4.837
 4946TIP3    H214784   7.049   1.524   4.945
 4947TIP3   OH214785   7.427   2.618   5.522
 4947TIP3    H114786   7.460   2.541   5.475
 4947TIP3    H214787   7.481   2.690   5.489
 4948TIP3   OH214788   4.358   6.432   2.244
 4948TIP3    H114789   4.379   6.357   2.298
 4948TIP3    H214790   4.294   6.482   2.295
 4949TIP3   OH214791   2.585   6.533   4.459
 4949TIP3    H114792   2.607   6.616   4.500
 4949TIP3    H214793   2.489   6.530   4.462
 4950TIP3   OH214794   2.278   7.268   2.738
 4950TIP3    H114795   2.329   7.323   2.678
 4950TIP3    H214796   2.285   7.180   2.701
 4951TIP3   OH214797   5.918   3.208   2.046
 4951TIP3    H114798   5.846   3.145   2.033
 4951TIP3    H214799   5.876   3.284   2.086
 4952TIP3   OH214800   4.154   5.707   0.929
 4952TIP3    H114801   4.214   5.683   0.999
 4952TIP3    H214802   4.126   5.796   0.951
 4953TIP3   OH214803   4.214   6.692   6.155
 4953TIP3    H114804   4.274   6.624   6.185
 4953TIP3    H214805   4.133   6.675   6.202
 4954TIP3   OH214806   6.560   0.669   3.423
 4954TIP3    H114807   6.482   0.693   3.373
 4954TIP3    H214808   6.615   0.747   3.420
 4955TIP3   OH214809   2.641   0.530   1.714
 4955TIP3    H114810   2.572   0.591   1.741
 4955TIP3    H214811   2.598   0.472   1.650
 4956TIP3   OH214812   3.322   2.179   0.200
 4956TIP3    H114813   3.299   2.095   0.240
 4956TIP3    H214814   3.417   2.175   0.189
 4957TIP3   OH214815   5.199   6.816   2.239
 4957TIP3    H114816   5.216   6.843   2.148
 4957TIP3    H214817   5.154   6.891   2.278
 4958TIP3   OH214818   5.091   2.856   1.555
 4958TIP3    H114819   5.026   2.789   1.534
 4958TIP3    H214820   5.040   2.931   1.584
 4959TIP3   OH214821   3.756   5.051   1.069
 4959TIP3    H114822   3.780   5.105   0.993
 4959TIP3    H214823   3.744   5.115   1.140
 4960TIP3   OH214824   4.705   5.232   6.339
 4960TIP3    H114825   4.686   5.258   6.248
 4960TIP3    H214826   4.619   5.209   6.375
 4961TIP3   OH214827   4.823   3.563   1.241
 4961TIP3    H114828   4.750   3.501   1.245
 4961TIP3    H214829   4.813   3.607   1.157
 4962TIP3   OH214830   3.678   5.687   6.449
 4962TIP3    H114831   3.588   5.703   6.478
 4962TIP3    H214832   3.678   5.712   6.357
 4963TIP3   OH214833   6.248   3.449   3.560
 4963TIP3    H114834   6.165   3.427   3.603
 4963TIP3    H214835   6.308   3.380   3.588
 4964TIP3   OH214836   2.014   7.240   0.790
 4964TIP3    H114837   1.956   7.267   0.861
 4964TIP3    H214838   2.039   7.321   0.747
 4965TIP3   OH214839   6.615   3.758   2.546
 4965TIP3    H114840   6.577   3.823   2.605
 4965TIP3    H214841   6.705   3.786   2.533
 4966TIP3   OH214842   2.895   1.494   3.404
 4966TIP3    H114843   2.989   1.511   3.411
 4966TIP3    H214844   2.863   1.559   3.341
 4967TIP3   OH214845   2.597   7.724   4.103
 4967TIP3    H114846   2.567   7.719   4.012
 4967TIP3    H214847   2.582   7.636   4.138
 4968TIP3   OH214848   2.402   4.363   2.151
 4968TIP3    H114849   2.348   4.438   2.177
 4968TIP3    H214850   2.463   4.398   2.087
 4969TIP3   OH214851   1.544   0.348   3.776
 4969TIP3    H114852   1.500   0.408   3.837
 4969TIP3    H214853   1.492   0.354   3.695
 4970TIP3   OH214854   6.929   6.980   0.639
 4970TIP3    H114855   6.941   6.892   0.675
 4970TIP3    H214856   6.931   6.968   0.545
 4971TIP3   OH214857   7.324   5.162   6.402
 4971TIP3    H114858   7.348   5.101   6.332
 4971TIP3    H214859   7.405   5.176   6.451
 4972TIP3   OH214860   4.699   6.110   2.532
 4972TIP3    H114861   4.657   6.159   2.602
 4972TIP3    H214862   4.740   6.035   2.576
 4973TIP3   OH214863   3.438   1.344   1.760
 4973TIP3    H114864   3.439   1.305   1.673
 4973TIP3    H214865   3.531   1.360   1.780
 4974TIP3   OH214866   1.193   2.682   0.259
 4974TIP3    H114867   1.134   2.670   0.333
 4974TIP3    H214868   1.214   2.776   0.261
 4975TIP3   OH214869   3.049   5.331   4.370
 4975TIP3    H114870   2.971   5.368   4.330
 4975TIP3    H214871   3.034   5.340   4.464
 4976TIP3   OH214872   5.528   2.493   1.675
 4976TIP3    H114873   5.449   2.504   1.621
 4976TIP3    H214874   5.496   2.492   1.765
 4977TIP3   OH214875   2.389   6.711   5.911
 4977TIP3    H114876   2.377   6.621   5.941
 4977TIP3    H214877   2.482   6.718   5.892
 4978TIP3   OH214878   5.499   4.094   1.723
 4978TIP3    H114879   5.493   4.114   1.817
 4978TIP3    H214880   5.409   4.075   1.697
 4979TIP3   OH214881   7.274   5.813   0.265
 4979TIP3    H114882   7.324   5.884   0.307
 4979TIP3    H214883   7.192   5.855   0.239
 4980TIP3   OH214884   5.004   6.791   1.664
 4980TIP3    H114885   5.061   6.767   1.591
 4980TIP3    H214886   4.917   6.800   1.624
 4981TIP3   OH214887   3.404   4.383   6.602
 4981TIP3    H114888   3.473   4.328   6.640
 4981TIP3    H214889   3.325   4.329   6.608
 4982TIP3   OH214890   7.940   5.981   1.445
 4982TIP3    H114891   7.908   5.894   1.469
 4982TIP3    H214892   7.886   6.006   1.370
 4983TIP3   OH214893   1.018   2.672   6.476
 4983TIP3    H114894   0.991   2.749   6.526
 4983TIP3    H214895   0.986   2.598   6.527
 4984TIP3   OH214896   5.826   1.015   5.624
 4984TIP3    H114897   5.797   1.086   5.681
 4984TIP3    H214898   5.849   1.059   5.542
 4985TIP3   OH214899   1.157   2.978   4.687
 4985TIP3    H114900   1.078   3.032   4.692
 4985TIP3    H214901   1.196   2.999   4.602
 4986TIP3   OH214902   0.264   5.337   4.422
 4986TIP3    H114903   0.218   5.341   4.338
 4986TIP3    H214904   0.265   5.428   4.453
 4987TIP3   OH214905   8.077   0.228   6.325
 4987TIP3    H114906   8.152   0.284   6.308
 4987TIP3    H214907   8.087   0.155   6.263
 4988TIP3   OH214908   0.062   2.956   2.009
 4988TIP3    H114909   0.052   2.973   2.102
 4988TIP3    H214910   0.002   2.884   1.991
 4989TIP3   OH214911   2.153   6.391   0.275
 4989TIP3    H114912   2.162   6.402   0.180
 4989TIP3    H214913   2.059   6.385   0.290
 4990TIP3   OH214914   3.054   7.284   0.232
 4990TIP3    H114915   3.103   7.274   0.313
 4990TIP3    H214916   2.972   7.325   0.259
 4991TIP3   OH214917   1.792   0.358   5.334
 4991TIP3    H114918   1.841   0.365   5.415
 4991TIP3    H214919   1.856   0.373   5.265
 4992TIP3   OH214920   5.282   5.617   5.232
 4992TIP3    H114921   5.327   5.589   5.151
 4992TIP3    H214922   5.339   5.585   5.302
 4993TIP3   OH214923   5.679   2.267   6.097
 4993TIP3    H114924   5.638   2.269   6.011
 4993TIP3    H214925   5.677   2.176   6.124
 4994TIP3   OH214926   1.060   1.131   5.176
 4994TIP3    H114927   1.148   1.121   5.140
 4994TIP3    H214928   1.065   1.209   5.231
 4995TIP3   OH214929   7.772   2.733   4.463
 4995TIP3    H114930   7.709   2.662   4.477
 4995TIP3    H214931   7.758   2.759   4.372
 4996TIP3   OH214932   7.082   0.187   2.758
 4996TIP3    H114933   7.174   0.193   2.732
 4996TIP3    H214934   7.053   0.102   2.725
 4997TIP3   OH214935   2.335   0.504   4.182
 4997TIP3    H114936   2.351   0.597   4.166
 4997TIP3    H214937   2.363   0.490   4.273
 4998TIP3   OH214938   1.693   1.441   1.136
 4998TIP3    H114939   1.618   1.473   1.186
 4998TIP3    H214940   1.756   1.414   1.202
 4999TIP3   OH214941   5.499   4.409   3.990
 4999TIP3    H114942   5.554   4.473   4.036
 4999TIP3    H214943   5.451   4.364   4.060
 5000TIP3   OH214944   4.498   0.872   5.220
 5000TIP3    H114945   4.462   0.904   5.302
 5000TIP3    H214946   4.452   0.921   5.152
 5001TIP3   OH214947   1.328   4.468   6.436
 5001TIP3    H114948   1.392   4.488   6.504
 5001TIP3    H214949   1.243   4.478   6.479
 5002TIP3   OH214950   6.780   0.691   0.744
 5002TIP3    H114951   6.748   0.650   0.824
 5002TIP3    H214952   6.832   0.765   0.775
 5003TIP3   OH214953   6.656   7.761   1.017
 5003TIP3    H114954   6.729   7.709   0.983
 5003TIP3    H214955   6.650   7.736   1.109
 5004TIP3   OH214956   2.914   3.486   5.552
 5004TIP3    H114957   3.003   3.452   5.542
 5004TIP3    H214958   2.898   3.535   5.472
 5005TIP3   OH214959   1.685   1.281   0.357
 5005TIP3    H114960   1.622   1.352   0.367
 5005TIP3    H214961   1.764   1.323   0.326
 5006TIP3   OH214962   4.365   4.459   6.765
 5006TIP3    H114963   4.330   4.422   6.684
 5006TIP3    H214964   4.305   4.429   6.833
 5007TIP3   OH214965   2.445   3.322   4.035
 5007TIP3    H114966   2.507   3.255   4.007
 5007TIP3    H214967   2.362   3.297   3.996
 5008TIP3   OH214968   5.537   1.024   4.667
 5008TIP3    H114969   5.567   1.112   4.689
 5008TIP3    H214970   5.510   0.986   4.751
 5009TIP3   OH214971   1.315   3.824   2.903
 5009TIP3    H114972   1.262   3.897   2.933
 5009TIP3    H214973   1.405   3.852   2.917
 5010TIP3   OH214974   1.665   5.475   5.367
 5010TIP3    H114975   1.590   5.498   5.421
 5010TIP3    H214976   1.630   5.414   5.302
 5011TIP3   OH214977   5.388   4.154   5.713
 5011TIP3    H114978   5.315   4.215   5.702
 5011TIP3    H214979   5.348   4.076   5.751
 5012TIP3   OH214980   7.076   1.763   1.138
 5012TIP3    H114981   7.153   1.737   1.189
 5012TIP3    H214982   7.068   1.694   1.071
 5013TIP3   OH214983   4.077   2.429   1.780
 5013TIP3    H114984   4.026   2.498   1.822
 5013TIP3    H214985   4.168   2.450   1.802
 5014TIP3   OH214986   2.495   6.021   4.663
 5014TIP3    H114987   2.514   5.927   4.667
 5014TIP3    H214988   2.569   6.059   4.616
 5015TIP3   OH214989   1.560   6.548   5.200
 5015TIP3    H114990   1.534   6.626   5.150
 5015TIP3    H214991   1.643   6.572   5.240
 5016TIP3   OH214992   2.021   1.939   6.453
 5016TIP3    H114993   2.035   2.009   6.390
 5016TIP3    H214994   1.926   1.931   6.459
 5017TIP3   OH214995   6.497   5.533   2.914
 5017TIP3    H114996   6.422   5.481   2.883
 5017TIP3    H214997   6.467   5.624   2.908
 5018TIP3   OH214998   2.505   3.094   5.191
 5018TIP3    H114999   2.545   3.181   5.199
 5018TIP3    H215000   2.442   3.090   5.263
 5019TIP3   OH215001   7.498   1.239   1.770
 5019TIP3    H115002   7.457   1.161   1.807
 5019TIP3    H215003   7.514   1.295   1.846
 5020TIP3   OH215004   6.991   1.416   6.284
 5020TIP3    H115005   7.058   1.456   6.228
 5020TIP3    H215006   7.038   1.349   6.333
 5021TIP3   OH215007   6.244   4.766   3.139
 5021TIP3    H115008   6.157   4.739   3.112
 5021TIP3    H215009   6.285   4.799   3.059
 5022TIP3   OH215010   5.313   0.329   4.035
 5022TIP3    H115011   5.397   0.368   4.058
 5022TIP3    H215012   5.310   0.333   3.939
 5023TIP3   OH215013   7.021   4.796   1.036
 5023TIP3    H115014   6.968   4.873   1.057
 5023TIP3    H215015   7.100   4.832   0.996
 5024TIP3   OH215016   5.766   2.234   4.313
 5024TIP3    H115017   5.722   2.295   4.253
 5024TIP3    H215018   5.813   2.290   4.374
 5025TIP3   OH215019   1.884   2.413   1.664
 5025TIP3    H115020   1.909   2.424   1.572
 5025TIP3    H215021   1.789   2.399   1.661
 5026TIP3   OH215022   6.267   3.323   3.037
 5026TIP3    H115023   6.262   3.388   2.967
 5026TIP3    H215024   6.327   3.360   3.101
 5027TIP3   OH215025   1.942   4.253   3.772
 5027TIP3    H115026   1.923   4.300   3.691
 5027TIP3    H215027   1.964   4.322   3.835
 5028TIP3   OH215028   3.710   6.809   6.261
 5028TIP3    H115029   3.780   6.818   6.326
 5028TIP3    H215030   3.741   6.857   6.185
 5029TIP3   OH215031   1.451   4.725   0.164
 5029TIP3    H115032   1.428   4.736   0.256
 5029TIP3    H215033   1.464   4.630   0.154
 5030TIP3   OH215034   4.680   3.808   0.516
 5030TIP3    H115035   4.697   3.807   0.422
 5030TIP3    H215036   4.712   3.892   0.546
 5031TIP3   OH215037   5.152   3.913   3.359
 5031TIP3    H115038   5.105   3.953   3.431
 5031TIP3    H215039   5.156   3.981   3.292
 5032TIP3   OH215040   6.889   1.119   4.580
 5032TIP3    H115041   6.869   1.047   4.640
 5032TIP3    H215042   6.828   1.188   4.606
 5033TIP3   OH215043   2.967   6.672   2.771
 5033TIP3    H115044   2.885   6.701   2.812
 5033TIP3    H215045   2.941   6.643   2.684
 5034TIP3   OH215046   0.716   7.479   2.821
 5034TIP3    H115047   0.781   7.411   2.805
 5034TIP3    H215048   0.689   7.508   2.733
 5035TIP3   OH215049   1.319   6.137   3.443
 5035TIP3    H115050   1.249   6.126   3.378
 5035TIP3    H215051   1.397   6.155   3.390
 5036TIP3   OH215052   0.281   2.778   6.029
 5036TIP3    H115053   0.254   2.869   6.042
 5036TIP3    H215054   0.345   2.782   5.958
 5037TIP3   OH215055   4.399   3.583   4.037
 5037TIP3    H115056   4.379   3.491   4.020
 5037TIP3    H215057   4.482   3.581   4.085
 5038TIP3   OH215058   4.522   2.712   0.668
 5038TIP3    H115059   4.570   2.695   0.749
 5038TIP3    H215060   4.430   2.699   0.692
 5039TIP3   OH215061   1.187   2.812   1.059
 5039TIP3    H115062   1.249   2.883   1.038
 5039TIP3    H215063   1.121   2.817   0.991
 5040TIP3   OH215064   2.765   4.855   4.660
 5040TIP3    H115065   2.723   4.858   4.573
 5040TIP3    H215066   2.827   4.782   4.654
 5041TIP3   OH215067   7.407   1.658   4.072
 5041TIP3    H115068   7.443   1.648   3.983
 5041TIP3    H215069   7.328   1.709   4.060
 5042TIP3   OH215070   4.493   2.174   5.037
 5042TIP3    H115071   4.538   2.091   5.045
 5042TIP3    H215072   4.461   2.176   4.947
 5043TIP3   OH215073   6.279   7.394   1.585
 5043TIP3    H115074   6.294   7.393   1.490
 5043TIP3    H215075   6.240   7.309   1.604
 5044TIP3   OH215076   5.509   6.660   0.629
 5044TIP3    H115077   5.506   6.593   0.560
 5044TIP3    H215078   5.598   6.695   0.625
 5045TIP3   OH215079   4.444   6.607   4.675
 5045TIP3    H115080   4.450   6.582   4.767
 5045TIP3    H215081   4.535   6.613   4.646
 5046TIP3   OH215082   7.625   6.815   0.305
 5046TIP3    H115083   7.684   6.869   0.357
 5046TIP3    H215084   7.666   6.729   0.304
 5047TIP3   OH215085   7.306   1.770   6.147
 5047TIP3    H115086   7.262   1.847   6.185
 5047TIP3    H215087   7.300   1.783   6.053
 5048TIP3   OH215088   0.368   4.790   3.311
 5048TIP3    H115089   0.460   4.781   3.285
 5048TIP3    H215090   0.370   4.787   3.407
 5049TIP3   OH215091   3.890   2.786   3.354
 5049TIP3    H115092   3.896   2.707   3.301
 5049TIP3    H215093   3.856   2.756   3.438
 5050TIP3   OH215094   2.388   3.432   4.489
 5050TIP3    H115095   2.310   3.388   4.456
 5050TIP3    H215096   2.363   3.524   4.493
 5051TIP3   OH215097   6.457   5.862   3.174
 5051TIP3    H115098   6.529   5.867   3.237
 5051TIP3    H215099   6.498   5.827   3.095
 5052TIP3   OH215100   7.628   3.307   6.139
 5052TIP3    H115101   7.691   3.323   6.068
 5052TIP3    H215102   7.664   3.233   6.187
 5053TIP3   OH215103   1.757   3.773   6.749
 5053TIP3    H115104   1.744   3.742   6.839
 5053TIP3    H215105   1.683   3.738   6.700
 5054TIP3   OH215106   3.137   4.893   2.282
 5054TIP3    H115107   3.193   4.971   2.285
 5054TIP3    H215108   3.092   4.892   2.366
 5055TIP3   OH215109   6.630   5.139   3.774
 5055TIP3    H115110   6.631   5.140   3.870
 5055TIP3    H215111   6.656   5.050   3.751
 5056TIP3   OH215112   0.016   2.610   3.780
 5056TIP3    H115113   0.081   2.677   3.802
 5056TIP3    H215114  -0.031   2.645   3.704
 5057TIP3   OH215115   1.373   0.334   6.705
 5057TIP3    H115116   1.422   0.276   6.647
 5057TIP3    H215117   1.341   0.277   6.774
 5058TIP3   OH215118   7.003   0.790   5.303
 5058TIP3    H115119   6.978   0.808   5.394
 5058TIP3    H215120   6.929   0.741   5.267
 5059TIP3   OH215121   2.714   7.263   5.873
 5059TIP3    H115122   2.718   7.208   5.794
 5059TIP3    H215123   2.711   7.353   5.840
 5060TIP3   OH215124   6.426   1.796   4.915
 5060TIP3    H115125   6.364   1.747   4.861
 5060TIP3    H215126   6.417   1.886   4.885
 5061TIP3   OH215127   4.340   4.022   4.605
 5061TIP3    H115128   4.305   3.989   4.522
 5061TIP3    H215129   4.263   4.056   4.651
 5062TIP3   OH215130   4.789   5.804   5.488
 5062TIP3    H115131   4.816   5.872   5.426
 5062TIP3    H215132   4.747   5.851   5.560
 5063TIP3   OH215133   6.556   6.366   1.811
 5063TIP3    H115134   6.501   6.392   1.738
 5063TIP3    H215135   6.617   6.302   1.775
 5064TIP3   OH215136   1.268   1.757   6.681
 5064TIP3    H115137   1.362   1.753   6.660
 5064TIP3    H215138   1.266   1.774   6.775
 5065TIP3   OH215139   1.123   4.211   6.018
 5065TIP3    H115140   1.188   4.227   5.950
 5065TIP3    H215141   1.165   4.238   6.099
 5066TIP3   OH215142   7.128   5.253   2.798
 5066TIP3    H115143   7.099   5.166   2.825
 5066TIP3    H215144   7.058   5.311   2.828
 5067TIP3   OH215145   2.105   2.382   5.796
 5067TIP3    H115146   2.194   2.387   5.761
 5067TIP3    H215147   2.048   2.403   5.721
 5068TIP3   OH215148   5.427   7.600   4.265
 5068TIP3    H115149   5.405   7.590   4.173
 5068TIP3    H215150   5.519   7.574   4.270
 5069TIP3   OH215151   2.238   4.166   0.007
 5069TIP3    H115152   2.245   4.072  -0.009
 5069TIP3    H215153   2.171   4.174   0.075
 5070TIP3   OH215154   6.994   6.381   1.642
 5070TIP3    H115155   6.937   6.310   1.671
 5070TIP3    H215156   7.032   6.349   1.560
 5071TIP3   OH215157   0.795   1.595   5.922
 5071TIP3    H115158   0.767   1.520   5.869
 5071TIP3    H215159   0.719   1.616   5.976
 5072TIP3   OH215160   5.693   4.985   1.320
 5072TIP3    H115161   5.767   4.935   1.284
 5072TIP3    H215162   5.634   4.997   1.246
 5073TIP3   OH215163   3.423   3.740   0.139
 5073TIP3    H115164   3.344   3.690   0.118
 5073TIP3    H215165   3.475   3.738   0.059
 5074TIP3   OH215166   3.212   3.056   5.220
 5074TIP3    H115167   3.268   2.979   5.210
 5074TIP3    H215168   3.272   3.130   5.223
 5075TIP3   OH215169   1.458   5.629   4.987
 5075TIP3    H115170   1.367   5.655   4.975
 5075TIP3    H215171   1.509   5.703   4.954
 5076TIP3   OH215172   6.553   5.482   1.116
 5076TIP3    H115173   6.509   5.511   1.196
 5076TIP3    H215174   6.578   5.392   1.134
 5077TIP3   OH215175   3.505   0.384   0.047
 5077TIP3    H115176   3.444   0.436   0.098
 5077TIP3    H215177   3.558   0.449  -0.001
 5078TIP3   OH215178   2.531   0.773   4.194
 5078TIP3    H115179   2.538   0.869   4.189
 5078TIP3    H215180   2.497   0.755   4.282
 5079TIP3   OH215181   3.729   0.309   1.608
 5079TIP3    H115182   3.769   0.316   1.695
 5079TIP3    H215183   3.719   0.400   1.579
 5080TIP3   OH215184   0.263   3.986   5.149
 5080TIP3    H115185   0.355   4.011   5.146
 5080TIP3    H215186   0.236   4.003   5.239
 5081TIP3   OH215187   4.428   4.488   0.169
 5081TIP3    H115188   4.519   4.510   0.185
 5081TIP3    H215189   4.408   4.421   0.235
 5082TIP3   OH215190   3.663   7.708   6.039
 5082TIP3    H115191   3.677   7.615   6.021
 5082TIP3    H215192   3.728   7.753   5.985
 5083TIP3   OH215193   5.073   5.740   4.464
 5083TIP3    H115194   5.148   5.784   4.424
 5083TIP3    H215195   5.079   5.650   4.433
 5084TIP3   OH215196   5.575   3.257   3.521
 5084TIP3    H115197   5.553   3.279   3.430
 5084TIP3    H215198   5.491   3.231   3.560
 5085TIP3   OH215199   1.453   5.961   1.872
 5085TIP3    H115200   1.399   5.888   1.901
 5085TIP3    H215201   1.407   6.039   1.904
 5086TIP3   OH215202   4.305   3.393   0.937
 5086TIP3    H115203   4.223   3.363   0.898
 5086TIP3    H215204   4.282   3.474   0.982
 5087TIP3   OH215205   4.575   1.938   0.112
 5087TIP3    H115206   4.575   2.033   0.117
 5087TIP3    H215207   4.655   1.916   0.065
 5088TIP3   OH215208   1.009   7.709   3.668
 5088TIP3    H115209   1.037   7.719   3.577
 5088TIP3    H215210   0.948   7.635   3.666
 5089TIP3   OH215211   3.282   6.706   1.968
 5089TIP3    H115212   3.296   6.634   2.029
 5089TIP3    H215213   3.199   6.686   1.925
 5090TIP3   OH215214   0.131   6.559   0.988
 5090TIP3    H115215   0.097   6.644   0.961
 5090TIP3    H215216   0.118   6.503   0.912
 5091TIP3   OH215217   5.786   0.817   1.358
 5091TIP3    H115218   5.848   0.819   1.285
 5091TIP3    H215219   5.701   0.835   1.318
 5092TIP3   OH215220   3.788   0.185   1.374
 5092TIP3    H115221   3.745   0.244   1.311
 5092TIP3    H215222   3.757   0.214   1.459
 5093TIP3   OH215223   0.191   4.531   0.945
 5093TIP3    H115224   0.209   4.458   0.886
 5093TIP3    H215225   0.105   4.563   0.917
 5094TIP3   OH215226   0.045   2.874   0.948
 5094TIP3    H115227   0.023   2.786   0.978
 5094TIP3    H215228  -0.005   2.884   0.867
 5095TIP3   OH215229   5.440   2.731   0.344
 5095TIP3    H115230   5.375   2.760   0.280
 5095TIP3    H215231   5.444   2.636   0.332
 5096TIP3   OH215232   0.911   6.945   1.180
 5096TIP3    H115233   1.003   6.974   1.182
 5096TIP3    H215234   0.895   6.922   1.089
 5097TIP3   OH215235   2.752   6.724   5.594
 5097TIP3    H115236   2.673   6.727   5.540
 5097TIP3    H215237   2.813   6.784   5.551
 5098TIP3   OH215238   4.884   5.882   6.379
 5098TIP3    H115239   4.838   5.957   6.418
 5098TIP3    H215240   4.973   5.913   6.364
 5099TIP3   OH215241   8.281   1.694   2.957
 5099TIP3    H115242   8.353   1.718   3.016
 5099TIP3    H215243   8.250   1.778   2.923
 5100TIP3   OH215244   3.855   7.197   5.434
 5100TIP3    H115245   3.907   7.220   5.357
 5100TIP3    H215246   3.917   7.153   5.492
 5101TIP3   OH215247   2.238   6.054   2.819
 5101TIP3    H115248   2.231   6.077   2.726
 5101TIP3    H215249   2.332   6.056   2.837
 5102TIP3   OH215250   3.193   2.808   2.232
 5102TIP3    H115251   3.289   2.810   2.230
 5102TIP3    H215252   3.169   2.733   2.177
 5103TIP3   OH215253   5.681   2.530   4.987
 5103TIP3    H115254   5.753   2.537   5.050
 5103TIP3    H215255   5.617   2.595   5.016
 5104TIP3   OH215256   5.733   6.678   6.112
 5104TIP3    H115257   5.810   6.622   6.124
 5104TIP3    H215258   5.704   6.660   6.023
 5105TIP3   OH215259   3.242   5.068   0.171
 5105TIP3    H115260   3.278   5.144   0.126
 5105TIP3    H215261   3.152   5.094   0.192
 5106TIP3   OH215262   1.065   5.759   1.476
 5106TIP3    H115263   1.054   5.841   1.427
 5106TIP3    H215264   0.986   5.753   1.530
 5107TIP3   OH215265   2.688   7.633   6.508
 5107TIP3    H115266   2.747   7.572   6.464
 5107TIP3    H215267   2.673   7.702   6.443
 5108TIP3   OH215268   2.070   4.442   0.856
 5108TIP3    H115269   2.087   4.532   0.829
 5108TIP3    H215270   2.136   4.424   0.923
 5109TIP3   OH215271   2.536   3.741   3.798
 5109TIP3    H115272   2.476   3.710   3.731
 5109TIP3    H215273   2.620   3.701   3.777
 5110TIP3   OH215274   7.059   3.296   2.656
 5110TIP3    H115275   7.076   3.256   2.741
 5110TIP3    H215276   7.139   3.282   2.605
 5111TIP3   OH215277   1.203   7.426   2.811
 5111TIP3    H115278   1.272   7.490   2.827
 5111TIP3    H215279   1.248   7.353   2.767
 5112TIP3   OH215280   8.149   5.256   0.587
 5112TIP3    H115281   8.186   5.213   0.664
 5112TIP3    H215282   8.149   5.188   0.520
 5113TIP3   OH215283   6.858   3.495   2.599
 5113TIP3    H115284   6.867   3.400   2.613
 5113TIP3    H215285   6.824   3.503   2.510
 5114TIP3   OH215286   7.676   2.164   1.116
 5114TIP3    H115287   7.740   2.107   1.073
 5114TIP3    H215288   7.718   2.192   1.196
 5115TIP3   OH215289   6.096   0.609   2.711
 5115TIP3    H115290   6.046   0.529   2.700
 5115TIP3    H215291   6.058   0.670   2.648
 5116TIP3   OH215292   3.062   2.615   4.523
 5116TIP3    H115293   3.061   2.525   4.490
 5116TIP3    H215294   3.123   2.661   4.465
 5117TIP3   OH215295   0.678   3.162   2.048
 5117TIP3    H115296   0.723   3.080   2.028
 5117TIP3    H215297   0.682   3.169   2.143
 5118TIP3   OH215298   0.273   3.138   3.059
 5118TIP3    H115299   0.316   3.198   2.998
 5118TIP3    H215300   0.316   3.054   3.043
 5119TIP3   OH215301   1.496   4.163   5.580
 5119TIP3    H115302   1.551   4.226   5.627
 5119TIP3    H215303   1.551   4.131   5.509
 5120TIP3   OH215304   0.896   0.726   5.234
 5120TIP3    H115305   0.838   0.669   5.285
 5120TIP3    H215306   0.960   0.666   5.196
 5121TIP3   OH215307   4.247   7.124   2.156
 5121TIP3    H115308   4.288   7.149   2.239
 5121TIP3    H215309   4.257   7.029   2.152
 5122TIP3   OH215310   5.576   6.887   4.246
 5122TIP3    H115311   5.555   6.798   4.275
 5122TIP3    H215312   5.577   6.939   4.327
 5123TIP3   OH215313   3.536   7.107   4.027
 5123TIP3    H115314   3.458   7.127   3.975
 5123TIP3    H215315   3.536   7.012   4.035
 5124TIP3   OH215316   5.592   2.055   0.564
 5124TIP3    H115317   5.596   2.013   0.650
 5124TIP3    H215318   5.540   2.134   0.578
 5125TIP3   OH215319   5.909   3.253   1.411
 5125TIP3    H115320   5.982   3.239   1.350
 5125TIP3    H215321   5.858   3.172   1.406
 5126TIP3   OH215322   3.975   1.392   2.482
 5126TIP3    H115323   3.963   1.383   2.577
 5126TIP3    H215324   3.935   1.476   2.461
 5127TIP3   OH215325   2.583   1.813   1.421
 5127TIP3    H115326   2.576   1.756   1.344
 5127TIP3    H215327   2.558   1.758   1.494
 5128TIP3   OH215328   5.857   5.107   0.045
 5128TIP3    H115329   5.889   5.034  -0.008
 5128TIP3    H215330   5.880   5.185  -0.005
 5129TIP3   OH215331   5.554   3.021   4.507
 5129TIP3    H115332   5.643   3.039   4.539
 5129TIP3    H215333   5.498   3.033   4.584
 5130TIP3   OH215334   0.882   6.116   3.534
 5130TIP3    H115335   0.886   6.023   3.512
 5130TIP3    H215336   0.869   6.117   3.629
 5131TIP3   OH215337   3.571   1.589   2.670
 5131TIP3    H115338   3.526   1.673   2.677
 5131TIP3    H215339   3.558   1.563   2.578
 5132TIP3   OH215340   7.640   3.293   5.761
 5132TIP3    H115341   7.565   3.308   5.819
 5132TIP3    H215342   7.696   3.369   5.775
 5133TIP3   OH215343   7.585   5.819   6.764
 5133TIP3    H115344   7.622   5.897   6.721
 5133TIP3    H215345   7.592   5.750   6.699
 5134TIP3   OH215346   4.493   6.010   2.385
 5134TIP3    H115347   4.504   5.927   2.338
 5134TIP3    H215348   4.581   6.031   2.417
 5135TIP3   OH215349   4.358   3.704   3.725
 5135TIP3    H115350   4.352   3.648   3.802
 5135TIP3    H215351   4.321   3.787   3.753
 5136TIP3   OH215352   7.837   1.649   0.877
 5136TIP3    H115353   7.891   1.592   0.932
 5136TIP3    H215354   7.777   1.691   0.939
 5137TIP3   OH215355   6.665   6.454   3.759
 5137TIP3    H115356   6.756   6.427   3.745
 5137TIP3    H215357   6.614   6.374   3.746
 5138TIP3   OH215358   5.701   2.916   2.925
 5138TIP3    H115359   5.731   2.921   3.015
 5138TIP3    H215360   5.627   2.977   2.921
 5139TIP3   OH215361   7.220   1.960   4.472
 5139TIP3    H115362   7.236   2.041   4.518
 5139TIP3    H215363   7.132   1.933   4.500
 5140TIP3   OH215364   3.305   6.750   6.091
 5140TIP3    H115365   3.324   6.780   6.002
 5140TIP3    H215366   3.382   6.700   6.117
 5141TIP3   OH215367   6.101   2.140   4.847
 5141TIP3    H115368   6.010   2.170   4.844
 5141TIP3    H215369   6.123   2.120   4.756
 5142TIP3   OH215370   3.594   2.198   0.165
 5142TIP3    H115371   3.580   2.180   0.072
 5142TIP3    H215372   3.631   2.286   0.168
 5143TIP3   OH215373   1.577   4.693   5.716
 5143TIP3    H115374   1.598   4.759   5.650
 5143TIP3    H215375   1.651   4.632   5.715
 5144TIP3   OH215376   1.281   6.576   1.889
 5144TIP3    H115377   1.342   6.560   1.817
 5144TIP3    H215378   1.198   6.540   1.858
 5145TIP3   OH215379   0.008   4.554   0.728
 5145TIP3    H115380  -0.038   4.637   0.729
 5145TIP3    H215381   0.074   4.564   0.659
 5146TIP3   OH215382   2.110   6.916   0.432
 5146TIP3    H115383   2.139   6.952   0.516
 5146TIP3    H215384   2.191   6.906   0.382
 5147TIP3   OH215385   2.614   3.302   2.990
 5147TIP3    H115386   2.636   3.211   2.975
 5147TIP3    H215387   2.698   3.348   2.987
 5148TIP3   OH215388   0.279   3.971   1.278
 5148TIP3    H115389   0.267   4.065   1.293
 5148TIP3    H215390   0.270   3.960   1.184
 5149TIP3   OH215391   3.525   7.354   0.140
 5149TIP3    H115392   3.615   7.328   0.160
 5149TIP3    H215393   3.472   7.281   0.172
 5150TIP3   OH215394   0.300   7.285   3.062
 5150TIP3    H115395   0.250   7.240   2.994
 5150TIP3    H215396   0.360   7.342   3.015
 5151TIP3   OH215397   0.549   4.573   3.830
 5151TIP3    H115398   0.535   4.665   3.853
 5151TIP3    H215399   0.644   4.561   3.835
 5152TIP3   OH215400   6.567   2.750   3.754
 5152TIP3    H115401   6.599   2.785   3.837
 5152TIP3    H215402   6.636   2.771   3.691
 5153TIP3   OH215403   2.282   7.246   2.414
 5153TIP3    H115404   2.342   7.230   2.341
 5153TIP3    H215405   2.200   7.205   2.386
 5154TIP3   OH215406   4.039   3.281   3.137
 5154TIP3    H115407   4.038   3.345   3.208
 5154TIP3    H215408   4.001   3.327   3.062
 5155TIP3   OH215409   5.304   1.700   4.807
 5155TIP3    H115410   5.324   1.764   4.739
 5155TIP3    H215411   5.310   1.750   4.889
 5156TIP3   OH215412   4.488   6.316   3.790
 5156TIP3    H115413   4.434   6.255   3.741
 5156TIP3    H215414   4.506   6.272   3.873
 5157TIP3   OH215415   2.176   0.608   5.070
 5157TIP3    H115416   2.180   0.628   4.976
 5157TIP3    H215417   2.220   0.682   5.112
 5158TIP3   OH215418   3.116   7.331   5.324
 5158TIP3    H115419   3.081   7.347   5.236
 5158TIP3    H215420   3.123   7.418   5.363
 5159TIP3   OH215421   0.383   4.142   1.812
 5159TIP3    H115422   0.395   4.178   1.900
 5159TIP3    H215423   0.294   4.168   1.788
 5160TIP3   OH215424   1.336   2.857   3.209
 5160TIP3    H115425   1.240   2.859   3.201
 5160TIP3    H215426   1.352   2.812   3.292
 5161TIP3   OH215427   1.705   6.162   1.816
 5161TIP3    H115428   1.643   6.090   1.829
 5161TIP3    H215429   1.765   6.131   1.749
 5162TIP3   OH215430   2.971   6.912   6.620
 5162TIP3    H115431   2.894   6.966   6.604
 5162TIP3    H215432   2.945   6.824   6.594
 5163TIP3   OH215433   3.490   4.731   0.344
 5163TIP3    H115434   3.542   4.796   0.392
 5163TIP3    H215435   3.408   4.725   0.393
 5164TIP3   OH215436   5.709   1.164   6.264
 5164TIP3    H115437   5.628   1.180   6.216
 5164TIP3    H215438   5.759   1.106   6.207
 5165TIP3   OH215439   1.347   0.802   5.189
 5165TIP3    H115440   1.320   0.827   5.277
 5165TIP3    H215441   1.351   0.706   5.191
 5166TIP3   OH215442   5.425   1.176   6.168
 5166TIP3    H115443   5.403   1.263   6.199
 5166TIP3    H215444   5.347   1.123   6.186
 5167TIP3   OH215445   6.704   2.376   5.154
 5167TIP3    H115446   6.715   2.287   5.189
 5167TIP3    H215447   6.769   2.383   5.084
 5168TIP3   OH215448   1.620   4.379   6.411
 5168TIP3    H115449   1.573   4.439   6.468
 5168TIP3    H215450   1.621   4.296   6.459
 5169TIP3   OH215451   1.891   3.742   2.418
 5169TIP3    H115452   1.955   3.731   2.488
 5169TIP3    H215453   1.906   3.669   2.359
 5170TIP3   OH215454   1.936   1.225   5.327
 5170TIP3    H115455   1.948   1.210   5.421
 5170TIP3    H215456   1.861   1.170   5.303
 5171TIP3   OH215457   7.013   1.204   0.055
 5171TIP3    H115458   6.978   1.162   0.133
 5171TIP3    H215459   7.107   1.189   0.060
 5172TIP3   OH215460   3.902   5.216   1.503
 5172TIP3    H115461   3.966   5.277   1.467
 5172TIP3    H215462   3.918   5.218   1.598
 5173TIP3   OH215463   4.131   2.912   4.092
 5173TIP3    H115464   4.052   2.882   4.137
 5173TIP3    H215465   4.188   2.944   4.162
 5174TIP3   OH215466   1.045   2.187   0.855
 5174TIP3    H115467   1.124   2.199   0.909
 5174TIP3    H215468   0.973   2.212   0.913
 5175TIP3   OH215469   3.353   0.374   4.305
 5175TIP3    H115470   3.441   0.338   4.317
 5175TIP3    H215471   3.363   0.439   4.235
 5176TIP3   OH215472   4.622   3.735   1.365
 5176TIP3    H115473   4.652   3.826   1.355
 5176TIP3    H215474   4.691   3.683   1.326
 5177TIP3   OH215475   4.736   4.490   0.127
 5177TIP3    H115476   4.813   4.440   0.099
 5177TIP3    H215477   4.761   4.582   0.113
 5178TIP3   OH215478   7.737   3.114   6.443
 5178TIP3    H115479   7.733   3.039   6.503
 5178TIP3    H215480   7.660   3.166   6.465
 5179TIP3   OH215481   1.229   2.941   2.841
 5179TIP3    H115482   1.253   3.031   2.822
 5179TIP3    H215483   1.311   2.891   2.830
 5180TIP3   OH215484   1.682   6.986   2.770
 5180TIP3    H115485   1.631   6.915   2.731
 5180TIP3    H215486   1.682   7.055   2.705
 5181TIP3   OH215487   0.410   2.097   3.208
 5181TIP3    H115488   0.382   2.124   3.296
 5181TIP3    H215489   0.360   2.018   3.190
 5182TIP3   OH215490   2.093   2.047   5.820
 5182TIP3    H115491   2.136   1.963   5.804
 5182TIP3    H215492   2.078   2.048   5.915
 5183TIP3   OH215493   3.139   0.034   1.195
 5183TIP3    H115494   3.194   0.107   1.165
 5183TIP3    H215495   3.180  -0.044   1.157
 5184TIP3   OH215496   5.549   4.768   5.540
 5184TIP3    H115497   5.564   4.685   5.585
 5184TIP3    H215498   5.460   4.760   5.506
 5185TIP3   OH215499   3.527   2.804   2.236
 5185TIP3    H115500   3.586   2.800   2.161
 5185TIP3    H215501   3.583   2.782   2.311
 5186TIP3   OH215502   5.435   3.171   1.480
 5186TIP3    H115503   5.356   3.125   1.451
 5186TIP3    H215504   5.406   3.261   1.495
 5187TIP3   OH215505   6.052   1.623   2.176
 5187TIP3    H115506   6.042   1.711   2.140
 5187TIP3    H215507   5.987   1.617   2.246
 5188TIP3   OH215508   7.428   6.603   5.964
 5188TIP3    H115509   7.461   6.620   6.053
 5188TIP3    H215510   7.422   6.508   5.959
 5189TIP3   OH215511   6.135   0.506   0.449
 5189TIP3    H115512   6.159   0.491   0.358
 5189TIP3    H215513   6.181   0.437   0.498
 5190TIP3   OH215514   1.085   1.410   1.887
 5190TIP3    H115515   1.033   1.453   1.819
 5190TIP3    H215516   1.096   1.320   1.855
 5191TIP3   OH215517   4.371   5.738   1.456
 5191TIP3    H115518   4.446   5.682   1.435
 5191TIP3    H215519   4.406   5.805   1.514
 5192TIP3   OH215520   8.075   0.969   2.458
 5192TIP3    H115521   8.078   0.878   2.489
 5192TIP3    H215522   8.159   1.005   2.484
 5193TIP3   OH215523   3.701   3.606   3.391
 5193TIP3    H115524   3.631   3.624   3.453
 5193TIP3    H215525   3.703   3.682   3.333
 5194TIP3   OH215526   6.135   6.925   1.178
 5194TIP3    H115527   6.142   6.832   1.200
 5194TIP3    H215528   6.226   6.955   1.173
 5195TIP3   OH215529   5.698   3.786   2.150
 5195TIP3    H115530   5.733   3.758   2.066
 5195TIP3    H215531   5.616   3.738   2.159
 5196TIP3   OH215532   3.461   3.999   3.054
 5196TIP3    H115533   3.440   4.092   3.050
 5196TIP3    H215534   3.492   3.977   2.966
 5197TIP3   OH215535   7.597   4.009   4.188
 5197TIP3    H115536   7.681   3.991   4.230
 5197TIP3    H215537   7.616   4.002   4.094
 5198TIP3   OH215538   1.903   2.194   4.135
 5198TIP3    H115539   1.819   2.219   4.096
 5198TIP3    H215540   1.967   2.210   4.065
 5199TIP3   OH215541   3.932   3.777   5.792
 5199TIP3    H115542   4.010   3.743   5.834
 5199TIP3    H215543   3.883   3.699   5.765
 5200TIP3   OH215544   0.572   4.015   1.103
 5200TIP3    H115545   0.529   3.933   1.076
 5200TIP3    H215546   0.563   4.073   1.027
 5201TIP3   OH215547   0.791   0.257   4.864
 5201TIP3    H115548   0.759   0.219   4.945
 5201TIP3    H215549   0.878   0.291   4.886
 5202TIP3   OH215550   7.207   0.335   1.510
 5202TIP3    H115551   7.119   0.338   1.547
 5202TIP3    H215552   7.235   0.244   1.520
 5203TIP3   OH215553   1.407   1.375   2.674
 5203TIP3    H115554   1.394   1.450   2.616
 5203TIP3    H215555   1.393   1.410   2.762
 5204TIP3   OH215556   1.959   2.122   3.465
 5204TIP3    H115557   1.865   2.128   3.484
 5204TIP3    H215558   1.986   2.040   3.505
 5205TIP3   OH215559   5.764   2.501   3.813
 5205TIP3    H115560   5.672   2.527   3.804
 5205TIP3    H215561   5.772   2.423   3.758
 5206TIP3   OH215562   7.263   6.002   3.223
 5206TIP3    H115563   7.218   5.923   3.193
 5206TIP3    H215564   7.311   6.033   3.146
 5207TIP3   OH215565   0.804   2.333   4.568
 5207TIP3    H115566   0.756   2.256   4.598
 5207TIP3    H215567   0.876   2.343   4.631
 5208TIP3   OH215568   7.162   2.718   3.597
 5208TIP3    H115569   7.087   2.764   3.633
 5208TIP3    H215570   7.200   2.779   3.534
 5209TIP3   OH215571   4.081   6.755   1.832
 5209TIP3    H115572   4.131   6.797   1.762
 5209TIP3    H215573   4.118   6.667   1.839
 5210TIP3   OH215574   5.841   6.325   5.976
 5210TIP3    H115575   5.789   6.275   5.912
 5210TIP3    H215576   5.842   6.270   6.054
 5211TIP3   OH215577   7.340   7.599   3.190
 5211TIP3    H115578   7.411   7.545   3.155
 5211TIP3    H215579   7.382   7.657   3.253
 5212TIP3   OH215580   6.375   6.978   3.584
 5212TIP3    H115581   6.289   7.014   3.563
 5212TIP3    H215582   6.430   7.004   3.510
 5213TIP3   OH215583   4.574   2.994   1.432
 5213TIP3    H115584   4.664   2.983   1.463
 5213TIP3    H215585   4.533   3.052   1.496
 5214TIP3   OH215586   6.307   2.045   5.465
 5214TIP3    H115587   6.331   2.053   5.557
 5214TIP3    H215588   6.297   1.951   5.451
 5215TIP3   OH215589   3.959   4.171   0.697
 5215TIP3    H115590   3.933   4.242   0.754
 5215TIP3    H215591   3.888   4.163   0.633
 5216TIP3   OH215592   3.998   1.534   5.986
 5216TIP3    H115593   3.933   1.464   5.990
 5216TIP3    H215594   4.018   1.543   5.892
 5217TIP3   OH215595   5.877   6.430   0.274
 5217TIP3    H115596   5.812   6.382   0.327
 5217TIP3    H215597   5.939   6.363   0.247
 5218TIP3   OH215598   7.341   3.902   4.158
 5218TIP3    H115599   7.401   3.977   4.150
 5218TIP3    H215600   7.295   3.918   4.240
 5219TIP3   OH215601   4.573   7.512   2.396
 5219TIP3    H115602   4.641   7.576   2.373
 5219TIP3    H215603   4.574   7.509   2.491
 5220TIP3   OH215604   8.027   7.355   6.713
 5220TIP3    H115605   8.067   7.349   6.800
 5220TIP3    H215606   7.966   7.282   6.709
 5221TIP3   OH215607   7.248   0.231   0.162
 5221TIP3    H115608   7.277   0.213   0.073
 5221TIP3    H215609   7.163   0.188   0.168
 5222TIP3   OH215610   6.197   1.476   2.000
 5222TIP3    H115611   6.286   1.455   2.030
 5222TIP3    H215612   6.159   1.524   2.073
 5223TIP3   OH215613   0.669   2.306   6.447
 5223TIP3    H115614   0.620   2.307   6.365
 5223TIP3    H215615   0.678   2.398   6.471
 5224TIP3   OH215616   1.647   7.579   2.124
 5224TIP3    H115617   1.705   7.563   2.050
 5224TIP3    H215618   1.560   7.591   2.085
 5225TIP3   OH215619   7.910   7.406   3.418
 5225TIP3    H115620   7.857   7.342   3.467
 5225TIP3    H215621   7.879   7.491   3.448
 5226TIP3   OH215622   1.152   1.148   1.743
 5226TIP3    H115623   1.101   1.157   1.663
 5226TIP3    H215624   1.242   1.134   1.713
 5227TIP3   OH215625   4.000   5.235   3.998
 5227TIP3    H115626   3.951   5.154   4.014
 5227TIP3    H215627   4.007   5.277   4.084
 5228TIP3   OH215628   1.606   5.187   0.802
 5228TIP3    H115629   1.654   5.111   0.771
 5228TIP3    H215630   1.616   5.251   0.732
 5229TIP3   OH215631   3.114   7.781   3.562
 5229TIP3    H115632   3.148   7.841   3.496
 5229TIP3    H215633   3.087   7.704   3.513
 5230TIP3   OH215634   0.866   5.511   0.867
 5230TIP3    H115635   0.801   5.457   0.911
 5230TIP3    H215636   0.830   5.599   0.871
 5231TIP3   OH215637   5.800   0.743   2.994
 5231TIP3    H115638   5.810   0.650   2.972
 5231TIP3    H215639   5.870   0.760   3.057
 5232TIP3   OH215640   1.901   6.688   4.895
 5232TIP3    H115641   1.906   6.661   4.987
 5232TIP3    H215642   1.824   6.642   4.861
 5233TIP3   OH215643   8.301   2.568   0.552
 5233TIP3    H115644   8.311   2.580   0.458
 5233TIP3    H215645   8.213   2.531   0.563
 5234TIP3   OH215646   2.960   3.514   5.917
 5234TIP3    H115647   2.930   3.536   6.005
 5234TIP3    H215648   2.945   3.593   5.865
 5235TIP3   OH215649   2.187   0.842   4.599
 5235TIP3    H115650   2.264   0.886   4.562
 5235TIP3    H215651   2.150   0.906   4.660
 5236TIP3   OH215652   3.859   1.360   6.317
 5236TIP3    H115653   3.802   1.341   6.242
 5236TIP3    H215654   3.891   1.449   6.300
 5237TIP3   OH215655   3.837   6.333   0.279
 5237TIP3    H115656   3.748   6.297   0.275
 5237TIP3    H215657   3.824   6.423   0.309
 5238TIP3   OH215658   3.009   2.223   4.906
 5238TIP3    H115659   2.966   2.308   4.914
 5238TIP3    H215660   2.963   2.167   4.970
 5239TIP3   OH215661   5.290   4.814   6.593
 5239TIP3    H115662   5.367   4.853   6.553
 5239TIP3    H215663   5.316   4.725   6.615
 5240TIP3   OH215664   3.288   5.129   2.284
 5240TIP3    H115665   3.281   5.220   2.312
 5240TIP3    H215666   3.381   5.115   2.270
 5241TIP3   OH215667   2.832   5.080   1.953
 5241TIP3    H115668   2.828   5.071   1.858
 5241TIP3    H215669   2.850   4.991   1.985
 5242TIP3   OH215670   2.223   2.307   6.063
 5242TIP3    H115671   2.198   2.226   6.108
 5242TIP3    H215672   2.176   2.304   5.980
 5243TIP3   OH215673   4.163   0.029   1.055
 5243TIP3    H115674   4.229  -0.024   1.100
 5243TIP3    H215675   4.212   0.075   0.986
 5244TIP3   OH215676   7.177   1.272   3.944
 5244TIP3    H115677   7.169   1.359   3.903
 5244TIP3    H215678   7.167   1.289   4.037
 5245TIP3   OH215679   6.903   0.446   2.123
 5245TIP3    H115680   6.890   0.395   2.204
 5245TIP3    H215681   6.962   0.392   2.070
 5246TIP3   OH215682   2.182   4.301   1.821
 5246TIP3    H115683   2.274   4.329   1.820
 5246TIP3    H215684   2.180   4.230   1.885
 5247TIP3   OH215685   4.282   1.085   0.184
 5247TIP3    H115686   4.197   1.130   0.191
 5247TIP3    H215687   4.344   1.146   0.224
 5248TIP3   OH215688   1.362   1.093   3.650
 5248TIP3    H115689   1.360   1.185   3.623
 5248TIP3    H215690   1.420   1.051   3.587
 5249TIP3   OH215691   0.914   7.383   6.362
 5249TIP3    H115692   0.901   7.289   6.374
 5249TIP3    H215693   0.826   7.417   6.346
 5250TIP3   OH215694   8.235   7.436   4.957
 5250TIP3    H115695   8.172   7.505   4.973
 5250TIP3    H215696   8.261   7.406   5.044
 5251TIP3   OH215697   6.361   4.575   4.884
 5251TIP3    H115698   6.454   4.595   4.900
 5251TIP3    H215699   6.355   4.560   4.790
 5252TIP3   OH215700   5.983   5.809   3.714
 5252TIP3    H115701   6.026   5.891   3.735
 5252TIP3    H215702   6.052   5.754   3.676
 5253TIP3   OH215703   7.906   1.203   1.316
 5253TIP3    H115704   7.832   1.145   1.300
 5253TIP3    H215705   7.983   1.148   1.299
 5254TIP3   OH215706   1.557   7.073   3.525
 5254TIP3    H115707   1.489   7.023   3.481
 5254TIP3    H215708   1.556   7.159   3.483
 5255TIP3   OH215709   5.906   3.391   1.638
 5255TIP3    H115710   5.992   3.372   1.674
 5255TIP3    H215711   5.906   3.350   1.551
 5256TIP3   OH215712   4.633   3.524   1.779
 5256TIP3    H115713   4.712   3.476   1.806
 5256TIP3    H215714   4.667   3.598   1.728
 5257TIP3   OH215715   2.473   6.079   5.428
 5257TIP3    H115716   2.395   6.131   5.407
 5257TIP3    H215717   2.458   5.995   5.384
 5258TIP3   OH215718   6.653   4.194   1.783
 5258TIP3    H115719   6.615   4.107   1.798
 5258TIP3    H215720   6.623   4.246   1.858
 5259TIP3   OH215721   2.180   5.870   6.542
 5259TIP3    H115722   2.241   5.943   6.550
 5259TIP3    H215723   2.107   5.893   6.601
 5260TIP3   OH215724   4.808   2.936   6.110
 5260TIP3    H115725   4.847   3.019   6.084
 5260TIP3    H215726   4.717   2.956   6.128
 5261TIP3   OH215727   4.127   5.862   2.316
 5261TIP3    H115728   4.157   5.935   2.263
 5261TIP3    H215729   4.131   5.893   2.406
 5262TIP3   OH215730   4.937   5.176   4.637
 5262TIP3    H115731   5.005   5.160   4.703
 5262TIP3    H215732   4.982   5.161   4.553
 5263TIP3   OH215733   6.880   2.531   6.770
 5263TIP3    H115734   6.904   2.485   6.689
 5263TIP3    H215735   6.917   2.619   6.759
 5264TIP3   OH215736   2.967   0.795   4.819
 5264TIP3    H115737   2.974   0.722   4.759
 5264TIP3    H215738   3.053   0.799   4.862
 5265TIP3   OH215739   3.005   6.438   6.498
 5265TIP3    H115740   2.955   6.362   6.528
 5265TIP3    H215741   3.085   6.436   6.550
 5266TIP3   OH215742   4.177   4.003   3.205
 5266TIP3    H115743   4.132   4.052   3.274
 5266TIP3    H215744   4.156   4.050   3.124
 5267TIP3   OH215745   3.486   6.132   4.460
 5267TIP3    H115746   3.489   6.037   4.466
 5267TIP3    H215747   3.562   6.155   4.406
 5268TIP3   OH215748   0.188   5.422   5.834
 5268TIP3    H115749   0.243   5.450   5.761
 5268TIP3    H215750   0.107   5.472   5.823
 5269TIP3   OH215751   6.248   7.681   1.869
 5269TIP3    H115752   6.335   7.700   1.904
 5269TIP3    H215753   6.235   7.588   1.887
 5270TIP3   OH215754   2.089   4.226   5.901
 5270TIP3    H115755   2.014   4.285   5.909
 5270TIP3    H215756   2.093   4.206   5.807
 5271TIP3   OH215757   7.562   0.355   4.239
 5271TIP3    H115758   7.624   0.298   4.193
 5271TIP3    H215759   7.561   0.436   4.189
 5272TIP3   OH215760   7.200   3.573   3.567
 5272TIP3    H115761   7.139   3.535   3.632
 5272TIP3    H215762   7.239   3.647   3.612
 5273TIP3   OH215763   5.682   4.655   6.430
 5273TIP3    H115764   5.669   4.617   6.343
 5273TIP3    H215765   5.688   4.580   6.489
 5274TIP3   OH215766   7.055   5.001   2.831
 5274TIP3    H115767   7.034   4.987   2.738
 5274TIP3    H215768   7.103   4.922   2.856
 5275TIP3   OH215769   7.250   5.085   6.140
 5275TIP3    H115770   7.210   4.998   6.131
 5275TIP3    H215771   7.278   5.108   6.052
 5276TIP3   OH215772   3.278   6.301   0.123
 5276TIP3    H115773   3.251   6.292   0.032
 5276TIP3    H215774   3.358   6.249   0.130
 5277TIP3   OH215775   5.250   0.013   5.627
 5277TIP3    H115776   5.318   0.068   5.588
 5277TIP3    H215777   5.227   0.057   5.708
 5278TIP3   OH215778   2.926   6.797   3.597
 5278TIP3    H115779   2.943   6.842   3.680
 5278TIP3    H215780   2.930   6.704   3.619
 5279TIP3   OH215781   5.015   0.516   5.722
 5279TIP3    H115782   5.010   0.436   5.775
 5279TIP3    H215783   4.933   0.562   5.739
 5280TIP3   OH215784   5.714   6.414   1.270
 5280TIP3    H115785   5.690   6.468   1.195
 5280TIP3    H215786   5.630   6.386   1.307
 5281TIP3   OH215787   5.547   5.451   0.030
 5281TIP3    H115788   5.576   5.522   0.087
 5281TIP3    H215789   5.470   5.486  -0.015
 5282TIP3   OH215790   4.322   0.957   1.020
 5282TIP3    H115791   4.338   0.874   1.065
 5282TIP3    H215792   4.254   0.937   0.956
 5283TIP3   OH215793   2.026   2.712   2.468
 5283TIP3    H115794   2.041   2.666   2.551
 5283TIP3    H215795   1.990   2.797   2.494
 5284TIP3   OH215796   0.044   4.068   4.180
 5284TIP3    H115797   0.049   4.152   4.225
 5284TIP3    H215798   0.135   4.044   4.162
 5285TIP3   OH215799   6.667   6.720   0.401
 5285TIP3    H115800   6.670   6.771   0.319
 5285TIP3    H215801   6.735   6.654   0.390
 5286TIP3   OH215802   3.738   5.903   0.152
 5286TIP3    H115803   3.694   5.980   0.188
 5286TIP3    H215804   3.667   5.845   0.125
 5287TIP3   OH215805   5.678   6.343   2.285
 5287TIP3    H115806   5.722   6.361   2.368
 5287TIP3    H215807   5.595   6.389   2.291
 5288TIP3   OH215808   0.960   6.889   3.341
 5288TIP3    H115809   0.871   6.892   3.375
 5288TIP3    H215810   0.965   6.961   3.279
 5289TIP3   OH215811   5.016   7.482   2.935
 5289TIP3    H115812   4.986   7.538   3.007
 5289TIP3    H215813   5.109   7.470   2.952
 5290TIP3   OH215814   3.551   3.142   3.091
 5290TIP3    H115815   3.470   3.182   3.124
 5290TIP3    H215816   3.605   3.217   3.067
 5291TIP3   OH215817   8.017   3.241   3.961
 5291TIP3    H115818   8.021   3.301   4.035
 5291TIP3    H215819   8.094   3.263   3.909
 5292TIP3   OH215820   7.171   7.533   0.153
 5292TIP3    H115821   7.128   7.451   0.128
 5292TIP3    H215822   7.245   7.540   0.094
 5293TIP3   OH215823   6.120   5.273   6.304
 5293TIP3    H115824   6.052   5.270   6.237
 5293TIP3    H215825   6.114   5.361   6.341
 5294TIP3   OH215826   3.741   1.533   5.509
 5294TIP3    H115827   3.785   1.576   5.582
 5294TIP3    H215828   3.691   1.462   5.550
 5295TIP3   OH215829   6.262   0.096   3.975
 5295TIP3    H115830   6.208   0.120   4.050
 5295TIP3    H215831   6.266   0.177   3.923
 5296TIP3   OH215832   1.124   4.744   3.656
 5296TIP3    H115833   1.123   4.656   3.694
 5296TIP3    H215834   1.203   4.785   3.691
 5297TIP3   OH215835   5.224   6.887   4.100
 5297TIP3    H115836   5.299   6.941   4.124
 5297TIP3    H215837   5.168   6.889   4.177
 5298TIP3   OH215838   3.488   1.098   1.182
 5298TIP3    H115839   3.525   1.015   1.152
 5298TIP3    H215840   3.443   1.077   1.263
 5299TIP3   OH215841   4.521   2.228   3.883
 5299TIP3    H115842   4.436   2.184   3.880
 5299TIP3    H215843   4.521   2.284   3.806
 5300TIP3   OH215844   2.998   5.469   4.908
 5300TIP3    H115845   3.066   5.534   4.890
 5300TIP3    H215846   2.979   5.480   5.002
 5301TIP3   OH215847   5.122   1.298   4.590
 5301TIP3    H115848   5.102   1.356   4.664
 5301TIP3    H215849   5.173   1.353   4.530
 5302TIP3   OH215850   4.567   3.452   6.720
 5302TIP3    H115851   4.646   3.398   6.725
 5302TIP3    H215852   4.596   3.533   6.677
 5303TIP3   OH215853   5.457   5.472   2.795
 5303TIP3    H115854   5.509   5.470   2.715
 5303TIP3    H215855   5.501   5.411   2.854
 5304TIP3   OH215856   0.860   4.627   0.585
 5304TIP3    H115857   0.801   4.687   0.631
 5304TIP3    H215858   0.825   4.540   0.604
 5305TIP3   OH215859   3.845   1.290   2.755
 5305TIP3    H115860   3.773   1.266   2.813
 5305TIP3    H215861   3.917   1.311   2.815
 5306TIP3   OH215862   4.117   4.915   2.873
 5306TIP3    H115863   4.033   4.959   2.882
 5306TIP3    H215864   4.115   4.877   2.785
 5307TIP3   OH215865   8.237   2.482   5.826
 5307TIP3    H115866   8.193   2.458   5.745
 5307TIP3    H215867   8.173   2.462   5.895
 5308TIP3   OH215868   2.513   1.669   5.980
 5308TIP3    H115869   2.608   1.673   5.984
 5308TIP3    H215870   2.483   1.744   6.031
 5309TIP3   OH215871   4.830   0.953   2.713
 5309TIP3    H115872   4.877   0.911   2.785
 5309TIP3    H215873   4.746   0.907   2.709
 5310TIP3   OH215874   2.021   7.376   5.247
 5310TIP3    H115875   1.965   7.339   5.179
 5310TIP3    H215876   2.100   7.404   5.201
 5311TIP3   OH215877   5.294   5.851   1.793
 5311TIP3    H115878   5.323   5.848   1.884
 5311TIP3    H215879   5.362   5.803   1.745
 5312TIP3   OH215880   0.613   5.983   6.324
 5312TIP3    H115881   0.602   5.982   6.419
 5312TIP3    H215882   0.608   5.891   6.298
 5313TIP3   OH215883   3.450   0.919   2.547
 5313TIP3    H115884   3.379   0.953   2.493
 5313TIP3    H215885   3.425   0.940   2.637
 5314TIP3   OH215886   0.400   7.732   3.052
 5314TIP3    H115887   0.324   7.787   3.032
 5314TIP3    H215888   0.409   7.737   3.147
 5315TIP3   OH215889   1.082   3.363   0.634
 5315TIP3    H115890   1.026   3.397   0.705
 5315TIP3    H215891   1.025   3.361   0.558
 5316TIP3   OH215892   4.641   4.904   6.257
 5316TIP3    H115893   4.592   4.823   6.272
 5316TIP3    H215894   4.585   4.955   6.198
 5317TIP3   OH215895   1.312   5.945   3.059
 5317TIP3    H115896   1.223   5.915   3.074
 5317TIP3    H215897   1.330   5.922   2.968
 5318TIP3   OH215898   6.722   7.556   3.554
 5318TIP3    H115899   6.630   7.551   3.582
 5318TIP3    H215900   6.724   7.510   3.471
 5319TIP3   OH215901   5.981   6.357   1.044
 5319TIP3    H115902   5.925   6.434   1.056
 5319TIP3    H215903   5.937   6.305   0.977
 5320TIP3   OH215904   6.477   3.474   1.620
 5320TIP3    H115905   6.451   3.518   1.701
 5320TIP3    H215906   6.411   3.406   1.608
 5321TIP3   OH215907   5.609   1.832   2.743
 5321TIP3    H115908   5.555   1.910   2.729
 5321TIP3    H215909   5.685   1.846   2.686
 5322TIP3   OH215910   1.466   6.321   6.394
 5322TIP3    H115911   1.465   6.234   6.354
 5322TIP3    H215912   1.540   6.365   6.354
 5323TIP3   OH215913   0.641   1.449   5.511
 5323TIP3    H115914   0.719   1.497   5.482
 5323TIP3    H215915   0.581   1.516   5.542
 5324TIP3   OH215916   2.212   3.575   3.053
 5324TIP3    H115917   2.301   3.544   3.034
 5324TIP3    H215918   2.225   3.642   3.120
 5325TIP3   OH215919   7.522   6.610   3.404
 5325TIP3    H115920   7.469   6.667   3.460
 5325TIP3    H215921   7.467   6.532   3.391
 5326TIP3   OH215922   1.979   0.931   2.381
 5326TIP3    H115923   1.950   0.840   2.368
 5326TIP3    H215924   2.068   0.933   2.345
 5327TIP3   OH215925   5.144   0.914   5.323
 5327TIP3    H115926   5.067   0.857   5.331
 5327TIP3    H215927   5.192   0.899   5.405
 5328TIP3   OH215928   5.370   5.107   6.446
 5328TIP3    H115929   5.289   5.059   6.430
 5328TIP3    H215930   5.438   5.038   6.449
 5329TIP3   OH215931   6.301   5.518   1.686
 5329TIP3    H115932   6.207   5.532   1.700
 5329TIP3    H215933   6.342   5.547   1.767
 5330TIP3   OH215934   7.085   0.816   5.837
 5330TIP3    H115935   7.133   0.772   5.908
 5330TIP3    H215936   7.126   0.902   5.831
 5331TIP3   OH215937   1.788   5.065   3.190
 5331TIP3    H115938   1.821   5.154   3.197
 5331TIP3    H215939   1.735   5.052   3.268
 5332TIP3   OH215940   6.650   0.086   5.212
 5332TIP3    H115941   6.659  -0.009   5.201
 5332TIP3    H215942   6.724   0.112   5.266
 5333TIP3   OH215943   7.701   3.896   0.577
 5333TIP3    H115944   7.707   3.975   0.631
 5333TIP3    H215945   7.772   3.839   0.609
 5334TIP3   OH215946   4.248   7.644   2.948
 5334TIP3    H115947   4.307   7.702   2.901
 5334TIP3    H215948   4.290   7.558   2.944
 5335TIP3   OH215949   6.231   0.663   6.387
 5335TIP3    H115950   6.315   0.710   6.383
 5335TIP3    H215951   6.255   0.571   6.379
 5336TIP3   OH215952   1.747   2.443   5.688
 5336TIP3    H115953   1.788   2.527   5.706
 5336TIP3    H215954   1.767   2.425   5.596
 5337TIP3   OH215955   3.221   6.514   4.725
 5337TIP3    H115956   3.304   6.545   4.760
 5337TIP3    H215957   3.245   6.462   4.649
 5338TIP3   OH215958   6.118   6.987   4.569
 5338TIP3    H115959   6.211   6.965   4.575
 5338TIP3    H215960   6.107   7.021   4.480
 5339TIP3   OH215961   5.513   1.045   1.626
 5339TIP3    H115962   5.426   1.082   1.612
 5339TIP3    H215963   5.563   1.069   1.548
 5340TIP3   OH215964   7.381   2.283   5.479
 5340TIP3    H115965   7.475   2.294   5.491
 5340TIP3    H215966   7.364   2.323   5.393
 5341TIP3   OH215967   3.281   5.924   3.315
 5341TIP3    H115968   3.282   5.965   3.229
 5341TIP3    H215969   3.257   5.995   3.375
 5342TIP3   OH215970   4.589   6.454   3.252
 5342TIP3    H115971   4.656   6.498   3.305
 5342TIP3    H215972   4.562   6.379   3.305
 5343TIP3   OH215973   7.545   7.573   5.202
 5343TIP3    H115974   7.612   7.637   5.228
 5343TIP3    H215975   7.498   7.617   5.131
 5344TIP3   OH215976   0.615   5.734   3.196
 5344TIP3    H115977   0.694   5.685   3.175
 5344TIP3    H215978   0.610   5.801   3.127
 5345TIP3   OH215979   1.885   1.632   6.222
 5345TIP3    H115980   1.926   1.548   6.204
 5345TIP3    H215981   1.951   1.697   6.201
 5346TIP3   OH215982   3.056   6.234   0.354
 5346TIP3    H115983   3.134   6.182   0.372
 5346TIP3    H215984   3.032   6.272   0.438
 5347TIP3   OH215985   1.852   5.615   3.537
 5347TIP3    H115986   1.805   5.552   3.592
 5347TIP3    H215987   1.870   5.689   3.595
 5348TIP3   OH215988   1.707   4.743   3.200
 5348TIP3    H115989   1.613   4.748   3.217
 5348TIP3    H215990   1.749   4.753   3.285
 5349TIP3   OH215991   7.512   5.282   4.029
 5349TIP3    H115992   7.544   5.370   4.008
 5349TIP3    H215993   7.589   5.227   4.024
 5350TIP3   OH215994   8.202   3.994   1.596
 5350TIP3    H115995   8.184   3.909   1.635
 5350TIP3    H215996   8.165   3.988   1.508
 5351TIP3   OH215997   4.517   1.768   0.312
 5351TIP3    H115998   4.591   1.708   0.316
 5351TIP3    H215999   4.541   1.831   0.243
 5352TIP3   OH216000   5.891   1.856   4.525
 5352TIP3    H116001   5.823   1.896   4.580
 5352TIP3    H216002   5.877   1.893   4.438
 5353TIP3   OH216003   5.170   2.993   0.088
 5353TIP3    H116004   5.078   3.010   0.110
 5353TIP3    H216005   5.194   3.065   0.030
 5354TIP3   OH216006   0.322   4.738   4.864
 5354TIP3    H116007   0.242   4.693   4.838
 5354TIP3    H216008   0.371   4.673   4.915
 5355TIP3   OH216009   4.048   7.788   1.063
 5355TIP3    H116010   3.964   7.743   1.072
 5355TIP3    H216011   4.113   7.718   1.068
 5356TIP3   OH216012   4.641   6.349   0.405
 5356TIP3    H116013   4.583   6.370   0.478
 5356TIP3    H216014   4.603   6.396   0.330
 5357TIP3   OH216015   1.448   5.821   2.728
 5357TIP3    H116016   1.480   5.812   2.818
 5357TIP3    H216017   1.523   5.856   2.680
 5358TIP3   OH216018   1.924   1.397   1.301
 5358TIP3    H116019   1.908   1.419   1.393
 5358TIP3    H216020   1.960   1.309   1.304
 5359TIP3   OH216021   2.677   0.755   4.700
 5359TIP3    H116022   2.752   0.740   4.643
 5359TIP3    H216023   2.692   0.699   4.775
 5360TIP3   OH216024   6.344   6.821   6.540
 5360TIP3    H116025   6.299   6.776   6.468
 5360TIP3    H216026   6.431   6.781   6.543
 5361TIP3   OH216027   1.628   1.441   4.149
 5361TIP3    H116028   1.550   1.424   4.201
 5361TIP3    H216029   1.674   1.511   4.196
 5362TIP3   OH216030   6.979   1.321   3.595
 5362TIP3    H116031   6.884   1.318   3.586
 5362TIP3    H216032   7.010   1.243   3.549
 5363TIP3   OH216033   0.144   3.005   6.138
 5363TIP3    H116034   0.116   3.017   6.047
 5363TIP3    H216035   0.133   3.092   6.178
 5364TIP3   OH216036   0.908   4.046   5.861
 5364TIP3    H116037   0.935   4.123   5.912
 5364TIP3    H216038   0.983   3.987   5.867
 5365TIP3   OH216039   3.706   3.526   1.595
 5365TIP3    H116040   3.643   3.564   1.656
 5365TIP3    H216041   3.759   3.601   1.566
 5366TIP3   OH216042   4.094   7.055   0.937
 5366TIP3    H116043   4.153   7.076   0.864
 5366TIP3    H216044   4.125   7.110   1.009
 5367TIP3   OH216045   4.606   6.828   5.293
 5367TIP3    H116046   4.516   6.816   5.323
 5367TIP3    H216047   4.660   6.810   5.370
 5368TIP3   OH216048   4.802   3.863   5.148
 5368TIP3    H116049   4.880   3.919   5.151
 5368TIP3    H216050   4.765   3.880   5.061
 5369TIP3   OH216051   4.982   4.479   2.052
 5369TIP3    H116052   4.931   4.483   2.133
 5369TIP3    H216053   5.067   4.515   2.076
 5370TIP3   OH216054   1.655   0.672   4.041
 5370TIP3    H116055   1.601   0.735   3.992
 5370TIP3    H216056   1.738   0.718   4.055
 5371TIP3   OH216057   4.355   3.441   5.263
 5371TIP3    H116058   4.393   3.375   5.322
 5371TIP3    H216059   4.428   3.468   5.207
 5372TIP3   OH216060   7.666   6.784   5.264
 5372TIP3    H116061   7.757   6.763   5.243
 5372TIP3    H216062   7.662   6.778   5.360
 5373TIP3   OH216063   4.146   3.837   4.314
 5373TIP3    H116064   4.193   3.796   4.387
 5373TIP3    H216065   4.142   3.770   4.246
 5374TIP3   OH216066   7.777   7.647   0.894
 5374TIP3    H116067   7.807   7.700   0.820
 5374TIP3    H216068   7.681   7.656   0.892
 5375TIP3   OH216069   2.004   4.450   3.287
 5375TIP3    H116070   2.014   4.538   3.321
 5375TIP3    H216071   1.916   4.447   3.251
 5376TIP3   OH216072   6.936   3.593   6.097
 5376TIP3    H116073   6.884   3.539   6.037
 5376TIP3    H216074   6.998   3.531   6.136
 5377TIP3   OH216075   0.275   2.489   0.159
 5377TIP3    H116076   0.305   2.564   0.210
 5377TIP3    H216077   0.312   2.502   0.072
 5378TIP3   OH216078   3.286   6.533   5.376
 5378TIP3    H116079   3.309   6.477   5.302
 5378TIP3    H216080   3.342   6.502   5.448
 5379TIP3   OH216081   0.986   3.351   4.133
 5379TIP3    H116082   0.967   3.331   4.224
 5379TIP3    H216083   1.024   3.439   4.135
 5380TIP3   OH216084   1.663   6.442   0.162
 5380TIP3    H116085   1.724   6.391   0.108
 5380TIP3    H216086   1.592   6.382   0.181
 5381TIP3   OH216087   2.732   0.736   2.220
 5381TIP3    H116088   2.805   0.793   2.245
 5381TIP3    H216089   2.757   0.702   2.134
 5382TIP3   OH216090   7.199   3.634   5.352
 5382TIP3    H116091   7.266   3.703   5.352
 5382TIP3    H216092   7.158   3.639   5.438
 5383TIP3   OH216093   2.410   4.526   5.189
 5383TIP3    H116094   2.353   4.527   5.266
 5383TIP3    H216095   2.365   4.469   5.127
 5384TIP3   OH216096   5.932   6.583   0.047
 5384TIP3    H116097   5.959   6.508  -0.006
 5384TIP3    H216098   5.904   6.543   0.130
 5385TIP3   OH216099   1.819   0.375   1.314
 5385TIP3    H116100   1.832   0.448   1.254
 5385TIP3    H216101   1.905   0.360   1.352
 5386TIP3   OH216102   1.185   6.258   6.285
 5386TIP3    H116103   1.225   6.199   6.221
 5386TIP3    H216104   1.256   6.316   6.312
 5387TIP3   OH216105   1.578   3.197   3.645
 5387TIP3    H116106   1.514   3.267   3.630
 5387TIP3    H216107   1.592   3.198   3.740
 5388TIP3   OH216108   6.159   4.014   0.093
 5388TIP3    H116109   6.165   3.968   0.176
 5388TIP3    H216110   6.074   4.058   0.096
 5389TIP3   OH216111   4.113   2.039   4.107
 5389TIP3    H116112   4.045   2.009   4.047
 5389TIP3    H216113   4.065   2.062   4.188
 5390TIP3   OH216114   8.313   3.468   1.344
 5390TIP3    H116115   8.312   3.379   1.310
 5390TIP3    H216116   8.254   3.466   1.419
 5391TIP3   OH216117   3.532   7.796   2.803
 5391TIP3    H116118   3.575   7.721   2.762
 5391TIP3    H216119   3.447   7.762   2.833
 5392TIP3   OH216120   5.307   0.793   2.354
 5392TIP3    H116121   5.311   0.705   2.316
 5392TIP3    H216122   5.235   0.789   2.417
 5393TIP3   OH216123   0.082   7.767   3.078
 5393TIP3    H116124   0.108   7.829   3.147
 5393TIP3    H216125   0.038   7.697   3.125
 5394TIP3   OH216126   4.743   5.229   1.300
 5394TIP3    H116127   4.708   5.269   1.220
 5394TIP3    H216128   4.800   5.296   1.338
 5395TIP3   OH216129   5.352   2.920   3.401
 5395TIP3    H116130   5.440   2.888   3.421
 5395TIP3    H216131   5.297   2.886   3.472
 5396TIP3   OH216132   1.546   5.472   5.917
 5396TIP3    H116133   1.515   5.463   6.007
 5396TIP3    H216134   1.466   5.488   5.866
 5397TIP3   OH216135   2.654   2.325   6.606
 5397TIP3    H116136   2.623   2.398   6.553
 5397TIP3    H216137   2.746   2.315   6.580
 5398TIP3   OH216138   4.199   1.509   2.247
 5398TIP3    H116139   4.108   1.481   2.246
 5398TIP3    H216140   4.200   1.593   2.202
 5399TIP3   OH216141   3.093   1.470   5.148
 5399TIP3    H116142   2.999   1.469   5.127
 5399TIP3    H216143   3.133   1.416   5.079
 5400TIP3   OH216144   2.103   4.259   0.627
 5400TIP3    H116145   2.083   4.333   0.684
 5400TIP3    H216146   2.195   4.240   0.644
 5401TIP3   OH216147   7.458   6.800   1.298
 5401TIP3    H116148   7.548   6.821   1.324
 5401TIP3    H216149   7.458   6.805   1.203
 5402TIP3   OH216150   1.106   3.607   1.546
 5402TIP3    H116151   1.015   3.593   1.570
 5402TIP3    H216152   1.103   3.668   1.472
 5403TIP3   OH216153   7.782   6.589   3.304
 5403TIP3    H116154   7.765   6.626   3.217
 5403TIP3    H216155   7.697   6.595   3.349
 5404TIP3   OH216156   0.098   2.494   1.627
 5404TIP3    H116157   0.094   2.589   1.621
 5404TIP3    H216158   0.125   2.465   1.540
 5405TIP3   OH216159   6.442   7.220   1.960
 5405TIP3    H116160   6.389   7.237   2.038
 5405TIP3    H216161   6.411   7.135   1.929
 5406TIP3   OH216162   3.457   1.667   6.106
 5406TIP3    H116163   3.540   1.686   6.149
 5406TIP3    H216164   3.430   1.582   6.141
 5407TIP3   OH216165   1.284   7.776   6.447
 5407TIP3    H116166   1.257   7.692   6.485
 5407TIP3    H216167   1.363   7.755   6.397
 5408TIP3   OH216168   6.595   2.954   2.976
 5408TIP3    H116169   6.595   2.862   3.002
 5408TIP3    H216170   6.545   2.955   2.894
 5409TIP3   OH216171   1.013   5.503   1.459
 5409TIP3    H116172   1.017   5.471   1.368
 5409TIP3    H216173   1.038   5.595   1.452
 5410TIP3   OH216174   6.546   5.662   0.691
 5410TIP3    H116175   6.561   5.729   0.757
 5410TIP3    H216176   6.520   5.584   0.741
 5411TIP3   OH216177   3.602   1.150   2.171
 5411TIP3    H116178   3.634   1.147   2.081
 5411TIP3    H216179   3.676   1.185   2.222
 5412TIP3   OH216180   5.365   2.487   3.987
 5412TIP3    H116181   5.344   2.537   3.908
 5412TIP3    H216182   5.434   2.426   3.959
 5413TIP3   OH216183   3.608   2.526   2.633
 5413TIP3    H116184   3.547   2.473   2.580
 5413TIP3    H216185   3.582   2.508   2.724
 5414TIP3   OH216186   1.934   4.899   6.154
 5414TIP3    H116187   1.880   4.850   6.216
 5414TIP3    H216188   1.893   4.986   6.150
 5415TIP3   OH216189   1.261   2.715   3.582
 5415TIP3    H116190   1.350   2.701   3.550
 5415TIP3    H216191   1.236   2.800   3.547
 5416TIP3   OH216192   1.053   6.672   5.404
 5416TIP3    H116193   1.113   6.702   5.337
 5416TIP3    H216194   1.004   6.750   5.430
 5417TIP3   OH216195   3.182   3.714   4.923
 5417TIP3    H116196   3.118   3.652   4.888
 5417TIP3    H216197   3.135   3.759   4.994
 5418TIP3   OH216198   2.336   7.302   5.876
 5418TIP3    H116199   2.368   7.297   5.966
 5418TIP3    H216200   2.381   7.232   5.829
 5419TIP3   OH216201   4.942   5.403   2.790
 5419TIP3    H116202   5.036   5.386   2.804
 5419TIP3    H216203   4.900   5.367   2.868
 5420TIP3   OH216204   3.188   1.410   2.734
 5420TIP3    H116205   3.280   1.401   2.757
 5420TIP3    H216206   3.185   1.486   2.675
 5421TIP3   OH216207   2.196   0.159   4.473
 5421TIP3    H116208   2.215   0.190   4.562
 5421TIP3    H216209   2.174   0.239   4.425
 5422TIP3   OH216210   8.012   5.555   6.218
 5422TIP3    H116211   7.986   5.628   6.162
 5422TIP3    H216212   8.105   5.541   6.198
 5423TIP3   OH216213   1.857   6.794   6.675
 5423TIP3    H116214   1.778   6.848   6.670
 5423TIP3    H216215   1.876   6.772   6.583
 5424TIP3   OH216216   6.140   2.577   0.211
 5424TIP3    H116217   6.216   2.603   0.262
 5424TIP3    H216218   6.066   2.591   0.270
 5425TIP3   OH216219   5.935   4.211   4.747
 5425TIP3    H116220   6.014   4.158   4.735
 5425TIP3    H216221   5.868   4.148   4.773
 5426TIP3   OH216222   2.425   7.061   4.615
 5426TIP3    H116223   2.452   7.084   4.703
 5426TIP3    H216224   2.505   7.030   4.572
 5427TIP3   OH216225   7.970   1.731   4.492
 5427TIP3    H116226   7.983   1.701   4.402
 5427TIP3    H216227   8.054   1.713   4.535
 5428TIP3   OH216228   3.248   6.455   2.818
 5428TIP3    H116229   3.289   6.387   2.871
 5428TIP3    H216230   3.155   6.451   2.840
 5429TIP3   OH216231   0.903   4.059   1.757
 5429TIP3    H116232   0.835   4.111   1.801
 5429TIP3    H216233   0.898   4.087   1.665
 5430TIP3   OH216234   0.931   2.947   2.820
 5430TIP3    H116235   0.893   2.922   2.905
 5430TIP3    H216236   1.025   2.952   2.837
 5431TIP3   OH216237   0.827   6.519   2.295
 5431TIP3    H116238   0.841   6.505   2.201
 5431TIP3    H216239   0.910   6.497   2.336
 5432TIP3   OH216240   7.689   5.160   5.958
 5432TIP3    H116241   7.663   5.070   5.974
 5432TIP3    H216242   7.781   5.154   5.931
 5433TIP3   OH216243   1.718   0.342   2.898
 5433TIP3    H116244   1.667   0.261   2.905
 5433TIP3    H216245   1.775   0.328   2.822
 5434TIP3   OH216246   1.822   2.021   4.325
 5434TIP3    H116247   1.843   2.077   4.249
 5434TIP3    H216248   1.727   2.011   4.321
 5435TIP3   OH216249   3.458   3.940   5.137
 5435TIP3    H116250   3.484   4.029   5.111
 5435TIP3    H216251   3.541   3.893   5.148
 5436TIP3   OH216252   0.516   4.671   2.349
 5436TIP3    H116253   0.472   4.719   2.279
 5436TIP3    H216254   0.446   4.648   2.410
 5437TIP3   OH216255   7.886   0.933   6.297
 5437TIP3    H116256   7.923   1.021   6.299
 5437TIP3    H216257   7.818   0.937   6.230
 5438TIP3   OH216258   1.330   6.938   0.862
 5438TIP3    H116259   1.406   6.896   0.821
 5438TIP3    H216260   1.355   7.030   0.871
 5439TIP3   OH216261   7.969   0.760   4.766
 5439TIP3    H116262   7.933   0.782   4.852
 5439TIP3    H216263   8.021   0.836   4.741
 5440TIP3   OH216264   6.188   3.003   6.567
 5440TIP3    H116265   6.113   3.059   6.544
 5440TIP3    H216266   6.238   2.996   6.486
 5441TIP3   OH216267   4.141   7.231   6.544
 5441TIP3    H116268   4.232   7.236   6.572
 5441TIP3    H216269   4.091   7.262   6.620
 5442TIP3   OH216270   2.867   0.944   2.700
 5442TIP3    H116271   2.943   0.896   2.666
 5442TIP3    H216272   2.853   0.907   2.788
 5443TIP3   OH216273   7.467   0.124   4.973
 5443TIP3    H116274   7.533   0.162   4.914
 5443TIP3    H216275   7.393   0.184   4.967
 5444TIP3   OH216276   1.592   7.241   6.583
 5444TIP3    H116277   1.509   7.278   6.553
 5444TIP3    H216278   1.634   7.209   6.502
 5445TIP3   OH216279   5.373   2.218   2.938
 5445TIP3    H116280   5.459   2.187   2.909
 5445TIP3    H216281   5.312   2.150   2.908
 5446TIP3   OH216282   6.745   2.576   0.797
 5446TIP3    H116283   6.754   2.605   0.706
 5446TIP3    H216284   6.657   2.540   0.802
 5447TIP3   OH216285   0.397   2.325   0.364
 5447TIP3    H116286   0.488   2.304   0.384
 5447TIP3    H216287   0.402   2.386   0.290
 5448TIP3   OH216288   5.950   3.951   6.303
 5448TIP3    H116289   6.029   3.981   6.258
 5448TIP3    H216290   5.878   3.992   6.256
 5449TIP3   OH216291   1.916   0.284   2.711
 5449TIP3    H116292   1.932   0.249   2.624
 5449TIP3    H216293   1.975   0.358   2.719
 5450TIP3   OH216294   6.732   5.893   0.571
 5450TIP3    H116295   6.657   5.949   0.590
 5450TIP3    H216296   6.699   5.804   0.587
 5451TIP3   OH216297   0.459   5.713   2.768
 5451TIP3    H116298   0.456   5.802   2.802
 5451TIP3    H216299   0.526   5.716   2.700
 5452TIP3   OH216300   7.051   4.946   5.436
 5452TIP3    H116301   6.961   4.927   5.412
 5452TIP3    H216302   7.077   5.020   5.380
 5453TIP3   OH216303   0.110   7.712   1.602
 5453TIP3    H116304   0.065   7.641   1.556
 5453TIP3    H216305   0.202   7.702   1.578
 5454TIP3   OH216306   3.794   7.530   0.598
 5454TIP3    H116307   3.846   7.467   0.548
 5454TIP3    H216308   3.797   7.499   0.688
 5455TIP3   OH216309   4.241   0.225   4.580
 5455TIP3    H116310   4.336   0.237   4.584
 5455TIP3    H216311   4.205   0.306   4.616
 5456TIP3   OH216312   5.453   0.242   1.155
 5456TIP3    H116313   5.504   0.287   1.087
 5456TIP3    H216314   5.465   0.296   1.233
 5457TIP3   OH216315   3.324   4.170   1.202
 5457TIP3    H116316   3.269   4.176   1.124
 5457TIP3    H216317   3.368   4.085   1.194
 5458TIP3   OH216318   0.304   7.357   4.174
 5458TIP3    H116319   0.356   7.437   4.180
 5458TIP3    H216320   0.328   7.307   4.253
 5459TIP3   OH216321   1.416   7.567   1.966
 5459TIP3    H116322   1.391   7.476   1.953
 5459TIP3    H216323   1.333   7.615   1.961
 5460TIP3   OH216324   1.598   6.741   0.206
 5460TIP3    H116325   1.632   6.652   0.198
 5460TIP3    H216326   1.563   6.746   0.296
 5461TIP3   OH216327   3.197   2.481   3.306
 5461TIP3    H116328   3.163   2.498   3.218
 5461TIP3    H216329   3.259   2.552   3.322
 5462TIP3   OH216330   1.174   7.522   6.647
 5462TIP3    H116331   1.115   7.520   6.572
 5462TIP3    H216332   1.251   7.473   6.619
 5463TIP3   OH216333   4.254   0.105   4.846
 5463TIP3    H116334   4.208   0.074   4.767
 5463TIP3    H216335   4.345   0.113   4.818
 5464TIP3   OH216336   2.935   7.352   6.631
 5464TIP3    H116337   2.997   7.279   6.634
 5464TIP3    H216338   2.897   7.346   6.543
 5465TIP3   OH216339   7.686   1.364   6.424
 5465TIP3    H116340   7.736   1.296   6.378
 5465TIP3    H216341   7.596   1.331   6.426
 5466TIP3   OH216342   0.799   4.091   5.143
 5466TIP3    H116343   0.785   4.035   5.219
 5466TIP3    H216344   0.783   4.034   5.067
 5467TIP3   OH216345   0.081   5.494   0.865
 5467TIP3    H116346   0.005   5.510   0.921
 5467TIP3    H216347   0.078   5.564   0.800
 5468TIP3   OH216348   0.112   5.639   1.271
 5468TIP3    H116349   0.089   5.547   1.271
 5468TIP3    H216350   0.110   5.664   1.178
 5469TIP3   OH216351   0.546   5.461   3.510
 5469TIP3    H116352   0.588   5.434   3.591
 5469TIP3    H216353   0.454   5.441   3.523
 5470TIP3   OH216354   5.672   2.430   2.706
 5470TIP3    H116355   5.687   2.521   2.733
 5470TIP3    H216356   5.577   2.419   2.712
 5471TIP3   OH216357   1.117   5.946   5.587
 5471TIP3    H116358   1.142   6.005   5.516
 5471TIP3    H216359   1.068   6.001   5.649
 5472TIP3   OH216360   7.728   6.407   3.043
 5472TIP3    H116361   7.795   6.338   3.035
 5472TIP3    H216362   7.778   6.488   3.051
 5473TIP3   OH216363   2.501   2.181   0.628
 5473TIP3    H116364   2.408   2.202   0.623
 5473TIP3    H216365   2.540   2.229   0.554
 5474TIP3   OH216366   6.346   2.997   5.671
 5474TIP3    H116367   6.357   2.969   5.762
 5474TIP3    H216368   6.263   2.958   5.644
 5475TIP3   OH216369   6.034   3.183   6.420
 5475TIP3    H116370   6.094   3.227   6.360
 5475TIP3    H216371   6.003   3.252   6.479
 5476TIP3   OH216372   4.662   5.749   6.546
 5476TIP3    H116373   4.672   5.755   6.641
 5476TIP3    H216374   4.726   5.682   6.521
 5477TIP3   OH216375   5.536   4.764   0.972
 5477TIP3    H116376   5.533   4.706   0.897
 5477TIP3    H216377   5.516   4.851   0.937
 5478TIP3   OH216378   5.888   1.983   6.776
 5478TIP3    H116379   5.926   1.918   6.835
 5478TIP3    H216380   5.959   2.007   6.717
 5479TIP3   OH216381   4.489   4.203   4.725
 5479TIP3    H116382   4.443   4.121   4.708
 5479TIP3    H216383   4.427   4.254   4.779
 5480TIP3   OH216384   6.978   7.641   2.421
 5480TIP3    H116385   7.001   7.662   2.511
 5480TIP3    H216386   7.060   7.611   2.382
 5481TIP3   OH216387   2.649   3.552   3.383
 5481TIP3    H116388   2.558   3.521   3.390
 5481TIP3    H216389   2.693   3.516   3.460
 5482TIP3   OH216390   3.441   4.466   6.100
 5482TIP3    H116391   3.387   4.408   6.153
 5482TIP3    H216392   3.412   4.554   6.124
 5483TIP3   OH216393   3.254   7.287   2.568
 5483TIP3    H116394   3.327   7.248   2.520
 5483TIP3    H216395   3.192   7.215   2.580
 5484TIP3   OH216396   5.414   0.081   3.813
 5484TIP3    H116397   5.350   0.151   3.799
 5484TIP3    H216398   5.370   0.002   3.780
 5485TIP3   OH216399   5.611   6.206   3.269
 5485TIP3    H116400   5.651   6.125   3.300
 5485TIP3    H216401   5.633   6.211   3.176
 5486TIP3   OH216402   5.657   4.582   0.754
 5486TIP3    H116403   5.736   4.622   0.790
 5486TIP3    H216404   5.667   4.589   0.659
 5487TIP3   OH216405   0.679   2.750   5.582
 5487TIP3    H116406   0.604   2.691   5.592
 5487TIP3    H216407   0.688   2.791   5.668
 5488TIP3   OH216408   8.139   0.575   1.575
 5488TIP3    H116409   8.051   0.541   1.587
 5488TIP3    H216410   8.190   0.501   1.542
 5489TIP3   OH216411   1.174   6.752   2.108
 5489TIP3    H116412   1.152   6.686   2.041
 5489TIP3    H216413   1.265   6.734   2.130
 5490TIP3   OH216414   2.505   5.544   1.501
 5490TIP3    H116415   2.593   5.515   1.525
 5490TIP3    H216416   2.447   5.487   1.551
 5491TIP3   OH216417   4.316   6.514   3.732
 5491TIP3    H116418   4.260   6.492   3.658
 5491TIP3    H216419   4.357   6.431   3.756
 5492TIP3   OH216420   0.274   0.154   1.047
 5492TIP3    H116421   0.248   0.080   1.101
 5492TIP3    H216422   0.232   0.138   0.962
 5493TIP3   OH216423   8.197   3.604   0.498
 5493TIP3    H116424   8.223   3.694   0.517
 5493TIP3    H216425   8.249   3.580   0.421
 5494TIP3   OH216426   8.065   3.133   2.512
 5494TIP3    H116427   8.090   3.054   2.464
 5494TIP3    H216428   8.145   3.159   2.557
 5495TIP3   OH216429   7.180   5.074   3.752
 5495TIP3    H116430   7.272   5.086   3.726
 5495TIP3    H216431   7.163   4.981   3.738
 5496TIP3   OH216432   8.204   6.580   6.305
 5496TIP3    H116433   8.223   6.533   6.387
 5496TIP3    H216434   8.240   6.667   6.318
 5497TIP3   OH216435   0.868   1.471   1.248
 5497TIP3    H116436   0.940   1.416   1.278
 5497TIP3    H216437   0.807   1.409   1.206
 5498TIP3   OH216438   5.211   3.018   4.964
 5498TIP3    H116439   5.245   3.020   5.053
 5498TIP3    H216440   5.235   2.931   4.931
 5499TIP3   OH216441   3.218   3.171   4.739
 5499TIP3    H116442   3.239   3.136   4.825
 5499TIP3    H216443   3.265   3.254   4.734
 5500TIP3   OH216444   2.327   7.545   5.117
 5500TIP3    H116445   2.345   7.469   5.172
 5500TIP3    H216446   2.354   7.620   5.170
 5501TIP3   OH216447   6.544   1.365   0.938
 5501TIP3    H116448   6.534   1.432   1.006
 5501TIP3    H216449   6.456   1.350   0.905
 5502TIP3   OH216450   4.822   2.203   4.131
 5502TIP3    H116451   4.802   2.165   4.045
 5502TIP3    H216452   4.913   2.177   4.148
 5503TIP3   OH216453   1.217   4.427   0.516
 5503TIP3    H116454   1.272   4.349   0.504
 5503TIP3    H216455   1.167   4.409   0.595
 5504TIP3   OH216456   5.483   5.767   2.304
 5504TIP3    H116457   5.443   5.695   2.353
 5504TIP3    H216458   5.510   5.829   2.371
 5505TIP3   OH216459   4.597   3.271   4.221
 5505TIP3    H116460   4.626   3.362   4.226
 5505TIP3    H216461   4.614   3.235   4.308
 5506TIP3   OH216462   7.422   0.559   0.120
 5506TIP3    H116463   7.485   0.512   0.066
 5506TIP3    H216464   7.410   0.643   0.075
 5507TIP3   OH216465   8.086   0.992   6.726
 5507TIP3    H116466   8.147   0.958   6.662
 5507TIP3    H216467   8.134   1.061   6.772
 5508TIP3   OH216468   7.127   4.197   4.717
 5508TIP3    H116469   7.057   4.180   4.780
 5508TIP3    H216470   7.095   4.162   4.634
 5509TIP3   OH216471   8.022   5.439   4.890
 5509TIP3    H116472   7.974   5.375   4.942
 5509TIP3    H216473   8.015   5.521   4.939
 5510TIP3   OH216474   6.565   3.404   4.768
 5510TIP3    H116475   6.489   3.345   4.768
 5510TIP3    H216476   6.639   3.348   4.744
 5511TIP3   OH216477   3.138   2.541   6.335
 5511TIP3    H116478   3.121   2.547   6.241
 5511TIP3    H216479   3.148   2.448   6.352
 5512TIP3   OH216480   0.614   4.287   6.595
 5512TIP3    H116481   0.535   4.237   6.617
 5512TIP3    H216482   0.592   4.333   6.514
 5513TIP3   OH216483   3.240   3.892   1.597
 5513TIP3    H116484   3.189   3.939   1.531
 5513TIP3    H216485   3.186   3.895   1.676
 5514TIP3   OH216486   0.616   1.787   5.774
 5514TIP3    H116487   0.554   1.740   5.718
 5514TIP3    H216488   0.697   1.737   5.767
 5515TIP3   OH216489   4.457   1.009   1.633
 5515TIP3    H116490   4.451   0.931   1.688
 5515TIP3    H216491   4.481   1.080   1.694
 5516TIP3   OH216492   0.804   2.290   0.604
 5516TIP3    H116493   0.887   2.244   0.600
 5516TIP3    H216494   0.824   2.379   0.575
 5517TIP3   OH216495   8.040   2.065   1.709
 5517TIP3    H116496   8.124   2.024   1.733
 5517TIP3    H216497   7.976   1.995   1.720
 5518TIP3   OH216498   8.040   7.228   6.135
 5518TIP3    H116499   8.001   7.196   6.217
 5518TIP3    H216500   8.040   7.152   6.077
 5519TIP3   OH216501   5.979   0.280   4.006
 5519TIP3    H116502   5.963   0.189   3.980
 5519TIP3    H216503   5.959   0.331   3.928
 5520TIP3   OH216504   7.363   5.998   4.524
 5520TIP3    H116505   7.387   6.047   4.445
 5520TIP3    H216506   7.343   5.910   4.491
 5521TIP3   OH216507   4.507   1.654   3.962
 5521TIP3    H116508   4.470   1.736   3.930
 5521TIP3    H216509   4.466   1.641   4.047
 5522TIP3   OH216510   6.385   0.198   2.912
 5522TIP3    H116511   6.353   0.116   2.875
 5522TIP3    H216512   6.434   0.171   2.990
 5523TIP3   OH216513   3.672   4.586   4.574
 5523TIP3    H116514   3.628   4.543   4.501
 5523TIP3    H216515   3.701   4.670   4.539
 5524TIP3   OH216516   0.365   3.489   3.600
 5524TIP3    H116517   0.361   3.584   3.587
 5524TIP3    H216518   0.273   3.461   3.604
 5525TIP3   OH216519   1.057   4.005   1.334
 5525TIP3    H116520   1.000   4.015   1.257
 5525TIP3    H216521   1.074   3.911   1.340
 5526TIP3   OH216522   2.807   1.774   0.538
 5526TIP3    H116523   2.756   1.835   0.484
 5526TIP3    H216524   2.770   1.783   0.625
 5527TIP3   OH216525   0.492   3.930   2.894
 5527TIP3    H116526   0.552   3.864   2.930
 5527TIP3    H216527   0.524   3.947   2.806
 5528TIP3   OH216528   5.882   0.814   4.513
 5528TIP3    H116529   5.949   0.779   4.454
 5528TIP3    H216530   5.822   0.741   4.527
 5529TIP3   OH216531   4.049   4.862   1.823
 5529TIP3    H116532   4.065   4.772   1.852
 5529TIP3    H216533   4.133   4.906   1.834
 5530TIP3   OH216534   4.388   1.964   4.097
 5530TIP3    H116535   4.389   1.925   4.010
 5530TIP3    H216536   4.299   1.998   4.108
 5531TIP3   OH216537   8.290   7.352   5.978
 5531TIP3    H116538   8.197   7.370   5.965
 5531TIP3    H216539   8.331   7.439   5.975
 5532TIP3   OH216540   5.522   5.685   1.382
 5532TIP3    H116541   5.465   5.667   1.457
 5532TIP3    H216542   5.468   5.664   1.306
 5533TIP3   OH216543   7.057   5.095   5.055
 5533TIP3    H116544   6.975   5.046   5.058
 5533TIP3    H216545   7.049   5.151   4.977
 5534TIP3   OH216546   6.448   7.111   2.702
 5534TIP3    H116547   6.492   7.184   2.745
 5534TIP3    H216548   6.475   7.116   2.611
 5535TIP3   OH216549   3.825   6.759   5.203
 5535TIP3    H116550   3.754   6.700   5.226
 5535TIP3    H216551   3.869   6.777   5.286
 5536TIP3   OH216552   2.905   1.248   3.254
 5536TIP3    H116553   2.813   1.227   3.265
 5536TIP3    H216554   2.925   1.306   3.328
 5537TIP3   OH216555   1.161   7.488   0.984
 5537TIP3    H116556   1.083   7.432   0.993
 5537TIP3    H216557   1.127   7.571   0.952
 5538TIP3   OH216558   7.717   7.291   1.524
 5538TIP3    H116559   7.645   7.239   1.559
 5538TIP3    H216560   7.685   7.324   1.441
 5539TIP3   OH216561   1.028   5.791   5.194
 5539TIP3    H116562   1.038   5.739   5.274
 5539TIP3    H216563   0.935   5.786   5.174
 5540TIP3   OH216564   7.599   2.355   4.754
 5540TIP3    H116565   7.537   2.362   4.826
 5540TIP3    H216566   7.672   2.411   4.780
 5541TIP3   OH216567   4.450   7.507   3.894
 5541TIP3    H116568   4.487   7.444   3.956
 5541TIP3    H216569   4.498   7.492   3.813
 5542TIP3   OH216570   8.217   2.047   3.709
 5542TIP3    H116571   8.279   2.116   3.685
 5542TIP3    H216572   8.166   2.031   3.630
 5543TIP3   OH216573   0.118   2.517   6.040
 5543TIP3    H116574   0.034   2.557   6.015
 5543TIP3    H216575   0.181   2.589   6.037
 5544TIP3   OH216576   6.291   0.449   1.114
 5544TIP3    H116577   6.348   0.435   1.039
 5544TIP3    H216578   6.220   0.385   1.103
 5545TIP3   OH216579   0.990   4.885   1.284
 5545TIP3    H116580   1.050   4.945   1.327
 5545TIP3    H216581   1.005   4.801   1.327
 5546TIP3   OH216582   4.468   0.595   3.500
 5546TIP3    H116583   4.468   0.691   3.505
 5546TIP3    H216584   4.406   0.568   3.568
 5547TIP3   OH216585   2.447   5.213   5.893
 5547TIP3    H116586   2.366   5.182   5.853
 5547TIP3    H216587   2.502   5.240   5.820
 5548TIP3   OH216588   6.409   1.937   3.869
 5548TIP3    H116589   6.464   1.877   3.920
 5548TIP3    H216590   6.365   1.991   3.935
 5549TIP3   OH216591   1.993   1.600   4.895
 5549TIP3    H116592   1.936   1.675   4.909
 5549TIP3    H216593   1.934   1.524   4.893
 5550TIP3   OH216594   8.266   5.425   6.683
 5550TIP3    H116595   8.240   5.488   6.616
 5550TIP3    H216596   8.356   5.450   6.705
 5551TIP3   OH216597   1.787   7.223   3.064
 5551TIP3    H116598   1.846   7.274   3.008
 5551TIP3    H216599   1.840   7.202   3.141
 5552TIP3   OH216600   0.549   3.160   4.098
 5552TIP3    H116601   0.613   3.200   4.040
 5552TIP3    H216602   0.562   3.203   4.183
 5553TIP3   OH216603   0.038   4.862   5.896
 5553TIP3    H116604   0.041   4.812   5.977
 5553TIP3    H216605   0.114   4.832   5.846
 5554TIP3   OH216606   7.698   2.376   5.827
 5554TIP3    H116607   7.625   2.429   5.857
 5554TIP3    H216608   7.704   2.305   5.891
 5555TIP3   OH216609   5.150   7.143   2.655
 5555TIP3    H116610   5.067   7.096   2.664
 5555TIP3    H216611   5.217   7.078   2.672
 5556TIP3   OH216612   2.146   3.203   0.825
 5556TIP3    H116613   2.102   3.267   0.882
 5556TIP3    H216614   2.182   3.138   0.885
 5557TIP3   OH216615   4.332   1.676   1.907
 5557TIP3    H116616   4.370   1.613   1.968
 5557TIP3    H216617   4.365   1.649   1.821
 5558TIP3   OH216618   3.792   2.435   1.338
 5558TIP3    H116619   3.864   2.405   1.393
 5558TIP3    H216620   3.758   2.513   1.383
 5559TIP3   OH216621   4.764   7.158   2.551
 5559TIP3    H116622   4.694   7.174   2.614
 5559TIP3    H216623   4.828   7.105   2.599
 5560TIP3   OH216624   0.576   6.621   6.548
 5560TIP3    H116625   0.581   6.615   6.452
 5560TIP3    H216626   0.554   6.533   6.577
 5561TIP3   OH216627   3.751   4.245   2.967
 5561TIP3    H116628   3.825   4.295   3.002
 5561TIP3    H216629   3.725   4.294   2.889
 5562TIP3   OH216630   1.550   5.824   2.149
 5562TIP3    H116631   1.547   5.736   2.112
 5562TIP3    H216632   1.458   5.846   2.166
 5563TIP3   OH216633   7.988   2.632   5.020
 5563TIP3    H116634   7.981   2.682   5.102
 5563TIP3    H216635   7.977   2.698   4.951
 5564TIP3   OH216636   7.752   0.294   5.056
 5564TIP3    H116637   7.765   0.250   4.972
 5564TIP3    H216638   7.756   0.224   5.121
 5565TIP3   OH216639   7.966   0.127   0.248
 5565TIP3    H116640   7.898   0.187   0.280
 5565TIP3    H216641   7.995   0.166   0.165
 5566TIP3   OH216642   1.504   4.780   4.967
 5566TIP3    H116643   1.449   4.785   4.889
 5566TIP3    H216644   1.445   4.795   5.040
 5567TIP3   OH216645   1.668   4.336   3.535
 5567TIP3    H116646   1.630   4.291   3.611
 5567TIP3    H216647   1.687   4.266   3.472
 5568TIP3   OH216648   2.905   3.669   1.789
 5568TIP3    H116649   2.837   3.651   1.854
 5568TIP3    H216650   2.856   3.683   1.707
 5569TIP3   OH216651   3.677   0.817   5.557
 5569TIP3    H116652   3.589   0.856   5.562
 5569TIP3    H216653   3.661   0.723   5.559
 5570TIP3   OH216654   1.244   4.775   6.634
 5570TIP3    H116655   1.263   4.774   6.728
 5570TIP3    H216656   1.216   4.686   6.614
 5571TIP3   OH216657   2.937   5.891   5.214
 5571TIP3    H116658   3.011   5.831   5.206
 5571TIP3    H216659   2.961   5.966   5.160
 5572TIP3   OH216660   3.524   0.667   2.846
 5572TIP3    H116661   3.507   0.613   2.923
 5572TIP3    H216662   3.440   0.708   2.826
 5573TIP3   OH216663   7.880   1.625   1.147
 5573TIP3    H116664   7.884   1.584   1.233
 5573TIP3    H216665   7.824   1.701   1.159
 5574TIP3   OH216666   7.274   7.755   2.441
 5574TIP3    H116667   7.199   7.770   2.500
 5574TIP3    H216668   7.254   7.673   2.396
 5575TIP3   OH216669   3.754   1.154   4.457
 5575TIP3    H116670   3.825   1.192   4.405
 5575TIP3    H216671   3.689   1.127   4.392
 5576TIP3   OH216672   2.002   2.730   1.814
 5576TIP3    H116673   2.041   2.724   1.727
 5576TIP3    H216674   2.030   2.651   1.859
 5577TIP3   OH216675   2.416   0.725   4.965
 5577TIP3    H116676   2.354   0.767   5.024
 5577TIP3    H216677   2.475   0.795   4.939
 5578TIP3   OH216678   3.423   3.592   0.729
 5578TIP3    H116679   3.422   3.613   0.636
 5578TIP3    H216680   3.440   3.676   0.773
 5579TIP3   OH216681   4.815   2.051   6.183
 5579TIP3    H116682   4.823   1.999   6.103
 5579TIP3    H216683   4.808   2.141   6.151
 5580TIP3   OH216684   2.710   1.927   6.641
 5580TIP3    H116685   2.615   1.932   6.641
 5580TIP3    H216686   2.736   1.958   6.728
 5581TIP3   OH216687   5.651   6.519   6.597
 5581TIP3    H116688   5.630   6.605   6.635
 5581TIP3    H216689   5.692   6.540   6.513
 5582TIP3   OH216690   3.410   2.386   0.715
 5582TIP3    H116691   3.455   2.469   0.727
 5582TIP3    H216692   3.457   2.343   0.644
 5583TIP3   OH216693   4.239   2.715   1.313
 5583TIP3    H116694   4.162   2.707   1.369
 5583TIP3    H216695   4.256   2.809   1.308
 5584TIP3   OH216696   3.099   5.901   6.705
 5584TIP3    H116697   3.072   5.920   6.615
 5584TIP3    H216698   3.170   5.962   6.723
 5585TIP3   OH216699   4.465   2.475   4.565
 5585TIP3    H116700   4.375   2.498   4.587
 5585TIP3    H216701   4.469   2.380   4.579
 5586TIP3   OH216702   4.302   4.816   3.672
 5586TIP3    H116703   4.324   4.764   3.594
 5586TIP3    H216704   4.303   4.906   3.641
 5587TIP3   OH216705   4.940   0.303   5.891
 5587TIP3    H116706   4.975   0.217   5.916
 5587TIP3    H216707   4.872   0.320   5.956
 5588TIP3   OH216708   7.982   4.615   0.389
 5588TIP3    H116709   7.957   4.547   0.451
 5588TIP3    H216710   8.021   4.567   0.315
 5589TIP3   OH216711   0.069   2.593   2.508
 5589TIP3    H116712   0.058   2.499   2.491
 5589TIP3    H216713   0.058   2.601   2.603
 5590TIP3   OH216714   1.333   6.433   3.374
 5590TIP3    H116715   1.246   6.458   3.405
 5590TIP3    H216716   1.343   6.342   3.404
 5591TIP3   OH216717   6.449   4.428   6.658
 5591TIP3    H116718   6.423   4.453   6.569
 5591TIP3    H216719   6.520   4.365   6.645
 5592TIP3   OH216720   3.350   1.474   0.337
 5592TIP3    H116721   3.403   1.554   0.339
 5592TIP3    H216722   3.262   1.503   0.358
 5593TIP3   OH216723   2.387   0.222   4.107
 5593TIP3    H116724   2.350   0.310   4.105
 5593TIP3    H216725   2.482   0.236   4.112
 5594TIP3   OH216726   6.358   1.707   1.600
 5594TIP3    H116727   6.304   1.672   1.671
 5594TIP3    H216728   6.295   1.730   1.531
 5595TIP3   OH216729   5.545   2.282   4.960
 5595TIP3    H116730   5.594   2.363   4.948
 5595TIP3    H216731   5.506   2.290   5.047
 5596TIP3   OH216732   2.483   6.327   2.338
 5596TIP3    H116733   2.505   6.397   2.276
 5596TIP3    H216734   2.480   6.248   2.284
 5597TIP3   OH216735   5.274   6.400   5.789
 5597TIP3    H116736   5.345   6.455   5.822
 5597TIP3    H216737   5.224   6.376   5.867
 5598TIP3   OH216738   3.712   1.694   5.270
 5598TIP3    H116739   3.738   1.639   5.344
 5598TIP3    H216740   3.781   1.683   5.206
 5599TIP3   OH216741   6.803   3.309   4.657
 5599TIP3    H116742   6.827   3.295   4.565
 5599TIP3    H216743   6.756   3.230   4.682
 5600TIP3   OH216744   1.127   7.575   5.628
 5600TIP3    H116745   1.154   7.574   5.720
 5600TIP3    H216746   1.189   7.635   5.586
 5601TIP3   OH216747   1.936   3.133   5.816
 5601TIP3    H116748   1.856   3.138   5.765
 5601TIP3    H216749   1.976   3.050   5.791
 5602TIP3   OH216750   1.800   7.113   4.163
 5602TIP3    H116751   1.751   7.039   4.129
 5602TIP3    H216752   1.889   7.080   4.176
 5603TIP3   OH216753   7.618   5.100   0.309
 5603TIP3    H116754   7.635   5.006   0.310
 5603TIP3    H216755   7.553   5.113   0.377
 5604TIP3   OH216756   7.394   7.088   4.227
 5604TIP3    H116757   7.361   7.158   4.284
 5604TIP3    H216758   7.327   7.020   4.230
 5605TIP3   OH216759   0.093   6.560   0.436
 5605TIP3    H116760   0.185   6.537   0.426
 5605TIP3    H216761   0.061   6.571   0.347
 5606TIP3   OH216762   4.873   2.176   5.116
 5606TIP3    H116763   4.927   2.246   5.151
 5606TIP3    H216764   4.839   2.210   5.033
 5607TIP3   OH216765   0.184   2.592   5.452
 5607TIP3    H116766   0.257   2.637   5.409
 5607TIP3    H216767   0.204   2.597   5.545
 5608TIP3   OH216768   3.585   0.524   3.901
 5608TIP3    H116769   3.493   0.521   3.926
 5608TIP3    H216770   3.599   0.614   3.872
 5609TIP3   OH216771   0.659   1.976   3.257
 5609TIP3    H116772   0.720   2.032   3.210
 5609TIP3    H216773   0.572   2.009   3.234
 5610TIP3   OH216774   2.892   6.914   0.017
 5610TIP3    H116775   2.944   6.844   0.056
 5610TIP3    H216776   2.923   6.994   0.060
 5611TIP3   OH216777   0.815   4.493   3.884
 5611TIP3    H116778   0.852   4.581   3.876
 5611TIP3    H216779   0.869   4.439   3.826
 5612TIP3   OH216780   6.005   0.703   5.077
 5612TIP3    H116781   6.057   0.674   5.001
 5612TIP3    H216782   5.932   0.750   5.038
 5613TIP3   OH216783   2.014   3.876   6.639
 5613TIP3    H116784   2.078   3.857   6.709
 5613TIP3    H216785   1.938   3.823   6.662
 5614TIP3   OH216786   1.876   1.035   0.100
 5614TIP3    H116787   1.906   1.079   0.179
 5614TIP3    H216788   1.780   1.034   0.108
 5615TIP3   OH216789   5.742   0.503   2.368
 5615TIP3    H116790   5.819   0.557   2.385
 5615TIP3    H216791   5.670   0.566   2.361
 5616TIP3   OH216792   6.478   0.402   3.461
 5616TIP3    H116793   6.511   0.489   3.441
 5616TIP3    H216794   6.536   0.370   3.530
 5617TIP3   OH216795   7.114   6.534   1.169
 5617TIP3    H116796   7.183   6.485   1.213
 5617TIP3    H216797   7.123   6.623   1.200
 5618TIP3   OH216798   0.468   5.357   6.221
 5618TIP3    H116799   0.548   5.328   6.176
 5618TIP3    H216800   0.499   5.390   6.305
 5619TIP3   OH216801   6.872   0.346   0.175
 5619TIP3    H116802   6.798   0.406   0.181
 5619TIP3    H216803   6.838   0.261   0.203
 5620TIP3   OH216804   6.488   6.506   5.633
 5620TIP3    H116805   6.502   6.440   5.565
 5620TIP3    H216806   6.568   6.504   5.685
 5621TIP3   OH216807   0.334   2.858   2.459
 5621TIP3    H116808   0.312   2.922   2.392
 5621TIP3    H216809   0.393   2.904   2.519
 5622TIP3   OH216810   3.883   3.651   3.675
 5622TIP3    H116811   3.936   3.729   3.691
 5622TIP3    H216812   3.831   3.672   3.597
 5623TIP3   OH216813   3.519   7.445   0.779
 5623TIP3    H116814   3.530   7.407   0.692
 5623TIP3    H216815   3.607   7.455   0.813
 5624TIP3   OH216816   3.937   1.541   5.176
 5624TIP3    H116817   3.986   1.461   5.193
 5624TIP3    H216818   3.997   1.596   5.126
 5625TIP3   OH216819   2.445   5.784   1.606
 5625TIP3    H116820   2.385   5.843   1.559
 5625TIP3    H216821   2.456   5.709   1.547
 5626TIP3   OH216822   3.105   4.614   3.082
 5626TIP3    H116823   3.043   4.610   3.009
 5626TIP3    H216824   3.070   4.682   3.140
 5627TIP3   OH216825   5.322   4.735   2.973
 5627TIP3    H116826   5.287   4.692   3.051
 5627TIP3    H216827   5.337   4.663   2.911
 5628TIP3   OH216828   5.657   3.997   1.502
 5628TIP3    H116829   5.592   4.022   1.437
 5628TIP3    H216830   5.625   4.035   1.584
 5629TIP3   OH216831   7.666   1.936   0.910
 5629TIP3    H116832   7.750   1.969   0.943
 5629TIP3    H216833   7.620   1.905   0.989
 5630TIP3   OH216834  -0.024   7.798   3.375
 5630TIP3    H116835   0.028   7.736   3.426
 5630TIP3    H216836   0.039   7.846   3.321
 5631TIP3   OH216837   1.194   3.930   6.163
 5631TIP3    H116838   1.279   3.973   6.169
 5631TIP3    H216839   1.156   3.962   6.081
 5632TIP3   OH216840   5.967   4.442   3.345
 5632TIP3    H116841   5.914   4.475   3.418
 5632TIP3    H216842   6.042   4.501   3.342
 5633TIP3   OH216843   2.977   6.097   4.996
 5633TIP3    H116844   3.035   6.168   5.025
 5633TIP3    H216845   2.893   6.140   4.980
 5634TIP3   OH216846   5.146   5.004   5.074
 5634TIP3    H116847   5.239   4.997   5.050
 5634TIP3    H216848   5.142   4.968   5.163
 5635TIP3   OH216849   3.289   3.397   6.236
 5635TIP3    H116850   3.376   3.357   6.232
 5635TIP3    H216851   3.288   3.461   6.165
 5636TIP3   OH216852   8.167   4.850   3.332
 5636TIP3    H116853   8.191   4.896   3.413
 5636TIP3    H216854   8.250   4.816   3.298
 5637TIP3   OH216855   1.713   4.068   3.842
 5637TIP3    H116856   1.693   4.041   3.753
 5637TIP3    H216857   1.794   4.118   3.835
 5638TIP3   OH216858   3.004   6.474   5.627
 5638TIP3    H116859   3.057   6.553   5.640
 5638TIP3    H216860   2.932   6.502   5.570
 5639TIP3   OH216861   6.890   0.046   0.793
 5639TIP3    H116862   6.857   0.047   0.883
 5639TIP3    H216863   6.873   0.134   0.761
 5640TIP3   OH216864   5.694   7.416   2.912
 5640TIP3    H116865   5.747   7.476   2.860
 5640TIP3    H216866   5.608   7.458   2.918
 5641TIP3   OH216867   2.084   7.680   5.025
 5641TIP3    H116868   2.096   7.770   4.996
 5641TIP3    H216869   2.170   7.653   5.058
 5642TIP3   OH216870   5.837   7.314   4.924
 5642TIP3    H116871   5.855   7.393   4.974
 5642TIP3    H216872   5.923   7.273   4.912
 5643TIP3   OH216873   5.131   5.560   1.756
 5643TIP3    H116874   5.046   5.527   1.785
 5643TIP3    H216875   5.170   5.597   1.835
 5644TIP3   OH216876   6.682   0.640   2.708
 5644TIP3    H116877   6.766   0.598   2.689
 5644TIP3    H216878   6.657   0.605   2.793
 5645TIP3   OH216879   4.825   6.534   5.637
 5645TIP3    H116880   4.738   6.494   5.639
 5645TIP3    H216881   4.862   6.516   5.723
 5646TIP3   OH216882   6.300   1.406   2.414
 5646TIP3    H116883   6.229   1.469   2.423
 5646TIP3    H216884   6.272   1.349   2.341
 5647TIP3   OH216885   7.386   2.077   4.301
 5647TIP3    H116886   7.387   2.045   4.210
 5647TIP3    H216887   7.321   2.021   4.344
 5648TIP3   OH216888   2.259   0.475   3.892
 5648TIP3    H116889   2.171   0.512   3.882
 5648TIP3    H216890   2.293   0.515   3.972
 5649TIP3   OH216891   0.975   0.108   0.234
 5649TIP3    H116892   0.925   0.189   0.227
 5649TIP3    H216893   0.982   0.091   0.328
 5650TIP3   OH216894   7.945   2.000   3.238
 5650TIP3    H116895   8.024   2.050   3.217
 5650TIP3    H216896   7.955   1.919   3.189
 5651TIP3   OH216897   5.284   1.122   3.816
 5651TIP3    H116898   5.280   1.204   3.866
 5651TIP3    H216899   5.341   1.066   3.868
 5652TIP3   OH216900   4.538   2.021   2.224
 5652TIP3    H116901   4.460   1.975   2.195
 5652TIP3    H216902   4.548   2.094   2.163
 5653TIP3   OH216903   0.498   5.544   1.275
 5653TIP3    H116904   0.504   5.589   1.360
 5653TIP3    H216905   0.555   5.468   1.285
 5654TIP3   OH216906   3.917   4.901   3.193
 5654TIP3    H116907   3.940   4.881   3.102
 5654TIP3    H216908   3.986   4.860   3.245
 5655TIP3   OH216909   5.824   4.451   4.138
 5655TIP3    H116910   5.754   4.517   4.139
 5655TIP3    H216911   5.879   4.474   4.213
 5656TIP3   OH216912   7.192   6.431   1.858
 5656TIP3    H116913   7.138   6.509   1.874
 5656TIP3    H216914   7.261   6.436   1.924
 5657TIP3   OH216915   5.182   4.631   2.627
 5657TIP3    H116916   5.181   4.536   2.634
 5657TIP3    H216917   5.105   4.660   2.676
 5658TIP3   OH216918   8.048   3.994   2.023
 5658TIP3    H116919   8.098   3.931   2.074
 5658TIP3    H216920   7.957   3.975   2.044
 5659TIP3   OH216921   6.296   1.223   2.652
 5659TIP3    H116922   6.288   1.286   2.580
 5659TIP3    H216923   6.303   1.138   2.609
 5660TIP3   OH216924   1.009   7.243   5.880
 5660TIP3    H116925   1.056   7.189   5.943
 5660TIP3    H216926   0.987   7.184   5.808
 5661TIP3   OH216927   7.366   1.010   6.035
 5661TIP3    H116928   7.335   0.954   5.964
 5661TIP3    H216929   7.435   0.959   6.077
 5662TIP3   OH216930   8.179   0.603   0.508
 5662TIP3    H116931   8.186   0.600   0.412
 5662TIP3    H216932   8.105   0.661   0.524
 5663TIP3   OH216933   4.381   7.088   2.962
 5663TIP3    H116934   4.408   7.150   2.894
 5663TIP3    H216935   4.441   7.104   3.035
 5664TIP3   OH216936   0.039   7.822   4.512
 5664TIP3    H116937   0.077   7.735   4.498
 5664TIP3    H216938   0.113   7.876   4.541
 5665TIP3   OH216939   5.406   0.605   0.440
 5665TIP3    H116940   5.433   0.521   0.478
 5665TIP3    H216941   5.367   0.653   0.513
 5666TIP3   OH216942   7.442   6.491   3.788
 5666TIP3    H116943   7.464   6.401   3.761
 5666TIP3    H216944   7.351   6.502   3.762
 5667TIP3   OH216945   1.109   3.387   1.288
 5667TIP3    H116946   1.134   3.313   1.234
 5667TIP3    H216947   1.101   3.461   1.227
 5668TIP3   OH216948   2.872   1.800   1.393
 5668TIP3    H116949   2.797   1.849   1.427
 5668TIP3    H216950   2.859   1.711   1.423
 5669TIP3   OH216951   7.475   3.158   1.782
 5669TIP3    H116952   7.403   3.107   1.744
 5669TIP3    H216953   7.520   3.096   1.840
 5670TIP3   OH216954   4.795   4.157   1.063
 5670TIP3    H116955   4.851   4.181   0.990
 5670TIP3    H216956   4.743   4.084   1.031
 5671TIP3   OH216957   0.255   6.836   5.660
 5671TIP3    H116958   0.293   6.908   5.610
 5671TIP3    H216959   0.311   6.761   5.639
 5672TIP3   OH216960   3.091   2.854   0.392
 5672TIP3    H116961   3.059   2.867   0.481
 5672TIP3    H216962   3.116   2.762   0.389
 5673TIP3   OH216963   1.201   5.382   4.193
 5673TIP3    H116964   1.216   5.467   4.234
 5673TIP3    H216965   1.248   5.320   4.248
 5674TIP3   OH216966   5.672   0.724   2.169
 5674TIP3    H116967   5.727   0.726   2.091
 5674TIP3    H216968   5.586   0.754   2.139
 5675TIP3   OH216969   5.519   1.727   3.732
 5675TIP3    H116970   5.549   1.636   3.731
 5675TIP3    H216971   5.438   1.726   3.681
 5676TIP3   OH216972   8.305   6.983   2.518
 5676TIP3    H116973   8.231   7.044   2.522
 5676TIP3    H216974   8.322   6.972   2.424
 5677TIP3   OH216975   7.362   2.338   0.608
 5677TIP3    H116976   7.436   2.283   0.632
 5677TIP3    H216977   7.285   2.283   0.624
 5678TIP3   OH216978   6.057   3.535   2.288
 5678TIP3    H116979   5.971   3.559   2.254
 5678TIP3    H216980   6.081   3.456   2.239
 5679TIP3   OH216981   6.645   3.063   1.469
 5679TIP3    H116982   6.637   3.123   1.395
 5679TIP3    H216983   6.629   2.976   1.431
 5680TIP3   OH216984   7.816   4.127   3.288
 5680TIP3    H116985   7.757   4.164   3.223
 5680TIP3    H216986   7.758   4.080   3.348
 5681TIP3   OH216987   3.482   6.594   1.313
 5681TIP3    H116988   3.472   6.675   1.262
 5681TIP3    H216989   3.439   6.528   1.260
 5682TIP3   OH216990   6.721   5.673   1.088
 5682TIP3    H116991   6.663   5.596   1.093
 5682TIP3    H216992   6.675   5.733   1.030
 5683TIP3   OH216993   2.302   2.072   2.941
 5683TIP3    H116994   2.289   2.075   2.847
 5683TIP3    H216995   2.363   2.000   2.955
 5684TIP3   OH216996   7.424   2.264   3.093
 5684TIP3    H116997   7.479   2.219   3.158
 5684TIP3    H216998   7.355   2.305   3.145
 5685TIP3   OH216999   7.334   6.055   2.437
 5685TIP3    H117000   7.291   5.992   2.494
 5685TIP3    H217001   7.416   6.013   2.412
 5686TIP3   OH217002   4.206   4.082   1.707
 5686TIP3    H117003   4.199   4.177   1.694
 5686TIP3    H217004   4.291   4.070   1.750
 5687TIP3   OH217005   1.213   3.706   5.428
 5687TIP3    H117006   1.197   3.797   5.452
 5687TIP3    H217007   1.155   3.689   5.355
 5688TIP3   OH217008   8.004   6.581   1.783
 5688TIP3    H117009   7.978   6.585   1.875
 5688TIP3    H217010   7.932   6.622   1.736
 5689TIP3   OH217011   1.470   3.499   3.643
 5689TIP3    H117012   1.431   3.583   3.668
 5689TIP3    H217013   1.397   3.448   3.608
 5690TIP3   OH217014   5.747   1.738   5.012
 5690TIP3    H117015   5.777   1.829   5.015
 5690TIP3    H217016   5.668   1.737   5.066
 5691TIP3   OH217017   7.566   1.771   6.686
 5691TIP3    H117018   7.496   1.787   6.622
 5691TIP3    H217019   7.581   1.856   6.727
 5692TIP3   OH217020   1.473   6.521   3.140
 5692TIP3    H117021   1.446   6.504   3.230
 5692TIP3    H217022   1.445   6.611   3.123
 5693TIP3   OH217023   6.118   4.708   1.622
 5693TIP3    H117024   6.195   4.700   1.566
 5693TIP3    H217025   6.071   4.626   1.610
 5694TIP3   OH217026   4.301   6.980   1.735
 5694TIP3    H117027   4.260   6.914   1.678
 5694TIP3    H217028   4.389   6.947   1.751
 5695TIP3   OH217029   7.547   7.217   4.806
 5695TIP3    H117030   7.590   7.270   4.873
 5695TIP3    H217031   7.460   7.255   4.798
 5696TIP3   OH217032   6.943   5.161   3.236
 5696TIP3    H117033   7.020   5.111   3.263
 5696TIP3    H217034   6.907   5.111   3.162
 5697TIP3   OH217035   5.967   5.199   5.739
 5697TIP3    H117036   5.975   5.250   5.820
 5697TIP3    H217037   6.040   5.229   5.685
 5698TIP3   OH217038   0.241   7.428   3.319
 5698TIP3    H117039   0.256   7.360   3.254
 5698TIP3    H217040   0.150   7.414   3.348
 5699TIP3   OH217041   8.076   5.150   4.109
 5699TIP3    H117042   8.078   5.054   4.102
 5699TIP3    H217043   8.062   5.167   4.202
 5700TIP3   OH217044   7.934   3.726   0.631
 5700TIP3    H117045   7.926   3.726   0.535
 5700TIP3    H217046   7.972   3.641   0.652
 5701TIP3   OH217047   1.640   3.440   3.873
 5701TIP3    H117048   1.681   3.525   3.858
 5701TIP3    H217049   1.594   3.421   3.791
 5702TIP3   OH217050   4.452   4.817   3.435
 5702TIP3    H117051   4.519   4.872   3.475
 5702TIP3    H217052   4.397   4.878   3.387
 5703TIP3   OH217053   7.034   5.682   2.536
 5703TIP3    H117054   7.079   5.689   2.452
 5703TIP3    H217055   6.968   5.614   2.523
 5704TIP3   OH217056   1.975   5.829   1.568
 5704TIP3    H117057   2.036   5.755   1.575
 5704TIP3    H217058   1.913   5.803   1.500
 5705TIP3   OH217059   2.655   7.552   3.119
 5705TIP3    H117060   2.574   7.600   3.134
 5705TIP3    H217061   2.691   7.590   3.038
 5706TIP3   OH217062   6.545   3.312   3.641
 5706TIP3    H117063   6.551   3.405   3.620
 5706TIP3    H217064   6.542   3.309   3.737
 5707TIP3   OH217065   4.689   1.632   0.085
 5707TIP3    H117066   4.733   1.706   0.126
 5707TIP3    H217067   4.741   1.556   0.111
 5708TIP3   OH217068   1.971   6.110   2.897
 5708TIP3    H117069   2.064   6.133   2.886
 5708TIP3    H217070   1.935   6.115   2.808
 5709TIP3   OH217071   6.662   4.555   2.076
 5709TIP3    H117072   6.672   4.501   2.154
 5709TIP3    H217073   6.744   4.545   2.028
 5710TIP3   OH217074   0.533   3.014   2.581
 5710TIP3    H117075   0.555   3.089   2.635
 5710TIP3    H217076   0.539   3.046   2.491
 5711TIP3   OH217077   5.626   3.560   6.456
 5711TIP3    H117078   5.660   3.591   6.372
 5711TIP3    H217079   5.637   3.635   6.515
 5712TIP3   OH217080   1.659   4.070   0.846
 5712TIP3    H117081   1.700   4.090   0.930
 5712TIP3    H217082   1.732   4.049   0.788
 5713TIP3   OH217083   2.492   2.614   0.213
 5713TIP3    H117084   2.553   2.686   0.225
 5713TIP3    H217085   2.457   2.598   0.300
 5714TIP3   OH217086   5.955   6.104   6.339
 5714TIP3    H117087   5.945   6.010   6.352
 5714TIP3    H217088   6.007   6.133   6.413
 5715TIP3   OH217089   6.254   3.228   0.378
 5715TIP3    H117090   6.316   3.160   0.405
 5715TIP3    H217091   6.274   3.242   0.285
 5716TIP3   OH217092   8.153   0.271   2.701
 5716TIP3    H117093   8.248   0.275   2.715
 5716TIP3    H217094   8.143   0.277   2.606
 5717TIP3   OH217095   0.422   5.745   5.979
 5717TIP3    H117096   0.376   5.665   6.005
 5717TIP3    H217097   0.479   5.717   5.907
 5718TIP3   OH217098   2.806   5.607   6.634
 5718TIP3    H117099   2.760   5.537   6.681
 5718TIP3    H217100   2.746   5.630   6.563
 5719TIP3   OH217101   1.775   0.713   2.554
 5719TIP3    H117102   1.766   0.803   2.524
 5719TIP3    H217103   1.783   0.720   2.650
 5720TIP3   OH217104   7.746   0.057   1.110
 5720TIP3    H117105   7.793  -0.026   1.121
 5720TIP3    H217106   7.740   0.092   1.199
 5721TIP3   OH217107   5.551   7.418   5.257
 5721TIP3    H117108   5.523   7.506   5.230
 5721TIP3    H217109   5.622   7.433   5.319
 5722TIP3   OH217110   6.513   3.276   5.283
 5722TIP3    H117111   6.567   3.198   5.289
 5722TIP3    H217112   6.545   3.333   5.353
 5723TIP3   OH217113   4.961   2.861   5.277
 5723TIP3    H117114   4.886   2.921   5.264
 5723TIP3    H217115   4.933   2.779   5.236
 5724TIP3   OH217116   3.907   0.346   6.049
 5724TIP3    H117117   3.886   0.283   6.117
 5724TIP3    H217118   3.894   0.299   5.967
 5725TIP3   OH217119   2.718   6.912   2.443
 5725TIP3    H117120   2.659   6.963   2.499
 5725TIP3    H217121   2.715   6.824   2.480
 5726TIP3   OH217122   7.368   0.259   4.415
 5726TIP3    H117123   7.279   0.262   4.380
 5726TIP3    H217124   7.420   0.313   4.355
 5727TIP3   OH217125   5.007   6.976   5.337
 5727TIP3    H117126   4.939   7.022   5.288
 5727TIP3    H217127   4.958   6.915   5.393
 5728TIP3   OH217128   5.208   1.832   1.900
 5728TIP3    H117129   5.122   1.792   1.911
 5728TIP3    H217130   5.226   1.828   1.806
 5729TIP3   OH217131   4.081   1.984   2.944
 5729TIP3    H117132   4.064   2.071   2.981
 5729TIP3    H217133   4.130   1.938   3.012
 5730TIP3   OH217134   0.718   4.956   5.395
 5730TIP3    H117135   0.751   4.926   5.480
 5730TIP3    H217136   0.796   4.974   5.343
 5731TIP3   OH217137   2.255   3.787   3.239
 5731TIP3    H117138   2.331   3.777   3.295
 5731TIP3    H217139   2.272   3.866   3.188
 5732TIP3   OH217140   7.436   7.275   1.469
 5732TIP3    H117141   7.440   7.312   1.380
 5732TIP3    H217142   7.404   7.347   1.523
 5733TIP3   OH217143   3.305   7.405   6.362
 5733TIP3    H117144   3.305   7.309   6.356
 5733TIP3    H217145   3.236   7.425   6.425
 5734TIP3   OH217146   6.174   4.177   3.991
 5734TIP3    H117147   6.105   4.111   3.996
 5734TIP3    H217148   6.158   4.222   3.908
 5735TIP3   OH217149   5.121   7.546   4.192
 5735TIP3    H117150   5.200   7.570   4.142
 5735TIP3    H217151   5.155   7.508   4.273
 5736TIP3   OH217152   3.156   2.286   2.672
 5736TIP3    H117153   3.229   2.227   2.688
 5736TIP3    H217154   3.119   2.303   2.759
 5737TIP3   OH217155   1.240   2.083   2.586
 5737TIP3    H117156   1.316   2.088   2.528
 5737TIP3    H217157   1.271   2.120   2.669
 5738TIP3   OH217158   6.904   3.822   4.536
 5738TIP3    H117159   6.857   3.752   4.491
 5738TIP3    H217160   6.988   3.783   4.561
 5739TIP3   OH217161   4.336   7.305   1.820
 5739TIP3    H117162   4.399   7.301   1.892
 5739TIP3    H217163   4.298   7.217   1.816
 5740TIP3   OH217164   0.090   3.254   0.869
 5740TIP3    H117165   0.009   3.304   0.858
 5740TIP3    H217166   0.156   3.320   0.891
 5741TIP3   OH217167   8.155   0.283   2.398
 5741TIP3    H117168   8.089   0.327   2.346
 5741TIP3    H217169   8.236   0.292   2.347
 5742TIP3   OH217170   6.407   3.195   3.438
 5742TIP3    H117171   6.460   3.241   3.504
 5742TIP3    H217172   6.406   3.104   3.467
 5743TIP3   OH217173   6.433   2.580   6.088
 5743TIP3    H117174   6.524   2.554   6.105
 5743TIP3    H217175   6.381   2.508   6.123
 5744TIP3   OH217176   0.358   0.853   5.793
 5744TIP3    H117177   0.356   0.805   5.875
 5744TIP3    H217178   0.430   0.915   5.803
 5745TIP3   OH217179   3.791   7.216   0.488
 5745TIP3    H117180   3.817   7.198   0.578
 5745TIP3    H217181   3.849   7.163   0.435
 5746TIP3   OH217182   4.869   6.735   4.364
 5746TIP3    H117183   4.807   6.673   4.403
 5746TIP3    H217184   4.830   6.758   4.279
 5747TIP3   OH217185   2.570   0.546   1.031
 5747TIP3    H117186   2.649   0.540   1.085
 5747TIP3    H217187   2.539   0.636   1.045
 5748TIP3   OH217188   4.159   2.746   5.040
 5748TIP3    H117189   4.094   2.789   4.985
 5748TIP3    H217190   4.238   2.741   4.985
 5749TIP3   OH217191   7.081   1.735   0.357
 5749TIP3    H117192   7.050   1.796   0.290
 5749TIP3    H217193   7.171   1.764   0.376
 5750TIP3   OH217194   7.647   1.779   1.145
 5750TIP3    H117195   7.573   1.721   1.129
 5750TIP3    H217196   7.631   1.816   1.232
 5751TIP3   OH217197   3.588   4.003   1.515
 5751TIP3    H117198   3.615   3.985   1.605
 5751TIP3    H217199   3.581   3.917   1.474
 5752TIP3   OH217200   6.121   4.215   5.211
 5752TIP3    H117201   6.192   4.218   5.274
 5752TIP3    H217202   6.141   4.284   5.148
 5753TIP3   OH217203   7.644   1.859   6.269
 5753TIP3    H117204   7.676   1.770   6.256
 5753TIP3    H217205   7.575   1.850   6.335
 5754TIP3   OH217206   0.774   2.786   1.080
 5754TIP3    H117207   0.691   2.744   1.102
 5754TIP3    H217208   0.837   2.714   1.079
 5755TIP3   OH217209   4.313   1.429   2.005
 5755TIP3    H117210   4.246   1.433   1.937
 5755TIP3    H217211   4.264   1.416   2.086
 5756TIP3   OH217212   5.669   1.999   6.115
 5756TIP3    H117213   5.627   1.948   6.046
 5756TIP3    H217214   5.702   1.935   6.177
 5757TIP3   OH217215   5.282   2.206   6.680
 5757TIP3    H117216   5.345   2.135   6.694
 5757TIP3    H217217   5.248   2.191   6.592
 5758TIP3   OH217218   6.031   5.182   2.437
 5758TIP3    H117219   6.069   5.247   2.497
 5758TIP3    H217220   6.093   5.110   2.437
 5759TIP3   OH217221  -0.005   1.477   5.996
 5759TIP3    H117222  -0.058   1.423   5.938
 5759TIP3    H217223   0.078   1.486   5.950
 5760TIP3   OH217224   3.874   6.463   5.793
 5760TIP3    H117225   3.785   6.493   5.773
 5760TIP3    H217226   3.901   6.518   5.866
 5761TIP3   OH217227   7.915   4.318   6.101
 5761TIP3    H117228   7.881   4.244   6.151
 5761TIP3    H217229   8.008   4.299   6.089
 5762TIP3   OH217230   3.752   7.451   5.969
 5762TIP3    H117231   3.817   7.414   6.029
 5762TIP3    H217232   3.780   7.422   5.883
 5763TIP3   OH217233   3.201   3.884   6.238
 5763TIP3    H117234   3.288   3.914   6.264
 5763TIP3    H217235   3.150   3.882   6.319
 5764TIP3   OH217236   0.647   1.589   3.911
 5764TIP3    H117237   0.642   1.521   3.979
 5764TIP3    H217238   0.639   1.671   3.959
 5765TIP3   OH217239   4.824   0.704   6.676
 5765TIP3    H117240   4.895   0.646   6.701
 5765TIP3    H217241   4.821   0.770   6.746
 5766TIP3   OH217242   6.143   3.458   4.254
 5766TIP3    H117243   6.159   3.544   4.292
 5766TIP3    H217244   6.113   3.405   4.328
 5767TIP3   OH217245   0.364   1.051   1.817
 5767TIP3    H117246   0.408   1.109   1.755
 5767TIP3    H217247   0.382   0.963   1.785
 5768TIP3   OH217248   3.314   7.311   0.927
 5768TIP3    H117249   3.267   7.382   0.970
 5768TIP3    H217250   3.378   7.355   0.871
 5769TIP3   OH217251   7.967   3.344   5.654
 5769TIP3    H117252   7.964   3.390   5.571
 5769TIP3    H217253   8.006   3.259   5.634
 5770TIP3   OH217254   7.411   7.734   6.773
 5770TIP3    H117255   7.383   7.649   6.808
 5770TIP3    H217256   7.344   7.758   6.709
 5771TIP3   OH217257   7.660   0.376   6.544
 5771TIP3    H117258   7.624   0.322   6.613
 5771TIP3    H217259   7.645   0.466   6.573
 5772TIP3   OH217260   3.835   2.599   5.604
 5772TIP3    H117261   3.909   2.655   5.583
 5772TIP3    H217262   3.765   2.660   5.630
 5773TIP3   OH217263   7.500   6.956   3.288
 5773TIP3    H117264   7.422   6.903   3.274
 5773TIP3    H217265   7.466   7.039   3.320
 5774TIP3   OH217266   6.456   3.556   5.575
 5774TIP3    H117267   6.491   3.591   5.493
 5774TIP3    H217268   6.361   3.567   5.567
 5775TIP3   OH217269   6.543   3.180   1.234
 5775TIP3    H117270   6.508   3.265   1.206
 5775TIP3    H217271   6.474   3.118   1.212
 5776TIP3   OH217272   4.143   0.107   4.192
 5776TIP3    H117273   4.179   0.094   4.280
 5776TIP3    H217274   4.048   0.097   4.204
 5777TIP3   OH217275   3.613   1.187   0.892
 5777TIP3    H117276   3.705   1.181   0.919
 5777TIP3    H217277   3.617   1.190   0.796
 5778TIP3   OH217278   5.799   4.563   4.922
 5778TIP3    H117279   5.881   4.545   4.875
 5778TIP3    H217280   5.827   4.605   5.003
 5779TIP3   OH217281   7.282   1.109   0.086
 5779TIP3    H117282   7.276   1.043   0.155
 5779TIP3    H217283   7.341   1.072   0.021
 5780TIP3   OH217284   5.860   7.592   1.847
 5780TIP3    H117285   5.878   7.501   1.872
 5780TIP3    H217286   5.920   7.610   1.775
 5781TIP3   OH217287   5.090   1.140   2.927
 5781TIP3    H117288   5.059   1.050   2.914
 5781TIP3    H217289   5.114   1.144   3.020
 5782TIP3   OH217290   7.307   0.383   3.484
 5782TIP3    H117291   7.351   0.369   3.567
 5782TIP3    H217292   7.362   0.447   3.438
 5783TIP3   OH217293   1.664   2.308   4.101
 5783TIP3    H117294   1.655   2.393   4.060
 5783TIP3    H217295   1.578   2.267   4.093
 5784TIP3   OH217296   4.275   5.237   5.302
 5784TIP3    H117297   4.201   5.213   5.246
 5784TIP3    H217298   4.339   5.276   5.242
 5785TIP3   OH217299   5.642   0.340   2.175
 5785TIP3    H117300   5.680   0.391   2.246
 5785TIP3    H217301   5.647   0.249   2.205
 5786TIP3   OH217302   0.970   7.746   6.736
 5786TIP3    H117303   1.028   7.818   6.712
 5786TIP3    H217304   1.020   7.667   6.714
 5787TIP3   OH217305   5.612   6.603   4.275
 5787TIP3    H117306   5.660   6.651   4.343
 5787TIP3    H217307   5.520   6.625   4.291
 5788TIP3   OH217308   5.799   2.401   3.329
 5788TIP3    H117309   5.722   2.445   3.292
 5788TIP3    H217310   5.854   2.472   3.362
 5789TIP3   OH217311   4.257   3.669   1.079
 5789TIP3    H117312   4.281   3.749   1.124
 5789TIP3    H217313   4.195   3.625   1.136
 5790TIP3   OH217314   7.760   5.966   4.474
 5790TIP3    H117315   7.753   5.896   4.539
 5790TIP3    H217316   7.852   5.994   4.479
 5791TIP3   OH217317   2.343   1.667   3.816
 5791TIP3    H117318   2.342   1.709   3.730
 5791TIP3    H217319   2.265   1.611   3.816
 5792TIP3   OH217320   2.809   4.991   3.789
 5792TIP3    H117321   2.894   5.032   3.772
 5792TIP3    H217322   2.809   4.913   3.733
 5793TIP3   OH217323   0.885   0.725   3.152
 5793TIP3    H117324   0.818   0.733   3.220
 5793TIP3    H217325   0.935   0.806   3.158
 5794TIP3   OH217326   6.033   1.132   3.124
 5794TIP3    H117327   6.041   1.132   3.029
 5794TIP3    H217328   6.060   1.044   3.151
 5795TIP3   OH217329   3.621   2.102   0.889
 5795TIP3    H117330   3.595   2.153   0.965
 5795TIP3    H217331   3.554   2.035   0.880
 5796TIP3   OH217332   3.468   0.231   1.592
 5796TIP3    H117333   3.561   0.219   1.570
 5796TIP3    H217334   3.455   0.180   1.672
 5797TIP3   OH217335   2.034   6.730   5.840
 5797TIP3    H117336   1.949   6.749   5.802
 5797TIP3    H217337   2.058   6.644   5.806
 5798TIP3   OH217338   8.183   5.609   2.516
 5798TIP3    H117339   8.094   5.607   2.551
 5798TIP3    H217340   8.173   5.596   2.422
 5799TIP3   OH217341   1.470   4.754   1.873
 5799TIP3    H117342   1.529   4.829   1.869
 5799TIP3    H217343   1.476   4.715   1.786
 5800TIP3   OH217344   6.036   5.008   5.109
 5800TIP3    H117345   6.127   5.031   5.090
 5800TIP3    H217346   6.041   4.931   5.166
 5801TIP3   OH217347   2.160   6.617   3.858
 5801TIP3    H117348   2.129   6.556   3.925
 5801TIP3    H217349   2.210   6.562   3.798
 5802TIP3   OH217350   5.179   6.360   2.957
 5802TIP3    H117351   5.222   6.280   2.985
 5802TIP3    H217352   5.207   6.373   2.867
 5803TIP3   OH217353   0.223   1.212   6.436
 5803TIP3    H117354   0.251   1.261   6.359
 5803TIP3    H217355   0.301   1.165   6.465
 5804TIP3   OH217356   3.200   3.211   5.625
 5804TIP3    H117357   3.141   3.236   5.697
 5804TIP3    H217358   3.288   3.225   5.661
 5805TIP3   OH217359   0.354   1.660   2.414
 5805TIP3    H117360   0.419   1.696   2.475
 5805TIP3    H217361   0.394   1.672   2.328
 5806TIP3   OH217362   0.744   3.623   2.387
 5806TIP3    H117363   0.697   3.663   2.313
 5806TIP3    H217364   0.677   3.608   2.453
 5807TIP3   OH217365   4.668   0.371   0.769
 5807TIP3    H117366   4.577   0.400   0.760
 5807TIP3    H217367   4.718   0.453   0.773
 5808TIP3   OH217368   4.620   0.564   4.771
 5808TIP3    H117369   4.653   0.648   4.741
 5808TIP3    H217370   4.698   0.511   4.788
 5809TIP3   OH217371   7.326   1.628   3.335
 5809TIP3    H117372   7.364   1.549   3.298
 5809TIP3    H217373   7.251   1.648   3.278
 5810TIP3   OH217374   3.220   6.698   3.766
 5810TIP3    H117375   3.272   6.712   3.845
 5810TIP3    H217376   3.215   6.784   3.725
 5811TIP3   OH217377   6.572   0.568   1.401
 5811TIP3    H117378   6.643   0.570   1.337
 5811TIP3    H217379   6.515   0.642   1.376
 5812TIP3   OH217380   6.595   2.338   1.059
 5812TIP3    H117381   6.648   2.416   1.079
 5812TIP3    H217382   6.634   2.302   0.979
 5813TIP3   OH217383   2.510   2.284   6.037
 5813TIP3    H117384   2.606   2.284   6.029
 5813TIP3    H217385   2.481   2.218   5.974
 5814TIP3   OH217386   6.455   4.795   6.688
 5814TIP3    H117387   6.483   4.858   6.621
 5814TIP3    H217388   6.476   4.710   6.651
 5815TIP3   OH217389   4.207   7.186   3.986
 5815TIP3    H117390   4.138   7.194   3.920
 5815TIP3    H217391   4.288   7.186   3.935
 5816TIP3   OH217392   1.242   5.797   6.384
 5816TIP3    H117393   1.257   5.735   6.312
 5816TIP3    H217394   1.149   5.816   6.380
 5817TIP3   OH217395   1.098   1.587   6.561
 5817TIP3    H117396   1.164   1.653   6.583
 5817TIP3    H217397   1.145   1.523   6.507
 5818TIP3   OH217398   4.191   1.848   2.557
 5818TIP3    H117399   4.209   1.758   2.585
 5818TIP3    H217400   4.140   1.838   2.477
 5819TIP3   OH217401   6.420   6.267   0.459
 5819TIP3    H117402   6.501   6.316   0.470
 5819TIP3    H217403   6.435   6.214   0.381
 5820TIP3   OH217404   2.398   6.463   3.401
 5820TIP3    H117405   2.375   6.466   3.494
 5820TIP3    H217406   2.472   6.403   3.396
 5821TIP3   OH217407   3.120   2.918   1.210
 5821TIP3    H117408   3.104   3.012   1.201
 5821TIP3    H217409   3.068   2.892   1.286
 5822TIP3   OH217410   6.761   5.286   6.305
 5822TIP3    H117411   6.779   5.193   6.292
 5822TIP3    H217412   6.847   5.325   6.321
 5823TIP3   OH217413   5.600   5.762   0.825
 5823TIP3    H117414   5.511   5.736   0.849
 5823TIP3    H217415   5.609   5.852   0.857
 5824TIP3   OH217416   3.509   0.623   6.199
 5824TIP3    H117417   3.562   0.582   6.267
 5824TIP3    H217418   3.484   0.551   6.142
 5825TIP3   OH217419   7.053   3.362   5.348
 5825TIP3    H117420   6.972   3.370   5.399
 5825TIP3    H217421   7.073   3.451   5.320
 5826TIP3   OH217422   3.023   4.445   3.585
 5826TIP3    H117423   3.076   4.524   3.596
 5826TIP3    H217424   3.028   4.426   3.491
 5827TIP3   OH217425   7.761   6.554   1.234
 5827TIP3    H117426   7.674   6.561   1.196
 5827TIP3    H217427   7.804   6.636   1.209
 5828TIP3   OH217428   2.020   3.147   1.184
 5828TIP3    H117429   2.029   3.091   1.261
 5828TIP3    H217430   2.101   3.132   1.134
 5829TIP3   OH217431   7.541   6.473   1.771
 5829TIP3    H117432   7.613   6.448   1.713
 5829TIP3    H217433   7.481   6.523   1.715
 5830TIP3   OH217434   2.127   1.669   1.888
 5830TIP3    H117435   2.132   1.584   1.845
 5830TIP3    H217436   2.103   1.730   1.818
 5831TIP3   OH217437   7.977   2.174   0.339
 5831TIP3    H117438   7.941   2.104   0.284
 5831TIP3    H217439   7.905   2.236   0.347
 5832TIP3   OH217440   6.137   6.992   0.604
 5832TIP3    H117441   6.067   7.055   0.588
 5832TIP3    H217442   6.163   7.008   0.695
 5833TIP3   OH217443   1.470   1.364   5.837
 5833TIP3    H117444   1.478   1.424   5.762
 5833TIP3    H217445   1.435   1.283   5.799
 5834TIP3   OH217446   1.896   4.699   3.005
 5834TIP3    H117447   1.937   4.764   2.947
 5834TIP3    H217448   1.848   4.752   3.069
 5835TIP3   OH217449   0.606   1.000   4.484
 5835TIP3    H117450   0.657   0.964   4.557
 5835TIP3    H217451   0.653   0.973   4.405
 5836TIP3   OH217452   6.219   0.907   5.221
 5836TIP3    H117453   6.276   0.887   5.147
 5836TIP3    H217454   6.142   0.851   5.208
 5837TIP3   OH217455   4.837   4.258   6.572
 5837TIP3    H117456   4.891   4.219   6.641
 5837TIP3    H217457   4.753   4.275   6.614
 5838TIP3   OH217458   4.656   3.787   1.639
 5838TIP3    H117459   4.631   3.783   1.546
 5838TIP3    H217460   4.609   3.863   1.673
 5839TIP3   OH217461   0.366   0.110   2.837
 5839TIP3    H117462   0.412   0.170   2.778
 5839TIP3    H217463   0.419   0.109   2.917
 5840TIP3   OH217464   7.724   6.437   5.970
 5840TIP3    H117465   7.722   6.439   6.066
 5840TIP3    H217466   7.700   6.525   5.944
 5841TIP3   OH217467   3.160   4.102   1.410
 5841TIP3    H117468   3.233   4.094   1.349
 5841TIP3    H217469   3.082   4.088   1.356
 5842TIP3   OH217470   7.509   5.801   5.134
 5842TIP3    H117471   7.590   5.754   5.114
 5842TIP3    H217472   7.527   5.848   5.215
 5843TIP3   OH217473   5.660   4.336   5.568
 5843TIP3    H117474   5.727   4.327   5.500
 5843TIP3    H217475   5.584   4.288   5.534
 5844TIP3   OH217476   0.837   2.164   6.647
 5844TIP3    H117477   0.797   2.211   6.574
 5844TIP3    H217478   0.904   2.109   6.606
 5845TIP3   OH217479   1.154   6.759   1.613
 5845TIP3    H117480   1.116   6.771   1.700
 5845TIP3    H217481   1.128   6.671   1.587
 5846TIP3   OH217482   4.937   4.579   3.088
 5846TIP3    H117483   4.973   4.492   3.071
 5846TIP3    H217484   4.845   4.572   3.061
 5847TIP3   OH217485   7.980   5.166   3.318
 5847TIP3    H117486   8.026   5.111   3.381
 5847TIP3    H217487   8.008   5.134   3.233
 5848TIP3   OH217488   4.256   0.458   1.039
 5848TIP3    H117489   4.172   0.445   1.084
 5848TIP3    H217490   4.308   0.382   1.063
 5849TIP3   OH217491   2.970   7.456   4.233
 5849TIP3    H117492   3.010   7.543   4.233
 5849TIP3    H217493   2.886   7.469   4.189
 5850TIP3   OH217494   1.971   4.859   5.271
 5850TIP3    H117495   2.037   4.865   5.203
 5850TIP3    H217496   1.889   4.882   5.227
 5851TIP3   OH217497   6.719   5.829   4.573
 5851TIP3    H117498   6.702   5.900   4.511
 5851TIP3    H217499   6.644   5.770   4.563
 5852TIP3   OH217500   8.242   4.293   4.793
 5852TIP3    H117501   8.261   4.263   4.882
 5852TIP3    H217502   8.147   4.281   4.784
 5853TIP3   OH217503   6.007   5.290   3.266
 5853TIP3    H117504   6.095   5.255   3.275
 5853TIP3    H217505   6.008   5.370   3.320
 5854TIP3   OH217506   2.151   1.460   5.590
 5854TIP3    H117507   2.165   1.397   5.520
 5854TIP3    H217508   2.179   1.544   5.554
 5855TIP3   OH217509   5.485   1.018   6.433
 5855TIP3    H117510   5.557   1.039   6.372
 5855TIP3    H217511   5.479   0.923   6.432
 5856TIP3   OH217512   0.901   5.185   2.872
 5856TIP3    H117513   0.863   5.117   2.928
 5856TIP3    H217514   0.835   5.254   2.869
 5857TIP3   OH217515   5.424   0.329   3.002
 5857TIP3    H117516   5.395   0.415   2.972
 5857TIP3    H217517   5.511   0.344   3.038
 5858TIP3   OH217518   4.138   3.651   2.347
 5858TIP3    H117519   4.049   3.646   2.384
 5858TIP3    H217520   4.124   3.676   2.255
 5859TIP3   OH217521   5.500   6.848   5.775
 5859TIP3    H117522   5.492   6.773   5.715
 5859TIP3    H217523   5.593   6.850   5.797
 5860TIP3   OH217524   7.106   2.550   4.904
 5860TIP3    H117525   7.129   2.475   4.849
 5860TIP3    H217526   7.065   2.612   4.844
 5861TIP3   OH217527   4.305   5.738   2.083
 5861TIP3    H117528   4.285   5.692   2.164
 5861TIP3    H217529   4.401   5.735   2.076
 5862TIP3   OH217530   7.160   0.556   2.714
 5862TIP3    H117531   7.186   0.626   2.654
 5862TIP3    H217532   7.213   0.570   2.792
 5863TIP3   OH217533   1.822   6.063   1.600
 5863TIP3    H117534   1.797   6.104   1.517
 5863TIP3    H217535   1.877   5.989   1.574
 5864TIP3   OH217536   6.693   4.463   4.113
 5864TIP3    H117537   6.736   4.447   4.197
 5864TIP3    H217538   6.756   4.431   4.048
 5865TIP3   OH217539   3.395   5.003   4.896
 5865TIP3    H117540   3.474   5.030   4.943
 5865TIP3    H217541   3.357   5.085   4.864
 5866TIP3   OH217542   1.865   1.548   0.171
 5866TIP3    H117543   1.826   1.634   0.154
 5866TIP3    H217544   1.841   1.495   0.095
 5867TIP3   OH217545   8.091   1.956   4.594
 5867TIP3    H117546   8.107   2.008   4.516
 5867TIP3    H217547   8.157   1.985   4.657
 5868TIP3   OH217548   6.468   2.284   5.534
 5868TIP3    H117549   6.419   2.229   5.472
 5868TIP3    H217550   6.467   2.235   5.616
 5869TIP3   OH217551   0.465   4.577   0.186
 5869TIP3    H117552   0.510   4.548   0.265
 5869TIP3    H217553   0.536   4.602   0.126
 5870TIP3   OH217554   7.233   1.532   5.545
 5870TIP3    H117555   7.299   1.463   5.550
 5870TIP3    H217556   7.159   1.498   5.594
 5871TIP3   OH217557   6.755   0.601   6.517
 5871TIP3    H117558   6.769   0.588   6.611
 5871TIP3    H217559   6.809   0.533   6.476
 5872TIP3   OH217560   0.522   6.328   1.253
 5872TIP3    H117561   0.483   6.248   1.288
 5872TIP3    H217562   0.448   6.385   1.233
 5873TIP3   OH217563   2.109   1.991   4.674
 5873TIP3    H117564   2.094   1.945   4.756
 5873TIP3    H217565   2.168   2.063   4.697
 5874TIP3   OH217566   0.631   1.864   1.240
 5874TIP3    H117567   0.607   1.896   1.327
 5874TIP3    H217568   0.696   1.795   1.257
 5875TIP3   OH217569   6.054   3.414   0.322
 5875TIP3    H117570   6.136   3.372   0.348
 5875TIP3    H217571   6.081   3.491   0.272
 5876TIP3   OH217572   2.893   4.885   2.122
 5876TIP3    H117573   2.981   4.887   2.160
 5876TIP3    H217574   2.834   4.891   2.197
 5877TIP3   OH217575   5.105   0.175   6.416
 5877TIP3    H117576   5.102   0.087   6.454
 5877TIP3    H217577   5.018   0.211   6.431
 5878TIP3   OH217578   6.729   1.612   1.910
 5878TIP3    H117579   6.678   1.657   1.842
 5878TIP3    H217580   6.764   1.535   1.866
 5879TIP3   OH217581   3.880   3.066   0.901
 5879TIP3    H117582   3.830   2.984   0.908
 5879TIP3    H217583   3.907   3.069   0.809
 5880TIP3   OH217584   0.308   6.622   2.506
 5880TIP3    H117585   0.372   6.593   2.441
 5880TIP3    H217586   0.224   6.589   2.474
 5881TIP3   OH217587   6.232   7.239   5.442
 5881TIP3    H117588   6.295   7.266   5.510
 5881TIP3    H217589   6.169   7.311   5.439
 5882TIP3   OH217590   0.349   1.956   1.416
 5882TIP3    H117591   0.437   1.956   1.453
 5882TIP3    H217592   0.291   1.963   1.492
 5883TIP3   OH217593   3.222   6.604   3.259
 5883TIP3    H117594   3.165   6.542   3.304
 5883TIP3    H217595   3.309   6.563   3.262
 5884TIP3   OH217596   6.889   3.664   2.231
 5884TIP3    H117597   6.895   3.716   2.312
 5884TIP3    H217598   6.851   3.581   2.258
 5885TIP3   OH217599   6.686   2.122   4.908
 5885TIP3    H117600   6.735   2.204   4.913
 5885TIP3    H217601   6.725   2.066   4.976
 5886TIP3   OH217602   4.751   6.164   1.378
 5886TIP3    H117603   4.716   6.084   1.338
 5886TIP3    H217604   4.725   6.234   1.318
 5887TIP3   OH217605   1.048   4.063   2.004
 5887TIP3    H117606   0.985   3.997   2.032
 5887TIP3    H217607   1.027   4.079   1.912
 5888TIP3   OH217608   7.511   0.836   2.613
 5888TIP3    H117609   7.419   0.818   2.631
 5888TIP3    H217610   7.532   0.779   2.538
 5889TIP3   OH217611   2.045   3.317   4.221
 5889TIP3    H117612   2.095   3.319   4.303
 5889TIP3    H217613   2.028   3.409   4.201
 5890TIP3   OH217614  -0.012   2.609   1.053
 5890TIP3    H117615  -0.064   2.546   1.003
 5890TIP3    H217616   0.078   2.579   1.044
 5891TIP3   OH217617   3.936   4.109   4.202
 5891TIP3    H117618   3.882   4.178   4.163
 5891TIP3    H217619   3.953   4.140   4.291
 5892TIP3   OH217620   2.032   2.859   0.890
 5892TIP3    H117621   2.006   2.769   0.867
 5892TIP3    H217622   2.127   2.854   0.901
 5893TIP3   OH217623   7.053   1.454   0.288
 5893TIP3    H117624   7.026   1.546   0.278
 5893TIP3    H217625   7.132   1.459   0.343
 5894TIP3   OH217626   5.005   7.265   0.796
 5894TIP3    H117627   4.921   7.309   0.803
 5894TIP3    H217628   5.069   7.336   0.790
 5895TIP3   OH217629   6.388   1.715   6.345
 5895TIP3    H117630   6.433   1.784   6.393
 5895TIP3    H217631   6.455   1.648   6.333
 5896TIP3   OH217632   1.322   0.328   4.510
 5896TIP3    H117633   1.288   0.403   4.560
 5896TIP3    H217634   1.248   0.266   4.507
 5897TIP3   OH217635   0.576   4.542   2.677
 5897TIP3    H117636   0.591   4.635   2.660
 5897TIP3    H217637   0.650   4.515   2.731
 5898TIP3   OH217638   0.861   2.574   3.968
 5898TIP3    H117639   0.927   2.505   3.962
 5898TIP3    H217640   0.779   2.528   3.982
 5899TIP3   OH217641   6.954   1.069   0.310
 5899TIP3    H117642   6.875   1.093   0.359
 5899TIP3    H217643   7.025   1.109   0.360
 5900TIP3   OH217644   7.549   6.143   5.825
 5900TIP3    H117645   7.515   6.190   5.902
 5900TIP3    H217646   7.487   6.164   5.755
 5901TIP3   OH217647   6.161   3.932   5.607
 5901TIP3    H117648   6.144   4.023   5.631
 5901TIP3    H217649   6.137   3.926   5.515
 5902TIP3   OH217650   6.871   3.068   2.185
 5902TIP3    H117651   6.911   2.981   2.177
 5902TIP3    H217652   6.929   3.115   2.245
 5903TIP3   OH217653   5.775   4.873   5.458
 5903TIP3    H117654   5.683   4.858   5.479
 5903TIP3    H217655   5.807   4.787   5.429
 5904TIP3   OH217656   0.105   1.842   2.620
 5904TIP3    H117657   0.163   1.767   2.630
 5904TIP3    H217658   0.036   1.812   2.562
 5905TIP3   OH217659   0.208   1.298   3.748
 5905TIP3    H117660   0.202   1.215   3.794
 5905TIP3    H217661   0.117   1.323   3.730
 5906TIP3   OH217662   4.923   1.491   1.169
 5906TIP3    H117663   5.013   1.459   1.162
 5906TIP3    H217664   4.874   1.417   1.203
 5907TIP3   OH217665   7.524   7.791   3.924
 5907TIP3    H117666   7.468   7.785   3.847
 5907TIP3    H217667   7.613   7.780   3.890
 5908TIP3   OH217668   5.020   0.423   2.860
 5908TIP3    H117669   5.007   0.331   2.836
 5908TIP3    H217670   5.114   0.437   2.852
 5909TIP3   OH217671   5.912   3.948   1.829
 5909TIP3    H117672   5.917   3.933   1.735
 5909TIP3    H217673   6.000   3.926   1.861
 5910TIP3   OH217674   3.312   3.504   3.309
 5910TIP3    H117675   3.308   3.557   3.389
 5910TIP3    H217676   3.242   3.538   3.254
 5911TIP3   OH217677   1.211   3.622   4.913
 5911TIP3    H117678   1.233   3.714   4.906
 5911TIP3    H217679   1.293   3.576   4.899
 5912TIP3   OH217680   7.811   1.489   1.707
 5912TIP3    H117681   7.863   1.415   1.737
 5912TIP3    H217682   7.783   1.464   1.619
 5913TIP3   OH217683   4.695   5.721   4.071
 5913TIP3    H117684   4.604   5.747   4.060
 5913TIP3    H217685   4.710   5.658   4.001
 5914TIP3   OH217686   4.504   0.254   6.577
 5914TIP3    H117687   4.508   0.330   6.518
 5914TIP3    H217688   4.418   0.215   6.560
 5915TIP3   OH217689   0.567   2.646   0.064
 5915TIP3    H117690   0.500   2.669   0.128
 5915TIP3    H217691   0.649   2.651   0.111
 5916TIP3   OH217692   2.733   4.434   4.840
 5916TIP3    H117693   2.683   4.514   4.823
 5916TIP3    H217694   2.667   4.369   4.863
 5917TIP3   OH217695   1.333   1.878   2.231
 5917TIP3    H117696   1.296   1.810   2.175
 5917TIP3    H217697   1.359   1.831   2.311
 5918TIP3   OH217698   6.677   4.949   1.602
 5918TIP3    H117699   6.746   4.993   1.650
 5918TIP3    H217700   6.628   5.019   1.560
 5919TIP3   OH217701   8.279   7.210   6.451
 5919TIP3    H117702   8.289   7.304   6.465
 5919TIP3    H217703   8.305   7.196   6.360
 5920TIP3   OH217704   3.299   1.830   0.701
 5920TIP3    H117705   3.340   1.754   0.661
 5920TIP3    H217706   3.213   1.836   0.659
 5921TIP3   OH217707   7.035   5.422   2.390
 5921TIP3    H117708   7.116   5.463   2.361
 5921TIP3    H217709   7.021   5.350   2.329
 5922TIP3   OH217710   4.604   1.564   0.984
 5922TIP3    H117711   4.685   1.528   0.949
 5922TIP3    H217712   4.576   1.628   0.918
 5923TIP3   OH217713   5.065   6.777   4.711
 5923TIP3    H117714   5.086   6.776   4.804
 5923TIP3    H217715   5.010   6.699   4.698
 5924TIP3   OH217716   6.055   1.406   3.211
 5924TIP3    H117717   6.072   1.312   3.206
 5924TIP3    H217718   5.972   1.417   3.165
 5925TIP3   OH217719   5.387   0.596   2.177
 5925TIP3    H117720   5.394   0.657   2.103
 5925TIP3    H217721   5.469   0.546   2.175
 5926TIP3   OH217722   3.370   4.724   5.597
 5926TIP3    H117723   3.380   4.793   5.531
 5926TIP3    H217724   3.458   4.715   5.635
 5927TIP3   OH217725   4.939   1.866   3.820
 5927TIP3    H117726   4.873   1.872   3.752
 5927TIP3    H217727   5.002   1.935   3.798
 5928TIP3   OH217728   0.773   5.716   1.242
 5928TIP3    H117729   0.736   5.799   1.211
 5928TIP3    H217730   0.745   5.710   1.333
 5929TIP3   OH217731   4.721   2.762   3.832
 5929TIP3    H117732   4.758   2.788   3.916
 5929TIP3    H217733   4.628   2.782   3.839
 5930TIP3   OH217734   6.585   0.115   3.873
 5930TIP3    H117735   6.607   0.024   3.890
 5930TIP3    H217736   6.555   0.149   3.958
 5931TIP3   OH217737   4.435   3.916   3.143
 5931TIP3    H117738   4.352   3.956   3.166
 5931TIP3    H217739   4.421   3.878   3.057
 5932TIP3   OH217740   5.088   5.513   3.141
 5932TIP3    H117741   5.171   5.469   3.123
 5932TIP3    H217742   5.083   5.514   3.237
 5933TIP3   OH217743   6.509   4.082   3.946
 5933TIP3    H117744   6.474   4.155   3.996
 5933TIP3    H217745   6.433   4.044   3.902
 5934TIP3   OH217746   2.987   3.545   4.846
 5934TIP3    H117747   3.022   3.484   4.781
 5934TIP3    H217748   2.901   3.569   4.812
 5935TIP3   OH217749   5.454   3.116   1.078
 5935TIP3    H117750   5.485   3.158   1.158
 5935TIP3    H217751   5.429   3.028   1.106
 5936TIP3   OH217752   0.500   6.876   3.000
 5936TIP3    H117753   0.429   6.833   3.047
 5936TIP3    H217754   0.475   6.870   2.907
 5937TIP3   OH217755   0.575   6.203   4.871
 5937TIP3    H117756   0.604   6.272   4.930
 5937TIP3    H217757   0.535   6.137   4.928
 5938TIP3   OH217758   1.195   6.224   0.957
 5938TIP3    H117759   1.115   6.270   0.983
 5938TIP3    H217760   1.167   6.135   0.937
 5939TIP3   OH217761   5.924   5.193   4.442
 5939TIP3    H117762   5.923   5.121   4.505
 5939TIP3    H217763   5.832   5.208   4.421
 5940TIP3   OH217764   3.790   3.091   3.706
 5940TIP3    H117765   3.845   3.064   3.632
 5940TIP3    H217766   3.790   3.187   3.702
 5941TIP3   OH217767   0.967   5.739   5.503
 5941TIP3    H117768   1.002   5.828   5.514
 5941TIP3    H217769   0.952   5.708   5.592
 5942TIP3   OH217770   3.795   5.743   3.834
 5942TIP3    H117771   3.807   5.651   3.858
 5942TIP3    H217772   3.755   5.740   3.747
 5943TIP3   OH217773   3.996   3.245   5.647
 5943TIP3    H117774   3.979   3.265   5.555
 5943TIP3    H217775   4.090   3.261   5.659
 5944TIP3   OH217776   6.088   3.708   3.667
 5944TIP3    H117777   6.091   3.748   3.755
 5944TIP3    H217778   6.119   3.618   3.681
 5945TIP3   OH217779   0.616   5.995   3.353
 5945TIP3    H117780   0.605   5.907   3.318
 5945TIP3    H217781   0.637   5.981   3.446
 5946TIP3   OH217782   7.904   0.495   0.298
 5946TIP3    H117783   7.848   0.427   0.334
 5946TIP3    H217784   7.857   0.577   0.315
 5947TIP3   OH217785   3.917   3.241   3.983
 5947TIP3    H117786   3.827   3.256   3.955
 5947TIP3    H217787   3.962   3.323   3.963
 5948TIP3   OH217788   4.973   7.554   1.789
 5948TIP3    H117789   5.003   7.496   1.859
 5948TIP3    H217790   5.019   7.637   1.804
 5949TIP3   OH217791   3.833   7.599   4.211
 5949TIP3    H117792   3.890   7.590   4.134
 5949TIP3    H217793   3.881   7.659   4.268
 5950TIP3   OH217794   0.482   0.773   2.466
 5950TIP3    H117795   0.520   0.771   2.378
 5950TIP3    H217796   0.548   0.733   2.522
 5951TIP3   OH217797   8.084   3.459   0.050
 5951TIP3    H117798   8.090   3.430   0.141
 5951TIP3    H217799   8.038   3.388   0.006
 5952TIP3   OH217800   0.482   0.789   1.388
 5952TIP3    H117801   0.418   0.753   1.327
 5952TIP3    H217802   0.560   0.735   1.376
 5953TIP3   OH217803   4.937   2.414   2.750
 5953TIP3    H117804   4.946   2.344   2.816
 5953TIP3    H217805   4.893   2.485   2.797
 5954TIP3   OH217806   5.289   6.211   4.112
 5954TIP3    H117807   5.264   6.125   4.077
 5954TIP3    H217808   5.295   6.197   4.206
 5955TIP3   OH217809   6.291   7.402   2.792
 5955TIP3    H117810   6.364   7.376   2.735
 5955TIP3    H217811   6.308   7.357   2.874
 5956TIP3   OH217812   1.953   4.620   6.642
 5956TIP3    H117813   2.045   4.636   6.620
 5956TIP3    H217814   1.909   4.619   6.557
 5957TIP3   OH217815   6.231   2.596   5.502
 5957TIP3    H117816   6.219   2.512   5.458
 5957TIP3    H217817   6.312   2.586   5.552
 5958TIP3   OH217818   6.833   6.163   5.071
 5958TIP3    H117819   6.860   6.090   5.126
 5958TIP3    H217820   6.867   6.241   5.116
 5959TIP3   OH217821   0.700   2.536   2.303
 5959TIP3    H117822   0.757   2.601   2.345
 5959TIP3    H217823   0.614   2.552   2.341
 5960TIP3   OH217824   3.799   4.733   1.514
 5960TIP3    H117825   3.715   4.778   1.503
 5960TIP3    H217826   3.800   4.705   1.605
 5961TIP3   OH217827   3.491   4.745   2.824
 5961TIP3    H117828   3.488   4.650   2.836
 5961TIP3    H217829   3.572   4.772   2.866
 5962TIP3   OH217830   4.831   1.695   2.811
 5962TIP3    H117831   4.783   1.769   2.847
 5962TIP3    H217832   4.911   1.734   2.775
 5963TIP3   OH217833   7.682   2.246   4.183
 5963TIP3    H117834   7.683   2.285   4.096
 5963TIP3    H217835   7.661   2.153   4.169
 5964TIP3   OH217836   4.389   4.304   1.087
 5964TIP3    H117837   4.314   4.347   1.129
 5964TIP3    H217838   4.352   4.225   1.048
 5965TIP3   OH217839   8.269   4.221   0.895
 5965TIP3    H117840   8.338   4.272   0.853
 5965TIP3    H217841   8.188   4.264   0.869
 5966TIP3   OH217842   7.383   1.456   4.780
 5966TIP3    H117843   7.461   1.410   4.750
 5966TIP3    H217844   7.406   1.548   4.774
 5967TIP3   OH217845   5.404   4.457   5.446
 5967TIP3    H117846   5.354   4.402   5.507
 5967TIP3    H217847   5.386   4.547   5.475
 5968TIP3   OH217848   5.044   2.812   0.882
 5968TIP3    H117849   5.001   2.816   0.796
 5968TIP3    H217850   5.102   2.888   0.883
 5969TIP3   OH217851   4.976   7.159   2.933
 5969TIP3    H117852   4.987   7.240   2.883
 5969TIP3    H217853   4.882   7.145   2.935
 5970TIP3   OH217854   0.376   2.703   1.207
 5970TIP3    H117855   0.369   2.664   1.120
 5970TIP3    H217856   0.420   2.787   1.192
 5971TIP3   OH217857   4.981   0.278   2.452
 5971TIP3    H117858   5.060   0.273   2.397
 5971TIP3    H217859   4.911   0.299   2.390
 5972TIP3   OH217860   6.881   7.036   2.259
 5972TIP3    H117861   6.898   7.096   2.332
 5972TIP3    H217862   6.839   7.091   2.193
 5973TIP3   OH217863   3.476   3.376   4.976
 5973TIP3    H117864   3.475   3.293   4.927
 5973TIP3    H217865   3.569   3.399   4.982
 5974TIP3   OH217866   8.159   5.161   2.450
 5974TIP3    H117867   8.182   5.153   2.357
 5974TIP3    H217868   8.218   5.227   2.484
 5975TIP3   OH217869   6.065   2.574   3.501
 5975TIP3    H117870   6.051   2.668   3.497
 5975TIP3    H217871   6.096   2.550   3.414
 5976TIP3   OH217872   2.655   6.902   1.636
 5976TIP3    H117873   2.699   6.986   1.648
 5976TIP3    H217874   2.641   6.869   1.725
 5977TIP3   OH217875   6.081   4.976   3.472
 5977TIP3    H117876   5.990   4.955   3.451
 5977TIP3    H217877   6.120   4.892   3.495
 5978TIP3   OH217878   8.048   1.788   5.169
 5978TIP3    H117879   7.962   1.772   5.207
 5978TIP3    H217880   8.101   1.821   5.242
 5979TIP3   OH217881   2.640   6.668   2.764
 5979TIP3    H117882   2.676   6.606   2.827
 5979TIP3    H217883   2.596   6.612   2.699
 5980TIP3   OH217884   5.577   6.693   3.332
 5980TIP3    H117885   5.579   6.741   3.415
 5980TIP3    H217886   5.530   6.750   3.272
 5981TIP3   OH217887   3.958   1.270   2.022
 5981TIP3    H117888   3.969   1.311   2.108
 5981TIP3    H217889   3.983   1.178   2.036
 5982TIP3   OH217890   0.850   1.632   0.871
 5982TIP3    H117891   0.922   1.635   0.933
 5982TIP3    H217892   0.800   1.712   0.887
 5983TIP3   OH217893   4.129   6.986   6.752
 5983TIP3    H117894   4.106   6.954   6.665
 5983TIP3    H217895   4.191   6.922   6.785
 5984TIP3   OH217896   3.796   1.240   4.728
 5984TIP3    H117897   3.801   1.146   4.744
 5984TIP3    H217898   3.791   1.248   4.632
 5985TIP3   OH217899   1.220   2.969   4.202
 5985TIP3    H117900   1.229   2.888   4.152
 5985TIP3    H217901   1.306   2.985   4.239
 5986TIP3   OH217902   0.948   1.915   1.808
 5986TIP3    H117903   0.865   1.872   1.787
 5986TIP3    H217904   0.989   1.929   1.722
 5987TIP3   OH217905   6.497   7.431   1.350
 5987TIP3    H117906   6.517   7.340   1.369
 5987TIP3    H217907   6.406   7.430   1.317
 5988TIP3   OH217908   5.824   3.806   5.394
 5988TIP3    H117909   5.875   3.843   5.322
 5988TIP3    H217910   5.828   3.711   5.381
 5989TIP3   OH217911   3.733   3.632   4.372
 5989TIP3    H117912   3.700   3.610   4.285
 5989TIP3    H217913   3.672   3.698   4.405
 5990TIP3   OH217914   4.121   3.682   1.316
 5990TIP3    H117915   4.121   3.590   1.343
 5990TIP3    H217916   4.198   3.719   1.360
 5991TIP3   OH217917   4.320   7.849   1.719
 5991TIP3    H117918   4.405   7.856   1.676
 5991TIP3    H217919   4.312   7.756   1.741
 5992TIP3   OH217920   4.020   7.559   6.375
 5992TIP3    H117921   4.109   7.593   6.361
 5992TIP3    H217922   3.994   7.526   6.289
 5993TIP3   OH217923   2.053   4.387   4.414
 5993TIP3    H117924   1.967   4.415   4.383
 5993TIP3    H217925   2.070   4.441   4.491
 5994TIP3   OH217926   3.786   6.569   6.574
 5994TIP3    H117927   3.693   6.555   6.554
 5994TIP3    H217928   3.808   6.650   6.527
 5995TIP3   OH217929   7.776   7.752   3.406
 5995TIP3    H117930   7.869   7.771   3.423
 5995TIP3    H217931   7.730   7.798   3.476
 5996TIP3   OH217932   2.316   6.608   6.454
 5996TIP3    H117933   2.385   6.665   6.419
 5996TIP3    H217934   2.296   6.644   6.540
 5997TIP3   OH217935   5.420   2.845   1.263
 5997TIP3    H117936   5.500   2.824   1.311
 5997TIP3    H217937   5.435   2.810   1.175
 5998TIP3   OH217938   3.091   6.530   1.519
 5998TIP3    H117939   3.020   6.465   1.520
 5998TIP3    H217940   3.092   6.564   1.430
 5999TIP3   OH217941   7.126   5.678   1.414
 5999TIP3    H117942   7.139   5.586   1.388
 5999TIP3    H217943   7.188   5.727   1.360
 6000TIP3   OH217944   7.611   5.866   5.397
 6000TIP3    H117945   7.602   5.945   5.449
 6000TIP3    H217946   7.704   5.845   5.399
 6001TIP3   OH217947   6.721   4.416   4.669
 6001TIP3    H117948   6.685   4.334   4.634
 6001TIP3    H217949   6.690   4.419   4.760
 6002TIP3   OH217950   4.350   2.626   2.106
 6002TIP3    H117951   4.361   2.534   2.133
 6002TIP3    H217952   4.373   2.677   2.184
 6003TIP3   OH217953   1.970   5.981   1.229
 6003TIP3    H117954   1.958   5.997   1.135
 6003TIP3    H217955   1.894   6.021   1.271
 6004TIP3   OH217956   8.321   3.980   0.783
 6004TIP3    H117957   8.231   3.951   0.767
 6004TIP3    H217958   8.313   4.073   0.806
 6005TIP3   OH217959   6.462   2.336   0.285
 6005TIP3    H117960   6.554   2.343   0.260
 6005TIP3    H217961   6.463   2.320   0.379
 6006TIP3   OH217962   5.431   7.277   0.403
 6006TIP3    H117963   5.454   7.266   0.311
 6006TIP3    H217964   5.404   7.190   0.432
 6007TIP3   OH217965   0.522   7.469   0.521
 6007TIP3    H117966   0.460   7.531   0.560
 6007TIP3    H217967   0.593   7.523   0.488
 6008TIP3   OH217968   1.370   6.841   1.840
 6008TIP3    H117969   1.397   6.852   1.749
 6008TIP3    H217970   1.328   6.756   1.842
 6009TIP3   OH217971   1.594   4.334   6.147
 6009TIP3    H117972   1.539   4.405   6.114
 6009TIP3    H217973   1.581   4.335   6.242
 6010TIP3   OH217974   3.717   5.057   6.708
 6010TIP3    H117975   3.651   4.988   6.693
 6010TIP3    H217976   3.740   5.088   6.620
 6011TIP3   OH217977   8.254   7.552   1.446
 6011TIP3    H117978   8.339   7.511   1.426
 6011TIP3    H217979   8.190   7.495   1.404
 6012TIP3   OH217980   5.470   6.774   3.099
 6012TIP3    H117981   5.469   6.830   3.021
 6012TIP3    H217982   5.381   6.781   3.134
 6013TIP3   OH217983   6.898   0.475   2.682
 6013TIP3    H117984   6.943   0.460   2.764
 6013TIP3    H217985   6.962   0.520   2.627
 6014TIP3   OH217986   1.782   2.695   2.212
 6014TIP3    H117987   1.778   2.669   2.304
 6014TIP3    H217988   1.874   2.685   2.188
 6015TIP3   OH217989   0.434   2.971   1.175
 6015TIP3    H117990   0.391   3.056   1.187
 6015TIP3    H217991   0.497   2.966   1.246
 6016TIP3   OH217992   6.332   3.756   5.156
 6016TIP3    H117993   6.358   3.673   5.114
 6016TIP3    H217994   6.352   3.823   5.090
 6017TIP3   OH217995   8.097   7.481   2.580
 6017TIP3    H117996   8.005   7.506   2.588
 6017TIP3    H217997   8.136   7.505   2.664
 6018TIP3   OH217998   3.892   6.753   0.442
 6018TIP3    H117999   3.812   6.758   0.494
 6018TIP3    H218000   3.954   6.810   0.487
 6019TIP3   OH218001   1.288   6.059   4.496
 6019TIP3    H118002   1.311   6.046   4.404
 6019TIP3    H218003   1.352   6.006   4.544
 6020TIP3   OH218004   7.442   3.799   3.914
 6020TIP3    H118005   7.383   3.817   3.987
 6020TIP3    H218006   7.523   3.844   3.937
 6021TIP3   OH218007   6.391   1.255   4.778
 6021TIP3    H118008   6.297   1.234   4.779
 6021TIP3    H218009   6.430   1.186   4.724
 6022TIP3   OH218010   2.725   1.433   2.214
 6022TIP3    H118011   2.718   1.520   2.254
 6022TIP3    H218012   2.744   1.451   2.122
 6023TIP3   OH218013   3.997   6.762   3.018
 6023TIP3    H118014   4.055   6.835   3.040
 6023TIP3    H218015   4.053   6.701   2.970
 6024TIP3   OH218016   4.426   7.190   3.801
 6024TIP3    H118017   4.436   7.106   3.756
 6024TIP3    H218018   4.397   7.251   3.733
 6025TIP3   OH218019   1.119   3.689   5.820
 6025TIP3    H118020   1.208   3.653   5.812
 6025TIP3    H218021   1.131   3.780   5.846
 6026TIP3   OH218022   4.820   2.877   6.373
 6026TIP3    H118023   4.845   2.900   6.283
 6026TIP3    H218024   4.786   2.958   6.410
 6027TIP3   OH218025   7.603   0.974   3.809
 6027TIP3    H118026   7.635   1.023   3.733
 6027TIP3    H218027   7.682   0.958   3.861
 6028TIP3   OH218028   4.733   0.786   4.590
 6028TIP3    H118029   4.718   0.796   4.496
 6028TIP3    H218030   4.738   0.876   4.622
 6029TIP3   OH218031   1.880   5.710   0.743
 6029TIP3    H118032   1.858   5.751   0.660
 6029TIP3    H218033   1.975   5.698   0.741
 6030TIP3   OH218034   1.879   7.290   3.375
 6030TIP3    H118035   1.888   7.195   3.369
 6030TIP3    H218036   1.916   7.312   3.460
 6031TIP3   OH218037   2.820   5.152   0.681
 6031TIP3    H118038   2.833   5.065   0.644
 6031TIP3    H218039   2.877   5.155   0.757
 6032TIP3   OH218040   5.464   7.304   3.312
 6032TIP3    H118041   5.509   7.353   3.380
 6032TIP3    H218042   5.376   7.343   3.308
 6033TIP3   OH218043   3.262   5.734   2.325
 6033TIP3    H118044   3.289   5.825   2.339
 6033TIP3    H218045   3.309   5.706   2.247
 6034TIP3   OH218046   5.425   1.044   2.445
 6034TIP3    H118047   5.352   1.103   2.463
 6034TIP3    H218048   5.385   0.958   2.437
 6035TIP3   OH218049   5.277   5.193   5.530
 6035TIP3    H118050   5.325   5.192   5.613
 6035TIP3    H218051   5.346   5.203   5.464
 6036TIP3   OH218052   6.224   2.144   5.193
 6036TIP3    H118053   6.271   2.110   5.269
 6036TIP3    H218054   6.223   2.071   5.131
 6037TIP3   OH218055   4.531   0.037   2.165
 6037TIP3    H118056   4.552  -0.042   2.116
 6037TIP3    H218057   4.612   0.060   2.210
 6038TIP3   OH218058   0.544   0.869   6.141
 6038TIP3    H118059   0.485   0.795   6.129
 6038TIP3    H218060   0.496   0.944   6.106
 6039TIP3   OH218061   1.807   4.779   2.692
 6039TIP3    H118062   1.854   4.802   2.772
 6039TIP3    H218063   1.829   4.849   2.630
 6040TIP3   OH218064   7.263   0.304   3.148
 6040TIP3    H118065   7.354   0.327   3.129
 6040TIP3    H218066   7.229   0.270   3.066
 6041TIP3   OH218067   5.656   5.242   3.693
 6041TIP3    H118068   5.572   5.282   3.717
 6041TIP3    H218069   5.721   5.307   3.720
 6042TIP3   OH218070   7.138   0.869   0.204
 6042TIP3    H118071   7.202   0.834   0.266
 6042TIP3    H218072   7.058   0.879   0.256
 6043TIP3   OH218073   4.789   4.679   3.707
 6043TIP3    H118074   4.703   4.645   3.734
 6043TIP3    H218075   4.851   4.612   3.735
 6044TIP3   OH218076   7.601   0.106   1.756
 6044TIP3    H118077   7.680   0.150   1.727
 6044TIP3    H218078   7.632   0.036   1.813
 6045TIP3   OH218079   3.342   3.307   4.296
 6045TIP3    H118080   3.327   3.222   4.336
 6045TIP3    H218081   3.298   3.303   4.211
 6046TIP3   OH218082   1.892   6.053   0.734
 6046TIP3    H118083   1.850   5.990   0.675
 6046TIP3    H218084   1.986   6.033   0.728
 6047TIP3   OH218085   5.963   2.230   1.330
 6047TIP3    H118086   5.988   2.320   1.308
 6047TIP3    H218087   6.043   2.179   1.314
 6048TIP3   OH218088   2.973   0.462   3.478
 6048TIP3    H118089   3.000   0.381   3.520
 6048TIP3    H218090   2.877   0.458   3.477
 6049TIP3   OH218091   0.614   6.033   5.312
 6049TIP3    H118092   0.573   6.013   5.396
 6049TIP3    H218093   0.681   6.098   5.332
 6050TIP3   OH218094   1.511   4.426   2.044
 6050TIP3    H118095   1.575   4.475   1.992
 6050TIP3    H218096   1.433   4.483   2.045
 6051TIP3   OH218097   3.877   2.215   2.598
 6051TIP3    H118098   3.888   2.121   2.581
 6051TIP3    H218099   3.840   2.249   2.517
 6052TIP3   OH218100   2.352   1.092   6.063
 6052TIP3    H118101   2.284   1.100   6.129
 6052TIP3    H218102   2.309   1.050   5.989
 6053TIP3   OH218103   0.311   2.119   4.094
 6053TIP3    H118104   0.332   2.135   4.187
 6053TIP3    H218105   0.336   2.201   4.050
 6054TIP3   OH218106   1.482   2.755   5.986
 6054TIP3    H118107   1.435   2.687   6.035
 6054TIP3    H218108   1.567   2.716   5.967
 6055TIP3   OH218109   3.376   3.096   1.425
 6055TIP3    H118110   3.374   3.123   1.334
 6055TIP3    H218111   3.337   3.009   1.426
 6056TIP3   OH218112   4.030   2.791   6.150
 6056TIP3    H118113   4.084   2.723   6.189
 6056TIP3    H218114   3.942   2.754   6.149
 6057TIP3   OH218115   7.304   6.316   4.391
 6057TIP3    H118116   7.274   6.403   4.364
 6057TIP3    H218117   7.339   6.329   4.479
 6058TIP3   OH218118   2.807   0.922   6.426
 6058TIP3    H118119   2.886   0.923   6.480
 6058TIP3    H218120   2.817   0.997   6.368
 6059TIP3   OH218121   7.846   6.647   0.810
 6059TIP3    H118122   7.798   6.723   0.842
 6059TIP3    H218123   7.935   6.680   0.794
 6060TIP3   OH218124   2.896   7.653   1.234
 6060TIP3    H118125   2.895   7.711   1.311
 6060TIP3    H218126   2.929   7.708   1.163
 6061TIP3   OH218127   4.215   6.057   1.707
 6061TIP3    H118128   4.299   6.036   1.746
 6061TIP3    H218129   4.154   6.058   1.781
 6062TIP3   OH218130   5.308   2.589   5.057
 6062TIP3    H118131   5.383   2.638   5.090
 6062TIP3    H218132   5.308   2.508   5.109
 6063TIP3   OH218133   1.330   5.409   3.920
 6063TIP3    H118134   1.250   5.421   3.869
 6063TIP3    H218135   1.300   5.388   4.008
 6064TIP3   OH218136   1.107   1.854   5.406
 6064TIP3    H118137   1.126   1.811   5.489
 6064TIP3    H218138   1.138   1.793   5.339
 6065TIP3   OH218139   5.358   0.873   5.945
 6065TIP3    H118140   5.363   0.833   5.858
 6065TIP3    H218141   5.444   0.912   5.958
 6066TIP3   OH218142   4.099   1.764   0.857
 6066TIP3    H118143   4.108   1.798   0.768
 6066TIP3    H218144   4.111   1.669   0.847
 6067TIP3   OH218145   0.213   4.314   2.509
 6067TIP3    H118146   0.181   4.386   2.454
 6067TIP3    H218147   0.173   4.331   2.595
 6068TIP3   OH218148   7.738   4.698   6.525
 6068TIP3    H118149   7.656   4.730   6.488
 6068TIP3    H218150   7.772   4.637   6.460
 6069TIP3   OH218151   6.843   3.010   4.954
 6069TIP3    H118152   6.778   2.939   4.957
 6069TIP3    H218153   6.928   2.965   4.960
 6070TIP3   OH218154   4.769   7.221   0.238
 6070TIP3    H118155   4.840   7.286   0.232
 6070TIP3    H218156   4.814   7.138   0.252
 6071TIP3   OH218157   5.217   5.650   2.000
 6071TIP3    H118158   5.230   5.580   2.064
 6071TIP3    H218159   5.259   5.726   2.039
 6072TIP3   OH218160   6.411   1.852   1.025
 6072TIP3    H118161   6.398   1.937   0.982
 6072TIP3    H218162   6.406   1.872   1.119
 6073TIP3   OH218163   3.534   0.928   0.366
 6073TIP3    H118164   3.544   0.850   0.311
 6073TIP3    H218165   3.443   0.956   0.350
 6074TIP3   OH218166   2.128   0.082   3.605
 6074TIP3    H118167   2.062   0.136   3.649
 6074TIP3    H218168   2.148   0.013   3.669
 6075TIP3   OH218169   1.733   6.079   3.525
 6075TIP3    H118170   1.727   5.986   3.546
 6075TIP3    H218171   1.826   6.099   3.534
 6076TIP3   OH218172   3.569   2.814   1.266
 6076TIP3    H118173   3.494   2.843   1.214
 6076TIP3    H218174   3.603   2.895   1.306
 6077TIP3   OH218175   2.711   0.272   5.887
 6077TIP3    H118176   2.780   0.336   5.872
 6077TIP3    H218177   2.650   0.315   5.947
 6078TIP3   OH218178   3.181   5.684   5.894
 6078TIP3    H118179   3.252   5.672   5.832
 6078TIP3    H218180   3.196   5.771   5.932
 6079TIP3   OH218181   2.002   7.445   2.175
 6079TIP3    H118182   2.060   7.482   2.108
 6079TIP3    H218183   2.040   7.473   2.258
 6080TIP3   OH218184   2.120   5.228   6.132
 6080TIP3    H118185   2.203   5.262   6.164
 6080TIP3    H218186   2.142   5.179   6.053
 6081TIP3   OH218187   7.483   7.344   3.979
 6081TIP3    H118188   7.402   7.292   3.973
 6081TIP3    H218189   7.456   7.425   4.023
 6082TIP3   OH218190   0.908   2.804   4.900
 6082TIP3    H118191   0.897   2.768   4.812
 6082TIP3    H218192   0.983   2.757   4.936
 6083TIP3   OH218193   2.806   0.931   3.219
 6083TIP3    H118194   2.719   0.893   3.231
 6083TIP3    H218195   2.823   0.979   3.301
 6084TIP3   OH218196   5.820   0.632   1.034
 6084TIP3    H118197   5.857   0.618   0.947
 6084TIP3    H218198   5.844   0.722   1.057
 6085TIP3   OH218199   6.619   7.029   3.066
 6085TIP3    H118200   6.524   7.038   3.067
 6085TIP3    H218201   6.637   6.963   3.000
 6086TIP3   OH218202   2.262   5.998   1.197
 6086TIP3    H118203   2.186   6.032   1.245
 6086TIP3    H218204   2.226   5.961   1.117
 6087TIP3   OH218205   5.543   1.289   6.504
 6087TIP3    H118206   5.542   1.193   6.502
 6087TIP3    H218207   5.605   1.314   6.436
 6088TIP3   OH218208   1.375   3.529   1.109
 6088TIP3    H118209   1.421   3.489   1.036
 6088TIP3    H218210   1.442   3.575   1.159
 6089TIP3   OH218211   0.775   6.227   5.965
 6089TIP3    H118212   0.855   6.175   5.966
 6089TIP3    H218213   0.710   6.173   6.008
 6090TIP3   OH218214   6.567   5.373   2.507
 6090TIP3    H118215   6.503   5.418   2.562
 6090TIP3    H218216   6.524   5.365   2.422
 6091TIP3   OH218217   1.247   6.880   6.256
 6091TIP3    H118218   1.240   6.862   6.163
 6091TIP3    H218219   1.335   6.850   6.280
 6092TIP3   OH218220   1.087   2.392   3.094
 6092TIP3    H118221   0.997   2.410   3.121
 6092TIP3    H218222   1.130   2.360   3.173
 6093TIP3   OH218223   5.713   6.337   0.467
 6093TIP3    H118224   5.731   6.360   0.558
 6093TIP3    H218225   5.620   6.357   0.456
 6094TIP3   OH218226   3.793   1.923   5.560
 6094TIP3    H118227   3.782   2.008   5.602
 6094TIP3    H218228   3.710   1.906   5.517
 6095TIP3   OH218229   0.184   5.077   0.489
 6095TIP3    H118230   0.166   5.020   0.564
 6095TIP3    H218231   0.179   5.018   0.413
 6096TIP3   OH218232   1.436   7.442   1.052
 6096TIP3    H118233   1.340   7.440   1.057
 6096TIP3    H218234   1.459   7.534   1.060
 6097TIP3   OH218235   8.229   0.326   1.782
 6097TIP3    H118236   8.142   0.362   1.766
 6097TIP3    H218237   8.248   0.351   1.873
 6098TIP3   OH218238   1.701   4.973   1.264
 6098TIP3    H118239   1.656   4.944   1.184
 6098TIP3    H218240   1.791   4.942   1.253
 6099TIP3   OH218241   5.921   1.843   3.474
 6099TIP3    H118242   5.964   1.847   3.560
 6099TIP3    H218243   5.840   1.795   3.490
 6100TIP3   OH218244   2.869   1.367   3.651
 6100TIP3    H118245   2.860   1.380   3.557
 6100TIP3    H218246   2.964   1.362   3.666
 6101TIP3   OH218247   1.528   7.225   3.302
 6101TIP3    H118248   1.490   7.261   3.222
 6101TIP3    H218249   1.608   7.181   3.274
 6102TIP3   OH218250   5.811   7.433   3.406
 6102TIP3    H118251   5.746   7.378   3.451
 6102TIP3    H218252   5.888   7.430   3.463
 6103TIP3   OH218253   3.452   6.296   1.416
 6103TIP3    H118254   3.444   6.341   1.500
 6103TIP3    H218255   3.545   6.303   1.394
 6104TIP3   OH218256   3.598   0.235   4.687
 6104TIP3    H118257   3.621   0.291   4.761
 6104TIP3    H218258   3.609   0.145   4.720
 6105TIP3   OH218259   7.062   4.790   1.378
 6105TIP3    H118260   7.133   4.824   1.324
 6105TIP3    H218261   7.040   4.862   1.437
 6106TIP3   OH218262   5.004   0.160   2.004
 6106TIP3    H118263   5.067   0.222   1.966
 6106TIP3    H218264   4.924   0.211   2.014
 6107TIP3   OH218265   6.575   0.969   2.368
 6107TIP3    H118266   6.607   1.053   2.336
 6107TIP3    H218267   6.614   0.960   2.454
 6108TIP3   OH218268   7.535   7.681   2.610
 6108TIP3    H118269   7.575   7.659   2.526
 6108TIP3    H218270   7.441   7.673   2.596
 6109TIP3   OH218271   0.103   4.390   2.760
 6109TIP3    H118272   0.036   4.436   2.709
 6109TIP3    H218273   0.072   4.300   2.764
 6110TIP3   OH218274   7.396   6.616   5.467
 6110TIP3    H118275   7.437   6.648   5.547
 6110TIP3    H218276   7.392   6.521   5.478
 6111TIP3   OH218277   0.969   5.037   0.835
 6111TIP3    H118278   1.008   4.995   0.759
 6111TIP3    H218279   1.003   5.127   0.833
 6112TIP3   OH218280   1.181   6.276   0.104
 6112TIP3    H118281   1.249   6.339   0.078
 6112TIP3    H218282   1.150   6.240   0.021
 6113TIP3   OH218283   2.416   4.195   6.193
 6113TIP3    H118284   2.476   4.248   6.141
 6113TIP3    H218285   2.338   4.251   6.204
 6114TIP3   OH218286   3.584   5.089   5.535
 6114TIP3    H118287   3.513   5.073   5.596
 6114TIP3    H218288   3.556   5.048   5.453
 6115TIP3   OH218289   0.559   1.238   4.345
 6115TIP3    H118290   0.519   1.173   4.403
 6115TIP3    H218291   0.588   1.187   4.269
 6116TIP3   OH218292   7.203   6.581   4.331
 6116TIP3    H118293   7.290   6.595   4.293
 6116TIP3    H218294   7.143   6.591   4.257
 6117TIP3   OH218295   2.687   5.938   0.074
 6117TIP3    H118296   2.765   5.897   0.111
 6117TIP3    H218297   2.697   5.928  -0.021
 6118TIP3   OH218298   5.186   4.040   4.489
 6118TIP3    H118299   5.234   4.090   4.555
 6118TIP3    H218300   5.230   3.956   4.485
 6119TIP3   OH218301   7.163   5.017   2.519
 6119TIP3    H118302   7.189   5.109   2.511
 6119TIP3    H218303   7.240   4.973   2.555
 6120TIP3   OH218304   0.447   5.439   0.760
 6120TIP3    H118305   0.529   5.390   0.764
 6120TIP3    H218306   0.390   5.386   0.704
 6121TIP3   OH218307   4.637   6.554   5.948
 6121TIP3    H118308   4.618   6.571   5.856
 6121TIP3    H218309   4.677   6.635   5.980
 6122TIP3   OH218310   1.665   3.088   2.189
 6122TIP3    H118311   1.657   2.992   2.191
 6122TIP3    H218312   1.599   3.118   2.251
 6123TIP3   OH218313   7.445   2.367   4.307
 6123TIP3    H118314   7.527   2.359   4.259
 6123TIP3    H218315   7.411   2.277   4.311
 6124TIP3   OH218316   5.662   7.443   6.704
 6124TIP3    H118317   5.611   7.524   6.698
 6124TIP3    H218318   5.597   7.376   6.725
 6125TIP3   OH218319   5.658   5.105   4.802
 6125TIP3    H118320   5.752   5.102   4.822
 6125TIP3    H218321   5.631   5.192   4.830
 6126TIP3   OH218322   1.522   2.692   5.464
 6126TIP3    H118323   1.555   2.751   5.532
 6126TIP3    H218324   1.496   2.613   5.512
 6127TIP3   OH218325   2.410   4.573   2.585
 6127TIP3    H118326   2.320   4.551   2.611
 6127TIP3    H218327   2.443   4.625   2.658
 6128TIP3   OH218328   5.979   7.373   2.558
 6128TIP3    H118329   5.956   7.368   2.465
 6128TIP3    H218330   5.896   7.358   2.604
 6129TIP3   OH218331   8.082   5.708   2.194
 6129TIP3    H118332   8.147   5.733   2.129
 6129TIP3    H218333   8.092   5.614   2.204
 6130TIP3   OH218334   4.641   3.809   5.710
 6130TIP3    H118335   4.630   3.763   5.627
 6130TIP3    H218336   4.671   3.896   5.685
 6131TIP3   OH218337   5.488   1.452   1.629
 6131TIP3    H118338   5.418   1.420   1.685
 6131TIP3    H218339   5.487   1.393   1.554
 6132TIP3   OH218340   4.547   7.449   5.684
 6132TIP3    H118341   4.636   7.432   5.716
 6132TIP3    H218342   4.559   7.512   5.613
 6133TIP3   OH218343   7.688   4.810   0.544
 6133TIP3    H118344   7.662   4.878   0.606
 6133TIP3    H218345   7.740   4.856   0.478
 6134TIP3   OH218346   3.422   2.117   1.191
 6134TIP3    H118347   3.372   2.064   1.129
 6134TIP3    H218348   3.396   2.084   1.277
 6135TIP3   OH218349   0.074   2.425   4.746
 6135TIP3    H118350   0.094   2.337   4.779
 6135TIP3    H218351   0.028   2.409   4.663
 6136TIP3   OH218352   1.052   4.236   2.234
 6136TIP3    H118353   1.111   4.190   2.294
 6136TIP3    H218354   1.043   4.177   2.159
 6137TIP3   OH218355   7.474   2.788   1.868
 6137TIP3    H118356   7.464   2.771   1.774
 6137TIP3    H218357   7.560   2.831   1.874
 6138TIP3   OH218358   0.609   4.186   2.751
 6138TIP3    H118359   0.660   4.113   2.784
 6138TIP3    H218360   0.559   4.150   2.677
 6139TIP3   OH218361   3.251   2.830   1.471
 6139TIP3    H118362   3.252   2.742   1.433
 6139TIP3    H218363   3.182   2.827   1.537
 6140TIP3   OH218364   1.834   4.288   4.053
 6140TIP3    H118365   1.835   4.275   4.148
 6140TIP3    H218366   1.925   4.309   4.031
 6141TIP3   OH218367   4.802   4.567   0.969
 6141TIP3    H118368   4.889   4.549   0.932
 6141TIP3    H218369   4.749   4.596   0.894
 6142TIP3   OH218370   3.739   5.217   4.989
 6142TIP3    H118371   3.676   5.175   5.047
 6142TIP3    H218372   3.780   5.286   5.042
 6143TIP3   OH218373   3.558   4.305   0.273
 6143TIP3    H118374   3.490   4.294   0.339
 6143TIP3    H218375   3.571   4.218   0.236
 6144TIP3   OH218376   7.360   3.623   0.333
 6144TIP3    H118377   7.308   3.704   0.328
 6144TIP3    H218378   7.447   3.653   0.360
 6145TIP3   OH218379   8.165   4.040   6.366
 6145TIP3    H118380   8.103   3.974   6.335
 6145TIP3    H218381   8.120   4.083   6.439
 6146TIP3   OH218382   1.679   6.264   4.593
 6146TIP3    H118383   1.597   6.305   4.623
 6146TIP3    H218384   1.748   6.309   4.642
 6147TIP3   OH218385   1.493   3.558   4.609
 6147TIP3    H118386   1.432   3.598   4.547
 6147TIP3    H218387   1.550   3.503   4.556
 6148TIP3   OH218388   4.739   0.103   0.788
 6148TIP3    H118389   4.716   0.195   0.772
 6148TIP3    H218390   4.795   0.106   0.865
 6149TIP3   OH218391   7.994   5.261   6.285
 6149TIP3    H118392   8.014   5.342   6.238
 6149TIP3    H218393   8.079   5.219   6.297
 6150TIP3   OH218394   7.679   3.782   6.701
 6150TIP3    H118395   7.613   3.833   6.749
 6150TIP3    H218396   7.754   3.777   6.761
 6151TIP3   OH218397   6.940   1.420   1.140
 6151TIP3    H118398   6.894   1.460   1.067
 6151TIP3    H218399   7.029   1.455   1.135
 6152TIP3   OH218400   6.749   5.956   1.924
 6152TIP3    H118401   6.810   6.012   1.972
 6152TIP3    H218402   6.729   6.006   1.844
 6153TIP3   OH218403   2.703   5.336   4.512
 6153TIP3    H118404   2.769   5.393   4.551
 6153TIP3    H218405   2.679   5.276   4.582
 6154TIP3   OH218406   0.736   7.389   5.924
 6154TIP3    H118407   0.828   7.387   5.948
 6154TIP3    H218408   0.696   7.317   5.972
 6155TIP3   OH218409   7.083   4.869   6.087
 6155TIP3    H118410   7.042   4.946   6.047
 6155TIP3    H218411   7.009   4.818   6.121
 6156TIP3   OH218412   7.024   6.023   2.380
 6156TIP3    H118413   7.106   5.986   2.349
 6156TIP3    H218414   6.964   6.013   2.305
 6157TIP3   OH218415   0.574   7.217   1.595
 6157TIP3    H118416   0.598   7.129   1.564
 6157TIP3    H218417   0.504   7.203   1.658
 6158TIP3   OH218418   4.390   5.179   2.460
 6158TIP3    H118419   4.329   5.181   2.533
 6158TIP3    H218420   4.336   5.154   2.384
 6159TIP3   OH218421   2.222   1.507   2.323
 6159TIP3    H118422   2.155   1.557   2.276
 6159TIP3    H218423   2.187   1.418   2.326
 6160TIP3   OH218424   1.477   2.615   6.515
 6160TIP3    H118425   1.389   2.582   6.534
 6160TIP3    H218426   1.517   2.628   6.600
 6161TIP3   OH218427   7.898   4.205   3.867
 6161TIP3    H118428   7.949   4.270   3.819
 6161TIP3    H218429   7.810   4.210   3.829
 6162TIP3   OH218430   8.007   0.866   2.750
 6162TIP3    H118431   7.971   0.830   2.831
 6162TIP3    H218432   8.082   0.919   2.779
 6163TIP3   OH218433   6.962   1.207   3.062
 6163TIP3    H118434   6.997   1.283   3.016
 6163TIP3    H218435   6.890   1.176   3.007
 6164TIP3   OH218436   3.487   3.918   6.716
 6164TIP3    H118437   3.439   3.878   6.788
 6164TIP3    H218438   3.550   3.977   6.759
 6165TIP3   OH218439   7.258   3.460   0.969
 6165TIP3    H118440   7.186   3.397   0.976
 6165TIP3    H218441   7.235   3.530   1.030
 6166TIP3   OH218442   6.588   0.202   0.858
 6166TIP3    H118443   6.677   0.236   0.849
 6166TIP3    H218444   6.532   0.279   0.861
 6167TIP3   OH218445   7.429   3.436   6.376
 6167TIP3    H118446   7.367   3.470   6.441
 6167TIP3    H218447   7.509   3.419   6.425
 6168TIP3   OH218448   6.240   0.278   6.575
 6168TIP3    H118449   6.190   0.209   6.619
 6168TIP3    H218450   6.174   0.334   6.535
 6169TIP3   OH218451   4.861   6.709   3.054
 6169TIP3    H118452   4.890   6.621   3.030
 6169TIP3    H218453   4.873   6.714   3.149
 6170TIP3   OH218454   1.766   3.732   5.842
 6170TIP3    H118455   1.861   3.739   5.842
 6170TIP3    H218456   1.738   3.779   5.763
 6171TIP3   OH218457   1.069   6.118   4.213
 6171TIP3    H118458   1.161   6.091   4.224
 6171TIP3    H218459   1.065   6.204   4.256
 6172TIP3   OH218460   1.745   4.929   4.861
 6172TIP3    H118461   1.719   5.021   4.863
 6172TIP3    H218462   1.664   4.881   4.880
 6173TIP3   OH218463   6.925   6.379   3.670
 6173TIP3    H118464   6.957   6.289   3.678
 6173TIP3    H218465   6.910   6.391   3.576
 6174TIP3   OH218466   4.881   1.015   1.003
 6174TIP3    H118467   4.931   1.080   0.953
 6174TIP3    H218468   4.948   0.962   1.047
 6175TIP3   OH218469   8.203   4.747   6.179
 6175TIP3    H118470   8.256   4.688   6.126
 6175TIP3    H218471   8.231   4.729   6.269
 6176TIP3   OH218472   0.583   7.240   3.243
 6176TIP3    H118473   0.575   7.145   3.241
 6176TIP3    H218474   0.577   7.267   3.151
 6177TIP3   OH218475   4.688   3.444   2.181
 6177TIP3    H118476   4.611   3.437   2.238
 6177TIP3    H218477   4.675   3.525   2.132
 6178TIP3   OH218478   1.310   6.132   1.582
 6178TIP3    H118479   1.337   6.093   1.499
 6178TIP3    H218480   1.375   6.200   1.599
 6179TIP3   OH218481   2.829   1.386   1.208
 6179TIP3    H118482   2.787   1.373   1.123
 6179TIP3    H218483   2.761   1.424   1.263
 6180TIP3   OH218484   0.334   6.106   2.104
 6180TIP3    H118485   0.362   6.145   2.187
 6180TIP3    H218486   0.412   6.061   2.072
 6181TIP3   OH218487   4.872   6.314   1.003
 6181TIP3    H118488   4.860   6.388   1.063
 6181TIP3    H218489   4.966   6.307   0.990
 6182TIP3   OH218490   2.763   4.956   2.858
 6182TIP3    H118491   2.755   5.023   2.926
 6182TIP3    H218492   2.856   4.933   2.858
 6183TIP3   OH218493   4.213   1.753   1.537
 6183TIP3    H118494   4.136   1.698   1.554
 6183TIP3    H218495   4.210   1.771   1.444
 6184TIP3   OH218496   5.047   1.458   6.475
 6184TIP3    H118497   5.134   1.496   6.481
 6184TIP3    H218498   5.058   1.382   6.418
 6185TIP3   OH218499   7.887   7.098   0.838
 6185TIP3    H118500   7.808   7.049   0.817
 6185TIP3    H218501   7.857   7.189   0.847
 6186TIP3   OH218502   0.404   2.969   5.860
 6186TIP3    H118503   0.383   3.061   5.876
 6186TIP3    H218504   0.336   2.939   5.799
 6187TIP3   OH218505   6.634   5.776   2.114
 6187TIP3    H118506   6.546   5.808   2.135
 6187TIP3    H218507   6.678   5.852   2.075
 6188TIP3   OH218508   5.701   7.062   3.439
 6188TIP3    H118509   5.766   7.041   3.371
 6188TIP3    H218510   5.617   7.052   3.395
 6189TIP3   OH218511   7.092   7.586   1.787
 6189TIP3    H118512   7.043   7.615   1.710
 6189TIP3    H218513   7.051   7.631   1.861
 6190TIP3   OH218514   5.694   4.492   6.644
 6190TIP3    H118515   5.616   4.458   6.689
 6190TIP3    H218516   5.739   4.544   6.711
 6191TIP3   OH218517   2.742   7.198   1.153
 6191TIP3    H118518   2.654   7.221   1.182
 6191TIP3    H218519   2.752   7.106   1.176
 6192TIP3   OH218520   0.564   7.354   4.350
 6192TIP3    H118521   0.571   7.269   4.307
 6192TIP3    H218522   0.621   7.346   4.427
 6193TIP3   OH218523   3.983   0.691   3.757
 6193TIP3    H118524   4.066   0.736   3.744
 6193TIP3    H218525   4.007   0.599   3.772
 6194TIP3   OH218526   3.060   6.739   4.582
 6194TIP3    H118527   3.142   6.776   4.550
 6194TIP3    H218528   3.073   6.644   4.576
 6195TIP3   OH218529   5.906   1.979   5.108
 6195TIP3    H118530   5.898   1.947   5.198
 6195TIP3    H218531   5.998   1.964   5.086
 6196TIP3   OH218532   5.985   3.104   3.692
 6196TIP3    H118533   5.947   3.148   3.768
 6196TIP3    H218534   5.947   3.147   3.617
 6197TIP3   OH218535   2.440   1.226   1.716
 6197TIP3    H118536   2.460   1.153   1.657
 6197TIP3    H218537   2.508   1.291   1.698
 6198TIP3   OH218538   5.872   3.670   1.632
 6198TIP3    H118539   5.782   3.680   1.662
 6198TIP3    H218540   5.881   3.576   1.614
 6199TIP3   OH218541   1.575   1.528   5.625
 6199TIP3    H118542   1.523   1.583   5.566
 6199TIP3    H218543   1.640   1.588   5.662
 6200TIP3   OH218544   5.758   5.003   3.838
 6200TIP3    H118545   5.711   4.929   3.800
 6200TIP3    H218546   5.736   5.077   3.781
 6201TIP3   OH218547   3.090   0.109   6.592
 6201TIP3    H118548   3.130   0.024   6.609
 6201TIP3    H218549   3.058   0.138   6.678
 6202TIP3   OH218550   8.003   7.621   6.316
 6202TIP3    H118551   8.041   7.671   6.244
 6202TIP3    H218552   7.993   7.684   6.386
 6203TIP3   OH218553   3.897   5.560   6.548
 6203TIP3    H118554   3.918   5.586   6.638
 6203TIP3    H218555   3.820   5.613   6.525
 6204TIP3   OH218556   3.332   5.587   5.714
 6204TIP3    H118557   3.270   5.642   5.665
 6204TIP3    H218558   3.333   5.504   5.666
 6205TIP3   OH218559   7.659   5.606   2.266
 6205TIP3    H118560   7.699   5.524   2.237
 6205TIP3    H218561   7.730   5.669   2.262
 6206TIP3   OH218562   2.474   6.907   1.417
 6206TIP3    H118563   2.470   6.813   1.400
 6206TIP3    H218564   2.532   6.916   1.493
 6207TIP3   OH218565   2.543   1.618   0.506
 6207TIP3    H118566   2.566   1.710   0.490
 6207TIP3    H218567   2.627   1.572   0.508
 6208TIP3   OH218568   5.139   7.665   1.141
 6208TIP3    H118569   5.110   7.588   1.188
 6208TIP3    H218570   5.196   7.631   1.071
 6209TIP3   OH218571   6.837   0.510   0.549
 6209TIP3    H118572   6.775   0.529   0.479
 6209TIP3    H218573   6.834   0.586   0.606
 6210TIP3   OH218574   1.317   7.027   5.002
 6210TIP3    H118575   1.261   7.041   5.078
 6210TIP3    H218576   1.406   7.037   5.036
 6211TIP3   OH218577   5.553   7.807   2.242
 6211TIP3    H118578   5.516   7.819   2.330
 6211TIP3    H218579   5.557   7.712   2.231
 6212TIP3   OH218580   4.238   0.561   1.368
 6212TIP3    H118581   4.172   0.498   1.398
 6212TIP3    H218582   4.319   0.510   1.364
 6213TIP3   OH218583   6.908   7.457   0.509
 6213TIP3    H118584   6.816   7.460   0.536
 6213TIP3    H218585   6.905   7.432   0.416
 6214TIP3   OH218586   7.503   7.756   2.126
 6214TIP3    H118587   7.573   7.692   2.110
 6214TIP3    H218588   7.545   7.841   2.115
 6215TIP3   OH218589   4.099   3.952   5.938
 6215TIP3    H118590   4.152   3.881   5.974
 6215TIP3    H218591   4.150   3.984   5.864
 6216TIP3   OH218592   8.299   0.119   3.263
 6216TIP3    H118593   8.208   0.127   3.234
 6216TIP3    H218594   8.294   0.068   3.344
 6217TIP3   OH218595   0.690   7.004   1.831
 6217TIP3    H118596   0.629   6.943   1.790
 6217TIP3    H218597   0.716   6.960   1.912
 6218TIP3   OH218598   7.640   0.363   3.208
 6218TIP3    H118599   7.600   0.417   3.140
 6218TIP3    H218600   7.589   0.282   3.207
 6219TIP3   OH218601   0.600   2.576   6.109
 6219TIP3    H118602   0.661   2.508   6.138
 6219TIP3    H218603   0.619   2.650   6.166
 6220TIP3   OH218604   5.616   6.533   2.962
 6220TIP3    H118605   5.586   6.600   3.024
 6220TIP3    H218606   5.547   6.531   2.895
 6221TIP3   OH218607   3.358   2.247   3.289
 6221TIP3    H118608   3.314   2.323   3.329
 6221TIP3    H218609   3.343   2.176   3.350
 6222TIP3   OH218610   3.548   2.418   2.898
 6222TIP3    H118611   3.569   2.364   2.974
 6222TIP3    H218612   3.502   2.494   2.935
 6223TIP3   OH218613   8.183   2.813   5.693
 6223TIP3    H118614   8.098   2.771   5.677
 6223TIP3    H218615   8.161   2.892   5.743
 6224TIP3   OH218616   7.417   5.112   0.820
 6224TIP3    H118617   7.470   5.039   0.852
 6224TIP3    H218618   7.427   5.180   0.887
 6225TIP3   OH218619   5.840   3.240   3.500
 6225TIP3    H118620   5.854   3.334   3.506
 6225TIP3    H218621   5.747   3.228   3.518
 6226TIP3   OH218622   7.442   4.542   4.113
 6226TIP3    H118623   7.457   4.449   4.133
 6226TIP3    H218624   7.528   4.583   4.127
 6227TIP3   OH218625   4.266   2.353   2.860
 6227TIP3    H118626   4.258   2.344   2.765
 6227TIP3    H218627   4.177   2.369   2.890
 6228TIP3   OH218628   8.161   3.937   1.312
 6228TIP3    H118629   8.206   4.018   1.288
 6228TIP3    H218630   8.191   3.872   1.248
 6229TIP3   OH218631   6.790   6.540   5.091
 6229TIP3    H118632   6.718   6.531   5.029
 6229TIP3    H218633   6.860   6.582   5.040
 6230TIP3   OH218634   3.070   5.539   6.555
 6230TIP3    H118635   3.107   5.555   6.642
 6230TIP3    H218636   2.977   5.558   6.564
 6231TIP3   OH218637   5.979   0.659   3.381
 6231TIP3    H118638   5.916   0.587   3.384
 6231TIP3    H218639   6.062   0.619   3.408
 6232TIP3   OH218640   4.683   6.148   2.981
 6232TIP3    H118641   4.642   6.086   3.040
 6232TIP3    H218642   4.777   6.131   2.989
 6233TIP3   OH218643   5.158   1.323   1.187
 6233TIP3    H118644   5.191   1.389   1.248
 6233TIP3    H218645   5.145   1.245   1.241
 6234TIP3   OH218646   0.437   4.784   1.183
 6234TIP3    H118647   0.527   4.806   1.158
 6234TIP3    H218648   0.437   4.789   1.279
 6235TIP3   OH218649   6.212   6.950   6.730
 6235TIP3    H118650   6.182   7.023   6.675
 6235TIP3    H218651   6.275   6.903   6.675
 6236TIP3   OH218652   0.450   3.999   4.384
 6236TIP3    H118653   0.378   3.998   4.448
 6236TIP3    H218654   0.416   4.050   4.311
 6237TIP3   OH218655   3.212   1.015   0.576
 6237TIP3    H118656   3.277   0.950   0.602
 6237TIP3    H218657   3.244   1.050   0.493
 6238TIP3   OH218658   3.558   3.370   4.471
 6238TIP3    H118659   3.504   3.362   4.393
 6238TIP3    H218660   3.498   3.357   4.544
 6239TIP3   OH218661   3.247   4.816   3.259
 6239TIP3    H118662   3.303   4.739   3.268
 6239TIP3    H218663   3.160   4.786   3.286
 6240TIP3   OH218664   5.233   2.391   4.672
 6240TIP3    H118665   5.197   2.305   4.692
 6240TIP3    H218666   5.263   2.384   4.581
 6241TIP3   OH218667   8.026   2.307   1.886
 6241TIP3    H118668   7.993   2.224   1.849
 6241TIP3    H218669   8.118   2.309   1.862
 6242TIP3   OH218670   6.661   1.913   2.003
 6242TIP3    H118671   6.653   1.824   1.969
 6242TIP3    H218672   6.571   1.941   2.019
 6243TIP3   OH218673   2.957   1.165   4.925
 6243TIP3    H118674   3.021   1.184   4.993
 6243TIP3    H218675   2.922   1.250   4.900
 6244TIP3   OH218676   3.146   4.598   3.832
 6244TIP3    H118677   3.068   4.572   3.881
 6244TIP3    H218678   3.151   4.693   3.842
 6245TIP3   OH218679   0.861   2.188   3.271
 6245TIP3    H118680   0.863   2.188   3.175
 6245TIP3    H218681   0.878   2.279   3.295
 6246TIP3   OH218682   5.162   6.851   6.757
 6246TIP3    H118683   5.190   6.799   6.832
 6246TIP3    H218684   5.236   6.908   6.738
 6247TIP3   OH218685   5.417   2.742   2.188
 6247TIP3    H118686   5.369   2.737   2.271
 6247TIP3    H218687   5.443   2.834   2.180
 6248TIP3   OH218688   7.144   3.359   1.567
 6248TIP3    H118689   7.143   3.382   1.660
 6248TIP3    H218690   7.124   3.266   1.566
 6249TIP3   OH218691   6.174   2.375   4.205
 6249TIP3    H118692   6.129   2.338   4.129
 6249TIP3    H218693   6.163   2.309   4.273
 6250TIP3   OH218694   6.339   0.986   0.712
 6250TIP3    H118695   6.365   1.069   0.672
 6250TIP3    H218696   6.325   0.927   0.638
 6251TIP3   OH218697   4.398   5.080   1.568
 6251TIP3    H118698   4.340   5.027   1.514
 6251TIP3    H218699   4.349   5.160   1.586
 6252TIP3   OH218700   0.145   4.916   0.706
 6252TIP3    H118701   0.062   4.871   0.691
 6252TIP3    H218702   0.166   4.899   0.798
 6253TIP3   OH218703   3.868   3.915   4.029
 6253TIP3    H118704   3.873   3.972   4.106
 6253TIP3    H218705   3.780   3.879   4.031
 6254TIP3   OH218706   6.395   2.022   2.025
 6254TIP3    H118707   6.318   1.968   2.006
 6254TIP3    H218708   6.384   2.099   1.970
 6255TIP3   OH218709   0.570   3.940   1.392
 6255TIP3    H118710   0.589   3.968   1.302
 6255TIP3    H218711   0.546   4.021   1.437
 6256TIP3   OH218712   5.661   4.475   3.427
 6256TIP3    H118713   5.631   4.563   3.449
 6256TIP3    H218714   5.581   4.425   3.413
 6257TIP3   OH218715   4.025   1.203   4.358
 6257TIP3    H118716   3.988   1.183   4.272
 6257TIP3    H218717   4.115   1.230   4.340
 6258TIP3   OH218718   1.743   4.835   6.431
 6258TIP3    H118719   1.797   4.759   6.409
 6258TIP3    H218720   1.694   4.808   6.509
 6259TIP3   OH218721   8.170   2.343   0.994
 6259TIP3    H118722   8.265   2.345   1.000
 6259TIP3    H218723   8.143   2.283   1.063
 6260TIP3   OH218724   5.608   5.162   5.972
 6260TIP3    H118725   5.690   5.119   5.998
 6260TIP3    H218726   5.577   5.204   6.052
 6261TIP3   OH218727   3.150   2.997   4.114
 6261TIP3    H118728   3.234   2.961   4.143
 6261TIP3    H218729   3.167   3.030   4.026
 6262TIP3   OH218730   7.294   1.407   0.488
 6262TIP3    H118731   7.266   1.391   0.578
 6262TIP3    H218732   7.384   1.437   0.495
 6263TIP3   OH218733   0.061   5.877   0.507
 6263TIP3    H118734   0.062   5.840   0.419
 6263TIP3    H218735  -0.031   5.899   0.523
 6264TIP3   OH218736   5.943   7.430   6.281
 6264TIP3    H118737   5.887   7.459   6.352
 6264TIP3    H218738   5.987   7.510   6.250
 6265TIP3   OH218739   2.097   1.024   2.045
 6265TIP3    H118740   2.176   1.039   1.993
 6265TIP3    H218741   2.125   0.965   2.115
 6266TIP3   OH218742   3.679   5.958   1.711
 6266TIP3    H118743   3.757   5.927   1.665
 6266TIP3    H218744   3.657   6.041   1.669
 6267TIP3   OH218745   0.995   7.186   4.814
 6267TIP3    H118746   1.025   7.096   4.824
 6267TIP3    H218747   0.902   7.183   4.836
 6268TIP3   OH218748   3.456   1.252   2.411
 6268TIP3    H118749   3.370   1.210   2.410
 6268TIP3    H218750   3.502   1.214   2.336
 6269TIP3   OH218751   1.242   0.782   1.973
 6269TIP3    H118752   1.250   0.763   2.066
 6269TIP3    H218753   1.202   0.869   1.969
 6270TIP3   OH218754   5.631   0.939   5.109
 6270TIP3    H118755   5.593   1.027   5.107
 6270TIP3    H218756   5.712   0.947   5.058
 6271TIP3   OH218757   0.217   1.459   5.825
 6271TIP3    H118758   0.269   1.399   5.879
 6271TIP3    H218759   0.231   1.429   5.735
 6272TIP3   OH218760   2.631   7.286   0.823
 6272TIP3    H118761   2.566   7.296   0.893
 6272TIP3    H218762   2.582   7.249   0.750
 6273TIP3   OH218763   0.265   4.226   1.364
 6273TIP3    H118764   0.254   4.267   1.450
 6273TIP3    H218765   0.305   4.295   1.310
 6274TIP3   OH218766   2.945   2.366   5.376
 6274TIP3    H118767   2.951   2.457   5.404
 6274TIP3    H218768   2.929   2.317   5.457
 6275TIP3   OH218769   2.506   1.269   2.909
 6275TIP3    H118770   2.442   1.199   2.920
 6275TIP3    H218771   2.591   1.227   2.922
 6276TIP3   OH218772   0.996   4.292   0.127
 6276TIP3    H118773   0.980   4.306   0.034
 6276TIP3    H218774   1.009   4.379   0.163
 6277TIP3   OH218775   7.717   1.062   3.049
 6277TIP3    H118776   7.682   1.047   2.961
 6277TIP3    H218777   7.794   1.005   3.054
 6278TIP3   OH218778   0.078   2.070   5.175
 6278TIP3    H118779   0.100   2.097   5.085
 6278TIP3    H218780   0.155   2.096   5.227
 6279TIP3   OH218781   6.613   7.745   4.258
 6279TIP3    H118782   6.708   7.747   4.259
 6279TIP3    H218783   6.588   7.721   4.347
 6280TIP3   OH218784   1.843   7.279   2.026
 6280TIP3    H118785   1.812   7.341   1.960
 6280TIP3    H218786   1.903   7.330   2.080
 6281TIP3   OH218787   6.362   5.505   0.260
 6281TIP3    H118788   6.315   5.472   0.183
 6281TIP3    H218789   6.399   5.589   0.231
 6282TIP3   OH218790   1.275   7.830   1.373
 6282TIP3    H118791   1.254   7.739   1.394
 6282TIP3    H218792   1.193   7.878   1.392
 6283TIP3   OH218793   7.571   1.141   4.276
 6283TIP3    H118794   7.514   1.071   4.243
 6283TIP3    H218795   7.553   1.215   4.219
 6284TIP3   OH218796   3.381   1.908   2.037
 6284TIP3    H118797   3.373   1.826   1.988
 6284TIP3    H218798   3.292   1.943   2.041
 6285TIP3   OH218799   6.626   7.353   4.316
 6285TIP3    H118800   6.551   7.297   4.336
 6285TIP3    H218801   6.684   7.298   4.264
 6286TIP3   OH218802   2.452   2.299   1.755
 6286TIP3    H118803   2.431   2.389   1.733
 6286TIP3    H218804   2.413   2.286   1.842
 6287TIP3   OH218805   7.127   3.564   5.112
 6287TIP3    H118806   7.078   3.644   5.128
 6287TIP3    H218807   7.196   3.565   5.178
 6288TIP3   OH218808   7.548   7.324   0.242
 6288TIP3    H118809   7.601   7.270   0.184
 6288TIP3    H218810   7.564   7.288   0.330
 6289TIP3   OH218811   4.527   0.137   5.682
 6289TIP3    H118812   4.612   0.125   5.640
 6289TIP3    H218813   4.464   0.133   5.610
 6290TIP3   OH218814   5.143   3.736   1.694
 6290TIP3    H118815   5.059   3.756   1.734
 6290TIP3    H218816   5.168   3.651   1.731
 6291TIP3   OH218817   2.629   2.840   4.849
 6291TIP3    H118818   2.580   2.759   4.859
 6291TIP3    H218819   2.632   2.855   4.754
 6292TIP3   OH218820   2.602   5.970   2.275
 6292TIP3    H118821   2.509   5.945   2.272
 6292TIP3    H218822   2.629   5.972   2.183
 6293TIP3   OH218823   6.585   3.339   2.862
 6293TIP3    H118824   6.530   3.333   2.784
 6293TIP3    H218825   6.649   3.407   2.841
 6294TIP3   OH218826   3.091   7.148   6.523
 6294TIP3    H118827   3.141   7.124   6.446
 6294TIP3    H218828   3.024   7.080   6.530
 6295TIP3   OH218829   2.456   1.878   0.913
 6295TIP3    H118830   2.471   1.862   1.006
 6295TIP3    H218831   2.409   1.800   0.882
 6296TIP3   OH218832   6.157   4.372   1.709
 6296TIP3    H118833   6.157   4.301   1.772
 6296TIP3    H218834   6.223   4.434   1.742
 6297TIP3   OH218835   0.563   3.941   1.787
 6297TIP3    H118836   0.488   3.985   1.826
 6297TIP3    H218837   0.607   4.009   1.737
 6298TIP3   OH218838   7.143   1.556   4.274
 6298TIP3    H118839   7.239   1.565   4.275
 6298TIP3    H218840   7.114   1.615   4.205
 6299TIP3   OH218841   7.633   4.272   3.826
 6299TIP3    H118842   7.665   4.360   3.844
 6299TIP3    H218843   7.540   4.283   3.806
 6300TIP3   OH218844   0.718   4.683   3.507
 6300TIP3    H118845   0.723   4.752   3.574
 6300TIP3    H218846   0.644   4.629   3.534
 6301TIP3   OH218847   0.523   5.469   2.169
 6301TIP3    H118848   0.497   5.526   2.241
 6301TIP3    H218849   0.582   5.405   2.208
 6302TIP3   OH218850   4.101   1.347   4.579
 6302TIP3    H118851   4.094   1.439   4.552
 6302TIP3    H218852   4.062   1.298   4.506
 6303TIP3   OH218853   3.163   1.504   3.730
 6303TIP3    H118854   3.253   1.483   3.753
 6303TIP3    H218855   3.139   1.575   3.790
 6304TIP3   OH218856   3.179   2.506   2.482
 6304TIP3    H118857   3.274   2.514   2.496
 6304TIP3    H218858   3.154   2.433   2.539
 6305TIP3   OH218859   7.206   0.118   2.330
 6305TIP3    H118860   7.198   0.184   2.399
 6305TIP3    H218861   7.265   0.157   2.266
 6306TIP3   OH218862   0.667   0.861   3.357
 6306TIP3    H118863   0.619   0.846   3.439
 6306TIP3    H218864   0.627   0.940   3.320
 6307TIP3   OH218865   3.302   0.723   0.106
 6307TIP3    H118866   3.398   0.729   0.113
 6307TIP3    H218867   3.286   0.714   0.012
 6308TIP3   OH218868   6.248   5.881   0.371
 6308TIP3    H118869   6.203   5.903   0.453
 6308TIP3    H218870   6.290   5.797   0.389
 6309TIP3   OH218871   7.413   5.633   4.160
 6309TIP3    H118872   7.355   5.663   4.089
 6309TIP3    H218873   7.439   5.714   4.205
 6310TIP3   OH218874   0.436   6.361   5.271
 6310TIP3    H118875   0.411   6.412   5.194
 6310TIP3    H218876   0.357   6.313   5.294
 6311TIP3   OH218877   7.600   5.892   2.380
 6311TIP3    H118878   7.643   5.806   2.378
 6311TIP3    H218879   7.612   5.926   2.291
 6312TIP3   OH218880   5.751   2.295   3.629
 6312TIP3    H118881   5.811   2.221   3.621
 6312TIP3    H218882   5.726   2.315   3.539
 6313TIP3   OH218883   1.852   1.740   4.352
 6313TIP3    H118884   1.830   1.832   4.338
 6313TIP3    H218885   1.769   1.698   4.374
 6314TIP3   OH218886   5.825   3.520   5.425
 6314TIP3    H118887   5.791   3.432   5.441
 6314TIP3    H218888   5.825   3.562   5.511
 6315TIP3   OH218889   1.219   7.502   4.644
 6315TIP3    H118890   1.149   7.467   4.590
 6315TIP3    H218891   1.240   7.431   4.704
 6316TIP3   OH218892   0.860   4.341   5.302
 6316TIP3    H118893   0.920   4.293   5.359
 6316TIP3    H218894   0.881   4.311   5.213
 6317TIP3   OH218895   7.402   1.805   6.408
 6317TIP3    H118896   7.320   1.841   6.442
 6317TIP3    H218897   7.390   1.808   6.312
 6318TIP3   OH218898   1.528   0.261   1.995
 6318TIP3    H118899   1.612   0.303   1.977
 6318TIP3    H218900   1.552   0.172   2.024
 6319TIP3   OH218901   5.856   3.147   5.214
 6319TIP3    H118902   5.941   3.120   5.250
 6319TIP3    H218903   5.868   3.144   5.119
 6320TIP3   OH218904   5.692   5.390   6.451
 6320TIP3    H118905   5.682   5.295   6.461
 6320TIP3    H218906   5.745   5.416   6.526
 6321TIP3   OH218907   7.290   6.009   0.770
 6321TIP3    H118908   7.239   6.022   0.850
 6321TIP3    H218909   7.381   6.025   0.797
 6322TIP3   OH218910   0.377   4.515   6.153
 6322TIP3    H118911   0.368   4.609   6.135
 6322TIP3    H218912   0.441   4.485   6.088
 6323TIP3   OH218913   6.237   4.789   3.617
 6323TIP3    H118914   6.276   4.862   3.666
 6323TIP3    H218915   6.307   4.760   3.558
 6324TIP3   OH218916   6.369   5.984   0.911
 6324TIP3    H118917   6.350   5.938   0.993
 6324TIP3    H218918   6.327   6.069   0.920
 6325TIP3   OH218919   6.708   0.321   6.245
 6325TIP3    H118920   6.731   0.242   6.294
 6325TIP3    H218921   6.791   0.366   6.231
 6326TIP3   OH218922   2.995   2.233   0.655
 6326TIP3    H118923   3.083   2.227   0.616
 6326TIP3    H218924   2.952   2.303   0.605
 6327TIP3   OH218925   6.354   7.056   3.126
 6327TIP3    H118926   6.307   7.103   3.058
 6327TIP3    H218927   6.287   7.007   3.173
 6328TIP3   OH218928   5.402   0.815   1.005
 6328TIP3    H118929   5.412   0.903   0.971
 6328TIP3    H218930   5.462   0.762   0.952
 6329TIP3   OH218931   0.547   0.262   0.781
 6329TIP3    H118932   0.507   0.284   0.865
 6329TIP3    H218933   0.603   0.338   0.761
 6330TIP3   OH218934   3.944   3.792   0.626
 6330TIP3    H118935   3.875   3.737   0.590
 6330TIP3    H218936   4.021   3.735   0.627
 6331TIP3   OH218937   7.238   5.739   4.498
 6331TIP3    H118938   7.150   5.738   4.535
 6331TIP3    H218939   7.246   5.654   4.455
 6332TIP3   OH218940   1.039   1.496   1.631
 6332TIP3    H118941   1.020   1.426   1.568
 6332TIP3    H218942   1.085   1.563   1.579
 6333TIP3   OH218943   7.820   4.108   0.961
 6333TIP3    H118944   7.905   4.065   0.949
 6333TIP3    H218945   7.759   4.036   0.979
 6334TIP3   OH218946   4.299   3.084   0.825
 6334TIP3    H118947   4.214   3.123   0.804
 6334TIP3    H218948   4.323   3.124   0.909
 6335TIP3   OH218949   2.550   5.706   5.806
 6335TIP3    H118950   2.590   5.675   5.887
 6335TIP3    H218951   2.479   5.644   5.789
 6336TIP3   OH218952   5.614   7.228   4.779
 6336TIP3    H118953   5.648   7.256   4.694
 6336TIP3    H218954   5.680   7.255   4.842
 6337TIP3   OH218955   0.359   0.360   4.031
 6337TIP3    H118956   0.330   0.269   4.027
 6337TIP3    H218957   0.401   0.367   4.117
 6338TIP3   OH218958   7.159   2.455   0.899
 6338TIP3    H118959   7.170   2.543   0.936
 6338TIP3    H218960   7.125   2.403   0.972
 6339TIP3   OH218961   4.189   6.819   6.505
 6339TIP3    H118962   4.253   6.754   6.534
 6339TIP3    H218963   4.225   6.852   6.423
 6340TIP3   OH218964   0.894   2.537   0.961
 6340TIP3    H118965   0.978   2.500   0.933
 6340TIP3    H218966   0.851   2.563   0.879
 6341TIP3   OH218967   1.968   0.671   1.541
 6341TIP3    H118968   1.968   0.740   1.608
 6341TIP3    H218969   1.876   0.653   1.526
 6342TIP3   OH218970   0.014   6.549   0.173
 6342TIP3    H118971   0.072   6.623   0.155
 6342TIP3    H218972  -0.060   6.561   0.113
 6343TIP3   OH218973   6.658   5.761   4.270
 6343TIP3    H118974   6.708   5.842   4.287
 6343TIP3    H218975   6.579   5.771   4.323
 6344TIP3   OH218976   3.891   5.256   0.915
 6344TIP3    H118977   3.917   5.334   0.962
 6344TIP3    H218978   3.890   5.282   0.823
 6345TIP3   OH218979   4.991   3.086   3.003
 6345TIP3    H118980   5.017   3.050   3.088
 6345TIP3    H218981   4.913   3.138   3.023
 6346TIP3   OH218982   4.921   7.341   2.442
 6346TIP3    H118983   4.856   7.280   2.475
 6346TIP3    H218984   4.960   7.380   2.520
 6347TIP3   OH218985   2.392   2.057   0.362
 6347TIP3    H118986   2.380   2.122   0.293
 6347TIP3    H218987   2.342   2.092   0.436
 6348TIP3   OH218988   0.887   0.948   2.845
 6348TIP3    H118989   0.934   0.889   2.786
 6348TIP3    H218990   0.805   0.902   2.865
 6349TIP3   OH218991   7.368   1.608   2.804
 6349TIP3    H118992   7.309   1.558   2.859
 6349TIP3    H218993   7.401   1.545   2.740
 6350TIP3   OH218994   2.436   7.296   1.659
 6350TIP3    H118995   2.409   7.314   1.569
 6350TIP3    H218996   2.434   7.381   1.702
 6351TIP3   OH218997   3.482   0.639   5.858
 6351TIP3    H118998   3.532   0.626   5.777
 6351TIP3    H218999   3.483   0.553   5.901
 6352TIP3   OH219000   2.889   3.135   4.985
 6352TIP3    H119001   2.797   3.160   4.980
 6352TIP3    H219002   2.933   3.214   5.017
 6353TIP3   OH219003   6.345   0.081   5.266
 6353TIP3    H119004   6.429   0.121   5.288
 6353TIP3    H219005   6.361  -0.013   5.277
 6354TIP3   OH219006   1.389   0.030   0.861
 6354TIP3    H119007   1.453   0.070   0.919
 6354TIP3    H219008   1.321   0.097   0.849
 6355TIP3   OH219009   2.424   5.822   6.138
 6355TIP3    H119010   2.409   5.903   6.088
 6355TIP3    H219011   2.505   5.786   6.102
 6356TIP3   OH219012   6.486   3.615   4.346
 6356TIP3    H119013   6.502   3.645   4.435
 6356TIP3    H219014   6.484   3.519   4.353
 6357TIP3   OH219015   2.529   0.714   3.242
 6357TIP3    H119016   2.483   0.732   3.160
 6357TIP3    H219017   2.507   0.789   3.298
 6358TIP3   OH219018   4.415   5.909   0.680
 6358TIP3    H119019   4.340   5.850   0.683
 6358TIP3    H219020   4.470   5.882   0.754
 6359TIP3   OH219021   5.489   0.401   5.311
 6359TIP3    H119022   5.546   0.455   5.255
 6359TIP3    H219023   5.496   0.313   5.275
 6360TIP3   OH219024   7.652   4.089   4.965
 6360TIP3    H119025   7.737   4.046   4.955
 6360TIP3    H219026   7.659   4.135   5.049
 6361TIP3   OH219027   1.868   7.104   6.637
 6361TIP3    H119028   1.862   7.074   6.728
 6361TIP3    H219029   1.855   7.199   6.643
 6362TIP3   OH219030   0.402   6.951   4.733
 6362TIP3    H119031   0.469   6.991   4.678
 6362TIP3    H219032   0.335   6.922   4.671
 6363TIP3   OH219033   2.585   0.790   6.398
 6363TIP3    H119034   2.673   0.821   6.418
 6363TIP3    H219035   2.542   0.864   6.355
 6364TIP3   OH219036   1.087   6.594   4.148
 6364TIP3    H119037   1.015   6.605   4.087
 6364TIP3    H219038   1.161   6.568   4.093
 6365TIP3   OH219039   7.301   2.612   0.256
 6365TIP3    H119040   7.322   2.522   0.279
 6365TIP3    H219041   7.302   2.614   0.161
 6366TIP3   OH219042   7.927   1.625   6.330
 6366TIP3    H119043   7.879   1.592   6.406
 6366TIP3    H219044   7.981   1.551   6.302
 6367TIP3   OH219045   7.759   0.738   3.229
 6367TIP3    H119046   7.695   0.791   3.277
 6367TIP3    H219047   7.712   0.658   3.205
 6368TIP3   OH219048   1.196   1.180   6.605
 6368TIP3    H119049   1.288   1.193   6.580
 6368TIP3    H219050   1.180   1.246   6.673
 6369TIP3   OH219051   3.423   1.645   5.848
 6369TIP3    H119052   3.440   1.646   5.942
 6369TIP3    H219053   3.441   1.735   5.819
 6370TIP3   OH219054   8.025   6.428   6.149
 6370TIP3    H119055   8.015   6.486   6.074
 6370TIP3    H219056   8.066   6.482   6.216
 6371TIP3   OH219057   2.637   5.403   6.709
 6371TIP3    H119058   2.583   5.342   6.658
 6371TIP3    H219059   2.631   5.371   6.799
 6372TIP3   OH219060   4.927   3.033   4.400
 6372TIP3    H119061   4.892   3.122   4.402
 6372TIP3    H219062   4.995   3.032   4.468
 6373TIP3   OH219063   0.310   2.860   3.302
 6373TIP3    H119064   0.337   2.906   3.382
 6373TIP3    H219065   0.375   2.885   3.237
 6374TIP3   OH219066   2.973   4.826   4.032
 6374TIP3    H119067   2.890   4.871   4.046
 6374TIP3    H219068   2.999   4.795   4.119
 6375TIP3   OH219069   6.338   3.593   6.490
 6375TIP3    H119070   6.375   3.643   6.563
 6375TIP3    H219071   6.383   3.508   6.494
 6376TIP3   OH219072   3.364   0.355   6.648
 6376TIP3    H119073   3.293   0.327   6.591
 6376TIP3    H219074   3.327   0.354   6.736
 6377TIP3   OH219075   6.098   1.539   5.645
 6377TIP3    H119076   6.034   1.473   5.673
 6377TIP3    H219077   6.059   1.578   5.567
 6378TIP3   OH219078   3.931   6.121   0.529
 6378TIP3    H119079   3.997   6.069   0.576
 6378TIP3    H219080   3.978   6.156   0.453
 6379TIP3   OH219081   5.711   6.282   2.932
 6379TIP3    H119082   5.676   6.368   2.957
 6379TIP3    H219083   5.641   6.243   2.878
 6380TIP3   OH219084   2.373   7.735   3.335
 6380TIP3    H119085   2.315   7.729   3.258
 6380TIP3    H219086   2.376   7.829   3.355
 6381TIP3   OH219087   4.166   6.591   4.838
 6381TIP3    H119088   4.214   6.563   4.760
 6381TIP3    H219089   4.175   6.686   4.840
 6382TIP3   OH219090   6.716   4.003   5.536
 6382TIP3    H119091   6.764   3.950   5.472
 6382TIP3    H219092   6.629   3.963   5.540
 6383TIP3   OH219093   0.235   6.126   0.478
 6383TIP3    H119094   0.209   6.040   0.511
 6383TIP3    H219095   0.328   6.118   0.459
 6384TIP3   OH219096   1.008   5.620   2.981
 6384TIP3    H119097   0.924   5.633   2.937
 6384TIP3    H219098   1.069   5.679   2.936
 6385TIP3   OH219099   5.759   4.172   6.362
 6385TIP3    H119100   5.795   4.087   6.386
 6385TIP3    H219101   5.667   4.154   6.343
 6386TIP3   OH219102   4.490   4.254   4.148
 6386TIP3    H119103   4.572   4.208   4.166
 6386TIP3    H219104   4.441   4.251   4.230
 6387TIP3   OH219105   0.167   2.937   5.408
 6387TIP3    H119106   0.163   3.033   5.404
 6387TIP3    H219107   0.124   2.908   5.327
 6388TIP3   OH219108   6.815   6.745   5.277
 6388TIP3    H119109   6.906   6.750   5.307
 6388TIP3    H219110   6.815   6.676   5.211
 6389TIP3   OH219111   3.170   5.383   1.648
 6389TIP3    H119112   3.082   5.358   1.676
 6389TIP3    H219113   3.162   5.474   1.620
 6390TIP3   OH219114   2.382   2.982   4.408
 6390TIP3    H119115   2.423   2.996   4.322
 6390TIP3    H219116   2.456   2.973   4.468
 6391TIP3   OH219117   7.439   0.249   0.349
 6391TIP3    H119118   7.386   0.263   0.271
 6391TIP3    H219119   7.387   0.189   0.403
 6392TIP3   OH219120   0.403   0.301   6.322
 6392TIP3    H119121   0.371   0.273   6.408
 6392TIP3    H219122   0.497   0.309   6.333
 6393TIP3   OH219123   0.068   1.929   3.913
 6393TIP3    H119124   0.028   1.961   3.833
 6393TIP3    H219125   0.013   1.856   3.941
 6394TIP3   OH219126   2.406   2.250   6.564
 6394TIP3    H119127   2.490   2.275   6.603
 6394TIP3    H219128   2.365   2.194   6.630
 6395TIP3   OH219129   0.269   0.579   6.609
 6395TIP3    H119130   0.236   0.495   6.577
 6395TIP3    H219131   0.253   0.577   6.703
 6396TIP3   OH219132   5.856   5.491   1.510
 6396TIP3    H119133   5.777   5.471   1.458
 6396TIP3    H219134   5.825   5.492   1.601
 6397TIP3   OH219135   1.644   1.107   4.550
 6397TIP3    H119136   1.725   1.142   4.588
 6397TIP3    H219137   1.627   1.028   4.601
 6398TIP3   OH219138   3.738   5.510   4.150
 6398TIP3    H119139   3.811   5.531   4.092
 6398TIP3    H219140   3.779   5.501   4.237
 6399TIP3   OH219141   0.197   5.846   2.637
 6399TIP3    H119142   0.208   5.751   2.637
 6399TIP3    H219143   0.273   5.880   2.684
 6400TIP3   OH219144   4.783   5.978   0.326
 6400TIP3    H119145   4.785   6.000   0.419
 6400TIP3    H219146   4.715   5.911   0.318
 6401TIP3   OH219147   8.032   5.971   2.489
 6401TIP3    H119148   8.019   6.064   2.508
 6401TIP3    H219149   8.126   5.961   2.479
 6402TIP3   OH219150   4.728   3.266   2.593
 6402TIP3    H119151   4.803   3.241   2.539
 6402TIP3    H219152   4.711   3.189   2.648
 6403TIP3   OH219153   1.276   6.972   4.329
 6403TIP3    H119154   1.241   7.033   4.394
 6403TIP3    H219155   1.332   7.026   4.273
 6404TIP3   OH219156   6.530   7.328   3.736
 6404TIP3    H119157   6.467   7.267   3.773
 6404TIP3    H219158   6.585   7.275   3.678
 6405TIP3   OH219159   7.253   2.137   0.851
 6405TIP3    H119160   7.313   2.180   0.913
 6405TIP3    H219161   7.181   2.106   0.905
 6406TIP3   OH219162   7.598   6.212   2.781
 6406TIP3    H119163   7.536   6.139   2.791
 6406TIP3    H219164   7.682   6.169   2.768
 6407TIP3   OH219165   5.305   5.244   4.188
 6407TIP3    H119166   5.304   5.168   4.130
 6407TIP3    H219167   5.379   5.228   4.247
 6408TIP3   OH219168   2.792   0.445   6.516
 6408TIP3    H119169   2.785   0.350   6.509
 6408TIP3    H219170   2.771   0.477   6.428
 6409TIP3   OH219171   1.098   0.145   4.500
 6409TIP3    H119172   1.115   0.052   4.486
 6409TIP3    H219173   1.012   0.147   4.543
 6410TIP3   OH219174   6.377   5.921   4.176
 6410TIP3    H119175   6.397   6.001   4.225
 6410TIP3    H219176   6.334   5.953   4.097
 6411TIP3   OH219177   2.802   1.428   1.943
 6411TIP3    H119178   2.787   1.418   1.849
 6411TIP3    H219179   2.894   1.405   1.956
 6412TIP3   OH219180   1.754   2.355   0.488
 6412TIP3    H119181   1.665   2.379   0.513
 6412TIP3    H219182   1.807   2.430   0.513
 6413TIP3   OH219183   6.309   0.799   0.519
 6413TIP3    H119184   6.387   0.746   0.527
 6413TIP3    H219185   6.308   0.827   0.427
 6414TIP3   OH219186   5.390   3.703   5.668
 6414TIP3    H119187   5.459   3.717   5.604
 6414TIP3    H219188   5.333   3.637   5.627
 6415TIP3   OH219189   7.284   4.624   1.153
 6415TIP3    H119190   7.278   4.720   1.150
 6415TIP3    H219191   7.372   4.607   1.187
 6416TIP3   OH219192   1.835   7.547   1.558
 6416TIP3    H119193   1.835   7.518   1.467
 6416TIP3    H219194   1.754   7.511   1.595
 6417TIP3   OH219195   0.641   1.359   1.117
 6417TIP3    H119196   0.554   1.394   1.135
 6417TIP3    H219197   0.647   1.356   1.022
 6418TIP3   OH219198   2.415   4.433   3.413
 6418TIP3    H119199   2.430   4.347   3.452
 6418TIP3    H219200   2.357   4.478   3.475
 6419TIP3   OH219201   3.880   2.324   6.742
 6419TIP3    H119202   3.803   2.300   6.691
 6419TIP3    H219203   3.844   2.362   6.823
 6420TIP3   OH219204   4.059   2.086   0.382
 6420TIP3    H119205   4.054   2.181   0.392
 6420TIP3    H219206   4.151   2.064   0.397
 6421TIP3   OH219207   6.087   6.046   0.036
 6421TIP3    H119208   6.003   6.082   0.008
 6421TIP3    H219209   6.100   6.082   0.124
 6422TIP3   OH219210   1.840   6.024   5.795
 6422TIP3    H119211   1.872   6.084   5.727
 6422TIP3    H219212   1.890   5.943   5.781
 6423TIP3   OH219213   7.846   5.578   3.350
 6423TIP3    H119214   7.918   5.535   3.305
 6423TIP3    H219215   7.770   5.564   3.293
 6424TIP3   OH219216   3.833   6.272   6.001
 6424TIP3    H119217   3.824   6.332   5.928
 6424TIP3    H219218   3.927   6.271   6.020
 6425TIP3   OH219219   1.932   4.276   2.137
 6425TIP3    H119220   1.898   4.310   2.220
 6425TIP3    H219221   1.999   4.213   2.163
 6426TIP3   OH219222   3.652   5.995   5.701
 6426TIP3    H119223   3.746   6.007   5.686
 6426TIP3    H219224   3.633   5.909   5.664
 6427TIP3   OH219225   4.102   3.148   0.275
 6427TIP3    H119226   4.196   3.165   0.284
 6427TIP3    H219227   4.096   3.075   0.214
 6428TIP3   OH219228   3.457   4.563   3.133
 6428TIP3    H119229   3.537   4.550   3.183
 6428TIP3    H219230   3.387   4.560   3.198
 6429TIP3   OH219231   6.391   3.105   1.610
 6429TIP3    H119232   6.333   3.121   1.536
 6429TIP3    H219233   6.477   3.135   1.580
 6430TIP3   OH219234   7.412   1.959   2.580
 6430TIP3    H119235   7.394   2.036   2.634
 6430TIP3    H219236   7.445   1.894   2.641
 6431TIP3   OH219237   0.445   7.762   4.024
 6431TIP3    H119238   0.443   7.764   4.120
 6431TIP3    H219239   0.538   7.764   4.003
 6432TIP3   OH219240   7.987   5.388   2.957
 6432TIP3    H119241   7.934   5.330   3.011
 6432TIP3    H219242   7.966   5.476   2.987
 6433TIP3   OH219243   3.522   0.158   2.586
 6433TIP3    H119244   3.538   0.251   2.577
 6433TIP3    H219245   3.428   0.148   2.570
 6434TIP3   OH219246   5.001   5.525   5.362
 6434TIP3    H119247   4.997   5.429   5.367
 6434TIP3    H219248   5.091   5.544   5.337
 6435TIP3   OH219249   2.026   3.920   5.577
 6435TIP3    H119250   1.952   3.962   5.532
 6435TIP3    H219251   1.995   3.909   5.668
 6436TIP3   OH219252   4.618   2.217   2.047
 6436TIP3    H119253   4.698   2.194   2.000
 6436TIP3    H219254   4.559   2.250   1.979
 6437TIP3   OH219255   3.446   7.087   0.237
 6437TIP3    H119256   3.386   7.139   0.290
 6437TIP3    H219257   3.417   6.996   0.249
 6438TIP3   OH219258   5.864   3.122   4.947
 6438TIP3    H119259   5.830   3.037   4.918
 6438TIP3    H219260   5.950   3.128   4.905
 6439TIP3   OH219261   4.822   2.547   4.015
 6439TIP3    H119262   4.802   2.577   4.104
 6439TIP3    H219263   4.887   2.610   3.984
 6440TIP3   OH219264   6.918   3.169   5.714
 6440TIP3    H119265   6.849   3.211   5.662
 6440TIP3    H219266   6.934   3.086   5.670
 6441TIP3   OH219267   1.230   7.095   2.928
 6441TIP3    H119268   1.258   7.014   2.885
 6441TIP3    H219269   1.251   7.164   2.865
 6442TIP3   OH219270   6.401   1.188   3.769
 6442TIP3    H119271   6.481   1.176   3.820
 6442TIP3    H219272   6.418   1.265   3.716
 6443TIP3   OH219273   4.271   4.631   5.811
 6443TIP3    H119274   4.284   4.688   5.887
 6443TIP3    H219275   4.183   4.651   5.781
 6444TIP3   OH219276   7.810   7.355   0.857
 6444TIP3    H119277   7.724   7.315   0.847
 6444TIP3    H219278   7.796   7.447   0.837
 6445TIP3   OH219279   4.961   1.268   0.717
 6445TIP3    H119280   4.902   1.195   0.701
 6445TIP3    H219281   4.993   1.293   0.630
 6446TIP3   OH219282   6.383   6.189   4.250
 6446TIP3    H119283   6.288   6.174   4.248
 6446TIP3    H219284   6.392   6.284   4.262
 6447TIP3   OH219285   0.541   1.707   6.367
 6447TIP3    H119286   0.610   1.696   6.433
 6447TIP3    H219287   0.585   1.744   6.291
 6448TIP3   OH219288   0.556   6.879   5.651
 6448TIP3    H119289   0.500   6.813   5.690
 6448TIP3    H219290   0.551   6.954   5.710
 6449TIP3   OH219291   5.728   6.453   0.712
 6449TIP3    H119292   5.768   6.399   0.780
 6449TIP3    H219293   5.635   6.455   0.734
 6450TIP3   OH219294   3.665   1.237   2.970
 6450TIP3    H119295   3.661   1.326   3.006
 6450TIP3    H219296   3.711   1.186   3.037
 6451TIP3   OH219297   5.589   0.426   0.714
 6451TIP3    H119298   5.682   0.433   0.694
 6451TIP3    H219299   5.551   0.386   0.635
 6452TIP3   OH219300   3.679   0.765   2.006
 6452TIP3    H119301   3.742   0.716   2.058
 6452TIP3    H219302   3.621   0.806   2.071
 6453TIP3   OH219303   2.317   0.362   1.392
 6453TIP3    H119304   2.366   0.347   1.473
 6453TIP3    H219305   2.381   0.402   1.333
 6454TIP3   OH219306   5.554   3.196   6.583
 6454TIP3    H119307   5.465   3.227   6.602
 6454TIP3    H219308   5.554   3.182   6.488
 6455TIP3   OH219309   5.457   6.085   0.078
 6455TIP3    H119310   5.386   6.084   0.013
 6455TIP3    H219311   5.503   6.167   0.062
 6456TIP3   OH219312   7.822   3.235   0.655
 6456TIP3    H119313   7.811   3.182   0.734
 6456TIP3    H219314   7.821   3.325   0.686
 6457TIP3   OH219315   7.149   3.727   5.641
 6457TIP3    H119316   7.115   3.815   5.658
 6457TIP3    H219317   7.071   3.672   5.636
 6458TIP3   OH219318   3.754   2.569   4.482
 6458TIP3    H119319   3.767   2.530   4.568
 6458TIP3    H219320   3.675   2.622   4.491
 6459TIP3   OH219321   3.069   5.864   4.886
 6459TIP3    H119322   3.156   5.849   4.924
 6459TIP3    H219323   3.039   5.946   4.926
 6460TIP3   OH219324   4.821   5.226   1.794
 6460TIP3    H119325   4.776   5.216   1.710
 6460TIP3    H219326   4.888   5.158   1.794
 6461TIP3   OH219327   5.725   2.008   4.690
 6461TIP3    H119328   5.642   2.054   4.680
 6461TIP3    H219329   5.773   2.059   4.755
 6462TIP3   OH219330   2.534   1.530   0.790
 6462TIP3    H119331   2.547   1.572   0.704
 6462TIP3    H219332   2.455   1.477   0.779
 6463TIP3   OH219333   0.287   2.551   0.987
 6463TIP3    H119334   0.334   2.476   1.025
 6463TIP3    H219335   0.241   2.514   0.911
 6464TIP3   OH219336   7.039   2.803   1.119
 6464TIP3    H119337   6.975   2.744   1.080
 6464TIP3    H219338   7.113   2.801   1.058
 6465TIP3   OH219339   6.715   0.897   5.341
 6465TIP3    H119340   6.633   0.940   5.363
 6465TIP3    H219341   6.711   0.814   5.388
 6466TIP3   OH219342   3.485   6.079   2.129
 6466TIP3    H119343   3.400   6.122   2.126
 6466TIP3    H219344   3.485   6.031   2.211
 6467TIP3   OH219345   2.909   5.168   5.940
 6467TIP3    H119346   2.885   5.213   6.021
 6467TIP3    H219347   2.999   5.140   5.954
 6468TIP3   OH219348   5.326   4.176   5.001
 6468TIP3    H119349   5.360   4.186   5.090
 6468TIP3    H219350   5.402   4.191   4.945
 6469TIP3   OH219351   6.699   6.437   4.658
 6469TIP3    H119352   6.716   6.445   4.564
 6469TIP3    H219353   6.751   6.361   4.686
 6470TIP3   OH219354   2.042   2.417   6.654
 6470TIP3    H119355   2.086   2.424   6.569
 6470TIP3    H219356   2.102   2.458   6.716
 6471TIP3   OH219357   3.155   1.885   2.960
 6471TIP3    H119358   3.133   1.945   3.031
 6471TIP3    H219359   3.239   1.846   2.986
 6472TIP3   OH219360   4.312   5.554   0.236
 6472TIP3    H119361   4.399   5.519   0.220
 6472TIP3    H219362   4.258   5.522   0.164
 6473TIP3   OH219363   6.542   6.598   3.080
 6473TIP3    H119364   6.489   6.599   3.000
 6473TIP3    H219365   6.501   6.531   3.135
 6474TIP3   OH219366   4.515   5.113   3.472
 6474TIP3    H119367   4.568   5.182   3.434
 6474TIP3    H219368   4.468   5.155   3.544
 6475TIP3   OH219369   2.620   5.183   3.724
 6475TIP3    H119370   2.644   5.245   3.792
 6475TIP3    H219371   2.688   5.116   3.727
 6476TIP3   OH219372   6.183   4.599   2.116
 6476TIP3    H119373   6.189   4.518   2.065
 6476TIP3    H219374   6.162   4.666   2.052
 6477TIP3   OH219375   8.108   1.440   6.287
 6477TIP3    H119376   8.174   1.434   6.218
 6477TIP3    H219377   8.153   1.409   6.366
 6478TIP3   OH219378   6.326   5.952   3.419
 6478TIP3    H119379   6.284   5.898   3.353
 6478TIP3    H219380   6.412   5.973   3.382
 6479TIP3   OH219381   3.814   5.577   6.104
 6479TIP3    H119382   3.764   5.498   6.125
 6479TIP3    H219383   3.765   5.649   6.143
 6480TIP3   OH219384   2.558   3.085   0.774
 6480TIP3    H119385   2.619   3.142   0.726
 6480TIP3    H219386   2.586   3.092   0.865
 6481TIP3   OH219387   2.998   2.116   1.257
 6481TIP3    H119388   3.065   2.076   1.202
 6481TIP3    H219389   2.922   2.058   1.250
 6482TIP3   OH219390   5.468   1.122   2.066
 6482TIP3    H119391   5.420   1.205   2.071
 6482TIP3    H219392   5.536   1.138   2.000
 6483TIP3   OH219393   5.546   6.735   6.790
 6483TIP3    H119394   5.626   6.689   6.817
 6483TIP3    H219395   5.573   6.787   6.715
 6484TIP3   OH219396   7.646   4.167   5.223
 6484TIP3    H119397   7.602   4.221   5.288
 6484TIP3    H219398   7.640   4.078   5.258
 6485TIP3   OH219399   0.113   4.832   3.222
 6485TIP3    H119400   0.128   4.926   3.212
 6485TIP3    H219401   0.200   4.796   3.239
 6486TIP3   OH219402   5.950   5.531   1.789
 6486TIP3    H119403   5.983   5.563   1.873
 6486TIP3    H219404   5.935   5.611   1.738
 6487TIP3   OH219405   1.692   0.160   6.351
 6487TIP3    H119406   1.748   0.108   6.294
 6487TIP3    H219407   1.632   0.205   6.291
 6488TIP3   OH219408   4.346   2.132   6.625
 6488TIP3    H119409   4.289   2.138   6.549
 6488TIP3    H219410   4.418   2.191   6.606
 6489TIP3   OH219411   5.378   5.774   3.155
 6489TIP3    H119412   5.372   5.686   3.193
 6489TIP3    H219413   5.323   5.769   3.077
 6490TIP3   OH219414   1.265   4.907   5.427
 6490TIP3    H119415   1.337   4.939   5.482
 6490TIP3    H219416   1.217   4.986   5.402
 6491TIP3   OH219417   2.857   4.253   6.607
 6491TIP3    H119418   2.867   4.194   6.533
 6491TIP3    H219419   2.773   4.296   6.593
 6492TIP3   OH219420   4.512   7.558   0.365
 6492TIP3    H119421   4.423   7.539   0.395
 6492TIP3    H219422   4.565   7.553   0.444
 6493TIP3   OH219423   2.677   5.890   5.091
 6493TIP3    H119424   2.760   5.882   5.139
 6493TIP3    H219425   2.614   5.843   5.145
 6494TIP3   OH219426   8.235   5.217   4.807
 6494TIP3    H119427   8.161   5.278   4.797
 6494TIP3    H219428   8.281   5.222   4.723
 6495TIP3   OH219429   1.645   0.490   2.211
 6495TIP3    H119430   1.555   0.494   2.243
 6495TIP3    H219431   1.687   0.422   2.264
 6496TIP3   OH219432   6.077   7.640   5.732
 6496TIP3    H119433   6.095   7.730   5.704
 6496TIP3    H219434   6.033   7.651   5.817
 6497TIP3   OH219435   5.237   6.575   5.563
 6497TIP3    H119436   5.244   6.548   5.471
 6497TIP3    H219437   5.222   6.493   5.610
 6498TIP3   OH219438   2.659   2.807   5.148
 6498TIP3    H119439   2.655   2.888   5.199
 6498TIP3    H219440   2.619   2.830   5.064
 6499TIP3   OH219441   0.689   4.457   5.501
 6499TIP3    H119442   0.763   4.418   5.454
 6499TIP3    H219443   0.667   4.392   5.568
 6500TIP3   OH219444   6.805   5.913   4.827
 6500TIP3    H119445   6.769   5.892   4.741
 6500TIP3    H219446   6.746   5.980   4.862
 6501TIP3   OH219447   4.535   4.612   4.970
 6501TIP3    H119448   4.536   4.565   4.888
 6501TIP3    H219449   4.481   4.560   5.028
 6502TIP3   OH219450   2.118   0.751   4.227
 6502TIP3    H119451   2.143   0.836   4.264
 6502TIP3    H219452   2.168   0.745   4.146
 6503TIP3   OH219453   6.472   3.105   2.318
 6503TIP3    H119454   6.377   3.105   2.331
 6503TIP3    H219455   6.496   3.198   2.322
 6504TIP3   OH219456   3.059   4.064   2.778
 6504TIP3    H119457   3.105   4.025   2.704
 6504TIP3    H219458   3.127   4.076   2.845
 6505TIP3   OH219459   4.633   3.359   1.263
 6505TIP3    H119460   4.670   3.317   1.185
 6505TIP3    H219461   4.677   3.316   1.336
 6506TIP3   OH219462   2.054   0.488   2.291
 6506TIP3    H119463   2.144   0.457   2.283
 6506TIP3    H219464   2.000   0.409   2.278
 6507TIP3   OH219465   0.309   1.085   0.350
 6507TIP3    H119466   0.401   1.080   0.374
 6507TIP3    H219467   0.305   1.151   0.281
 6508TIP3   OH219468   1.761   3.682   1.567
 6508TIP3    H119469   1.671   3.651   1.575
 6508TIP3    H219470   1.758   3.747   1.497
 6509TIP3   OH219471   3.767   0.698   6.119
 6509TIP3    H119472   3.684   0.704   6.166
 6509TIP3    H219473   3.825   0.651   6.179
 6510TIP3   OH219474   4.434   2.464   5.752
 6510TIP3    H119475   4.501   2.514   5.706
 6510TIP3    H219476   4.473   2.377   5.764
 6511TIP3   OH219477   3.268   1.289   3.373
 6511TIP3    H119478   3.239   1.372   3.411
 6511TIP3    H219479   3.309   1.313   3.290
 6512TIP3   OH219480   6.598   4.824   3.683
 6512TIP3    H119481   6.667   4.873   3.639
 6512TIP3    H219482   6.644   4.757   3.734
 6513TIP3   OH219483   4.401   4.029   1.950
 6513TIP3    H119484   4.384   4.114   1.991
 6513TIP3    H219485   4.365   3.966   2.012
 6514TIP3   OH219486   0.468   0.804   3.833
 6514TIP3    H119487   0.442   0.771   3.919
 6514TIP3    H219488   0.526   0.877   3.852
 6515TIP3   OH219489   3.117   4.243   0.553
 6515TIP3    H119490   3.035   4.292   0.560
 6515TIP3    H219491   3.182   4.300   0.593
 6516TIP3   OH219492   4.554   0.612   2.361
 6516TIP3    H119493   4.622   0.666   2.402
 6516TIP3    H219494   4.496   0.587   2.434
 6517TIP3   OH219495   0.618   1.505   4.216
 6517TIP3    H119496   0.536   1.539   4.180
 6517TIP3    H219497   0.592   1.424   4.261
 6518TIP3   OH219498   2.547   1.853   4.644
 6518TIP3    H119499   2.578   1.835   4.556
 6518TIP3    H219500   2.467   1.802   4.653
 6519TIP3   OH219501   7.373   6.770   1.569
 6519TIP3    H119502   7.350   6.677   1.571
 6519TIP3    H219503   7.394   6.787   1.477
 6520TIP3   OH219504   7.707   2.067   4.924
 6520TIP3    H119505   7.694   2.073   5.019
 6520TIP3    H219506   7.782   2.124   4.906
 6521TIP3   OH219507   6.866   3.166   1.279
 6521TIP3    H119508   6.835   3.255   1.262
 6521TIP3    H219509   6.795   3.109   1.250
 6522TIP3   OH219510   6.840   6.603   2.226
 6522TIP3    H119511   6.793   6.525   2.254
 6522TIP3    H219512   6.932   6.580   2.232
 6523TIP3   OH219513   1.692   3.857   1.367
 6523TIP3    H119514   1.654   3.805   1.296
 6523TIP3    H219515   1.619   3.910   1.399
 6524TIP3   OH219516   0.697   7.748   6.665
 6524TIP3    H119517   0.705   7.806   6.741
 6524TIP3    H219518   0.787   7.727   6.641
 6525TIP3   OH219519   4.327   5.919   2.568
 6525TIP3    H119520   4.279   5.994   2.603
 6525TIP3    H219521   4.375   5.954   2.493
 6526TIP3   OH219522   2.204   3.589   0.930
 6526TIP3    H119523   2.229   3.598   1.022
 6526TIP3    H219524   2.120   3.542   0.932
 6527TIP3   OH219525   7.638   3.112   3.096
 6527TIP3    H119526   7.657   3.183   3.157
 6527TIP3    H219527   7.572   3.149   3.037
 6528TIP3   OH219528   7.186   6.470   5.315
 6528TIP3    H119529   7.216   6.544   5.368
 6528TIP3    H219530   7.092   6.485   5.305
 6529TIP3   OH219531   5.530   4.346   1.532
 6529TIP3    H119532   5.623   4.342   1.555
 6529TIP3    H219533   5.513   4.438   1.516
 6530TIP3   OH219534   7.947   4.891   6.406
 6530TIP3    H119535   7.876   4.827   6.408
 6530TIP3    H219536   8.025   4.841   6.431
 6531TIP3   OH219537   5.718   4.028   0.542
 6531TIP3    H119538   5.685   3.951   0.587
 6531TIP3    H219539   5.796   4.053   0.592
 6532TIP3   OH219540   6.904   7.242   2.456
 6532TIP3    H119541   6.973   7.290   2.503
 6532TIP3    H219542   6.880   7.299   2.383
 6533TIP3   OH219543   7.063   4.300   5.505
 6533TIP3    H119544   7.110   4.339   5.579
 6533TIP3    H219545   7.108   4.217   5.489
 6534TIP3   OH219546   7.351   1.509   2.473
 6534TIP3    H119547   7.278   1.450   2.492
 6534TIP3    H219548   7.422   1.479   2.530
 6535TIP3   OH219549   2.517   0.862   0.744
 6535TIP3    H119550   2.473   0.778   0.728
 6535TIP3    H219551   2.591   0.862   0.684
 6536TIP3   OH219552   3.763   2.645   6.187
 6536TIP3    H119553   3.762   2.609   6.276
 6536TIP3    H219554   3.812   2.582   6.136
 6537TIP3   OH219555   2.332   2.392   0.816
 6537TIP3    H119556   2.392   2.331   0.858
 6537TIP3    H219557   2.258   2.338   0.787
 6538TIP3   OH219558   1.264   2.486   5.538
 6538TIP3    H119559   1.324   2.455   5.471
 6538TIP3    H219560   1.320   2.505   5.613
 6539TIP3   OH219561   1.108   3.993   5.397
 6539TIP3    H119562   1.052   4.032   5.463
 6539TIP3    H219563   1.196   3.996   5.434
 6540TIP3   OH219564   0.766   5.468   6.768
 6540TIP3    H119565   0.671   5.452   6.768
 6540TIP3    H219566   0.777   5.546   6.714
 6541TIP3   OH219567   0.648   6.470   0.833
 6541TIP3    H119568   0.716   6.471   0.765
 6541TIP3    H219569   0.577   6.521   0.795
 6542TIP3   OH219570   8.280   1.083   1.484
 6542TIP3    H119571   8.198   1.038   1.502
 6542TIP3    H219572   8.347   1.015   1.489
 6543TIP3   OH219573   2.795   6.279   4.865
 6543TIP3    H119574   2.713   6.249   4.904
 6543TIP3    H219575   2.813   6.363   4.908
 6544TIP3   OH219576   6.320   5.089   5.956
 6544TIP3    H119577   6.287   5.179   5.951
 6544TIP3    H219578   6.336   5.065   5.865
 6545TIP3   OH219579   1.323   6.416   5.290
 6545TIP3    H119580   1.260   6.413   5.218
 6545TIP3    H219581   1.408   6.425   5.247
 6546TIP3   OH219582   5.716   7.814   3.019
 6546TIP3    H119583   5.763   7.813   2.936
 6546TIP3    H219584   5.686   7.724   3.031
 6547TIP3   OH219585   5.637   4.301   0.431
 6547TIP3    H119586   5.647   4.212   0.395
 6547TIP3    H219587   5.643   4.288   0.526
 6548TIP3   OH219588   5.123   0.410   4.888
 6548TIP3    H119589   5.164   0.348   4.949
 6548TIP3    H219590   5.155   0.496   4.918
 6549TIP3   OH219591   8.258   1.030   0.360
 6549TIP3    H119592   8.249   1.124   0.348
 6549TIP3    H219593   8.349   1.017   0.387
 6550TIP3   OH219594   2.363   6.584   4.099
 6550TIP3    H119595   2.282   6.540   4.074
 6550TIP3    H219596   2.335   6.653   4.159
 6551TIP3   OH219597   3.312   1.277   6.039
 6551TIP3    H119598   3.343   1.220   6.109
 6551TIP3    H219599   3.284   1.357   6.084
 6552TIP3   OH219600   1.468   6.732   6.202
 6552TIP3    H119601   1.543   6.739   6.144
 6552TIP3    H219602   1.408   6.673   6.157
 6553TIP3   OH219603   2.476   4.518   5.828
 6553TIP3    H119604   2.409   4.450   5.819
 6553TIP3    H219605   2.469   4.569   5.747
 6554TIP3   OH219606   4.933   7.179   1.265
 6554TIP3    H119607   4.866   7.137   1.320
 6554TIP3    H219608   5.001   7.112   1.256
 6555TIP3   OH219609   7.834   6.051   2.778
 6555TIP3    H119610   7.879   6.089   2.702
 6555TIP3    H219611   7.901   6.048   2.846
 6556TIP3   OH219612   0.239   1.575   5.419
 6556TIP3    H119613   0.230   1.637   5.347
 6556TIP3    H219614   0.154   1.531   5.424
 6557TIP3   OH219615   4.319   6.741   0.750
 6557TIP3    H119616   4.280   6.654   0.744
 6557TIP3    H219617   4.323   6.772   0.660
 6558TIP3   OH219618   4.630   2.021   4.228
 6558TIP3    H119619   4.671   2.096   4.184
 6558TIP3    H219620   4.562   1.992   4.167
 6559TIP3   OH219621   2.399   1.415   0.259
 6559TIP3    H119622   2.314   1.435   0.221
 6559TIP3    H219623   2.428   1.497   0.298
 6560TIP3   OH219624   7.159   3.674   1.130
 6560TIP3    H119625   7.128   3.655   1.219
 6560TIP3    H219626   7.082   3.658   1.074
 6561TIP3   OH219627   5.650   1.594   2.879
 6561TIP3    H119628   5.660   1.682   2.842
 6561TIP3    H219629   5.627   1.539   2.804
 6562TIP3   OH219630   4.599   6.994   2.202
 6562TIP3    H119631   4.564   6.906   2.214
 6562TIP3    H219632   4.693   6.981   2.187
 6563TIP3   OH219633   6.349   1.341   4.116
 6563TIP3    H119634   6.274   1.314   4.062
 6563TIP3    H219635   6.365   1.266   4.173
 6564TIP3   OH219636   4.686   0.145   3.727
 6564TIP3    H119637   4.746   0.191   3.669
 6564TIP3    H219638   4.697   0.052   3.706
 6565TIP3   OH219639   4.066   1.660   3.092
 6565TIP3    H119640   3.992   1.676   3.151
 6565TIP3    H219641   4.029   1.673   3.005
 6566TIP3   OH219642   8.041   3.715   5.076
 6566TIP3    H119643   8.095   3.700   4.998
 6566TIP3    H219644   7.970   3.652   5.069
 6567TIP3   OH219645   2.410   3.939   4.575
 6567TIP3    H119646   2.498   3.943   4.613
 6567TIP3    H219647   2.416   3.994   4.496
 6568TIP3   OH219648   5.956   1.987   0.692
 6568TIP3    H119649   5.935   1.941   0.773
 6568TIP3    H219650   5.895   2.061   0.691
 6569TIP3   OH219651   8.144   6.226   4.261
 6569TIP3    H119652   8.053   6.252   4.272
 6569TIP3    H219653   8.140   6.143   4.213
 6570TIP3   OH219654   4.664   1.622   1.463
 6570TIP3    H119655   4.624   1.551   1.415
 6570TIP3    H219656   4.722   1.665   1.400
 6571TIP3   OH219657   6.949   0.016   3.395
 6571TIP3    H119658   6.980   0.095   3.352
 6571TIP3    H219659   6.955  -0.052   3.328
 6572TIP3   OH219660   5.279   3.208   1.856
 6572TIP3    H119661   5.332   3.178   1.783
 6572TIP3    H219662   5.338   3.205   1.931
 6573TIP3   OH219663   1.106   6.557   0.778
 6573TIP3    H119664   1.032   6.504   0.807
 6573TIP3    H219665   1.127   6.613   0.853
 6574TIP3   OH219666   1.050   2.336   5.504
 6574TIP3    H119667   1.127   2.392   5.513
 6574TIP3    H219668   1.084   2.256   5.462
 6575TIP3   OH219669   3.135   2.588   0.436
 6575TIP3    H119670   3.174   2.518   0.384
 6575TIP3    H219671   3.201   2.609   0.502
 6576TIP3   OH219672   1.821   1.291   3.080
 6576TIP3    H119673   1.772   1.323   3.156
 6576TIP3    H219674   1.754   1.278   3.012
 6577TIP3   OH219675   5.777   5.840   2.570
 6577TIP3    H119676   5.823   5.851   2.653
 6577TIP3    H219677   5.792   5.922   2.523
 6578TIP3   OH219678   6.740   7.407   6.539
 6578TIP3    H119679   6.727   7.364   6.623
 6578TIP3    H219680   6.652   7.428   6.509
 6579TIP3   OH219681   7.179   7.662   5.272
 6579TIP3    H119682   7.256   7.713   5.296
 6579TIP3    H219683   7.114   7.727   5.247
 6580TIP3   OH219684   3.100   2.918   0.834
 6580TIP3    H119685   3.168   2.981   0.856
 6580TIP3    H219686   3.109   2.849   0.899
 6581TIP3   OH219687   6.661   5.959   0.073
 6581TIP3    H119688   6.693   5.988   0.159
 6581TIP3    H219689   6.708   6.013   0.010
 6582TIP3   OH219690   0.335   4.803   6.127
 6582TIP3    H119691   0.429   4.819   6.112
 6582TIP3    H219692   0.299   4.891   6.141
 6583TIP3   OH219693   3.058   6.176   1.751
 6583TIP3    H119694   2.977   6.125   1.744
 6583TIP3    H219695   3.068   6.217   1.665
 6584TIP3   OH219696   1.820   7.282   5.066
 6584TIP3    H119697   1.805   7.335   4.988
 6584TIP3    H219698   1.787   7.195   5.044
 6585TIP3   OH219699   3.552   2.688   5.338
 6585TIP3    H119700   3.551   2.633   5.260
 6585TIP3    H219701   3.461   2.712   5.351
 6586TIP3   OH219702   5.551   1.896   1.165
 6586TIP3    H119703   5.566   1.830   1.233
 6586TIP3    H219704   5.524   1.845   1.088
 6587TIP3   OH219705   6.526   5.108   2.142
 6587TIP3    H119706   6.459   5.039   2.148
 6587TIP3    H219707   6.477   5.188   2.128
 6588TIP3   OH219708   2.689   4.286   0.829
 6588TIP3    H119709   2.622   4.263   0.894
 6588TIP3    H219710   2.673   4.225   0.757
 6589TIP3   OH219711   4.364   1.064   5.504
 6589TIP3    H119712   4.413   1.145   5.522
 6589TIP3    H219713   4.314   1.049   5.584
 6590TIP3   OH219714   2.292   2.504   5.040
 6590TIP3    H119715   2.219   2.564   5.053
 6590TIP3    H219716   2.286   2.478   4.949
 6591TIP3   OH219717   0.977   6.142   5.753
 6591TIP3    H119718   0.997   6.148   5.847
 6591TIP3    H219719   1.027   6.214   5.714
 6592TIP3   OH219720   2.092   0.719   1.289
 6592TIP3    H119721   2.020   0.695   1.230
 6592TIP3    H219722   2.057   0.703   1.377
 6593TIP3   OH219723   4.033   3.489   3.857
 6593TIP3    H119724   3.979   3.526   3.786
 6593TIP3    H219725   4.066   3.566   3.903
 6594TIP3   OH219726   2.332   1.082   0.793
 6594TIP3    H119727   2.410   1.042   0.757
 6594TIP3    H219728   2.293   1.014   0.848
 6595TIP3   OH219729   2.144   7.725   2.201
 6595TIP3    H119730   2.131   7.740   2.107
 6595TIP3    H219731   2.093   7.794   2.243
 6596TIP3   OH219732   6.428   3.383   3.240
 6596TIP3    H119733   6.431   3.319   3.312
 6596TIP3    H219734   6.517   3.383   3.205
 6597TIP3   OH219735   0.690   3.321   0.152
 6597TIP3    H119736   0.676   3.365   0.236
 6597TIP3    H219737   0.778   3.350   0.125
 6598TIP3   OH219738   7.840   0.432   2.792
 6598TIP3    H119739   7.922   0.469   2.825
 6598TIP3    H219740   7.783   0.507   2.780
 6599TIP3   OH219741   3.087   1.788   6.495
 6599TIP3    H119742   3.075   1.730   6.571
 6599TIP3    H219743   3.157   1.748   6.445
 6600TIP3   OH219744   2.136   4.246   1.199
 6600TIP3    H119745   2.050   4.289   1.196
 6600TIP3    H219746   2.118   4.160   1.237
 6601TIP3   OH219747   5.437   3.630   5.201
 6601TIP3    H119748   5.351   3.649   5.164
 6601TIP3    H219749   5.445   3.535   5.194
 6602TIP3   OH219750   4.321   2.048   1.469
 6602TIP3    H119751   4.404   2.015   1.433
 6602TIP3    H219752   4.254   2.004   1.418
 6603TIP3   OH219753   0.538   1.154   2.795
 6603TIP3    H119754   0.548   1.228   2.854
 6603TIP3    H219755   0.489   1.089   2.845
 6604TIP3   OH219756   6.457   4.043   4.594
 6604TIP3    H119757   6.513   4.042   4.671
 6604TIP3    H219758   6.496   4.109   4.537
 6605TIP3   OH219759   4.264   2.419   0.586
 6605TIP3    H119760   4.337   2.382   0.537
 6605TIP3    H219761   4.282   2.513   0.589
 6606TIP3   OH219762   1.501   3.488   0.842
 6606TIP3    H119763   1.494   3.575   0.801
 6606TIP3    H219764   1.441   3.433   0.793
 6607TIP3   OH219765   7.458   1.224   3.667
 6607TIP3    H119766   7.515   1.252   3.739
 6607TIP3    H219767   7.370   1.251   3.695
 6608TIP3   OH219768   0.781   7.395   1.472
 6608TIP3    H119769   0.745   7.308   1.486
 6608TIP3    H219770   0.846   7.384   1.403
 6609TIP3   OH219771   6.600   6.091   4.898
 6609TIP3    H119772   6.569   6.162   4.841
 6609TIP3    H219773   6.639   6.137   4.972
 6610TIP3   OH219774   2.082   1.397   1.776
 6610TIP3    H119775   2.072   1.344   1.697
 6610TIP3    H219776   2.006   1.374   1.830
 6611TIP3   OH219777   7.631   1.190   0.011
 6611TIP3    H119778   7.605   1.277   0.040
 6611TIP3    H219779   7.724   1.199  -0.013
 6612TIP3   OH219780   0.158   4.575   2.258
 6612TIP3    H119781   0.124   4.612   2.177
 6612TIP3    H219782   0.157   4.648   2.320
 6613TIP3   OH219783   4.800   0.002   5.880
 6613TIP3    H119784   4.790   0.059   5.804
 6613TIP3    H219785   4.893  -0.021   5.881
 6614TIP3   OH219786   2.869   7.581   2.089
 6614TIP3    H119787   2.948   7.555   2.040
 6614TIP3    H219788   2.851   7.506   2.146
 6615TIP3   OH219789   4.987   5.981   1.371
 6615TIP3    H119790   4.991   5.926   1.292
 6615TIP3    H219791   4.998   6.070   1.338
 6616TIP3   OH219792   7.830   1.327   5.938
 6616TIP3    H119793   7.848   1.421   5.949
 6616TIP3    H219794   7.894   1.284   5.995
 6617TIP3   OH219795   5.726   7.195   6.228
 6617TIP3    H119796   5.805   7.206   6.280
 6617TIP3    H219797   5.748   7.128   6.163
 6618TIP3   OH219798   5.560   2.714   5.145
 6618TIP3    H119799   5.530   2.690   5.233
 6618TIP3    H219800   5.570   2.809   5.148
 6619TIP3   OH219801   2.990   3.763   5.128
 6619TIP3    H119802   2.915   3.708   5.150
 6619TIP3    H219803   2.981   3.840   5.183
 6620TIP3   OH219804   4.455   4.334   1.667
 6620TIP3    H119805   4.390   4.326   1.597
 6620TIP3    H219806   4.406   4.372   1.740
 6621TIP3   OH219807   2.382   2.337   5.766
 6621TIP3    H119808   2.435   2.373   5.695
 6621TIP3    H219809   2.438   2.272   5.807
 6622TIP3   OH219810   1.847   6.718   4.404
 6622TIP3    H119811   1.784   6.692   4.470
 6622TIP3    H219812   1.913   6.768   4.451
 6623TIP3   OH219813   6.661   2.437   6.160
 6623TIP3    H119814   6.746   2.466   6.192
 6623TIP3    H219815   6.644   2.355   6.206
 6624TIP3   OH219816   1.481   2.280   2.468
 6624TIP3    H119817   1.506   2.275   2.560
 6624TIP3    H219818   1.564   2.293   2.421
 6625TIP3   OH219819   2.775   5.748   4.876
 6625TIP3    H119820   2.864   5.772   4.901
 6625TIP3    H219821   2.719   5.800   4.934
 6626TIP3   OH219822   3.450   2.782   2.572
 6626TIP3    H119823   3.527   2.724   2.572
 6626TIP3    H219824   3.402   2.759   2.652
 6627TIP3   OH219825   4.447   1.588   6.250
 6627TIP3    H119826   4.456   1.529   6.175
 6627TIP3    H219827   4.434   1.675   6.212
 6628TIP3   OH219828   7.347   1.768   1.702
 6628TIP3    H119829   7.411   1.767   1.773
 6628TIP3    H219830   7.356   1.856   1.664
 6629TIP3   OH219831   5.409   3.669   2.103
 6629TIP3    H119832   5.407   3.651   2.009
 6629TIP3    H219833   5.320   3.651   2.133
 6630TIP3   OH219834   4.880   5.658   0.998
 6630TIP3    H119835   4.957   5.698   1.038
 6630TIP3    H219836   4.892   5.564   1.012
 6631TIP3   OH219837   5.405   1.800   6.242
 6631TIP3    H119838   5.375   1.891   6.242
 6631TIP3    H219839   5.499   1.805   6.229
 6632TIP3   OH219840   1.087   7.498   2.067
 6632TIP3    H119841   1.054   7.588   2.067
 6632TIP3    H219842   1.103   7.479   1.974
 6633TIP3   OH219843   0.177   2.094   0.808
 6633TIP3    H119844   0.220   2.177   0.788
 6633TIP3    H219845   0.111   2.083   0.739
 6634TIP3   OH219846   3.165   0.465   1.003
 6634TIP3    H119847   3.143   0.372   0.998
 6634TIP3    H219848   3.229   0.479   0.934
 6635TIP3   OH219849   7.863   7.361   2.031
 6635TIP3    H119850   7.892   7.304   2.101
 6635TIP3    H219851   7.881   7.313   1.950
 6636TIP3   OH219852   4.007   1.253   6.504
 6636TIP3    H119853   3.974   1.299   6.426
 6636TIP3    H219854   4.087   1.301   6.527
 6637TIP3   OH219855   1.301   5.928   2.220
 6637TIP3    H119856   1.262   5.902   2.304
 6637TIP3    H219857   1.245   5.888   2.154
 6638TIP3   OH219858   5.530   1.985   1.802
 6638TIP3    H119859   5.579   2.013   1.725
 6638TIP3    H219860   5.556   2.046   1.871
 6639TIP3   OH219861   3.906   4.832   0.771
 6639TIP3    H119862   3.811   4.818   0.767
 6639TIP3    H219863   3.928   4.867   0.684
 6640TIP3   OH219864   5.279   0.217   0.399
 6640TIP3    H119865   5.269   0.282   0.329
 6640TIP3    H219866   5.190   0.188   0.417
 6641TIP3   OH219867   2.923   5.477   0.459
 6641TIP3    H119868   2.992   5.425   0.500
 6641TIP3    H219869   2.957   5.567   0.459
 6642TIP3   OH219870   4.961   2.073   1.141
 6642TIP3    H119871   4.941   2.125   1.219
 6642TIP3    H219872   4.875   2.053   1.103
 6643TIP3   OH219873   1.512   0.158   2.396
 6643TIP3    H119874   1.529   0.191   2.484
 6643TIP3    H219875   1.420   0.131   2.398
 6644TIP3   OH219876   5.529   1.750   5.155
 6644TIP3    H119877   5.472   1.694   5.208
 6644TIP3    H219878   5.479   1.830   5.141
 6645TIP3   OH219879   1.390   3.189   0.338
 6645TIP3    H119880   1.437   3.218   0.417
 6645TIP3    H219881   1.429   3.241   0.268
 6646TIP3   OH219882   4.231   6.058   5.180
 6646TIP3    H119883   4.231   6.124   5.111
 6646TIP3    H219884   4.301   5.997   5.155
 6647TIP3   OH219885   4.335   2.516   3.467
 6647TIP3    H119886   4.263   2.489   3.410
 6647TIP3    H219887   4.298   2.588   3.519
 6648TIP3   OH219888   7.504   2.908   4.465
 6648TIP3    H119889   7.584   2.868   4.433
 6648TIP3    H219890   7.502   2.994   4.423
 6649TIP3   OH219891   4.793   7.190   1.045
 6649TIP3    H119892   4.859   7.141   0.996
 6649TIP3    H219893   4.836   7.214   1.126
 6650TIP3   OH219894   8.256   5.789   4.855
 6650TIP3    H119895   8.200   5.805   4.779
 6650TIP3    H219896   8.326   5.854   4.847
 6651TIP3   OH219897   4.951   0.099   0.973
 6651TIP3    H119898   4.955   0.033   1.042
 6651TIP3    H219899   5.019   0.163   0.997
 6652TIP3   OH219900   6.889   1.062   1.158
 6652TIP3    H119901   6.872   1.093   1.247
 6652TIP3    H219902   6.856   1.132   1.101
 6653TIP3   OH219903   7.769   2.317   2.448
 6653TIP3    H119904   7.808   2.302   2.362
 6653TIP3    H219905   7.725   2.234   2.468
 6654TIP3   OH219906   1.111   0.533   5.862
 6654TIP3    H119907   1.164   0.597   5.815
 6654TIP3    H219908   1.132   0.449   5.821
 6655TIP3   OH219909   4.598   5.810   0.858
 6655TIP3    H119910   4.665   5.776   0.798
 6655TIP3    H219911   4.594   5.746   0.929
 6656TIP3   OH219912   2.337   5.876   3.503
 6656TIP3    H119913   2.263   5.879   3.442
 6656TIP3    H219914   2.304   5.828   3.579
 6657TIP3   OH219915   0.587   7.132   2.950
 6657TIP3    H119916   0.545   7.046   2.954
 6657TIP3    H219917   0.546   7.175   2.875
 6658TIP3   OH219918   6.346   5.658   0.488
 6658TIP3    H119919   6.420   5.645   0.548
 6658TIP3    H219920   6.354   5.586   0.425
 6659TIP3   OH219921   3.359   1.161   6.291
 6659TIP3    H119922   3.429   1.109   6.330
 6659TIP3    H219923   3.279   1.128   6.332
 6660TIP3   OH219924   4.566   7.416   0.134
 6660TIP3    H119925   4.624   7.341   0.146
 6660TIP3    H219926   4.564   7.460   0.219
 6661TIP3   OH219927   5.424   4.132   2.454
 6661TIP3    H119928   5.444   4.221   2.483
 6661TIP3    H219929   5.466   4.075   2.519
 6662TIP3   OH219930   2.563   4.572   2.954
 6662TIP3    H119931   2.513   4.562   3.035
 6662TIP3    H219932   2.537   4.497   2.900
 6663TIP3   OH219933   4.627   6.521   6.479
 6663TIP3    H119934   4.702   6.578   6.495
 6663TIP3    H219935   4.664   6.432   6.478
 6664TIP3   OH219936   7.661   2.360   3.935
 6664TIP3    H119937   7.585   2.346   3.879
 6664TIP3    H219938   7.720   2.414   3.883
 6665TIP3   OH219939   0.162   5.977   4.839
 6665TIP3    H119940   0.122   6.053   4.795
 6665TIP3    H219941   0.246   5.966   4.795
 6666TIP3   OH219942   3.475   6.026   0.809
 6666TIP3    H119943   3.555   5.975   0.820
 6666TIP3    H219944   3.406   5.970   0.844
 6667TIP3   OH219945   0.181   7.691   3.543
 6667TIP3    H119946   0.132   7.609   3.540
 6667TIP3    H219947   0.203   7.703   3.636
 6668TIP3   OH219948   3.623   7.139   1.956
 6668TIP3    H119949   3.562   7.129   1.884
 6668TIP3    H219950   3.707   7.108   1.922
 6669TIP3   OH219951   1.068   2.951   6.148
 6669TIP3    H119952   1.163   2.959   6.136
 6669TIP3    H219953   1.030   3.007   6.080
 6670TIP3   OH219954   0.440   7.689   4.981
 6670TIP3    H119955   0.355   7.731   4.963
 6670TIP3    H219956   0.466   7.651   4.897
 6671TIP3   OH219957   7.018   1.675   1.529
 6671TIP3    H119958   6.978   1.692   1.444
 6671TIP3    H219959   7.007   1.756   1.578
 6672TIP3   OH219960   7.818   3.218   2.386
 6672TIP3    H119961   7.906   3.201   2.422
 6672TIP3    H219962   7.759   3.201   2.459
 6673TIP3   OH219963   3.796   3.018   5.533
 6673TIP3    H119964   3.764   3.098   5.575
 6673TIP3    H219965   3.748   3.013   5.451
 6674TIP3   OH219966   2.719   7.355   2.554
 6674TIP3    H119967   2.656   7.283   2.563
 6674TIP3    H219968   2.680   7.412   2.488
 6675TIP3   OH219969   3.888   6.996   3.927
 6675TIP3    H119970   3.861   7.066   3.985
 6675TIP3    H219971   3.872   6.916   3.976
 6676TIP3   OH219972   7.169   0.677   6.170
 6676TIP3    H119973   7.226   0.610   6.206
 6676TIP3    H219974   7.185   0.755   6.224
 6677TIP3   OH219975   4.052   0.431   0.462
 6677TIP3    H119976   3.970   0.480   0.460
 6677TIP3    H219977   4.116   0.494   0.496
 6678TIP3   OH219978   0.835   0.158   4.618
 6678TIP3    H119979   0.791   0.220   4.560
 6678TIP3    H219980   0.798   0.175   4.704
 6679TIP3   OH219981   8.048   2.619   1.495
 6679TIP3    H119982   8.128   2.631   1.545
 6679TIP3    H219983   8.065   2.660   1.411
 6680TIP3   OH219984   5.760   2.924   4.711
 6680TIP3    H119985   5.694   2.978   4.754
 6680TIP3    H219986   5.838   2.979   4.707
 6681TIP3   OH219987   6.216   4.400   4.157
 6681TIP3    H119988   6.156   4.474   4.148
 6681TIP3    H219989   6.170   4.327   4.117
 6682TIP3   OH219990   5.379   1.731   4.146
 6682TIP3    H119991   5.387   1.722   4.051
 6682TIP3    H219992   5.408   1.820   4.165
 6683TIP3   OH219993   7.200   2.370   3.878
 6683TIP3    H119994   7.194   2.314   3.955
 6683TIP3    H219995   7.150   2.325   3.811
 6684TIP3   OH219996   3.389   5.250   5.273
 6684TIP3    H119997   3.409   5.162   5.304
 6684TIP3    H219998   3.445   5.261   5.195
 6685TIP3   OH219999   2.342   4.181   0.833
 6685TIP3    H120000   2.403   4.172   0.906
 6685TIP3    H220001   2.387   4.240   0.772
 6686TIP3   OH220002   3.254   0.998   5.163
 6686TIP3    H120003   3.204   0.966   5.238
 6686TIP3    H220004   3.194   1.058   5.118
 6687TIP3   OH220005   5.724   5.550   3.137
 6687TIP3    H120006   5.654   5.533   3.200
 6687TIP3    H220007   5.692   5.510   3.055
 6688TIP3   OH220008   3.558   3.734   1.417
 6688TIP3    H120009   3.628   3.672   1.397
 6688TIP3    H220010   3.512   3.695   1.491
 6689TIP3   OH220011   6.940   1.313   5.346
 6689TIP3    H120012   6.987   1.378   5.294
 6689TIP3    H220013   6.864   1.360   5.380
 6690TIP3   OH220014   2.469   7.395   3.400
 6690TIP3    H120015   2.527   7.453   3.450
 6690TIP3    H220016   2.528   7.341   3.347
 6691TIP3   OH220017   7.910   0.870   3.660
 6691TIP3    H120018   7.853   0.943   3.681
 6691TIP3    H220019   7.992   0.910   3.631
 6692TIP3   OH220020   4.930   0.670   1.206
 6692TIP3    H120021   5.016   0.640   1.236
 6692TIP3    H220022   4.928   0.648   1.113
 6693TIP3   OH220023   0.054   6.087   4.429
 6693TIP3    H120024   0.048   6.128   4.515
 6693TIP3    H220025   0.012   6.150   4.370
 6694TIP3   OH220026   1.879   1.818   0.540
 6694TIP3    H120027   1.824   1.744   0.565
 6694TIP3    H220028   1.818   1.891   0.530
 6695TIP3   OH220029   1.806   1.757   5.512
 6695TIP3    H120030   1.745   1.817   5.468
 6695TIP3    H220031   1.763   1.736   5.595
 6696TIP3   OH220032   3.389   6.324   5.222
 6696TIP3    H120033   3.413   6.248   5.275
 6696TIP3    H220034   3.436   6.311   5.140
 6697TIP3   OH220035   0.990   0.538   2.149
 6697TIP3    H120036   0.999   0.631   2.166
 6697TIP3    H220037   0.954   0.532   2.060
 6698TIP3   OH220038   3.984   6.660   4.427
 6698TIP3    H120039   4.043   6.598   4.471
 6698TIP3    H220040   3.912   6.605   4.394
 6699TIP3   OH220041   1.921   4.012   4.861
 6699TIP3    H120042   1.894   4.086   4.916
 6699TIP3    H220043   2.015   4.003   4.880
 6700TIP3   OH220044   0.682   3.796   0.174
 6700TIP3    H120045   0.706   3.748   0.095
 6700TIP3    H220046   0.763   3.800   0.225
 6701TIP3   OH220047   0.473   4.430   4.057
 6701TIP3    H120048   0.517   4.470   4.133
 6701TIP3    H220049   0.495   4.487   3.984
 6702TIP3   OH220050   2.324   1.347   0.793
 6702TIP3    H120051   2.338   1.255   0.767
 6702TIP3    H220052   2.275   1.385   0.721
 6703TIP3   OH220053   0.624   0.676   1.852
 6703TIP3    H120054   0.701   0.662   1.796
 6703TIP3    H220055   0.565   0.729   1.799
 6704TIP3   OH220056   0.520   0.889   6.412
 6704TIP3    H120057   0.427   0.871   6.420
 6704TIP3    H220058   0.540   0.868   6.320
 6705TIP3   OH220059   5.979   6.012   5.895
 6705TIP3    H120060   5.981   6.077   5.966
 6705TIP3    H220061   6.012   6.060   5.819
 6706TIP3   OH220062   7.693   3.078   2.624
 6706TIP3    H120063   7.606   3.118   2.635
 6706TIP3    H220064   7.717   3.050   2.713
 6707TIP3   OH220065   3.312   1.511   0.646
 6707TIP3    H120066   3.315   1.428   0.693
 6707TIP3    H220067   3.220   1.525   0.627
 6708TIP3   OH220068   4.116   3.553   0.101
 6708TIP3    H120069   4.155   3.618   0.042
 6708TIP3    H220070   4.183   3.537   0.167
 6709TIP3   OH220071   5.784   5.961   0.805
 6709TIP3    H120072   5.879   5.961   0.813
 6709TIP3    H220073   5.768   5.936   0.714
 6710TIP3   OH220074   5.109   2.072   5.286
 6710TIP3    H120075   5.156   1.991   5.304
 6710TIP3    H220076   5.054   2.052   5.210
 6711TIP3   OH220077   4.352   0.920   3.692
 6711TIP3    H120078   4.294   0.863   3.641
 6711TIP3    H220079   4.321   1.008   3.675
 6712TIP3   OH220080   2.882   2.046   1.998
 6712TIP3    H120081   2.955   2.107   2.007
 6712TIP3    H220082   2.888   1.989   2.074
 6713TIP3   OH220083   4.028   2.093   0.668
 6713TIP3    H120084   3.942   2.051   0.669
 6713TIP3    H220085   4.019   2.165   0.605
 6714TIP3   OH220086   7.056   0.023   5.069
 6714TIP3    H120087   7.010   0.069   5.139
 6714TIP3    H220088   6.995   0.026   4.995
 6715TIP3   OH220089   2.663   3.949   6.351
 6715TIP3    H120090   2.743   4.001   6.337
 6715TIP3    H220091   2.594   4.014   6.362
 6716TIP3   OH220092   4.861   0.786   4.164
 6716TIP3    H120093   4.889   0.728   4.236
 6716TIP3    H220094   4.926   0.856   4.163
 6717TIP3   OH220095   5.207   1.205   5.289
 6717TIP3    H120096   5.227   1.253   5.369
 6717TIP3    H220097   5.204   1.113   5.317
 6718TIP3   OH220098   0.174   1.070   3.934
 6718TIP3    H120099   0.240   1.112   3.990
 6718TIP3    H220100   0.112   1.031   3.995
 6719TIP3   OH220101   5.618   7.196   3.032
 6719TIP3    H120102   5.546   7.246   3.071
 6719TIP3    H220103   5.660   7.258   2.973
 6720TIP3   OH220104   8.287   3.501   5.767
 6720TIP3    H120105   8.246   3.440   5.829
 6720TIP3    H220106   8.216   3.526   5.708
 6721TIP3   OH220107   1.386   1.108   5.358
 6721TIP3    H120108   1.414   1.017   5.363
 6721TIP3    H220109   1.303   1.111   5.405
 6722TIP3   OH220110   4.742   4.848   4.788
 6722TIP3    H120111   4.714   4.936   4.763
 6722TIP3    H220112   4.836   4.855   4.800
 6723TIP3   OH220113   4.906   5.218   3.015
 6723TIP3    H120114   4.960   5.162   2.960
 6723TIP3    H220115   4.942   5.210   3.103
 6724TIP3   OH220116   3.952   5.599   5.860
 6724TIP3    H120117   3.908   5.573   5.941
 6724TIP3    H220118   3.933   5.692   5.851
 6725TIP3   OH220119   2.010   6.328   3.074
 6725TIP3    H120120   2.018   6.253   3.015
 6725TIP3    H220121   2.096   6.338   3.114
 6726TIP3   OH220122   7.959   7.687   3.990
 6726TIP3    H120123   7.931   7.729   4.071
 6726TIP3    H220124   7.976   7.596   4.015
 6727TIP3   OH220125   8.049   0.038   3.995
 6727TIP3    H120126   7.960   0.011   4.013
 6727TIP3    H220127   8.041   0.128   3.962
 6728TIP3   OH220128   2.834   4.180   0.197
 6728TIP3    H120129   2.909   4.141   0.151
 6728TIP3    H220130   2.833   4.136   0.282
 6729TIP3   OH220131   7.512   7.661   0.904
 6729TIP3    H120132   7.522   7.583   0.849
 6729TIP3    H220133   7.433   7.704   0.871
 6730TIP3   OH220134   2.959   3.372   0.915
 6730TIP3    H120135   2.942   3.288   0.958
 6730TIP3    H220136   2.970   3.434   0.987
 6731TIP3   OH220137   7.772   6.034   0.711
 6731TIP3    H120138   7.853   6.083   0.699
 6731TIP3    H220139   7.802   5.945   0.732
 6732TIP3   OH220140   6.244   4.419   6.142
 6732TIP3    H120141   6.162   4.438   6.097
 6732TIP3    H220142   6.237   4.327   6.167
 6733TIP3   OH220143   3.967   3.965   6.353
 6733TIP3    H120144   4.017   4.004   6.425
 6733TIP3    H220145   4.027   3.901   6.314
 6734TIP3   OH220146   1.621   2.722   0.626
 6734TIP3    H120147   1.689   2.726   0.557
 6734TIP3    H220148   1.668   2.746   0.706
 6735TIP3   OH220149   4.951   4.942   0.682
 6735TIP3    H120150   4.935   4.918   0.773
 6735TIP3    H220151   4.989   5.030   0.687
 6736TIP3   OH220152   4.828   2.625   0.619
 6736TIP3    H120153   4.880   2.601   0.696
 6736TIP3    H220154   4.795   2.542   0.584
 6737TIP3   OH220155   0.801   4.111   2.995
 6737TIP3    H120156   0.789   4.051   2.921
 6737TIP3    H220157   0.712   4.127   3.027
 6738TIP3   OH220158   7.719   6.291   6.765
 6738TIP3    H120159   7.698   6.198   6.776
 6738TIP3    H220160   7.734   6.301   6.671
 6739TIP3   OH220161   2.148   3.214   1.767
 6739TIP3    H120162   2.105   3.211   1.852
 6739TIP3    H220163   2.209   3.288   1.773
 6740TIP3   OH220164   4.500   2.603   5.534
 6740TIP3    H120165   4.429   2.651   5.576
 6740TIP3    H220166   4.484   2.614   5.440
 6741TIP3   OH220167   1.716   2.906   1.249
 6741TIP3    H120168   1.783   2.886   1.184
 6741TIP3    H220169   1.635   2.872   1.211
 6742TIP3   OH220170   3.186   0.257   3.317
 6742TIP3    H120171   3.240   0.180   3.301
 6742TIP3    H220172   3.181   0.301   3.232
 6743TIP3   OH220173   0.544   0.572   6.502
 6743TIP3    H120174   0.457   0.537   6.518
 6743TIP3    H220175   0.556   0.565   6.407
 6744TIP3   OH220176   1.009   0.357   1.330
 6744TIP3    H120177   1.022   0.331   1.421
 6744TIP3    H220178   1.069   0.430   1.317
 6745TIP3   OH220179   2.629   3.223   6.280
 6745TIP3    H120180   2.598   3.288   6.217
 6745TIP3    H220181   2.572   3.147   6.267
 6746TIP3   OH220182   3.064   4.529   1.061
 6746TIP3    H120183   3.131   4.573   1.007
 6746TIP3    H220184   3.023   4.466   1.002
 6747TIP3   OH220185   3.895   1.245   0.945
 6747TIP3    H120186   3.953   1.207   1.011
 6747TIP3    H220187   3.943   1.238   0.863
 6748TIP3   OH220188   7.306   3.494   5.737
 6748TIP3    H120189   7.320   3.453   5.652
 6748TIP3    H220190   7.324   3.425   5.800
 6749TIP3   OH220191   4.800   2.603   2.913
 6749TIP3    H120192   4.805   2.657   2.991
 6749TIP3    H220193   4.808   2.664   2.839
 6750TIP3   OH220194   4.652   3.547   3.151
 6750TIP3    H120195   4.735   3.594   3.152
 6750TIP3    H220196   4.670   3.466   3.200
 6751TIP3   OH220197   4.345   5.065   3.056
 6751TIP3    H120198   4.275   5.035   2.997
 6751TIP3    H220199   4.402   5.118   3.000
 6752TIP3   OH220200   3.773   2.077   0.581
 6752TIP3    H120201   3.733   2.033   0.506
 6752TIP3    H220202   3.722   2.047   0.656
 6753TIP3   OH220203   6.013   7.296   5.781
 6753TIP3    H120204   6.028   7.227   5.846
 6753TIP3    H220205   5.931   7.337   5.808
 6754TIP3   OH220206   5.722   6.260   6.323
 6754TIP3    H120207   5.808   6.256   6.365
 6754TIP3    H220208   5.719   6.183   6.266
 6755TIP3   OH220209   0.160   1.195   1.195
 6755TIP3    H120210   0.241   1.220   1.150
 6755TIP3    H220211   0.188   1.166   1.282
 6756TIP3   OH220212   7.370   1.532   2.171
 6756TIP3    H120213   7.369   1.559   2.263
 6756TIP3    H220214   7.331   1.606   2.124
 6757TIP3   OH220215   6.090   5.646   3.017
 6757TIP3    H120216   6.015   5.702   3.038
 6757TIP3    H220217   6.160   5.707   2.993
 6758TIP3   OH220218   3.366   0.561   4.090
 6758TIP3    H120219   3.291   0.572   4.149
 6758TIP3    H220220   3.353   0.625   4.021
 6759TIP3   OH220221   6.087   1.128   0.116
 6759TIP3    H120222   6.026   1.153   0.185
 6759TIP3    H220223   6.062   1.182   0.041
 6760TIP3   OH220224   5.170   4.207   3.584
 6760TIP3    H120225   5.207   4.220   3.497
 6760TIP3    H220226   5.245   4.180   3.638
 6761TIP3   OH220227   2.801   3.793   4.310
 6761TIP3    H120228   2.849   3.782   4.392
 6761TIP3    H220229   2.799   3.887   4.295
 6762TIP3   OH220230   0.687   5.309   0.711
 6762TIP3    H120231   0.743   5.294   0.788
 6762TIP3    H220232   0.749   5.320   0.639
 6763TIP3   OH220233   7.562   6.036   0.481
 6763TIP3    H120234   7.646   6.034   0.527
 6763TIP3    H220235   7.548   6.129   0.460
 6764TIP3   OH220236   3.633   0.014   4.201
 6764TIP3    H120237   3.708   0.065   4.231
 6764TIP3    H220238   3.557   0.066   4.224
 6765TIP3   OH220239   3.026   5.936   6.442
 6765TIP3    H120240   2.933   5.956   6.457
 6765TIP3    H220241   3.024   5.860   6.384
 6766TIP3   OH220242   1.769   1.139   1.225
 6766TIP3    H120243   1.721   1.167   1.148
 6766TIP3    H220244   1.731   1.054   1.248
 6767TIP3   OH220245   0.791   5.647   2.354
 6767TIP3    H120246   0.732   5.661   2.279
 6767TIP3    H220247   0.878   5.660   2.318
 6768TIP3   OH220248   7.794   0.793   6.551
 6768TIP3    H120249   7.761   0.713   6.511
 6768TIP3    H220250   7.837   0.840   6.479
 6769TIP3   OH220251   7.599   6.286   0.433
 6769TIP3    H120252   7.677   6.244   0.395
 6769TIP3    H220253   7.632   6.368   0.469
 6770TIP3   OH220254   1.170   2.344   1.627
 6770TIP3    H120255   1.186   2.282   1.698
 6770TIP3    H220256   1.167   2.290   1.548
 6771TIP3   OH220257   2.759   0.157   6.452
 6771TIP3    H120258   2.814   0.106   6.393
 6771TIP3    H220259   2.672   0.116   6.446
 6772TIP3   OH220260   4.079   1.495   0.908
 6772TIP3    H120261   4.061   1.432   0.838
 6772TIP3    H220262   4.066   1.445   0.989
 6773TIP3   OH220263   3.763   1.294   3.823
 6773TIP3    H120264   3.844   1.312   3.872
 6773TIP3    H220265   3.715   1.377   3.826
 6774TIP3   OH220266   2.171   4.695   2.592
 6774TIP3    H120267   2.243   4.728   2.647
 6774TIP3    H220268   2.156   4.765   2.529
 6775TIP3   OH220269   4.090   6.007   3.667
 6775TIP3    H120270   4.054   6.077   3.721
 6775TIP3    H220271   4.094   5.932   3.726
 6776TIP3   OH220272   4.088   3.313   0.766
 6776TIP3    H120273   4.133   3.368   0.701
 6776TIP3    H220274   4.079   3.228   0.722
 6777TIP3   OH220275   1.622   6.495   4.025
 6777TIP3    H120276   1.685   6.449   3.969
 6777TIP3    H220277   1.667   6.501   4.110
 6778TIP3   OH220278   6.893   6.848   3.755
 6778TIP3    H120279   6.873   6.937   3.786
 6778TIP3    H220280   6.829   6.831   3.687
 6779TIP3   OH220281   2.593   4.780   6.467
 6779TIP3    H120282   2.608   4.863   6.512
 6779TIP3    H220283   2.676   4.759   6.426
 6780TIP3   OH220284   1.504   1.187   3.988
 6780TIP3    H120285   1.529   1.206   4.078
 6780TIP3    H220286   1.579   1.214   3.935
 6781TIP3   OH220287   4.904   5.668   2.761
 6781TIP3    H120288   4.916   5.573   2.769
 6781TIP3    H220289   4.809   5.681   2.773
 6782TIP3   OH220290   5.699   6.675   1.561
 6782TIP3    H120291   5.730   6.607   1.620
 6782TIP3    H220292   5.604   6.673   1.568
 6783TIP3   OH220293   5.469   1.004   4.019
 6783TIP3    H120294   5.447   1.054   4.098
 6783TIP3    H220295   5.547   1.048   3.984
 6784TIP3   OH220296   6.795   6.243   3.464
 6784TIP3    H120297   6.770   6.181   3.532
 6784TIP3    H220298   6.713   6.282   3.435
 6785TIP3   OH220299   7.946   3.266   2.910
 6785TIP3    H120300   7.947   3.333   2.978
 6785TIP3    H220301   7.950   3.315   2.828
 6786TIP3   OH220302   1.207   1.798   4.852
 6786TIP3    H120303   1.156   1.858   4.797
 6786TIP3    H220304   1.203   1.836   4.940
 6787TIP3   OH220305   1.930   7.756   4.377
 6787TIP3    H120306   1.878   7.831   4.347
 6787TIP3    H220307   1.867   7.685   4.384
 6788TIP3   OH220308   0.075   6.712   4.280
 6788TIP3    H120309   0.157   6.755   4.305
 6788TIP3    H220310   0.016   6.784   4.259
 6789TIP3   OH220311   2.851   5.992   2.372
 6789TIP3    H120312   2.760   5.977   2.347
 6789TIP3    H220313   2.901   5.930   2.319
 6790TIP3   OH220314   0.316   2.205   3.745
 6790TIP3    H120315   0.267   2.281   3.715
 6790TIP3    H220316   0.255   2.132   3.736
 6791TIP3   OH220317   4.198   7.190   6.093
 6791TIP3    H120318   4.291   7.209   6.108
 6791TIP3    H220319   4.175   7.128   6.163
 6792TIP3   OH220320   4.580   5.168   0.834
 6792TIP3    H120321   4.533   5.228   0.775
 6792TIP3    H220322   4.532   5.086   0.827
 6793TIP3   OH220323   3.843   5.010   2.935
 6793TIP3    H120324   3.882   5.094   2.959
 6793TIP3    H220325   3.760   5.008   2.983
 6794TIP3   OH220326   4.145   2.644   4.371
 6794TIP3    H120327   4.208   2.693   4.317
 6794TIP3    H220328   4.069   2.632   4.314
 6795TIP3   OH220329   5.402   6.539   6.257
 6795TIP3    H120330   5.408   6.477   6.184
 6795TIP3    H220331   5.378   6.485   6.332
 6796TIP3   OH220332   0.100   4.056   2.868
 6796TIP3    H120333   0.158   4.123   2.832
 6796TIP3    H220334   0.032   4.106   2.914
 6797TIP3   OH220335   4.127   3.414   4.782
 6797TIP3    H120336   4.119   3.364   4.863
 6797TIP3    H220337   4.072   3.491   4.796
 6798TIP3   OH220338   2.803   0.916   1.840
 6798TIP3    H120339   2.822   1.010   1.831
 6798TIP3    H220340   2.838   0.877   1.759
 6799TIP3   OH220341   4.066   7.194   4.218
 6799TIP3    H120342   4.107   7.175   4.133
 6799TIP3    H220343   3.973   7.175   4.205
 6800TIP3   OH220344   1.434   3.301   4.012
 6800TIP3    H120345   1.368   3.280   3.945
 6800TIP3    H220346   1.511   3.251   3.987
 6801TIP3   OH220347   5.399   5.827   3.464
 6801TIP3    H120348   5.450   5.778   3.529
 6801TIP3    H220349   5.346   5.887   3.517
 6802TIP3   OH220350   1.957   5.354   6.632
 6802TIP3    H120351   2.004   5.429   6.597
 6802TIP3    H220352   1.993   5.343   6.721
 6803TIP3   OH220353   6.848   3.351   6.453
 6803TIP3    H120354   6.822   3.353   6.360
 6803TIP3    H220355   6.944   3.349   6.451
 6804TIP3   OH220356   6.610   6.262   5.496
 6804TIP3    H120357   6.700   6.280   5.467
 6804TIP3    H220358   6.620   6.191   5.560
 6805TIP3   OH220359   6.313   6.099   5.915
 6805TIP3    H120360   6.232   6.063   5.880
 6805TIP3    H220361   6.381   6.039   5.884
 6806TIP3   OH220362   5.826   6.148   0.129
 6806TIP3    H120363   5.783   6.229   0.100
 6806TIP3    H220364   5.754   6.086   0.141
 6807TIP3   OH220365   1.607   6.206   4.329
 6807TIP3    H120366   1.625   6.202   4.423
 6807TIP3    H220367   1.690   6.180   4.288
 6808TIP3   OH220368   2.754   4.631   5.244
 6808TIP3    H120369   2.750   4.538   5.220
 6808TIP3    H220370   2.744   4.678   5.161
 6809TIP3   OH220371   7.530   0.673   0.826
 6809TIP3    H120372   7.548   0.711   0.912
 6809TIP3    H220373   7.541   0.579   0.839
 6810TIP3   OH220374   3.105   2.004   3.193
 6810TIP3    H120375   3.093   2.038   3.282
 6810TIP3    H220376   3.160   2.069   3.149
 6811TIP3   OH220377   6.355   4.519   4.625
 6811TIP3    H120378   6.372   4.607   4.591
 6811TIP3    H220379   6.355   4.463   4.547
 6812TIP3   OH220380   3.872   6.877   2.724
 6812TIP3    H120381   3.931   6.816   2.680
 6812TIP3    H220382   3.909   6.886   2.812
 6813TIP3   OH220383   2.672   0.461   2.249
 6813TIP3    H120384   2.665   0.556   2.256
 6813TIP3    H220385   2.632   0.439   2.165
 6814TIP3   OH220386   0.933   0.847   2.599
 6814TIP3    H120387   0.927   0.757   2.630
 6814TIP3    H220388   0.992   0.842   2.524
 6815TIP3   OH220389   1.264   2.191   1.998
 6815TIP3    H120390   1.341   2.170   2.051
 6815TIP3    H220391   1.190   2.167   2.054
 6816TIP3   OH220392   2.041   3.764   1.492
 6816TIP3    H120393   2.058   3.825   1.563
 6816TIP3    H220394   1.986   3.696   1.531
 6817TIP3   OH220395   2.404   4.556   3.171
 6817TIP3    H120396   2.315   4.566   3.138
 6817TIP3    H220397   2.393   4.511   3.255
 6818TIP3   OH220398   6.069   3.870   2.050
 6818TIP3    H120399   6.091   3.909   2.135
 6818TIP3    H220400   6.138   3.805   2.035
 6819TIP3   OH220401   5.130   4.159   1.887
 6819TIP3    H120402   5.129   4.128   1.978
 6819TIP3    H220403   5.147   4.253   1.895
 6820TIP3   OH220404   7.884   5.685   0.501
 6820TIP3    H120405   7.887   5.702   0.596
 6820TIP3    H220406   7.794   5.656   0.485
 6821TIP3   OH220407   0.407   4.915   6.415
 6821TIP3    H120408   0.407   4.943   6.323
 6821TIP3    H220409   0.485   4.956   6.452
 6822TIP3   OH220410   4.006   5.268   3.118
 6822TIP3    H120411   3.946   5.248   3.190
 6822TIP3    H220412   4.084   5.303   3.160
 6823TIP3   OH220413   2.004   4.070   0.196
 6823TIP3    H120414   2.039   3.994   0.242
 6823TIP3    H220415   2.030   4.145   0.249
 6824TIP3   OH220416   3.449   4.021   5.952
 6824TIP3    H120417   3.399   4.076   5.891
 6824TIP3    H220418   3.459   3.938   5.906
 6825TIP3   OH220419   0.142   3.759   1.437
 6825TIP3    H120420   0.148   3.693   1.506
 6825TIP3    H220421   0.061   3.738   1.390
 6826TIP3   OH220422   1.618   1.040   0.231
 6826TIP3    H120423   1.614   1.128   0.267
 6826TIP3    H220424   1.528   1.007   0.239
 6827TIP3   OH220425   0.129   5.899   2.206
 6827TIP3    H120426   0.116   5.937   2.119
 6827TIP3    H220427   0.061   5.939   2.260
 6828TIP3   OH220428   6.115   5.702   5.713
 6828TIP3    H120429   6.055   5.668   5.780
 6828TIP3    H220430   6.061   5.758   5.658
 6829TIP3   OH220431   8.033   1.442   1.974
 6829TIP3    H120432   8.001   1.404   1.893
 6829TIP3    H220433   8.125   1.463   1.956
 6830TIP3   OH220434   1.628   0.502   3.108
 6830TIP3    H120435   1.646   0.449   3.031
 6830TIP3    H220436   1.594   0.585   3.074
 6831TIP3   OH220437   1.931   4.938   4.376
 6831TIP3    H120438   1.973   4.865   4.421
 6831TIP3    H220439   1.862   4.966   4.435
 6832TIP3   OH220440   3.734   6.785   3.082
 6832TIP3    H120441   3.825   6.779   3.055
 6832TIP3    H220442   3.684   6.755   3.006
 6833TIP3   OH220443   7.211   7.333   6.724
 6833TIP3    H120444   7.152   7.258   6.725
 6833TIP3    H220445   7.277   7.312   6.658
 6834TIP3   OH220446   0.331   6.547   6.262
 6834TIP3    H120447   0.282   6.592   6.330
 6834TIP3    H220448   0.397   6.496   6.309
 6835TIP3   OH220449   6.162   1.371   3.836
 6835TIP3    H120450   6.124   1.354   3.750
 6835TIP3    H220451   6.226   1.301   3.848
 6836TIP3   OH220452   2.468   6.145   1.273
 6836TIP3    H120453   2.523   6.114   1.201
 6836TIP3    H220454   2.385   6.098   1.262
 6837TIP3   OH220455   1.866   6.421   2.871
 6837TIP3    H120456   1.888   6.375   2.952
 6837TIP3    H220457   1.838   6.352   2.811
 6838TIP3   OH220458   5.824   6.629   3.286
 6838TIP3    H120459   5.738   6.656   3.318
 6838TIP3    H220460   5.842   6.547   3.332
 6839TIP3   OH220461   1.535   1.380   3.295
 6839TIP3    H120462   1.452   1.406   3.334
 6839TIP3    H220463   1.555   1.450   3.233
 6840TIP3   OH220464   5.845   1.275   2.040
 6840TIP3    H120465   5.783   1.237   1.978
 6840TIP3    H220466   5.912   1.207   2.052
 6841TIP3   OH220467   1.297   4.748   4.773
 6841TIP3    H120468   1.283   4.664   4.816
 6841TIP3    H220469   1.233   4.749   4.701
 6842TIP3   OH220470   1.624   1.282   3.620
 6842TIP3    H120471   1.531   1.304   3.629
 6842TIP3    H220472   1.657   1.282   3.710
 6843TIP3   OH220473   1.576   5.291   2.664
 6843TIP3    H120474   1.525   5.267   2.741
 6843TIP3    H220475   1.575   5.387   2.663
 6844TIP3   OH220476   6.167   2.481   1.635
 6844TIP3    H120477   6.191   2.399   1.592
 6844TIP3    H220478   6.085   2.507   1.594
 6845TIP3   OH220479   6.815   0.804   0.427
 6845TIP3    H120480   6.733   0.810   0.379
 6845TIP3    H220481   6.832   0.893   0.458
 6846TIP3   OH220482   3.681   7.430   6.309
 6846TIP3    H120483   3.718   7.517   6.317
 6846TIP3    H220484   3.636   7.431   6.225
 6847TIP3   OH220485   3.521   6.029   4.727
 6847TIP3    H120486   3.474   6.095   4.676
 6847TIP3    H220487   3.614   6.049   4.713
 6848TIP3   OH220488   1.073   4.386   1.266
 6848TIP3    H120489   0.981   4.372   1.242
 6848TIP3    H220490   1.087   4.327   1.339
 6849TIP3   OH220491   6.519   0.667   0.629
 6849TIP3    H120492   6.609   0.698   0.638
 6849TIP3    H220493   6.526   0.572   0.637
 6850TIP3   OH220494   6.423   7.264   4.962
 6850TIP3    H120495   6.406   7.233   5.051
 6850TIP3    H220496   6.438   7.184   4.912
 6851TIP3   OH220497   5.953   5.636   3.970
 6851TIP3    H120498   6.027   5.600   4.018
 6851TIP3    H220499   5.987   5.716   3.929
 6852TIP3   OH220500   1.103   1.302   0.324
 6852TIP3    H120501   1.160   1.362   0.372
 6852TIP3    H220502   1.022   1.301   0.374
 6853TIP3   OH220503   7.880   6.438   2.409
 6853TIP3    H120504   7.920   6.412   2.327
 6853TIP3    H220505   7.896   6.533   2.414
 6854TIP3   OH220506   6.737   6.981   4.336
 6854TIP3    H120507   6.699   7.037   4.403
 6854TIP3    H220508   6.810   6.937   4.380
 6855TIP3   OH220509   8.140   0.100   6.107
 6855TIP3    H120510   8.053   0.080   6.072
 6855TIP3    H220511   8.196   0.032   6.071
 6856TIP3   OH220512   2.454   6.236   4.396
 6856TIP3    H120513   2.417   6.317   4.431
 6856TIP3    H220514   2.524   6.213   4.458
 6857TIP3   OH220515   2.027   4.475   3.928
 6857TIP3    H120516   1.994   4.557   3.893
 6857TIP3    H220517   2.103   4.500   3.982
 6858TIP3   OH220518   5.782   7.530   6.484
 6858TIP3    H120519   5.714   7.505   6.422
 6858TIP3    H220520   5.751   7.496   6.568
 6859TIP3   OH220521   1.755   1.241   3.366
 6859TIP3    H120522   1.686   1.267   3.305
 6859TIP3    H220523   1.715   1.251   3.453
 6860TIP3   OH220524   1.047   2.491   4.234
 6860TIP3    H120525   1.121   2.431   4.243
 6860TIP3    H220526   0.970   2.434   4.230
 6861TIP3   OH220527   1.365   4.437   0.254
 6861TIP3    H120528   1.348   4.357   0.304
 6861TIP3    H220529   1.316   4.505   0.300
 6862TIP3   OH220530   3.003   7.317   1.874
 6862TIP3    H120531   2.994   7.248   1.939
 6862TIP3    H220532   3.096   7.318   1.853
 6863TIP3   OH220533   5.185   4.332   5.625
 6863TIP3    H120534   5.124   4.272   5.582
 6863TIP3    H220535   5.130   4.405   5.655
 6864TIP3   OH220536   7.491   3.408   3.844
 6864TIP3    H120537   7.445   3.417   3.927
 6864TIP3    H220538   7.443   3.339   3.798
 6865TIP3   OH220539   8.055   2.619   2.319
 6865TIP3    H120540   8.019   2.673   2.390
 6865TIP3    H220541   8.099   2.547   2.364
 6866TIP3   OH220542   6.717   6.184   5.856
 6866TIP3    H120543   6.787   6.128   5.889
 6866TIP3    H220544   6.651   6.122   5.823
 6867TIP3   OH220545   2.515   6.222   1.992
 6867TIP3    H120546   2.588   6.252   2.045
 6867TIP3    H220547   2.452   6.186   2.055
 6868TIP3   OH220548   1.579   1.778   3.423
 6868TIP3    H120549   1.520   1.847   3.454
 6868TIP3    H220550   1.653   1.780   3.483
 6869TIP3   OH220551   4.682   0.098   2.936
 6869TIP3    H120552   4.683   0.190   2.962
 6869TIP3    H220553   4.767   0.085   2.893
 6870TIP3   OH220554   6.069   2.409   3.721
 6870TIP3    H120555   6.056   2.331   3.667
 6870TIP3    H220556   6.067   2.481   3.659
 6871TIP3   OH220557   6.123   1.789   2.632
 6871TIP3    H120558   6.122   1.820   2.722
 6871TIP3    H220559   6.134   1.694   2.640
 6872TIP3   OH220560   7.666   2.639   6.477
 6872TIP3    H120561   7.712   2.703   6.532
 6872TIP3    H220562   7.735   2.581   6.444
 6873TIP3   OH220563   2.673   4.795   2.651
 6873TIP3    H120564   2.688   4.702   2.667
 6873TIP3    H220565   2.693   4.838   2.734
 6874TIP3   OH220566   7.570   7.175   1.170
 6874TIP3    H120567   7.640   7.232   1.203
 6874TIP3    H220568   7.489   7.221   1.192
 6875TIP3   OH220569   7.670   7.652   6.544
 6875TIP3    H120570   7.731   7.586   6.511
 6875TIP3    H220571   7.648   7.622   6.632
 6876TIP3   OH220572   7.307   5.134   5.882
 6876TIP3    H120573   7.277   5.215   5.839
 6876TIP3    H220574   7.357   5.088   5.815
 6877TIP3   OH220575   3.958   5.352   2.834
 6877TIP3    H120576   3.918   5.438   2.846
 6877TIP3    H220577   3.973   5.320   2.924
 6878TIP3   OH220578   6.140   1.818   1.456
 6878TIP3    H120579   6.066   1.777   1.410
 6878TIP3    H220580   6.105   1.902   1.486
 6879TIP3   OH220581   0.295   1.577   4.897
 6879TIP3    H120582   0.377   1.607   4.858
 6879TIP3    H220583   0.319   1.497   4.945
 6880TIP3   OH220584   3.530   0.178   0.234
 6880TIP3    H120585   3.534   0.242   0.164
 6880TIP3    H220586   3.514   0.230   0.313
 6881TIP3   OH220587   6.208   6.854   3.216
 6881TIP3    H120588   6.181   6.776   3.167
 6881TIP3    H220589   6.143   6.863   3.285
 6882TIP3   OH220590   7.180   4.555   0.392
 6882TIP3    H120591   7.091   4.565   0.425
 6882TIP3    H220592   7.193   4.461   0.384
 6883TIP3   OH220593   7.497   4.806   2.040
 6883TIP3    H120594   7.516   4.789   1.947
 6883TIP3    H220595   7.512   4.900   2.050
 6884TIP3   OH220596   3.522   0.399   2.287
 6884TIP3    H120597   3.523   0.441   2.373
 6884TIP3    H220598   3.472   0.460   2.232
 6885TIP3   OH220599   5.646   5.359   1.303
 6885TIP3    H120600   5.582   5.299   1.343
 6885TIP3    H220601   5.596   5.407   1.237
 6886TIP3   OH220602   1.727   1.705   1.386
 6886TIP3    H120603   1.764   1.789   1.359
 6886TIP3    H220604   1.796   1.664   1.438
 6887TIP3   OH220605   2.059   3.438   1.514
 6887TIP3    H120606   2.093   3.354   1.484
 6887TIP3    H220607   2.120   3.465   1.583
 6888TIP3   OH220608   3.343   4.802   3.996
 6888TIP3    H120609   3.283   4.862   3.950
 6888TIP3    H220610   3.355   4.842   4.082
 6889TIP3   OH220611   0.866   6.537   1.997
 6889TIP3    H120612   0.954   6.528   1.959
 6889TIP3    H220613   0.806   6.515   1.926
 6890TIP3   OH220614   6.101   2.039   2.254
 6890TIP3    H120615   6.077   2.086   2.174
 6890TIP3    H220616   6.158   2.099   2.301
 6891TIP3   OH220617   2.390   0.339   5.898
 6891TIP3    H120618   2.424   0.424   5.869
 6891TIP3    H220619   2.408   0.280   5.825
 6892TIP3   OH220620   2.587   2.909   6.696
 6892TIP3    H120621   2.665   2.957   6.725
 6892TIP3    H220622   2.514   2.953   6.740
 6893TIP3   OH220623   5.039   1.522   1.888
 6893TIP3    H120624   4.974   1.557   1.949
 6893TIP3    H220625   5.064   1.596   1.833
 6894TIP3   OH220626   6.498   1.414   3.648
 6894TIP3    H120627   6.524   1.497   3.606
 6894TIP3    H220628   6.475   1.438   3.737
 6895TIP3   OH220629   1.064   6.000   4.679
 6895TIP3    H120630   1.144   6.029   4.635
 6895TIP3    H220631   1.070   6.037   4.767
 6896TIP3   OH220632   5.462   5.937   6.062
 6896TIP3    H120633   5.490   5.925   6.152
 6896TIP3    H220634   5.401   6.010   6.065
 6897TIP3   OH220635   0.461   1.471   0.054
 6897TIP3    H120636   0.435   1.452   0.144
 6897TIP3    H220637   0.440   1.564   0.043
 6898TIP3   OH220638   4.028   1.845   4.764
 6898TIP3    H120639   3.942   1.804   4.775
 6898TIP3    H220640   4.023   1.887   4.678
 6899TIP3   OH220641   2.280   5.516   0.622
 6899TIP3    H120642   2.330   5.453   0.674
 6899TIP3    H220643   2.341   5.544   0.554
 6900TIP3   OH220644   7.578   3.349   2.904
 6900TIP3    H120645   7.508   3.400   2.945
 6900TIP3    H220646   7.538   3.264   2.887
 6901TIP3   OH220647   1.165   4.173   5.185
 6901TIP3    H120648   1.260   4.180   5.194
 6901TIP3    H220649   1.139   4.107   5.249
 6902TIP3   OH220650   7.924   7.140   5.407
 6902TIP3    H120651   7.847   7.134   5.350
 6902TIP3    H220652   7.989   7.084   5.366
 6903TIP3   OH220653   5.097   3.397   4.063
 6903TIP3    H120654   5.010   3.359   4.074
 6903TIP3    H220655   5.149   3.327   4.023
 6904TIP3   OH220656   4.950   5.956   0.887
 6904TIP3    H120657   5.044   5.974   0.886
 6904TIP3    H220658   4.943   5.868   0.924
 6905TIP3   OH220659   0.133   2.381   5.269
 6905TIP3    H120660   0.169   2.418   5.188
 6905TIP3    H220661   0.191   2.412   5.338
 6906TIP3   OH220662   2.919   5.614   5.731
 6906TIP3    H120663   2.932   5.696   5.683
 6906TIP3    H220664   2.980   5.620   5.805
 6907TIP3   OH220665   0.246   6.949   3.740
 6907TIP3    H120666   0.258   6.898   3.820
 6907TIP3    H220667   0.303   7.025   3.751
 6908TIP3   OH220668   7.119   5.214   5.353
 6908TIP3    H120669   7.200   5.226   5.303
 6908TIP3    H220670   7.050   5.249   5.296
 6909TIP3   OH220671   6.606   0.883   4.682
 6909TIP3    H120672   6.616   0.813   4.746
 6909TIP3    H220673   6.659   0.955   4.716
 6910TIP3   OH220674   5.061   1.353   6.786
 6910TIP3    H120675   5.116   1.358   6.707
 6910TIP3    H220676   5.002   1.428   6.779
 6911TIP3   OH220677   0.383   3.235   1.233
 6911TIP3    H120678   0.339   3.216   1.316
 6911TIP3    H220679   0.446   3.304   1.255
 6912TIP3   OH220680   5.996   0.240   2.072
 6912TIP3    H120681   5.924   0.207   2.019
 6912TIP3    H220682   6.010   0.329   2.041
 6913TIP3   OH220683   1.766   3.016   5.979
 6913TIP3    H120684   1.684   3.057   5.952
 6913TIP3    H220685   1.833   3.059   5.926
 6914TIP3   OH220686   5.481   3.957   4.493
 6914TIP3    H120687   5.576   3.950   4.486
 6914TIP3    H220688   5.449   3.870   4.469
 6915TIP3   OH220689   8.127   4.210   5.242
 6915TIP3    H120690   8.036   4.225   5.219
 6915TIP3    H220691   8.166   4.298   5.245
 6916TIP3   OH220692   1.891   4.452   1.443
 6916TIP3    H120693   1.979   4.423   1.469
 6916TIP3    H220694   1.839   4.372   1.439
 6917TIP3   OH220695   1.160   1.140   5.510
 6917TIP3    H120696   1.111   1.085   5.571
 6917TIP3    H220697   1.096   1.204   5.479
 6918TIP3   OH220698   5.276   1.213   2.598
 6918TIP3    H120699   5.303   1.267   2.673
 6918TIP3    H220700   5.181   1.227   2.592
 6919TIP3   OH220701   5.667   6.871   6.561
 6919TIP3    H120702   5.616   6.855   6.482
 6919TIP3    H220703   5.701   6.960   6.551
 6920TIP3   OH220704   3.440   3.305   5.767
 6920TIP3    H120705   3.470   3.287   5.856
 6920TIP3    H220706   3.405   3.394   5.771
 6921TIP3   OH220707   3.034   4.424   3.300
 6921TIP3    H120708   2.957   4.476   3.274
 6921TIP3    H220709   3.099   4.442   3.232
 6922TIP3   OH220710   7.694   7.675   5.612
 6922TIP3    H120711   7.633   7.645   5.545
 6922TIP3    H220712   7.706   7.769   5.593
 6923TIP3   OH220713   3.651   4.193   3.228
 6923TIP3    H120714   3.706   4.190   3.150
 6923TIP3    H220715   3.563   4.210   3.194
 6924TIP3   OH220716   0.635   2.133   4.301
 6924TIP3    H120717   0.691   2.205   4.331
 6924TIP3    H220718   0.570   2.123   4.370
 6925TIP3   OH220719   1.885   2.356   0.051
 6925TIP3    H120720   1.828   2.330  -0.022
 6925TIP3    H220721   1.837   2.330   0.130
 6926TIP3   OH220722   8.078   2.967   3.971
 6926TIP3    H120723   8.140   2.956   3.899
 6926TIP3    H220724   8.070   3.062   3.981
 6927TIP3   OH220725   3.458   1.748   0.300
 6927TIP3    H120726   3.385   1.739   0.238
 6927TIP3    H220727   3.534   1.764   0.245
 6928TIP3   OH220728   1.757   4.571   4.015
 6928TIP3    H120729   1.781   4.488   3.974
 6928TIP3    H220730   1.791   4.638   3.956
 6929TIP3   OH220731   5.248   0.935   2.129
 6929TIP3    H120732   5.263   0.894   2.215
 6929TIP3    H220733   5.324   0.991   2.116
 6930TIP3   OH220734   7.522   6.254   2.534
 6930TIP3    H120735   7.447   6.196   2.539
 6930TIP3    H220736   7.540   6.278   2.624
 6931TIP3   OH220737   7.803   6.642   6.474
 6931TIP3    H120738   7.872   6.634   6.541
 6931TIP3    H220739   7.757   6.723   6.498
 6932TIP3   OH220740   1.026   3.750   1.261
 6932TIP3    H120741   0.940   3.722   1.293
 6932TIP3    H220742   1.046   3.690   1.189
 6933TIP3   OH220743   6.747   1.940   4.706
 6933TIP3    H120744   6.717   2.013   4.760
 6933TIP3    H220745   6.673   1.920   4.649
 6934TIP3   OH220746   2.243   7.064   6.136
 6934TIP3    H120747   2.239   7.159   6.147
 6934TIP3    H220748   2.336   7.046   6.122
 6935TIP3   OH220749   4.532   5.165   0.396
 6935TIP3    H120750   4.564   5.229   0.332
 6935TIP3    H220751   4.496   5.094   0.343
 6936TIP3   OH220752   1.635   3.530   2.944
 6936TIP3    H120753   1.683   3.455   2.908
 6936TIP3    H220754   1.666   3.605   2.893
 6937TIP3   OH220755   5.781   6.779   0.554
 6937TIP3    H120756   5.832   6.698   0.558
 6937TIP3    H220757   5.846   6.848   0.543
 6938TIP3   OH220758   4.805   3.206   3.145
 6938TIP3    H120759   4.738   3.138   3.148
 6938TIP3    H220760   4.807   3.241   3.235
 6939TIP3   OH220761   3.001   6.692   1.220
 6939TIP3    H120762   2.998   6.630   1.146
 6939TIP3    H220763   2.946   6.651   1.287
 6940TIP3   OH220764   1.330   5.965   6.560
 6940TIP3    H120765   1.293   6.041   6.515
 6940TIP3    H220766   1.316   5.892   6.500
 6941TIP3   OH220767   3.112   3.958   3.414
 6941TIP3    H120768   3.038   3.927   3.362
 6941TIP3    H220769   3.075   3.974   3.501
 6942TIP3   OH220770   7.225   4.877   0.738
 6942TIP3    H120771   7.260   4.800   0.782
 6942TIP3    H220772   7.294   4.943   0.745
 6943TIP3   OH220773   3.010   6.844   5.507
 6943TIP3    H120774   3.105   6.854   5.514
 6943TIP3    H220775   2.995   6.823   5.415
 6944TIP3   OH220776   4.952   7.721   4.036
 6944TIP3    H120777   4.970   7.632   4.067
 6944TIP3    H220778   4.946   7.712   3.941
 6945TIP3   OH220779   0.778   4.384   5.983
 6945TIP3    H120780   0.690   4.417   5.968
 6945TIP3    H220781   0.808   4.428   6.062
 6946TIP3   OH220782   6.470   7.794   3.993
 6946TIP3    H120783   6.484   7.793   4.087
 6946TIP3    H220784   6.532   7.730   3.958
 6947TIP3   OH220785   4.477   6.342   1.471
 6947TIP3    H120786   4.382   6.338   1.480
 6947TIP3    H220787   4.505   6.406   1.537
 6948TIP3   OH220788   8.279   2.767   3.552
 6948TIP3    H120789   8.229   2.688   3.529
 6948TIP3    H220790   8.302   2.806   3.468
 6949TIP3   OH220791   7.506   7.609   1.519
 6949TIP3    H120792   7.466   7.644   1.439
 6949TIP3    H220793   7.576   7.552   1.488
 6950TIP3   OH220794   3.692   1.307   6.555
 6950TIP3    H120795   3.788   1.304   6.555
 6950TIP3    H220796   3.666   1.246   6.486
 6951TIP3   OH220797   6.141   7.773   1.308
 6951TIP3    H120798   6.178   7.731   1.386
 6951TIP3    H220799   6.106   7.700   1.257
 6952TIP3   OH220800   7.014   3.291   1.851
 6952TIP3    H120801   7.037   3.383   1.845
 6952TIP3    H220802   7.080   3.253   1.909
 6953TIP3   OH220803   0.586   6.152   2.304
 6953TIP3    H120804   0.561   6.234   2.345
 6953TIP3    H220805   0.517   6.090   2.329
 6954TIP3   OH220806   0.564   7.271   5.004
 6954TIP3    H120807   0.579   7.201   4.941
 6954TIP3    H220808   0.523   7.228   5.079
 6955TIP3   OH220809   7.216   6.617   4.876
 6955TIP3    H120810   7.177   6.543   4.829
 6955TIP3    H220811   7.273   6.576   4.941
 6956TIP3   OH220812   4.763   2.349   0.952
 6956TIP3    H120813   4.842   2.402   0.940
 6956TIP3    H220814   4.797   2.260   0.968
 6957TIP3   OH220815   6.652   4.125   1.482
 6957TIP3    H120816   6.565   4.162   1.499
 6957TIP3    H220817   6.647   4.092   1.393
 6958TIP3   OH220818   8.112   2.886   1.675
 6958TIP3    H120819   8.172   2.835   1.620
 6958TIP3    H220820   8.148   2.878   1.764
 6959TIP3   OH220821   5.194   4.861   0.806
 6959TIP3    H120822   5.168   4.908   0.726
 6959TIP3    H220823   5.222   4.930   0.866
 6960TIP3   OH220824   7.617   2.342   2.897
 6960TIP3    H120825   7.657   2.412   2.949
 6960TIP3    H220826   7.690   2.304   2.849
 6961TIP3   OH220827   1.349   6.113   4.234
 6961TIP3    H120828   1.342   6.148   4.145
 6961TIP3    H220829   1.436   6.140   4.264
 6962TIP3   OH220830   1.965   7.717   5.385
 6962TIP3    H120831   2.021   7.793   5.370
 6962TIP3    H220832   1.945   7.685   5.298
 6963TIP3   OH220833   5.664   2.563   1.140
 6963TIP3    H120834   5.574   2.582   1.115
 6963TIP3    H220835   5.707   2.649   1.138
 6964TIP3   OH220836   0.159   5.702   1.569
 6964TIP3    H120837   0.141   5.671   1.657
 6964TIP3    H220838   0.079   5.681   1.519
 6965TIP3   OH220839   2.323   7.299   4.213
 6965TIP3    H120840   2.263   7.305   4.139
 6965TIP3    H220841   2.268   7.277   4.288
 6966TIP3   OH220842   5.237   3.048   5.262
 6966TIP3    H120843   5.218   2.956   5.280
 6966TIP3    H220844   5.278   3.080   5.343
 6967TIP3   OH220845   0.436   3.549   3.180
 6967TIP3    H120846   0.499   3.564   3.250
 6967TIP3    H220847   0.425   3.634   3.139
 6968TIP3   OH220848   2.984   5.237   5.680
 6968TIP3    H120849   3.051   5.169   5.676
 6968TIP3    H220850   2.944   5.227   5.766
 6969TIP3   OH220851   2.030   2.301   0.769
 6969TIP3    H120852   2.021   2.220   0.719
 6969TIP3    H220853   1.966   2.294   0.839
 6970TIP3   OH220854   6.978   5.530   3.770
 6970TIP3    H120855   6.887   5.504   3.780
 6970TIP3    H220856   7.020   5.456   3.726
 6971TIP3   OH220857   6.380   6.830   2.959
 6971TIP3    H120858   6.444   6.766   2.990
 6971TIP3    H220859   6.336   6.861   3.038
 6972TIP3   OH220860   1.299   4.625   2.028
 6972TIP3    H120861   1.277   4.692   2.093
 6972TIP3    H220862   1.372   4.662   1.979
 6973TIP3   OH220863   1.471   2.365   1.669
 6973TIP3    H120864   1.462   2.271   1.657
 6973TIP3    H220865   1.417   2.403   1.600
 6974TIP3   OH220866   7.656   3.538   0.713
 6974TIP3    H120867   7.621   3.566   0.797
 6974TIP3    H220868   7.582   3.545   0.653
 6975TIP3   OH220869   0.001   1.516   2.737
 6975TIP3    H120870   0.080   1.462   2.738
 6975TIP3    H220871   0.014   1.579   2.808
 6976TIP3   OH220872   8.178   7.057   1.912
 6976TIP3    H120873   8.106   7.112   1.883
 6976TIP3    H220874   8.232   7.115   1.967
 6977TIP3   OH220875   6.685   7.730   5.812
 6977TIP3    H120876   6.687   7.638   5.840
 6977TIP3    H220877   6.592   7.755   5.819
 6978TIP3   OH220878   5.188   6.643   2.643
 6978TIP3    H120879   5.213   6.635   2.551
 6978TIP3    H220880   5.093   6.649   2.642
 6979TIP3   OH220881   7.494   0.757   1.096
 6979TIP3    H120882   7.558   0.692   1.125
 6979TIP3    H220883   7.487   0.818   1.169
 6980TIP3   OH220884   4.356   4.799   2.946
 6980TIP3    H120885   4.403   4.846   2.878
 6980TIP3    H220886   4.267   4.836   2.943
 6981TIP3   OH220887   5.312   2.021   4.973
 6981TIP3    H120888   5.266   1.946   5.010
 6981TIP3    H220889   5.371   2.050   5.042
 6982TIP3   OH220890   4.584   2.032   3.207
 6982TIP3    H120891   4.513   2.036   3.143
 6982TIP3    H220892   4.553   1.969   3.273
 6983TIP3   OH220893   1.282   4.161   1.316
 6983TIP3    H120894   1.283   4.194   1.227
 6983TIP3    H220895   1.203   4.106   1.320
 6984TIP3   OH220896   8.206   2.265   5.345
 6984TIP3    H120897   8.123   2.219   5.335
 6984TIP3    H220898   8.251   2.252   5.261
 6985TIP3   OH220899   5.231   0.706   3.894
 6985TIP3    H120900   5.154   0.754   3.864
 6985TIP3    H220901   5.214   0.615   3.871
 6986TIP3   OH220902   0.822   4.363   1.135
 6986TIP3    H120903   0.839   4.417   1.058
 6986TIP3    H220904   0.727   4.352   1.136
 6987TIP3   OH220905   4.735   7.264   0.570
 6987TIP3    H120906   4.701   7.332   0.629
 6987TIP3    H220907   4.819   7.298   0.541
 6988TIP3   OH220908   3.664   1.254   3.344
 6988TIP3    H120909   3.590   1.243   3.403
 6988TIP3    H220910   3.724   1.184   3.368
 6989TIP3   OH220911   6.988   3.821   5.083
 6989TIP3    H120912   7.033   3.884   5.140
 6989TIP3    H220913   6.979   3.867   5.000
 6990TIP3   OH220914   7.463   2.772   1.563
 6990TIP3    H120915   7.494   2.854   1.526
 6990TIP3    H220916   7.381   2.754   1.518
 6991TIP3   OH220917   4.427   4.871   3.902
 6991TIP3    H120918   4.501   4.902   3.851
 6991TIP3    H220919   4.366   4.836   3.837
 6992TIP3   OH220920   1.324   5.602   6.640
 6992TIP3    H120921   1.326   5.507   6.653
 6992TIP3    H220922   1.240   5.619   6.598
 6993TIP3   OH220923   2.858   1.759   4.360
 6993TIP3    H120924   2.911   1.690   4.398
 6993TIP3    H220925   2.770   1.721   4.354
 6994TIP3   OH220926   3.818   5.920   5.348
 6994TIP3    H120927   3.836   5.839   5.395
 6994TIP3    H220928   3.897   5.937   5.297
 6995TIP3   OH220929   1.835   4.109   3.447
 6995TIP3    H120930   1.913   4.159   3.469
 6995TIP3    H220931   1.847   4.085   3.355
 6996TIP3   OH220932   1.000   0.537   3.668
 6996TIP3    H120933   0.962   0.453   3.642
 6996TIP3    H220934   0.927   0.585   3.707
 6997TIP3   OH220935   0.607   3.196   5.065
 6997TIP3    H120936   0.630   3.131   5.131
 6997TIP3    H220937   0.691   3.233   5.037
 6998TIP3   OH220938   3.191   2.540   4.787
 6998TIP3    H120939   3.145   2.543   4.704
 6998TIP3    H220940   3.129   2.499   4.848
 6999TIP3   OH220941   2.009   4.467   6.201
 6999TIP3    H120942   1.988   4.375   6.189
 6999TIP3    H220943   2.103   4.467   6.223
 7000TIP3   OH220944   2.838   7.652   3.651
 7000TIP3    H120945   2.926   7.691   3.650
 7000TIP3    H220946   2.795   7.690   3.574
 7001TIP3   OH220947   2.669   3.990   3.845
 7001TIP3    H120948   2.602   3.924   3.862
 7001TIP3    H220949   2.707   3.964   3.762
 7002TIP3   OH220950   1.530   2.192   4.489
 7002TIP3    H120951   1.452   2.145   4.458
 7002TIP3    H220952   1.593   2.122   4.509
 7003TIP3   OH220953   0.569   4.194   1.581
 7003TIP3    H120954   0.586   4.288   1.569
 7003TIP3    H220955   0.499   4.191   1.647
 7004TIP3   OH220956   6.990   0.846   0.829
 7004TIP3    H120957   7.037   0.911   0.778
 7004TIP3    H220958   7.057   0.788   0.863
 7005TIP3   OH220959   8.044   5.967   3.569
 7005TIP3    H120960   7.968   5.910   3.557
 7005TIP3    H220961   8.007   6.055   3.578
 7006TIP3   OH220962   3.847   2.939   6.452
 7006TIP3    H120963   3.911   2.996   6.410
 7006TIP3    H220964   3.762   2.978   6.432
 7007TIP3   OH220965   1.490   2.202   3.763
 7007TIP3    H120966   1.519   2.120   3.802
 7007TIP3    H220967   1.447   2.176   3.682
 7008TIP3   OH220968   2.814   5.518   2.266
 7008TIP3    H120969   2.815   5.434   2.220
 7008TIP3    H220970   2.832   5.495   2.357
 7009TIP3   OH220971   1.808   7.296   2.345
 7009TIP3    H120972   1.800   7.374   2.290
 7009TIP3    H220973   1.727   7.247   2.329
 7010TIP3   OH220974   0.487   3.964   2.602
 7010TIP3    H120975   0.553   3.952   2.535
 7010TIP3    H220976   0.404   3.951   2.557
 7011TIP3   OH220977   5.915   0.428   4.876
 7011TIP3    H120978   5.875   0.348   4.842
 7011TIP3    H220979   5.948   0.474   4.799
 7012TIP3   OH220980   1.397   2.792   1.538
 7012TIP3    H120981   1.408   2.793   1.633
 7012TIP3    H220982   1.305   2.815   1.524
 7013TIP3   OH220983   1.144   0.130   6.403
 7013TIP3    H120984   1.126   0.216   6.364
 7013TIP3    H220985   1.074   0.074   6.369
 7014TIP3   OH220986   4.594   4.904   0.750
 7014TIP3    H120987   4.520   4.869   0.798
 7014TIP3    H220988   4.661   4.837   0.756
 7015TIP3   OH220989   7.892   6.143   5.616
 7015TIP3    H120990   7.912   6.131   5.709
 7015TIP3    H220991   7.949   6.215   5.588
 7016TIP3   OH220992   5.278   7.448   3.792
 7016TIP3    H120993   5.349   7.387   3.775
 7016TIP3    H220994   5.204   7.415   3.740
 7017TIP3   OH220995   4.735   5.982   1.941
 7017TIP3    H120996   4.719   6.043   2.013
 7017TIP3    H220997   4.818   5.941   1.962
 7018TIP3   OH220998   1.575   1.159   2.051
 7018TIP3    H120999   1.578   1.186   1.959
 7018TIP3    H221000   1.666   1.166   2.081
 7019TIP3   OH221001   0.023   4.928   3.973
 7019TIP3    H121002   0.100   4.947   4.027
 7019TIP3    H221003  -0.051   4.932   4.035
 7020TIP3   OH221004   0.353   2.183   2.409
 7020TIP3    H121005   0.404   2.154   2.484
 7020TIP3    H221006   0.401   2.149   2.333
 7021TIP3   OH221007   5.537   0.752   4.184
 7021TIP3    H121008   5.564   0.758   4.276
 7021TIP3    H221009   5.472   0.821   4.174
 7022TIP3   OH221010   1.019   5.648   1.137
 7022TIP3    H121011   0.928   5.672   1.157
 7022TIP3    H221012   1.023   5.554   1.153
 7023TIP3   OH221013   6.496   3.768   2.883
 7023TIP3    H121014   6.571   3.710   2.896
 7023TIP3    H221015   6.440   3.722   2.821
 7024TIP3   OH221016   4.728   0.615   5.825
 7024TIP3    H121017   4.645   0.663   5.820
 7024TIP3    H221018   4.702   0.523   5.837
 7025TIP3   OH221019   0.774   4.426   4.427
 7025TIP3    H121020   0.731   4.368   4.489
 7025TIP3    H221021   0.760   4.384   4.342
 7026TIP3   OH221022   4.687   4.478   1.569
 7026TIP3    H121023   4.595   4.460   1.588
 7026TIP3    H221024   4.734   4.448   1.647
 7027TIP3   OH221025   0.225   6.988   1.116
 7027TIP3    H121026   0.199   6.954   1.031
 7027TIP3    H221027   0.196   7.079   1.116
 7028TIP3   OH221028   3.336   3.670   1.938
 7028TIP3    H121029   3.387   3.661   1.857
 7028TIP3    H221030   3.253   3.708   1.910
 7029TIP3   OH221031   2.628   6.571   4.024
 7029TIP3    H121032   2.620   6.587   3.930
 7029TIP3    H221033   2.541   6.546   4.053
 7030TIP3   OH221034   3.236   1.762   6.231
 7030TIP3    H121035   3.265   1.853   6.240
 7030TIP3    H221036   3.275   1.733   6.148
 7031TIP3   OH221037   5.477   1.717   1.507
 7031TIP3    H121038   5.524   1.649   1.555
 7031TIP3    H221039   5.489   1.693   1.415
 7032TIP3   OH221040   1.018   6.846   6.436
 7032TIP3    H121041   1.109   6.844   6.406
 7032TIP3    H221042   1.024   6.845   6.531
 7033TIP3   OH221043   7.458   4.313   6.429
 7033TIP3    H121044   7.486   4.237   6.480
 7033TIP3    H221045   7.502   4.304   6.345
 7034TIP3   OH221046   2.742   2.579   5.958
 7034TIP3    H121047   2.683   2.613   5.891
 7034TIP3    H221048   2.757   2.654   6.016
 7035TIP3   OH221049   3.764   3.889   3.516
 7035TIP3    H121050   3.768   3.878   3.421
 7035TIP3    H221051   3.853   3.870   3.545
 7036TIP3   OH221052   1.544   1.375   4.534
 7036TIP3    H121053   1.453   1.368   4.565
 7036TIP3    H221054   1.564   1.287   4.501
 7037TIP3   OH221055   6.694   2.801   0.270
 7037TIP3    H121056   6.667   2.769   0.183
 7037TIP3    H221057   6.776   2.848   0.254
 7038TIP3   OH221058   4.782   3.824   3.399
 7038TIP3    H121059   4.769   3.777   3.482
 7038TIP3    H221060   4.827   3.762   3.342
 7039TIP3   OH221061   2.049   7.641   3.009
 7039TIP3    H121062   2.119   7.576   3.005
 7039TIP3    H221063   2.094   7.724   3.020
 7040TIP3   OH221064   1.671   3.056   1.775
 7040TIP3    H121065   1.657   3.031   1.683
 7040TIP3    H221066   1.715   2.980   1.814
 7041TIP3   OH221067   5.147   3.000   3.207
 7041TIP3    H121068   5.193   2.935   3.154
 7041TIP3    H221069   5.157   2.969   3.297
 7042TIP3   OH221070   5.452   2.964   0.569
 7042TIP3    H121071   5.394   3.008   0.507
 7042TIP3    H221072   5.504   2.905   0.515
 7043TIP3   OH221073   0.168   6.247   1.322
 7043TIP3    H121074   0.086   6.296   1.332
 7043TIP3    H221075   0.155   6.169   1.377
 7044TIP3   OH221076   2.855   4.170   6.357
 7044TIP3    H121077   2.812   4.247   6.319
 7044TIP3    H221078   2.927   4.151   6.297
 7045TIP3   OH221079   6.528   2.407   0.561
 7045TIP3    H121080   6.501   2.438   0.647
 7045TIP3    H221081   6.623   2.400   0.566
 7046TIP3   OH221082   0.855   5.441   4.531
 7046TIP3    H121083   0.771   5.421   4.573
 7046TIP3    H221084   0.878   5.528   4.564
 7047TIP3   OH221085   5.920   1.092   0.631
 7047TIP3    H121086   5.988   1.031   0.659
 7047TIP3    H221087   5.924   1.090   0.535
 7048TIP3   OH221088   2.879   3.853   3.288
 7048TIP3    H121089   2.850   3.887   3.203
 7048TIP3    H221090   2.812   3.881   3.350
 7049TIP3   OH221091   6.054   0.312   1.389
 7049TIP3    H121092   5.995   0.242   1.360
 7049TIP3    H221093   6.012   0.393   1.361
 7050TIP3   OH221094   0.218   5.560   4.857
 7050TIP3    H121095   0.255   5.648   4.869
 7050TIP3    H221096   0.282   5.501   4.898
 7051TIP3   OH221097   6.690   5.264   5.077
 7051TIP3    H121098   6.671   5.221   4.993
 7051TIP3    H221099   6.692   5.358   5.056
 7052TIP3   OH221100   5.177   2.608   3.555
 7052TIP3    H121101   5.152   2.661   3.479
 7052TIP3    H221102   5.147   2.520   3.533
 7053TIP3   OH221103   5.263   0.101   0.964
 7053TIP3    H121104   5.245   0.046   1.040
 7053TIP3    H221105   5.319   0.170   0.997
 7054TIP3   OH221106   1.621   4.029   3.595
 7054TIP3    H121107   1.702   4.036   3.546
 7054TIP3    H221108   1.552   4.047   3.532
 7055TIP3   OH221109   0.356   5.569   5.626
 7055TIP3    H121110   0.317   5.500   5.571
 7055TIP3    H221111   0.323   5.651   5.588
 7056TIP3   OH221112   3.944   2.339   0.286
 7056TIP3    H121113   3.961   2.409   0.349
 7056TIP3    H221114   3.857   2.360   0.250
 7057TIP3   OH221115   1.576   7.679   1.440
 7057TIP3    H121116   1.484   7.657   1.458
 7057TIP3    H221117   1.618   7.676   1.525
 7058TIP3   OH221118   1.313   7.627   6.163
 7058TIP3    H121119   1.253   7.700   6.148
 7058TIP3    H221120   1.389   7.667   6.205
 7059TIP3   OH221121   1.044   5.233   1.859
 7059TIP3    H121122   1.117   5.173   1.849
 7059TIP3    H221123   1.018   5.255   1.769
 7060TIP3   OH221124   4.689   4.633   1.323
 7060TIP3    H121125   4.620   4.696   1.345
 7060TIP3    H221126   4.725   4.607   1.408
 7061TIP3   OH221127   7.348   0.352   0.915
 7061TIP3    H121128   7.328   0.353   1.008
 7061TIP3    H221129   7.434   0.394   0.908
 7062TIP3   OH221130   4.845   3.046   5.611
 7062TIP3    H121131   4.838   3.023   5.518
 7062TIP3    H221132   4.893   3.129   5.611
 7063TIP3   OH221133   0.009   0.980   3.298
 7063TIP3    H121134   0.069   0.906   3.303
 7063TIP3    H221135  -0.054   0.956   3.230
 7064TIP3   OH221136   1.709   4.729   5.140
 7064TIP3    H121137   1.678   4.638   5.146
 7064TIP3    H221138   1.667   4.762   5.060
 7065TIP3   OH221139   2.934   4.611   0.764
 7065TIP3    H121140   2.981   4.694   0.758
 7065TIP3    H221141   2.855   4.624   0.712
 7066TIP3   OH221142   1.046   7.606   6.412
 7066TIP3    H121143   0.990   7.671   6.370
 7066TIP3    H221144   1.002   7.523   6.395
 7067TIP3   OH221145   6.636   5.971   3.328
 7067TIP3    H121146   6.664   5.971   3.420
 7067TIP3    H221147   6.718   5.982   3.279
 7068TIP3   OH221148   3.086   6.493   6.147
 7068TIP3    H121149   3.038   6.411   6.141
 7068TIP3    H221150   3.178   6.467   6.135
 7069TIP3   OH221151   2.269   0.596   1.614
 7069TIP3    H121152   2.205   0.658   1.649
 7069TIP3    H221153   2.296   0.545   1.690
 7070TIP3   OH221154   0.360   3.969   5.416
 7070TIP3    H121155   0.449   3.991   5.445
 7070TIP3    H221156   0.308   4.046   5.440
 7071TIP3   OH221157   7.052   2.408   2.158
 7071TIP3    H121158   7.128   2.350   2.147
 7071TIP3    H221159   7.052   2.462   2.078
 7072TIP3   OH221160   8.058   3.927   0.779
 7072TIP3    H121161   7.995   3.861   0.749
 7072TIP3    H221162   8.067   3.911   0.873
 7073TIP3   OH221163   7.529   5.210   6.562
 7073TIP3    H121164   7.575   5.279   6.513
 7073TIP3    H221165   7.593   5.140   6.570
 7074TIP3   OH221166   4.480   5.064   6.056
 7074TIP3    H121167   4.454   5.145   6.012
 7074TIP3    H221168   4.432   5.065   6.138
 7075TIP3   OH221169   7.513   3.623   0.961
 7075TIP3    H121170   7.442   3.564   0.987
 7075TIP3    H221171   7.544   3.661   1.043
 7076TIP3   OH221172   2.403   5.596   0.066
 7076TIP3    H121173   2.310   5.583   0.079
 7076TIP3    H221174   2.445   5.536   0.127
 7077TIP3   OH221175   1.658   5.649   0.435
 7077TIP3    H121176   1.746   5.615   0.416
 7077TIP3    H221177   1.623   5.589   0.501
 7078TIP3   OH221178   1.644   7.477   2.711
 7078TIP3    H121179   1.739   7.491   2.715
 7078TIP3    H221180   1.620   7.499   2.622
 7079TIP3   OH221181   1.148   2.009   1.188
 7079TIP3    H121182   1.164   2.089   1.137
 7079TIP3    H221183   1.070   1.970   1.148
 7080TIP3   OH221184   0.473   4.410   6.385
 7080TIP3    H121185   0.419   4.462   6.326
 7080TIP3    H221186   0.536   4.366   6.327
 7081TIP3   OH221187   4.854   4.742   2.063
 7081TIP3    H121188   4.835   4.722   2.155
 7081TIP3    H221189   4.860   4.656   2.021
 7082TIP3   OH221190   1.861   1.800   3.298
 7082TIP3    H121191   1.938   1.826   3.347
 7082TIP3    H221192   1.795   1.782   3.364
 7083TIP3   OH221193   3.306   4.220   3.613
 7083TIP3    H121194   3.216   4.229   3.642
 7083TIP3    H221195   3.326   4.127   3.626
 7084TIP3   OH221196   0.242   0.633   4.765
 7084TIP3    H121197   0.272   0.698   4.829
 7084TIP3    H221198   0.317   0.622   4.706
 7085TIP3   OH221199   1.115   6.239   3.094
 7085TIP3    H121200   1.069   6.246   3.177
 7085TIP3    H221201   1.117   6.145   3.075
 7086TIP3   OH221202   2.303   4.119   5.211
 7086TIP3    H121203   2.307   4.146   5.303
 7086TIP3    H221204   2.264   4.195   5.166
 7087TIP3   OH221205   7.666   1.390   4.841
 7087TIP3    H121206   7.709   1.451   4.781
 7087TIP3    H221207   7.676   1.431   4.927
 7088TIP3   OH221208   5.674   3.179   2.458
 7088TIP3    H121209   5.637   3.103   2.503
 7088TIP3    H221210   5.724   3.224   2.526
 7089TIP3   OH221211   2.627   2.931   6.413
 7089TIP3    H121212   2.553   2.987   6.392
 7089TIP3    H221213   2.612   2.903   6.503
 7090TIP3   OH221214   4.548   4.824   4.580
 7090TIP3    H121215   4.599   4.794   4.655
 7090TIP3    H221216   4.593   4.903   4.551
 7091TIP3   OH221217   2.292   0.966   5.821
 7091TIP3    H121218   2.236   1.011   5.758
 7091TIP3    H221219   2.369   0.939   5.770
 7092TIP3   OH221220   6.185   5.404   3.065
 7092TIP3    H121221   6.105   5.363   3.098
 7092TIP3    H221222   6.157   5.492   3.038
 7093TIP3   OH221223   1.646   2.497   6.271
 7093TIP3    H121224   1.640   2.488   6.366
 7093TIP3    H221225   1.724   2.445   6.248
 7094TIP3   OH221226   0.626   0.854   2.896
 7094TIP3    H121227   0.537   0.890   2.892
 7094TIP3    H221228   0.632   0.813   2.982
 7095TIP3   OH221229   7.103   0.524   0.076
 7095TIP3    H121230   7.039   0.465   0.117
 7095TIP3    H221231   7.188   0.493   0.106
 7096TIP3   OH221232   7.143   7.405   1.092
 7096TIP3    H121233   7.133   7.320   1.049
 7096TIP3    H221234   7.074   7.406   1.158
 7097TIP3   OH221235   1.819   3.290   2.910
 7097TIP3    H121236   1.747   3.232   2.932
 7097TIP3    H221237   1.893   3.232   2.893
 7098TIP3   OH221238   7.952   4.171   4.428
 7098TIP3    H121239   7.937   4.265   4.437
 7098TIP3    H221240   7.951   4.155   4.334
 7099TIP3   OH221241   3.509   2.469   4.845
 7099TIP3    H121242   3.562   2.490   4.921
 7099TIP3    H221243   3.421   2.455   4.880
 7100TIP3   OH221244   0.904   3.638   3.007
 7100TIP3    H121245   0.969   3.697   3.045
 7100TIP3    H221246   0.922   3.552   3.046
 7101TIP3   OH221247   7.231   4.903   4.105
 7101TIP3    H121248   7.195   4.964   4.040
 7101TIP3    H221249   7.175   4.826   4.098
 7102TIP3   OH221250   1.632   6.253   1.121
 7102TIP3    H121251   1.575   6.223   1.050
 7102TIP3    H221252   1.721   6.245   1.085
 7103TIP3   OH221253   6.679   2.131   4.213
 7103TIP3    H121254   6.585   2.121   4.200
 7103TIP3    H221255   6.687   2.203   4.276
 7104TIP3   OH221256   1.256   3.899   4.945
 7104TIP3    H121257   1.330   3.955   4.966
 7104TIP3    H221258   1.204   3.896   5.025
 7105TIP3   OH221259   1.709   0.161   3.668
 7105TIP3    H121260   1.654   0.236   3.691
 7105TIP3    H221261   1.650   0.101   3.622
 7106TIP3   OH221262   2.293   2.813   1.829
 7106TIP3    H121263   2.332   2.832   1.914
 7106TIP3    H221264   2.204   2.848   1.835
 7107TIP3   OH221265   4.540   6.833   0.286
 7107TIP3    H121266   4.581   6.834   0.372
 7107TIP3    H221267   4.604   6.789   0.229
 7108TIP3   OH221268   7.221   0.634   3.223
 7108TIP3    H121269   7.209   0.707   3.285
 7108TIP3    H221270   7.206   0.556   3.275
 7109TIP3   OH221271   1.305   2.072   0.030
 7109TIP3    H121272   1.212   2.072   0.009
 7109TIP3    H221273   1.331   2.164   0.028
 7110TIP3   OH221274   4.752   0.145   4.808
 7110TIP3    H121275   4.768   0.224   4.860
 7110TIP3    H221276   4.776   0.169   4.719
 7111TIP3   OH221277   8.048   1.750   3.892
 7111TIP3    H121278   8.025   1.739   3.799
 7111TIP3    H221279   8.102   1.673   3.912
 7112TIP3   OH221280   6.875   6.534   0.452
 7112TIP3    H121281   6.905   6.465   0.393
 7112TIP3    H221282   6.946   6.544   0.515
 7113TIP3   OH221283   0.871   0.703   4.233
 7113TIP3    H121284   0.950   0.674   4.187
 7113TIP3    H221285   0.890   0.793   4.258
 7114TIP3   OH221286   1.199   5.513   1.699
 7114TIP3    H121287   1.144   5.515   1.621
 7114TIP3    H221288   1.248   5.431   1.692
 7115TIP3   OH221289   6.513   0.943   5.077
 7115TIP3    H121290   6.449   0.929   5.007
 7115TIP3    H221291   6.562   0.861   5.081
 7116TIP3   OH221292   7.063   2.462   3.464
 7116TIP3    H121293   7.120   2.532   3.433
 7116TIP3    H221294   7.043   2.485   3.554
 7117TIP3   OH221295   1.566   7.273   2.901
 7117TIP3    H121296   1.641   7.256   2.957
 7117TIP3    H221297   1.602   7.271   2.812
 7118TIP3   OH221298   8.108   2.594   6.725
 7118TIP3    H121299   8.139   2.506   6.703
 7118TIP3    H221300   8.188   2.647   6.726
 7119TIP3   OH221301   5.239   6.602   0.392
 7119TIP3    H121302   5.283   6.522   0.423
 7119TIP3    H221303   5.257   6.666   0.461
 7120TIP3   OH221304   1.656   2.572   0.045
 7120TIP3    H121305   1.602   2.559   0.122
 7120TIP3    H221306   1.735   2.616   0.077
 7121TIP3   OH221307   5.036   4.270   5.308
 7121TIP3    H121308   4.994   4.219   5.239
 7121TIP3    H221309   4.984   4.253   5.386
 7122TIP3   OH221310   3.556   5.019   0.496
 7122TIP3    H121311   3.639   5.061   0.519
 7122TIP3    H221312   3.496   5.045   0.566
 7123TIP3   OH221313   5.779   5.372   5.255
 7123TIP3    H121314   5.871   5.381   5.278
 7123TIP3    H221315   5.766   5.435   5.183
 7124TIP3   OH221316   5.558   0.621   5.835
 7124TIP3    H121317   5.597   0.576   5.760
 7124TIP3    H221318   5.473   0.580   5.846
 7125TIP3   OH221319   1.264   7.152   1.113
 7125TIP3    H121320   1.334   7.159   1.048
 7125TIP3    H221321   1.276   7.067   1.153
 7126TIP3   OH221322   5.335   4.972   0.538
 7126TIP3    H121323   5.341   5.047   0.478
 7126TIP3    H221324   5.375   4.900   0.489
 7127TIP3   OH221325   2.353   4.286   3.855
 7127TIP3    H121326   2.402   4.238   3.921
 7127TIP3    H221327   2.275   4.317   3.902
 7128TIP3   OH221328   1.351   5.335   2.415
 7128TIP3    H121329   1.323   5.365   2.328
 7128TIP3    H221330   1.280   5.362   2.473
 7129TIP3   OH221331   7.861   2.760   2.885
 7129TIP3    H121332   7.814   2.841   2.902
 7129TIP3    H221333   7.928   2.783   2.820
 7130TIP3   OH221334   2.475   3.474   3.136
 7130TIP3    H121335   2.543   3.540   3.131
 7130TIP3    H221336   2.511   3.398   3.091
 7131TIP3   OH221337   1.055   7.796   2.090
 7131TIP3    H121338   0.996   7.867   2.117
 7131TIP3    H221339   1.028   7.776   2.000
 7132TIP3   OH221340   6.318   3.542   5.883
 7132TIP3    H121341   6.277   3.509   5.803
 7132TIP3    H221342   6.329   3.636   5.867
 7133TIP3   OH221343   1.002   4.614   3.003
 7133TIP3    H121344   0.948   4.544   2.965
 7133TIP3    H221345   0.971   4.622   3.094
 7134TIP3   OH221346   3.249   1.293   4.974
 7134TIP3    H121347   3.233   1.354   4.902
 7134TIP3    H221348   3.292   1.218   4.933
 7135TIP3   OH221349   5.834   2.297   2.963
 7135TIP3    H121350   5.750   2.283   2.920
 7135TIP3    H221351   5.890   2.227   2.930
 7136TIP3   OH221352   3.397   3.608   0.453
 7136TIP3    H121353   3.463   3.600   0.384
 7136TIP3    H221354   3.330   3.543   0.430
 7137TIP3   OH221355   1.858   3.445   2.692
 7137TIP3    H121356   1.824   3.377   2.633
 7137TIP3    H221357   1.864   3.402   2.777
 7138TIP3   OH221358   5.579   3.058   6.165
 7138TIP3    H121359   5.649   3.096   6.218
 7138TIP3    H221360   5.606   3.074   6.075
 7139TIP3   OH221361   0.691   4.850   6.714
 7139TIP3    H121362   0.661   4.884   6.799
 7139TIP3    H221363   0.615   4.806   6.678
 7140TIP3   OH221364   3.094   4.705   0.300
 7140TIP3    H121365   3.156   4.673   0.366
 7140TIP3    H221366   3.037   4.766   0.347
 7141TIP3   OH221367   5.925   2.482   1.041
 7141TIP3    H121368   5.862   2.465   1.111
 7141TIP3    H221369   5.881   2.545   0.984
 7142TIP3   OH221370   0.638   3.473   4.212
 7142TIP3    H121371   0.634   3.453   4.118
 7142TIP3    H221372   0.561   3.527   4.228
 7143TIP3   OH221373   5.252   1.421   5.507
 7143TIP3    H121374   5.250   1.482   5.581
 7143TIP3    H221375   5.187   1.355   5.528
 7144TIP3   OH221376   5.310   2.108   3.938
 7144TIP3    H121377   5.371   2.170   3.898
 7144TIP3    H221378   5.355   2.078   4.017
 7145TIP3   OH221379   3.488   3.671   1.009
 7145TIP3    H121380   3.504   3.579   1.028
 7145TIP3    H221381   3.575   3.708   0.993
 7146TIP3   OH221382   2.582   1.469   3.192
 7146TIP3    H121383   2.493   1.464   3.159
 7146TIP3    H221384   2.572   1.475   3.287
 7147TIP3   OH221385   4.280   0.705   1.145
 7147TIP3    H121386   4.252   0.643   1.078
 7147TIP3    H221387   4.267   0.659   1.228
 7148TIP3   OH221388   8.103   5.276   5.579
 7148TIP3    H121389   8.130   5.221   5.652
 7148TIP3    H221390   8.177   5.274   5.518
 7149TIP3   OH221391   5.233   0.076   4.268
 7149TIP3    H121392   5.250   0.159   4.223
 7149TIP3    H221393   5.268   0.009   4.210
 7150TIP3   OH221394   3.009   1.310   2.989
 7150TIP3    H121395   2.959   1.322   3.070
 7150TIP3    H221396   3.077   1.377   2.993
 7151TIP3   OH221397   1.099   5.060   5.712
 7151TIP3    H121398   1.121   5.019   5.795
 7151TIP3    H221399   1.169   5.124   5.698
 7152TIP3   OH221400   0.814   3.575   1.264
 7152TIP3    H121401   0.839   3.483   1.249
 7152TIP3    H221402   0.719   3.576   1.249
 7153TIP3   OH221403   4.116   4.002   0.389
 7153TIP3    H121404   4.033   3.960   0.409
 7153TIP3    H221405   4.141   4.047   0.470
 7154TIP3   OH221406   0.724   4.227   1.913
 7154TIP3    H121407   0.697   4.303   1.965
 7154TIP3    H221408   0.705   4.152   1.969
 7155TIP3   OH221409   2.761   6.644   5.231
 7155TIP3    H121410   2.712   6.637   5.313
 7155TIP3    H221411   2.848   6.674   5.258
 7156TIP3   OH221412   2.348   7.671   4.374
 7156TIP3    H121413   2.303   7.673   4.290
 7156TIP3    H221414   2.397   7.754   4.378
 7157TIP3   OH221415   7.314   7.297   6.160
 7157TIP3    H121416   7.229   7.334   6.135
 7157TIP3    H221417   7.376   7.369   6.151
 7158TIP3   OH221418   5.633   4.773   5.914
 7158TIP3    H121419   5.686   4.730   5.846
 7158TIP3    H221420   5.609   4.857   5.876
 7159TIP3   OH221421   0.453   7.599   6.013
 7159TIP3    H121422   0.431   7.623   5.923
 7159TIP3    H221423   0.393   7.650   6.067
 7160TIP3   OH221424   3.638   1.799   6.259
 7160TIP3    H121425   3.706   1.853   6.298
 7160TIP3    H221426   3.577   1.781   6.331
 7161TIP3   OH221427   7.049   2.222   4.360
 7161TIP3    H121428   7.042   2.127   4.357
 7161TIP3    H221429   7.117   2.240   4.425
 7162TIP3   OH221430   7.992   6.051   5.132
 7162TIP3    H121431   8.013   6.057   5.225
 7162TIP3    H221432   7.897   6.053   5.128
 7163TIP3   OH221433   4.339   1.438   0.935
 7163TIP3    H121434   4.363   1.348   0.953
 7163TIP3    H221435   4.250   1.433   0.900
 7164TIP3   OH221436  -0.009   5.214   5.085
 7164TIP3    H121437   0.084   5.191   5.088
 7164TIP3    H221438  -0.033   5.208   4.992
 7165TIP3   OH221439   1.864   4.139   3.126
 7165TIP3    H121440   1.851   4.045   3.138
 7165TIP3    H221441   1.826   4.159   3.040
 7166TIP3   OH221442   4.842   4.024   1.478
 7166TIP3    H121443   4.791   4.104   1.465
 7166TIP3    H221444   4.863   4.024   1.571
 7167TIP3   OH221445   5.336   2.851   1.744
 7167TIP3    H121446   5.266   2.881   1.801
 7167TIP3    H221447   5.293   2.794   1.681
 7168TIP3   OH221448   6.950   4.753   2.639
 7168TIP3    H121449   6.939   4.673   2.587
 7168TIP3    H221450   7.000   4.724   2.716
 7169TIP3   OH221451   6.358   4.792   5.073
 7169TIP3    H121452   6.436   4.796   5.019
 7169TIP3    H221453   6.322   4.705   5.057
 7170TIP3   OH221454   5.409   5.741   4.650
 7170TIP3    H121455   5.430   5.785   4.567
 7170TIP3    H221456   5.482   5.763   4.708
 7171TIP3   OH221457   1.951   6.298   0.617
 7171TIP3    H121458   1.924   6.226   0.674
 7171TIP3    H221459   2.045   6.285   0.605
 7172TIP3   OH221460   2.530   1.570   2.606
 7172TIP3    H121461   2.588   1.514   2.657
 7172TIP3    H221462   2.504   1.516   2.532
 7173TIP3   OH221463   3.064   3.304   5.194
 7173TIP3    H121464   3.159   3.291   5.194
 7173TIP3    H221465   3.034   3.257   5.272
 7174TIP3   OH221466   4.194   5.907   5.660
 7174TIP3    H121467   4.182   5.904   5.565
 7174TIP3    H221468   4.121   5.855   5.695
 7175TIP3   OH221469   7.568   7.532   0.653
 7175TIP3    H121470   7.548   7.601   0.589
 7175TIP3    H221471   7.528   7.453   0.616
 7176TIP3   OH221472   1.614   5.814   6.253
 7176TIP3    H121473   1.650   5.816   6.164
 7176TIP3    H221474   1.587   5.723   6.266
 7177TIP3   OH221475   2.528   0.336   1.551
 7177TIP3    H121476   2.486   0.283   1.619
 7177TIP3    H221477   2.585   0.274   1.505
 7178TIP3   OH221478   4.514   2.176   5.460
 7178TIP3    H121479   4.606   2.198   5.444
 7178TIP3    H221480   4.465   2.231   5.398
 7179TIP3   OH221481   0.855   5.370   1.677
 7179TIP3    H121482   0.905   5.295   1.644
 7179TIP3    H221483   0.858   5.433   1.605
 7180TIP3   OH221484   7.060   1.210   2.607
 7180TIP3    H121485   7.031   1.142   2.667
 7180TIP3    H221486   7.155   1.197   2.599
 7181TIP3   OH221487   6.753   0.689   5.532
 7181TIP3    H121488   6.820   0.751   5.559
 7181TIP3    H221489   6.787   0.604   5.560
 7182TIP3   OH221490   7.473   6.176   1.810
 7182TIP3    H121491   7.508   6.264   1.796
 7182TIP3    H221492   7.530   6.119   1.758
 7183TIP3   OH221493   3.313   5.992   4.973
 7183TIP3    H121494   3.360   6.015   4.893
 7183TIP3    H221495   3.287   6.076   5.010
 7184TIP3   OH221496   1.874   3.711   0.129
 7184TIP3    H121497   1.926   3.754   0.197
 7184TIP3    H221498   1.925   3.724   0.049
 7185TIP3   OH221499   5.366   0.502   2.512
 7185TIP3    H121500   5.272   0.513   2.528
 7185TIP3    H221501   5.408   0.564   2.573
 7186TIP3   OH221502   2.152   7.711   4.165
 7186TIP3    H121503   2.118   7.696   4.077
 7186TIP3    H221504   2.078   7.697   4.223
 7187TIP3   OH221505   6.372   1.732   1.299
 7187TIP3    H121506   6.438   1.774   1.353
 7187TIP3    H221507   6.289   1.746   1.345
 7188TIP3   OH221508   1.877   5.175   6.213
 7188TIP3    H121509   1.896   5.151   6.304
 7188TIP3    H221510   1.963   5.190   6.174
 7189TIP3   OH221511   7.306   5.169   1.416
 7189TIP3    H121512   7.388   5.122   1.404
 7189TIP3    H221513   7.245   5.103   1.447
 7190TIP3   OH221514   2.666   3.365   2.025
 7190TIP3    H121515   2.688   3.456   2.045
 7190TIP3    H221516   2.609   3.338   2.097
 7191TIP3   OH221517   2.968   2.724   1.322
 7191TIP3    H121518   2.925   2.703   1.239
 7191TIP3    H221519   3.054   2.682   1.315
 7192TIP3   OH221520   6.414   6.957   5.386
 7192TIP3    H121521   6.434   6.864   5.375
 7192TIP3    H221522   6.459   6.982   5.467
 7193TIP3   OH221523   5.560   6.775   6.318
 7193TIP3    H121524   5.491   6.709   6.305
 7193TIP3    H221525   5.590   6.796   6.230
 7194TIP3   OH221526   1.673   5.812   1.766
 7194TIP3    H121527   1.693   5.854   1.682
 7194TIP3    H221528   1.587   5.846   1.790
 7195TIP3   OH221529   1.599   2.539   1.830
 7195TIP3    H121530   1.575   2.469   1.770
 7195TIP3    H221531   1.581   2.503   1.917
 7196TIP3   OH221532   1.409   4.419   1.310
 7196TIP3    H121533   1.376   4.333   1.336
 7196TIP3    H221534   1.368   4.437   1.226
 7197TIP3   OH221535   0.606   0.575   5.077
 7197TIP3    H121536   0.561   0.659   5.089
 7197TIP3    H221537   0.539   0.518   5.041
 7198TIP3   OH221538   5.047   4.581   0.843
 7198TIP3    H121539   5.020   4.673   0.835
 7198TIP3    H221540   5.108   4.568   0.771
 7199TIP3   OH221541   0.869   5.214   4.177
 7199TIP3    H121542   0.777   5.233   4.196
 7199TIP3    H221543   0.908   5.300   4.161
 7200TIP3   OH221544   5.074   2.079   1.804
 7200TIP3    H121545   5.055   2.037   1.719
 7200TIP3    H221546   5.132   2.017   1.848
 7201TIP3   OH221547   6.980   6.102   2.036
 7201TIP3    H121548   6.968   6.196   2.033
 7201TIP3    H221549   7.075   6.089   2.035
 7202TIP3   OH221550   8.021   0.668   0.884
 7202TIP3    H121551   8.055   0.659   0.973
 7202TIP3    H221552   7.959   0.740   0.890
 7203TIP3   OH221553   5.758   1.389   2.520
 7203TIP3    H121554   5.684   1.397   2.580
 7203TIP3    H221555   5.791   1.301   2.534
 7204TIP3   OH221556   4.210   1.927   1.099
 7204TIP3    H121557   4.249   1.840   1.089
 7204TIP3    H221558   4.135   1.926   1.040
 7205TIP3   OH221559   7.523   3.793   5.974
 7205TIP3    H121560   7.582   3.762   6.043
 7205TIP3    H221561   7.454   3.727   5.971
 7206TIP3   OH221562   3.442   3.576   5.788
 7206TIP3    H121563   3.405   3.664   5.803
 7206TIP3    H221564   3.516   3.571   5.849
 7207TIP3   OH221565   6.975   5.725   4.576
 7207TIP3    H121566   6.880   5.736   4.583
 7207TIP3    H221567   7.004   5.708   4.666
 7208TIP3   OH221568   6.102   6.207   1.708
 7208TIP3    H121569   6.178   6.212   1.765
 7208TIP3    H221570   6.043   6.145   1.752
 7209TIP3   OH221571   3.702   2.606   4.030
 7209TIP3    H121572   3.660   2.637   4.110
 7209TIP3    H221573   3.771   2.671   4.012
 7210TIP3   OH221574   6.799   3.944   2.900
 7210TIP3    H121575   6.894   3.951   2.892
 7210TIP3    H221576   6.784   3.929   2.994
 7211TIP3   OH221577   6.875   2.104   4.008
 7211TIP3    H121578   6.799   2.092   4.065
 7211TIP3    H221579   6.842   2.086   3.920
 7212TIP3   OH221580   3.144   4.078   0.038
 7212TIP3    H121581   3.177   4.060   0.126
 7212TIP3    H221582   3.220   4.062  -0.019
 7213TIP3   OH221583   0.412   3.389   4.964
 7213TIP3    H121584   0.475   3.416   4.897
 7213TIP3    H221585   0.465   3.349   5.033
 7214TIP3   OH221586   1.336   3.964   2.037
 7214TIP3    H121587   1.243   3.979   2.055
 7214TIP3    H221588   1.345   3.981   1.943
 7215TIP3   OH221589   7.087   5.615   0.611
 7215TIP3    H121590   7.002   5.591   0.649
 7215TIP3    H221591   7.092   5.564   0.530
 7216TIP3   OH221592   8.282   2.977   3.738
 7216TIP3    H121593   8.274   3.069   3.714
 7216TIP3    H221594   8.246   2.929   3.664
 7217TIP3   OH221595   0.999   2.063   4.269
 7217TIP3    H121596   1.017   2.124   4.340
 7217TIP3    H221597   1.081   2.018   4.254
 7218TIP3   OH221598   2.357   2.193   3.486
 7218TIP3    H121599   2.449   2.203   3.463
 7218TIP3    H221600   2.337   2.101   3.466
 7219TIP3   OH221601   0.380   1.052   6.602
 7219TIP3    H121602   0.311   0.989   6.580
 7219TIP3    H221603   0.435   1.006   6.665
 7220TIP3   OH221604   1.103   2.244   4.474
 7220TIP3    H121605   1.083   2.337   4.486
 7220TIP3    H221606   1.114   2.211   4.563
 7221TIP3   OH221607   0.733   5.646   3.604
 7221TIP3    H121608   0.726   5.604   3.690
 7221TIP3    H221609   0.673   5.595   3.549
 7222TIP3   OH221610   6.978   3.609   0.713
 7222TIP3    H121611   7.058   3.563   0.688
 7222TIP3    H221612   6.909   3.564   0.664
 7223TIP3   OH221613   5.345   2.201   4.475
 7223TIP3    H121614   5.379   2.196   4.565
 7223TIP3    H221615   5.276   2.135   4.472
 7224TIP3   OH221616   0.907   2.035   4.721
 7224TIP3    H121617   0.919   2.004   4.631
 7224TIP3    H221618   0.822   2.078   4.721
 7225TIP3   OH221619   7.323   1.801   5.571
 7225TIP3    H121620   7.304   1.708   5.561
 7225TIP3    H221621   7.417   1.804   5.587
 7226TIP3   OH221622   2.670   7.364   5.292
 7226TIP3    H121623   2.710   7.396   5.212
 7226TIP3    H221624   2.738   7.310   5.333
 7227TIP3   OH221625   7.088   1.083   3.454
 7227TIP3    H121626   7.039   1.016   3.500
 7227TIP3    H221627   7.108   1.045   3.369
 7228TIP3   OH221628   3.457   1.670   5.168
 7228TIP3    H121629   3.546   1.687   5.198
 7228TIP3    H221630   3.404   1.669   5.248
 7229TIP3   OH221631   0.013   7.138   0.921
 7229TIP3    H121632   0.058   7.160   1.002
 7229TIP3    H221633   0.082   7.135   0.855
 7230TIP3   OH221634   3.857   2.941   2.244
 7230TIP3    H121635   3.876   2.932   2.337
 7230TIP3    H221636   3.907   3.018   2.216
 7231TIP3   OH221637   3.191   4.878   6.457
 7231TIP3    H121638   3.263   4.928   6.496
 7231TIP3    H221639   3.131   4.862   6.530
 7232TIP3   OH221640   0.190   0.370   6.109
 7232TIP3    H121641   0.269   0.349   6.159
 7232TIP3    H221642   0.215   0.448   6.058
 7233TIP3   OH221643   3.440   7.573   1.397
 7233TIP3    H121644   3.404   7.639   1.337
 7233TIP3    H221645   3.535   7.583   1.389
 7234TIP3   OH221646   0.004   6.870   5.770
 7234TIP3    H121647   0.080   6.851   5.714
 7234TIP3    H221648  -0.042   6.787   5.778
 7235TIP3   OH221649   0.308   5.995   3.487
 7235TIP3    H121650   0.387   5.977   3.537
 7235TIP3    H221651   0.323   6.081   3.448
 7236TIP3   OH221652   7.817   3.169   3.793
 7236TIP3    H121653   7.731   3.177   3.835
 7236TIP3    H221654   7.879   3.191   3.863
 7237TIP3   OH221655   2.141   4.427   1.583
 7237TIP3    H121656   2.145   4.373   1.662
 7237TIP3    H221657   2.232   4.438   1.556
 7238TIP3   OH221658   4.670   0.228   5.196
 7238TIP3    H121659   4.631   0.311   5.168
 7238TIP3    H221660   4.625   0.161   5.143
 7239TIP3   OH221661   2.153   3.744   3.734
 7239TIP3    H121662   2.192   3.706   3.656
 7239TIP3    H221663   2.173   3.837   3.728
 7240TIP3   OH221664   1.884   3.668   3.813
 7240TIP3    H121665   1.897   3.580   3.849
 7240TIP3    H221666   1.972   3.697   3.789
 7241TIP3   OH221667   3.049   1.388   2.029
 7241TIP3    H121668   3.075   1.474   2.063
 7241TIP3    H221669   3.108   1.371   1.957
 7242TIP3   OH221670   4.705   4.278   2.391
 7242TIP3    H121671   4.725   4.187   2.410
 7242TIP3    H221672   4.678   4.315   2.475
 7243TIP3   OH221673   2.575   6.856   6.531
 7243TIP3    H121674   2.610   6.923   6.590
 7243TIP3    H221675   2.581   6.895   6.444
 7244TIP3   OH221676   5.495   0.371   3.348
 7244TIP3    H121677   5.492   0.365   3.252
 7244TIP3    H221678   5.437   0.444   3.369
 7245TIP3   OH221679   4.295   4.303   0.332
 7245TIP3    H121680   4.253   4.258   0.406
 7245TIP3    H221681   4.257   4.262   0.254
 7246TIP3   OH221682   5.557   7.396   4.019
 7246TIP3    H121683   5.649   7.417   4.001
 7246TIP3    H221684   5.511   7.479   4.009
 7247TIP3   OH221685   7.711   7.192   5.245
 7247TIP3    H121686   7.641   7.228   5.299
 7247TIP3    H221687   7.710   7.245   5.165
 7248TIP3   OH221688   8.263   4.249   3.042
 7248TIP3    H121689   8.208   4.235   3.119
 7248TIP3    H221690   8.278   4.344   3.040
 7249TIP3   OH221691   0.751   0.281   6.139
 7249TIP3    H121692   0.795   0.302   6.056
 7249TIP3    H221693   0.700   0.360   6.159
 7250TIP3   OH221694   7.117   2.996   2.980
 7250TIP3    H121695   7.164   2.988   2.897
 7250TIP3    H221696   7.071   3.080   2.974
 7251TIP3   OH221697   4.044   2.630   5.876
 7251TIP3    H121698   4.064   2.608   5.785
 7251TIP3    H221699   4.021   2.723   5.874
 7252TIP3   OH221700   7.981   7.810   4.413
 7252TIP3    H121701   7.984   7.769   4.500
 7252TIP3    H221702   7.888   7.828   4.398
 7253TIP3   OH221703   2.295   1.081   2.909
 7253TIP3    H121704   2.332   0.994   2.892
 7253TIP3    H221705   2.246   1.071   2.990
 7254TIP3   OH221706   7.930   7.026   1.154
 7254TIP3    H121707   7.868   7.096   1.135
 7254TIP3    H221708   8.010   7.053   1.108
 7255TIP3   OH221709   7.131   3.341   0.345
 7255TIP3    H121710   7.079   3.421   0.350
 7255TIP3    H221711   7.121   3.312   0.254
 7256TIP3   OH221712   3.889   1.146   4.122
 7256TIP3    H121713   3.934   1.190   4.050
 7256TIP3    H221714   3.800   1.181   4.120
 7257TIP3   OH221715   5.387   3.248   0.431
 7257TIP3    H121716   5.298   3.277   0.409
 7257TIP3    H221717   5.410   3.186   0.362
 7258TIP3   OH221718   5.859   6.118   2.655
 7258TIP3    H121719   5.904   6.068   2.588
 7258TIP3    H221720   5.885   6.209   2.640
 7259TIP3   OH221721   3.414   3.742   2.734
 7259TIP3    H121722   3.487   3.802   2.747
 7259TIP3    H221723   3.359   3.785   2.669
 7260TIP3   OH221724   6.538   4.135   3.251
 7260TIP3    H121725   6.471   4.085   3.298
 7260TIP3    H221726   6.576   4.073   3.189
 7261TIP3   OH221727   5.892   6.613   3.575
 7261TIP3    H121728   5.797   6.605   3.586
 7261TIP3    H221729   5.922   6.523   3.562
 7262TIP3   OH221730   5.000   7.392   6.283
 7262TIP3    H121731   5.035   7.403   6.195
 7262TIP3    H221732   5.078   7.391   6.339
 7263TIP3   OH221733   2.836   7.436   0.282
 7263TIP3    H121734   2.803   7.519   0.316
 7263TIP3    H221735   2.839   7.447   0.188
 7264TIP3   OH221736   0.604   6.915   2.264
 7264TIP3    H121737   0.661   6.879   2.332
 7264TIP3    H221738   0.591   7.006   2.291
 7265TIP3   OH221739   1.985   1.003   6.516
 7265TIP3    H121740   1.932   0.931   6.481
 7265TIP3    H221741   2.065   0.961   6.546
 7266TIP3   OH221742   8.014   3.012   3.304
 7266TIP3    H121743   8.060   2.928   3.303
 7266TIP3    H221744   7.921   2.988   3.298
 7267TIP3   OH221745   4.532   4.615   2.446
 7267TIP3    H121746   4.493   4.528   2.437
 7267TIP3    H221747   4.626   4.598   2.459
 7268TIP3   OH221748   0.633   5.946   1.207
 7268TIP3    H121749   0.539   5.931   1.193
 7268TIP3    H221750   0.636   6.015   1.274
 7269TIP3   OH221751   5.782   4.778   4.033
 7269TIP3    H121752   5.875   4.792   4.048
 7269TIP3    H221753   5.758   4.846   3.971
 7270TIP3   OH221754   4.495   2.816   6.703
 7270TIP3    H121755   4.579   2.793   6.741
 7270TIP3    H221756   4.507   2.905   6.669
 7271TIP3   OH221757   7.632   5.062   1.000
 7271TIP3    H121758   7.667   4.982   0.960
 7271TIP3    H221759   7.670   5.133   0.948
 7272TIP3   OH221760   1.239   0.337   5.565
 7272TIP3    H121761   1.227   0.432   5.572
 7272TIP3    H221762   1.166   0.300   5.614
 7273TIP3   OH221763   1.994   6.906   4.239
 7273TIP3    H121764   1.931   6.835   4.227
 7273TIP3    H221765   2.013   6.906   4.332
 7274TIP3   OH221766   6.352   5.515   2.607
 7274TIP3    H121767   6.322   5.512   2.516
 7274TIP3    H221768   6.342   5.607   2.632
 7275TIP3   OH221769   8.051   3.124   0.026
 7275TIP3    H121770   8.112   3.070   0.076
 7275TIP3    H221771   7.978   3.065   0.005
 7276TIP3   OH221772   2.233   6.404   2.478
 7276TIP3    H121773   2.181   6.477   2.514
 7276TIP3    H221774   2.255   6.431   2.389
 7277TIP3   OH221775   7.595   3.360   3.266
 7277TIP3    H121776   7.624   3.427   3.203
 7277TIP3    H221777   7.504   3.383   3.286
 7278TIP3   OH221778   6.159   1.194   3.450
 7278TIP3    H121779   6.074   1.213   3.409
 7278TIP3    H221780   6.206   1.277   3.447
 7279TIP3   OH221781   2.521   5.543   0.490
 7279TIP3    H121782   2.591   5.586   0.441
 7279TIP3    H221783   2.566   5.496   0.560
 7280TIP3   OH221784   7.428   4.936   2.886
 7280TIP3    H121785   7.335   4.927   2.907
 7280TIP3    H221786   7.434   4.912   2.793
 7281TIP3   OH221787   4.363   2.331   4.308
 7281TIP3    H121788   4.365   2.345   4.213
 7281TIP3    H221789   4.451   2.354   4.338
 7282TIP3   OH221790   4.355   2.051   3.481
 7282TIP3    H121791   4.294   2.050   3.554
 7282TIP3    H221792   4.326   2.124   3.426
 7283TIP3   OH221793   6.577   0.965   3.728
 7283TIP3    H121794   6.532   0.882   3.742
 7283TIP3    H221795   6.599   0.995   3.816
 7284TIP3   OH221796   1.081   2.802   2.572
 7284TIP3    H121797   1.051   2.830   2.659
 7284TIP3    H221798   1.160   2.751   2.590
 7285TIP3   OH221799   7.465   7.590   1.815
 7285TIP3    H121800   7.462   7.602   1.720
 7285TIP3    H221801   7.548   7.630   1.841
 7286TIP3   OH221802   1.719   4.587   3.586
 7286TIP3    H121803   1.671   4.616   3.664
 7286TIP3    H221804   1.709   4.492   3.585
 7287TIP3   OH221805   6.363   7.016   6.333
 7287TIP3    H121806   6.333   6.969   6.256
 7287TIP3    H221807   6.306   6.986   6.404
 7288TIP3   OH221808   4.601   6.632   3.745
 7288TIP3    H121809   4.573   6.721   3.765
 7288TIP3    H221810   4.522   6.579   3.753
 7289TIP3   OH221811   8.033   2.471   0.572
 7289TIP3    H121812   8.097   2.429   0.630
 7289TIP3    H221813   7.964   2.406   0.561
 7290TIP3   OH221814   2.218   5.728   5.157
 7290TIP3    H121815   2.202   5.803   5.101
 7290TIP3    H221816   2.284   5.676   5.111
 7291TIP3   OH221817   0.128   5.411   4.180
 7291TIP3    H121818   0.198   5.383   4.121
 7291TIP3    H221819   0.107   5.500   4.152
 7292TIP3   OH221820   6.622   5.760   3.919
 7292TIP3    H121821   6.578   5.712   3.989
 7292TIP3    H221822   6.596   5.715   3.838
 7293TIP3   OH221823   2.981   1.160   0.651
 7293TIP3    H121824   3.068   1.120   0.651
 7293TIP3    H221825   2.960   1.173   0.558
 7294TIP3   OH221826   1.596   5.403   3.071
 7294TIP3    H121827   1.521   5.343   3.078
 7294TIP3    H221828   1.614   5.429   3.161
 7295TIP3   OH221829   6.644   1.136   5.700
 7295TIP3    H121830   6.646   1.181   5.615
 7295TIP3    H221831   6.725   1.085   5.701
 7296TIP3   OH221832   7.341   6.045   0.111
 7296TIP3    H121833   7.337   6.102   0.035
 7296TIP3    H221834   7.264   5.989   0.104
 7297TIP3   OH221835   0.356   3.126   5.327
 7297TIP3    H121836   0.413   3.145   5.401
 7297TIP3    H221837   0.411   3.075   5.267
 7298TIP3   OH221838   3.376   2.959   1.141
 7298TIP3    H121839   3.369   3.011   1.061
 7298TIP3    H221840   3.286   2.941   1.165
 7299TIP3   OH221841   0.706   6.442   3.909
 7299TIP3    H121842   0.641   6.493   3.958
 7299TIP3    H221843   0.760   6.401   3.976
 7300TIP3   OH221844   6.734   5.796   1.543
 7300TIP3    H121845   6.642   5.785   1.520
 7300TIP3    H221846   6.780   5.801   1.459
 7301TIP3   OH221847   3.229   0.934   1.997
 7301TIP3    H121848   3.305   0.993   1.998
 7301TIP3    H221849   3.153   0.992   1.993
 7302TIP3   OH221850   6.617   0.303   2.269
 7302TIP3    H121851   6.552   0.281   2.336
 7302TIP3    H221852   6.602   0.396   2.250
 7303TIP3   OH221853   0.021   7.331   5.230
 7303TIP3    H121854   0.100   7.336   5.176
 7303TIP3    H221855   0.047   7.280   5.307
 7304TIP3   OH221856   6.469   1.360   6.445
 7304TIP3    H121857   6.497   1.436   6.394
 7304TIP3    H221858   6.485   1.285   6.387
 7305TIP3   OH221859   0.510   4.552   0.580
 7305TIP3    H121860   0.514   4.636   0.626
 7305TIP3    H221861   0.570   4.562   0.507
 7306TIP3   OH221862   4.218   5.757   6.690
 7306TIP3    H121863   4.172   5.839   6.705
 7306TIP3    H221864   4.203   5.706   6.770
 7307TIP3   OH221865   4.898   4.258   3.693
 7307TIP3    H121866   4.962   4.229   3.628
 7307TIP3    H221867   4.923   4.348   3.713
 7308TIP3   OH221868   7.088   3.076   0.886
 7308TIP3    H121869   7.036   3.122   0.820
 7308TIP3    H221870   7.082   2.984   0.860
 7309TIP3   OH221871   7.598   1.537   0.750
 7309TIP3    H121872   7.604   1.540   0.654
 7309TIP3    H221873   7.679   1.577   0.780
 7310TIP3   OH221874   5.409   7.128   4.107
 7310TIP3    H121875   5.389   7.220   4.126
 7310TIP3    H221876   5.504   7.123   4.113
 7311TIP3   OH221877   6.073   3.621   3.940
 7311TIP3    H121878   6.166   3.608   3.961
 7311TIP3    H221879   6.033   3.646   4.024
 7312TIP3   OH221880   6.866   6.125   2.583
 7312TIP3    H121881   6.933   6.149   2.646
 7312TIP3    H221882   6.914   6.087   2.510
 7313TIP3   OH221883   0.697   5.495   6.081
 7313TIP3    H121884   0.749   5.430   6.128
 7313TIP3    H221885   0.688   5.461   5.993
 7314TIP3   OH221886   7.120   0.195   4.309
 7314TIP3    H121887   7.053   0.245   4.264
 7314TIP3    H221888   7.084   0.180   4.396
 7315TIP3   OH221889   7.702   3.577   4.817
 7315TIP3    H121890   7.756   3.498   4.815
 7315TIP3    H221891   7.731   3.625   4.895
 7316TIP3   OH221892   8.029   3.021   5.276
 7316TIP3    H121893   7.995   2.985   5.194
 7316TIP3    H221894   8.114   3.059   5.252
 7317TIP3   OH221895   4.401   6.751   5.455
 7317TIP3    H121896   4.347   6.825   5.428
 7317TIP3    H221897   4.344   6.675   5.443
 7318TIP3   OH221898   6.276   7.695   4.799
 7318TIP3    H121899   6.273   7.630   4.869
 7318TIP3    H221900   6.184   7.720   4.786
 7319TIP3   OH221901   6.577   6.025   5.642
 7319TIP3    H121902   6.637   5.952   5.625
 7319TIP3    H221903   6.490   5.987   5.631
 7320TIP3   OH221904   1.905   4.922   6.684
 7320TIP3    H121905   1.949   4.841   6.658
 7320TIP3    H221906   1.976   4.979   6.712
 7321TIP3   OH221907   2.684   7.183   3.379
 7321TIP3    H121908   2.646   7.101   3.410
 7321TIP3    H221909   2.755   7.202   3.441
 7322TIP3   OH221910   0.766   6.020   4.719
 7322TIP3    H121911   0.751   6.070   4.799
 7322TIP3    H221912   0.859   6.032   4.700
 7323TIP3   OH221913   1.915   5.097   6.471
 7323TIP3    H121914   1.867   5.031   6.521
 7323TIP3    H221915   1.936   5.165   6.535
 7324TIP3   OH221916   5.793   5.508   5.006
 7324TIP3    H121917   5.879   5.542   4.982
 7324TIP3    H221918   5.741   5.586   5.023
 7325TIP3   OH221919   1.081   3.624   4.145
 7325TIP3    H121920   1.157   3.672   4.177
 7325TIP3    H221921   1.028   3.690   4.100
 7326TIP3   OH221922   6.124   2.856   4.068
 7326TIP3    H121923   6.037   2.897   4.066
 7326TIP3    H221924   6.175   2.904   4.003
 7327TIP3   OH221925   2.301   1.124   0.203
 7327TIP3    H121926   2.319   1.091   0.115
 7327TIP3    H221927   2.295   1.219   0.191
 7328TIP3   OH221928   4.284   1.261   4.274
 7328TIP3    H121929   4.305   1.345   4.314
 7328TIP3    H221930   4.302   1.273   4.181
 7329TIP3   OH221931   1.073   5.792   0.033
 7329TIP3    H121932   1.138   5.790  -0.037
 7329TIP3    H221933   1.005   5.730   0.006
 7330TIP3   OH221934   5.542   3.318   4.671
 7330TIP3    H121935   5.535   3.405   4.631
 7330TIP3    H221936   5.577   3.335   4.759
 7331TIP3   OH221937   4.494   7.259   2.294
 7331TIP3    H121938   4.571   7.204   2.282
 7331TIP3    H221939   4.528   7.341   2.329
 7332TIP3   OH221940   7.141   1.665   5.329
 7332TIP3    H121941   7.198   1.717   5.272
 7332TIP3    H221942   7.201   1.626   5.393
 7333TIP3   OH221943   6.900   5.473   6.052
 7333TIP3    H121944   6.982   5.423   6.055
 7333TIP3    H221945   6.923   5.558   6.090
 7334TIP3   OH221946   6.840   4.618   0.170
 7334TIP3    H121947   6.752   4.598   0.203
 7334TIP3    H221948   6.868   4.692   0.223
 7335TIP3   OH221949   3.246   6.881   4.869
 7335TIP3    H121950   3.243   6.893   4.774
 7335TIP3    H221951   3.339   6.885   4.891
 7336TIP3   OH221952   6.810   2.820   3.921
 7336TIP3    H121953   6.900   2.832   3.890
 7336TIP3    H221954   6.817   2.752   3.989
 7337TIP3   OH221955   7.830   0.319   6.257
 7337TIP3    H121956   7.833   0.245   6.196
 7337TIP3    H221957   7.915   0.319   6.300
 7338TIP3   OH221958   4.983   3.181   1.873
 7338TIP3    H121959   5.078   3.182   1.874
 7338TIP3    H221960   4.960   3.091   1.851
 7339TIP3   OH221961   4.418   3.223   2.193
 7339TIP3    H121962   4.479   3.197   2.125
 7339TIP3    H221963   4.446   3.174   2.271
 7340TIP3   OH221964   6.762   2.597   5.309
 7340TIP3    H121965   6.715   2.571   5.388
 7340TIP3    H221966   6.718   2.550   5.238
 7341TIP3   OH221967   6.941   0.575   6.245
 7341TIP3    H121968   6.997   0.634   6.194
 7341TIP3    H221969   6.981   0.489   6.234
 7342TIP3   OH221970   7.083   7.577   3.337
 7342TIP3    H121971   7.159   7.565   3.280
 7342TIP3    H221972   7.037   7.493   3.333
 7343TIP3   OH221973   6.584   5.086   0.497
 7343TIP3    H121974   6.548   5.138   0.568
 7343TIP3    H221975   6.514   5.025   0.474
 7344TIP3   OH221976   3.005   1.994   0.093
 7344TIP3    H121977   2.914   1.965   0.092
 7344TIP3    H221978   3.004   2.078   0.048
 7345TIP3   OH221979   7.085   2.078   1.864
 7345TIP3    H121980   7.162   2.133   1.879
 7345TIP3    H221981   7.067   2.038   1.949
 7346TIP3   OH221982   2.764   6.208   2.165
 7346TIP3    H121983   2.822   6.147   2.211
 7346TIP3    H221984   2.813   6.233   2.087
 7347TIP3   OH221985   0.027   2.652   4.884
 7347TIP3    H121986   0.048   2.568   4.842
 7347TIP3    H221987   0.037   2.717   4.815
 7348TIP3   OH221988   2.067   5.053   3.194
 7348TIP3    H121989   2.095   4.962   3.202
 7348TIP3    H221990   1.974   5.050   3.216
 7349TIP3   OH221991   7.857   4.141   2.568
 7349TIP3    H121992   7.887   4.093   2.645
 7349TIP3    H221993   7.780   4.093   2.538
 7350TIP3   OH221994   1.466   0.712   6.645
 7350TIP3    H121995   1.386   0.659   6.637
 7350TIP3    H221996   1.460   0.776   6.574
 7351TIP3   OH221997   3.141   0.664   3.434
 7351TIP3    H121998   3.158   0.729   3.502
 7351TIP3    H221999   3.079   0.603   3.475
 7352TIP3   OH222000   8.109   0.658   2.023
 7352TIP3    H122001   8.150   0.575   2.047
 7352TIP3    H222002   8.062   0.686   2.102
 7353TIP3   OH222003   5.558   0.460   1.295
 7353TIP3    H122004   5.569   0.554   1.281
 7353TIP3    H222005   5.630   0.434   1.352
 7354TIP3   OH222006   8.145   7.158   0.466
 7354TIP3    H122007   8.216   7.221   0.474
 7354TIP3    H222008   8.071   7.199   0.511
 7355TIP3   OH222009   0.610   5.949   2.996
 7355TIP3    H122010   0.541   5.992   2.947
 7355TIP3    H222011   0.659   6.020   3.038
 7356TIP3   OH222012   1.454   2.155   3.079
 7356TIP3    H122013   1.463   2.069   3.119
 7356TIP3    H222014   1.383   2.197   3.127
 7357TIP3   OH222015   4.771   5.475   3.960
 7357TIP3    H122016   4.772   5.382   3.939
 7357TIP3    H222017   4.757   5.519   3.876
 7358TIP3   OH222018   7.277   0.149   1.294
 7358TIP3    H122019   7.342   0.103   1.347
 7358TIP3    H222020   7.193   0.111   1.321
 7359TIP3   OH222021   4.944   4.362   3.374
 7359TIP3    H122022   4.857   4.400   3.389
 7359TIP3    H222023   4.930   4.268   3.379
 7360TIP3   OH222024   4.951   3.636   5.027
 7360TIP3    H122025   5.002   3.679   4.959
 7360TIP3    H222026   4.863   3.629   4.990
 7361TIP3   OH222027   6.288   1.977   4.105
 7361TIP3    H122028   6.211   1.921   4.096
 7361TIP3    H222029   6.315   1.967   4.196
 7362TIP3   OH222030   4.482   5.945   1.760
 7362TIP3    H122031   4.536   5.897   1.697
 7362TIP3    H222032   4.545   6.002   1.805
 7363TIP3   OH222033   4.083   6.485   4.192
 7363TIP3    H122034   4.160   6.461   4.244
 7363TIP3    H222035   4.117   6.498   4.103
 7364TIP3   OH222036   4.605   2.601   2.464
 7364TIP3    H122037   4.655   2.524   2.493
 7364TIP3    H222038   4.651   2.631   2.386
 7365TIP3   OH222039   1.773   3.319   3.278
 7365TIP3    H122040   1.821   3.330   3.360
 7365TIP3    H222041   1.819   3.374   3.215
 7366TIP3   OH222042   4.433   7.002   2.433
 7366TIP3    H122043   4.507   7.035   2.381
 7366TIP3    H222044   4.473   6.965   2.511
 7367TIP3   OH222045   4.228   4.520   4.062
 7367TIP3    H122046   4.209   4.428   4.046
 7367TIP3    H222047   4.181   4.540   4.143
 7368TIP3   OH222048   8.095   0.028   5.841
 7368TIP3    H122049   8.100   0.101   5.778
 7368TIP3    H222050   8.009  -0.010   5.826
 7369TIP3   OH222051   7.161   2.350   1.300
 7369TIP3    H122052   7.129   2.438   1.319
 7369TIP3    H222053   7.254   2.361   1.283
 7370TIP3   OH222054   6.098   2.111   0.286
 7370TIP3    H122055   6.095   2.173   0.213
 7370TIP3    H222056   6.006   2.091   0.305
 7371TIP3   OH222057   6.930   2.467   6.252
 7371TIP3    H122058   6.993   2.414   6.301
 7371TIP3    H222059   6.974   2.486   6.170
 7372TIP3   OH222060   2.147   2.360   0.015
 7372TIP3    H122061   2.055   2.386   0.012
 7372TIP3    H222062   2.146   2.269   0.042
 7373TIP3   OH222063   6.642   2.175   6.643
 7373TIP3    H122064   6.552   2.207   6.653
 7373TIP3    H222065   6.644   2.135   6.556
 7374TIP3   OH222066   0.028   1.893   5.980
 7374TIP3    H122067   0.039   1.946   5.901
 7374TIP3    H222068   0.075   1.941   6.048
 7375TIP3   OH222069   3.618   7.393   5.039
 7375TIP3    H122070   3.550   7.458   5.056
 7375TIP3    H222071   3.614   7.335   5.115
 7376TIP3   OH222072   2.640   7.015   5.218
 7376TIP3    H122073   2.568   7.032   5.158
 7376TIP3    H222074   2.713   6.987   5.162
 7377TIP3   OH222075   2.226   3.815   0.736
 7377TIP3    H122076   2.202   3.761   0.811
 7377TIP3    H222077   2.172   3.782   0.664
 7378TIP3   OH222078   1.829   6.957   0.388
 7378TIP3    H122079   1.799   6.934   0.476
 7378TIP3    H222080   1.923   6.939   0.389
 7379TIP3   OH222081   2.172   3.384   5.072
 7379TIP3    H122082   2.226   3.421   5.142
 7379TIP3    H222083   2.204   3.425   4.992
 7380TIP3   OH222084   6.297   6.012   3.937
 7380TIP3    H122085   6.266   5.973   3.856
 7380TIP3    H222086   6.250   6.095   3.944
 7381TIP3   OH222087   5.340   6.308   2.707
 7381TIP3    H122088   5.388   6.233   2.673
 7381TIP3    H222089   5.401   6.382   2.699
 7382TIP3   OH222090   1.685   5.996   5.177
 7382TIP3    H122091   1.765   5.963   5.137
 7382TIP3    H222092   1.615   5.965   5.120
 7383TIP3   OH222093   8.112   1.706   2.658
 7383TIP3    H122094   8.138   1.760   2.583
 7383TIP3    H222095   8.179   1.638   2.661
 7384TIP3   OH222096   4.890   4.831   6.770
 7384TIP3    H122097   4.968   4.883   6.750
 7384TIP3    H222098   4.818   4.895   6.773
 7385TIP3   OH222099   1.281   3.085   0.911
 7385TIP3    H122100   1.274   3.139   0.832
 7385TIP3    H222101   1.370   3.051   0.910
 7386TIP3   OH222102   7.842   1.325   5.652
 7386TIP3    H122103   7.806   1.326   5.741
 7386TIP3    H222104   7.773   1.284   5.599
 7387TIP3   OH222105   8.125   5.460   2.262
 7387TIP3    H122106   8.082   5.410   2.331
 7387TIP3    H222107   8.209   5.415   2.248
 7388TIP3   OH222108   5.818   0.439   6.174
 7388TIP3    H122109   5.751   0.496   6.135
 7388TIP3    H222110   5.768   0.378   6.228
 7389TIP3   OH222111   7.107   7.069   6.713
 7389TIP3    H122112   7.155   7.045   6.634
 7389TIP3    H222113   7.015   7.066   6.688
 7390TIP3   OH222114   5.590   4.969   0.195
 7390TIP3    H122115   5.522   5.009   0.249
 7390TIP3    H222116   5.595   5.026   0.118
 7391TIP3   OH222117   8.190   4.791   1.805
 7391TIP3    H122118   8.255   4.764   1.740
 7391TIP3    H222119   8.194   4.887   1.804
 7392TIP3   OH222120   0.617   0.651   2.219
 7392TIP3    H122121   0.552   0.613   2.160
 7392TIP3    H222122   0.666   0.576   2.252
 7393TIP3   OH222123   1.277   5.173   4.367
 7393TIP3    H122124   1.230   5.091   4.385
 7393TIP3    H222125   1.258   5.228   4.443
 7394TIP3   OH222126   7.311   4.172   4.931
 7394TIP3    H122127   7.369   4.244   4.956
 7394TIP3    H222128   7.267   4.203   4.851
 7395TIP3   OH222129   6.871   2.005   1.341
 7395TIP3    H122130   6.966   2.016   1.333
 7395TIP3    H222131   6.843   2.080   1.394
 7396TIP3   OH222132   1.387   4.005   3.828
 7396TIP3    H122133   1.467   4.021   3.778
 7396TIP3    H222134   1.355   3.920   3.795
 7397TIP3   OH222135   2.629   2.695   4.238
 7397TIP3    H122136   2.579   2.771   4.210
 7397TIP3    H222137   2.664   2.720   4.324
 7398TIP3   OH222138   6.759   3.485   3.372
 7398TIP3    H122139   6.828   3.542   3.405
 7398TIP3    H222140   6.681   3.512   3.421
 7399TIP3   OH222141   2.424   7.320   2.006
 7399TIP3    H122142   2.427   7.408   2.043
 7399TIP3    H222143   2.445   7.333   1.914
 7400TIP3   OH222144   7.994   2.562   1.964
 7400TIP3    H122145   8.020   2.471   1.949
 7400TIP3    H222146   7.908   2.570   1.924
 7401TIP3   OH222147   6.401   1.243   5.791
 7401TIP3    H122148   6.438   1.179   5.730
 7401TIP3    H222149   6.430   1.328   5.756
 7402TIP3   OH222150   7.055   2.327   2.819
 7402TIP3    H122151   7.019   2.317   2.907
 7402TIP3    H222152   7.077   2.420   2.813
 7403TIP3   OH222153   7.735   3.074   0.871
 7403TIP3    H122154   7.645   3.092   0.844
 7403TIP3    H222155   7.741   2.978   0.872
 7404TIP3   OH222156   5.911   1.105   5.391
 7404TIP3    H122157   5.953   1.091   5.307
 7404TIP3    H222158   5.983   1.122   5.452
 7405TIP3   OH222159   4.909   1.646   4.832
 7405TIP3    H122160   4.836   1.594   4.863
 7405TIP3    H222161   4.970   1.582   4.795
 7406TIP3   OH222162   0.226   3.533   1.675
 7406TIP3    H122163   0.317   3.507   1.659
 7406TIP3    H222164   0.212   3.515   1.768
 7407TIP3   OH222165   1.147   7.346   1.847
 7407TIP3    H122166   1.110   7.263   1.818
 7407TIP3    H222167   1.224   7.359   1.792
 7408TIP3   OH222168   6.519   7.637   0.488
 7408TIP3    H122169   6.557   7.672   0.568
 7408TIP3    H222170   6.425   7.641   0.503
 7409TIP3   OH222171   5.435   7.317   1.110
 7409TIP3    H122172   5.520   7.271   1.106
 7409TIP3    H222173   5.444   7.377   1.183
 7410TIP3   OH222174   7.902   1.124   3.377
 7410TIP3    H122175   7.933   1.033   3.379
 7410TIP3    H222176   7.980   1.175   3.356
 7411TIP3   OH222177   1.423   2.348   5.356
 7411TIP3    H122178   1.473   2.380   5.281
 7411TIP3    H222179   1.432   2.253   5.353
 7412TIP3   OH222180   7.234   2.509   2.570
 7412TIP3    H122181   7.163   2.553   2.525
 7412TIP3    H222182   7.313   2.536   2.523
 7413TIP3   OH222183   1.297   0.985   2.536
 7413TIP3    H122184   1.259   0.958   2.452
 7413TIP3    H222185   1.372   1.039   2.511
 7414TIP3   OH222186   8.158   0.785   1.765
 7414TIP3    H122187   8.160   0.709   1.706
 7414TIP3    H222188   8.111   0.754   1.842
 7415TIP3   OH222189   5.113   6.697   3.404
 7415TIP3    H122190   5.168   6.648   3.465
 7415TIP3    H222191   5.107   6.641   3.327
 7416TIP3   OH222192   7.776   6.035   1.199
 7416TIP3    H122193   7.720   5.970   1.156
 7416TIP3    H222194   7.770   6.112   1.143
 7417TIP3   OH222195   0.031   2.222   3.997
 7417TIP3    H122196   0.115   2.223   4.043
 7417TIP3    H222197   0.016   2.130   3.975
 7418TIP3   OH222198   7.639   1.199   5.509
 7418TIP3    H122199   7.559   1.149   5.525
 7418TIP3    H222200   7.691   1.143   5.451
 7419TIP3   OH222201   1.055   3.142   3.145
 7419TIP3    H122202   1.150   3.155   3.146
 7419TIP3    H222203   1.043   3.053   3.113
 7420TIP3   OH222204   1.818   1.328   2.440
 7420TIP3    H122205   1.775   1.325   2.526
 7420TIP3    H222206   1.912   1.329   2.460
 7421TIP3   OH222207   2.904   7.439   0.995
 7421TIP3    H122208   2.867   7.356   1.023
 7421TIP3    H222209   2.852   7.506   1.041
 7422TIP3   OH222210   6.413   6.722   3.658
 7422TIP3    H122211   6.374   6.740   3.743
 7422TIP3    H222212   6.389   6.798   3.604
 7423TIP3   OH222213   5.335   5.733   5.907
 7423TIP3    H122214   5.339   5.752   5.814
 7423TIP3    H222215   5.373   5.810   5.949
 7424TIP3   OH222216   7.401   7.478   5.933
 7424TIP3    H122217   7.319   7.523   5.952
 7424TIP3    H222218   7.412   7.487   5.839
 7425TIP3   OH222219   0.047   0.964   4.161
 7425TIP3    H122220   0.118   0.907   4.189
 7425TIP3    H222221   0.053   1.040   4.219
 7426TIP3   OH222222   0.969   2.634   5.522
 7426TIP3    H122223   0.900   2.628   5.588
 7426TIP3    H222224   1.020   2.554   5.532
 7427TIP3   OH222225   4.141   4.733   1.572
 7427TIP3    H122226   4.215   4.727   1.633
 7427TIP3    H222227   4.075   4.784   1.619
 7428TIP3   OH222228   3.219   3.570   4.480
 7428TIP3    H122229   3.221   3.577   4.384
 7428TIP3    H222230   3.295   3.620   4.509
 7429TIP3   OH222231   4.282   5.855   0.314
 7429TIP3    H122232   4.242   5.847   0.401
 7429TIP3    H222233   4.271   5.769   0.274
 7430TIP3   OH222234   5.094   1.400   2.679
 7430TIP3    H122235   5.019   1.348   2.650
 7430TIP3    H222236   5.093   1.476   2.621
 7431TIP3   OH222237   1.020   0.215   0.937
 7431TIP3    H122238   0.969   0.204   0.858
 7431TIP3    H222239   1.006   0.134   0.987
 7432TIP3   OH222240   4.129   3.556   0.576
 7432TIP3    H122241   4.094   3.501   0.506
 7432TIP3    H222242   4.223   3.557   0.561
 7433TIP3   OH222243   5.949   2.535   2.863
 7433TIP3    H122244   5.941   2.462   2.925
 7433TIP3    H222245   5.858   2.560   2.845
 7434TIP3   OH222246   0.814   6.518   4.877
 7434TIP3    H122247   0.781   6.462   4.947
 7434TIP3    H222248   0.847   6.596   4.922
 7435TIP3   OH222249   1.476   5.407   4.832
 7435TIP3    H122250   1.469   5.478   4.896
 7435TIP3    H222251   1.430   5.440   4.755
 7436TIP3   OH222252   1.375   0.707   5.989
 7436TIP3    H122253   1.445   0.652   5.954
 7436TIP3    H222254   1.329   0.740   5.912
 7437TIP3   OH222255   4.451   5.027   5.454
 7437TIP3    H122256   4.373   4.972   5.456
 7437TIP3    H222257   4.425   5.103   5.402
 7438TIP3   OH222258   2.867   1.565   5.459
 7438TIP3    H122259   2.821   1.619   5.395
 7438TIP3    H222260   2.843   1.603   5.544
 7439TIP3   OH222261   3.767   0.127   0.753
 7439TIP3    H122262   3.778   0.182   0.676
 7439TIP3    H222263   3.675   0.102   0.752
 7440TIP3   OH222264   4.533   7.043   5.567
 7440TIP3    H122265   4.457   6.990   5.542
 7440TIP3    H222266   4.508   7.083   5.650
 7441TIP3   OH222267   2.854   4.762   3.551
 7441TIP3    H122268   2.833   4.717   3.633
 7441TIP3    H222269   2.775   4.753   3.498
 7442TIP3   OH222270   0.641   2.597   3.029
 7442TIP3    H122271   0.603   2.582   3.116
 7442TIP3    H222272   0.570   2.639   2.979
 7443TIP3   OH222273   2.151   5.543   3.541
 7443TIP3    H122274   2.056   5.537   3.534
 7443TIP3    H222275   2.167   5.573   3.630
 7444TIP3   OH222276   2.135   3.472   2.763
 7444TIP3    H122277   2.138   3.437   2.852
 7444TIP3    H222278   2.044   3.461   2.736
 7445TIP3   OH222279   4.333   1.664   1.126
 7445TIP3    H122280   4.289   1.593   1.173
 7445TIP3    H222281   4.402   1.621   1.076
 7446TIP3   OH222282   7.122   2.176   4.092
 7446TIP3    H122283   7.035   2.157   4.057
 7446TIP3    H222284   7.108   2.194   4.185
 7447TIP3   OH222285   0.885   5.274   3.588
 7447TIP3    H122286   0.911   5.184   3.571
 7447TIP3    H222287   0.924   5.325   3.518
 7448TIP3   OH222288   7.542   6.334   4.020
 7448TIP3    H122289   7.491   6.273   4.073
 7448TIP3    H222290   7.476   6.380   3.967
 7449TIP3   OH222291   0.630   1.989   6.579
 7449TIP3    H122292   0.697   2.034   6.631
 7449TIP3    H222293   0.648   2.015   6.489
 7450TIP3   OH222294   5.256   0.564   5.096
 7450TIP3    H122295   5.339   0.540   5.138
 7450TIP3    H222296   5.267   0.656   5.072
 7451TIP3   OH222297   0.165   2.255   6.641
 7451TIP3    H122298   0.237   2.317   6.629
 7451TIP3    H222299   0.184   2.213   6.725
 7452TIP3   OH222300   6.131   4.331   1.030
 7452TIP3    H122301   6.203   4.393   1.043
 7452TIP3    H222302   6.174   4.248   1.009
 7453TIP3   OH222303   1.816   6.066   4.242
 7453TIP3    H122304   1.909   6.074   4.219
 7453TIP3    H222305   1.770   6.087   4.161
 7454TIP3   OH222306   7.137   3.493   2.255
 7454TIP3    H122307   7.067   3.441   2.215
 7454TIP3    H222308   7.097   3.533   2.332
 7455TIP3   OH222309   0.130   1.229   2.347
 7455TIP3    H122310   0.211   1.183   2.325
 7455TIP3    H222311   0.071   1.209   2.275
 7456TIP3   OH222312   7.995   0.476   5.037
 7456TIP3    H122313   7.918   0.501   5.088
 7456TIP3    H222314   7.961   0.425   4.964
 7457TIP3   OH222315   5.315   3.928   5.815
 7457TIP3    H122316   5.304   3.847   5.766
 7457TIP3    H222317   5.366   3.902   5.893
 7458TIP3   OH222318   2.898   1.721   3.218
 7458TIP3    H122319   2.840   1.701   3.145
 7458TIP3    H222320   2.975   1.666   3.203
 7459TIP3   OH222321   7.654   3.400   2.628
 7459TIP3    H122322   7.647   3.397   2.723
 7459TIP3    H222323   7.568   3.433   2.599
 7460TIP3   OH222324   5.005   1.148   2.650
 7460TIP3    H122325   5.032   1.160   2.741
 7460TIP3    H222326   4.927   1.093   2.656
 7461TIP3   OH222327   1.161   3.458   2.008
 7461TIP3    H122328   1.108   3.512   2.067
 7461TIP3    H222329   1.119   3.469   1.922
 7462TIP3   OH222330   2.073   4.199   5.616
 7462TIP3    H122331   2.011   4.131   5.592
 7462TIP3    H222332   2.157   4.168   5.580
 7463TIP3   OH222333   5.125   1.981   2.311
 7463TIP3    H122334   5.180   1.908   2.339
 7463TIP3    H222335   5.178   2.026   2.245
 7464TIP3   OH222336   5.304   0.836   5.675
 7464TIP3    H122337   5.387   0.817   5.630
 7464TIP3    H222338   5.238   0.788   5.625
 7465TIP3   OH222339   2.229   0.360   1.843
 7465TIP3    H122340   2.222   0.321   1.931
 7465TIP3    H222341   2.275   0.294   1.791
 7466TIP3   OH222342   2.797   5.772   3.788
 7466TIP3    H122343   2.769   5.734   3.705
 7466TIP3    H222344   2.851   5.847   3.763
 7467TIP3   OH222345   0.287   1.444   3.963
 7467TIP3    H122346   0.300   1.371   4.024
 7467TIP3    H222347   0.291   1.404   3.876
 7468TIP3   OH222348   8.023   0.017   2.216
 7468TIP3    H122349   8.096   0.060   2.261
 7468TIP3    H222350   8.035   0.039   2.124
 7469TIP3   OH222351   5.660   2.388   0.103
 7469TIP3    H122352   5.714   2.338   0.041
 7469TIP3    H222353   5.718   2.407   0.176
 7470TIP3   OH222354   5.651   0.896   1.789
 7470TIP3    H122355   5.605   0.958   1.733
 7470TIP3    H222356   5.731   0.875   1.741
 7471TIP3   OH222357   1.640   4.938   5.885
 7471TIP3    H122358   1.718   4.958   5.833
 7471TIP3    H222359   1.649   4.845   5.907
 7472TIP3   OH222360   0.206   6.436   2.800
 7472TIP3    H122361   0.283   6.474   2.757
 7472TIP3    H222362   0.210   6.343   2.780
 7473TIP3   OH222363   0.321   0.066   0.201
 7473TIP3    H122364   0.387   0.069   0.131
 7473TIP3    H222365   0.258   0.134   0.177
 7474TIP3   OH222366   3.492   0.140   6.096
 7474TIP3    H122367   3.531   0.068   6.047
 7474TIP3    H222368   3.408   0.105   6.127
 7475TIP3   OH222369   5.060   3.750   3.576
 7475TIP3    H122370   5.070   3.784   3.487
 7475TIP3    H222371   5.065   3.827   3.632
 7476TIP3   OH222372   0.466   6.532   4.026
 7476TIP3    H122373   0.474   6.454   4.081
 7476TIP3    H222374   0.387   6.576   4.058
 7477TIP3   OH222375   5.182   2.036   4.336
 7477TIP3    H122376   5.223   2.047   4.251
 7477TIP3    H222377   5.088   2.041   4.319
 7478TIP3   OH222378   1.893   6.290   0.036
 7478TIP3    H122379   1.922   6.218   0.092
 7478TIP3    H222380   1.895   6.254  -0.053
 7479TIP3   OH222381   8.177   1.708   6.112
 7479TIP3    H122382   8.223   1.772   6.059
 7479TIP3    H222383   8.211   1.623   6.083
 7480TIP3   OH222384   2.171   4.798   4.205
 7480TIP3    H122385   2.178   4.880   4.156
 7480TIP3    H222386   2.078   4.778   4.207
 7481TIP3   OH222387   1.179   7.796   0.503
 7481TIP3    H122388   1.226   7.781   0.585
 7481TIP3    H222389   1.205   7.884   0.476
 7482TIP3   OH222390   2.763   4.306   3.645
 7482TIP3    H122391   2.827   4.315   3.575
 7482TIP3    H222392   2.683   4.277   3.601
 7483TIP3   OH222393   5.038   4.319   3.020
 7483TIP3    H122394   4.947   4.291   3.024
 7483TIP3    H222395   5.089   4.238   3.021
 7484TIP3   OH222396   3.159   6.909   1.194
 7484TIP3    H122397   3.150   6.915   1.099
 7484TIP3    H222398   3.119   6.825   1.217
 7485TIP3   OH222399   6.081   3.610   6.639
 7485TIP3    H122400   6.073   3.703   6.659
 7485TIP3    H222401   6.166   3.602   6.596
 7486TIP3   OH222402   6.023   0.199   4.608
 7486TIP3    H122403   6.010   0.293   4.599
 7486TIP3    H222404   5.947   0.168   4.657
 7487TIP3   OH222405   1.295   6.942   2.507
 7487TIP3    H122406   1.336   6.984   2.432
 7487TIP3    H222407   1.203   6.935   2.483
 7488TIP3   OH222408   1.427   6.821   1.583
 7488TIP3    H122409   1.335   6.800   1.595
 7488TIP3    H222410   1.449   6.784   1.497
 7489TIP3   OH222411   1.284   6.916   3.758
 7489TIP3    H122412   1.257   6.902   3.668
 7489TIP3    H222413   1.367   6.963   3.752
 7490TIP3   OH222414   1.523   6.105   5.610
 7490TIP3    H122415   1.537   6.055   5.529
 7490TIP3    H222416   1.452   6.165   5.590
 7491TIP3   OH222417   0.929   4.113   6.261
 7491TIP3    H122418   0.983   4.158   6.196
 7491TIP3    H222419   0.989   4.092   6.332
 7492TIP3   OH222420   3.756   5.314   5.522
 7492TIP3    H122421   3.822   5.306   5.452
 7492TIP3    H222422   3.707   5.232   5.516
 7493TIP3   OH222423   0.441   3.144   3.469
 7493TIP3    H122424   0.377   3.202   3.427
 7493TIP3    H222425   0.392   3.105   3.542
 7494TIP3   OH222426   4.250   6.803   5.202
 7494TIP3    H122427   4.170   6.838   5.240
 7494TIP3    H222428   4.279   6.871   5.140
 7495TIP3   OH222429   0.330   3.769   3.594
 7495TIP3    H122430   0.286   3.743   3.675
 7495TIP3    H222431   0.287   3.851   3.569
 7496TIP3   OH222432   5.212   3.411   4.356
 7496TIP3    H122433   5.173   3.383   4.273
 7496TIP3    H222434   5.226   3.329   4.404
 7497TIP3   OH222435   7.061   3.097   1.572
 7497TIP3    H122436   7.031   3.059   1.490
 7497TIP3    H222437   6.984   3.094   1.629
 7498TIP3   OH222438   7.690   1.261   6.730
 7498TIP3    H122439   7.727   1.173   6.734
 7498TIP3    H222440   7.759   1.313   6.688
 7499TIP3   OH222441   6.172   0.999   6.439
 7499TIP3    H122442   6.135   0.912   6.422
 7499TIP3    H222443   6.108   1.041   6.496
 7500TIP3   OH222444   0.414   7.015   5.453
 7500TIP3    H122445   0.496   7.003   5.502
 7500TIP3    H222446   0.375   7.093   5.492
 7501TIP3   OH222447   0.920   4.826   1.718
 7501TIP3    H122448   1.014   4.810   1.714
 7501TIP3    H222449   0.882   4.745   1.753
 7502TIP3   OH222450   4.019   2.960   0.103
 7502TIP3    H122451   4.096   2.904   0.089
 7502TIP3    H222452   3.968   2.915   0.170
 7503TIP3   OH222453   1.825   6.185   2.668
 7503TIP3    H122454   1.860   6.222   2.587
 7503TIP3    H222455   1.730   6.180   2.653
 7504TIP3   OH222456   4.761   5.540   2.122
 7504TIP3    H122457   4.687   5.479   2.116
 7504TIP3    H222458   4.778   5.549   2.216
 7505TIP3   OH222459   8.281   1.878   0.394
 7505TIP3    H122460   8.280   1.784   0.378
 7505TIP3    H222461   8.328   1.915   0.319
 7506TIP3   OH222462   1.851   5.749   4.825
 7506TIP3    H122463   1.921   5.763   4.760
 7506TIP3    H222464   1.841   5.654   4.830
 7507TIP3   OH222465   4.420   4.787   0.040
 7507TIP3    H122466   4.493   4.737   0.003
 7507TIP3    H222467   4.342   4.742   0.008
 7508TIP3   OH222468   0.408   3.335   6.081
 7508TIP3    H122469   0.357   3.299   6.008
 7508TIP3    H222470   0.375   3.425   6.090
 7509TIP3   OH222471   0.117   5.147   6.783
 7509TIP3    H122472   0.108   5.088   6.709
 7509TIP3    H222473   0.028   5.177   6.801
 7510TIP3   OH222474   5.738   1.412   4.346
 7510TIP3    H122475   5.709   1.401   4.255
 7510TIP3    H222476   5.827   1.444   4.338
 7511TIP3   OH222477   3.141   0.699   1.889
 7511TIP3    H122478   3.147   0.694   1.794
 7511TIP3    H222479   3.175   0.786   1.911
 7512TIP3   OH222480   7.666   1.871   3.826
 7512TIP3    H122481   7.666   1.947   3.883
 7512TIP3    H222482   7.714   1.899   3.748
 7513TIP3   OH222483   1.350   4.840   5.785
 7513TIP3    H122484   1.421   4.781   5.811
 7513TIP3    H222485   1.390   4.902   5.724
 7514TIP3   OH222486   1.992   1.443   2.743
 7514TIP3    H122487   2.061   1.378   2.741
 7514TIP3    H222488   1.991   1.480   2.654
 7515TIP3   OH222489   0.324   0.811   4.944
 7515TIP3    H122490   0.402   0.813   5.000
 7515TIP3    H222491   0.262   0.871   4.986
 7516TIP3   OH222492   4.835   7.777   3.359
 7516TIP3    H122493   4.907   7.816   3.410
 7516TIP3    H222494   4.757   7.819   3.393
 7517TIP3   OH222495   5.058   3.836   6.342
 7517TIP3    H122496   5.001   3.782   6.287
 7517TIP3    H222497   5.007   3.914   6.361
 7518TIP3   OH222498   4.826   1.811   0.274
 7518TIP3    H122499   4.783   1.888   0.310
 7518TIP3    H222500   4.905   1.844   0.231
 7519TIP3   OH222501   3.464   2.807   4.489
 7519TIP3    H122502   3.498   2.886   4.530
 7519TIP3    H222503   3.446   2.747   4.561
 7520TIP3   OH222504   6.191   1.089   0.388
 7520TIP3    H122505   6.215   1.079   0.296
 7520TIP3    H222506   6.097   1.068   0.390
 7521TIP3   OH222507   7.980   0.392   1.728
 7521TIP3    H122508   7.916   0.330   1.692
 7521TIP3    H222509   7.932   0.474   1.737
 7522TIP3   OH222510   2.827   4.394   1.406
 7522TIP3    H122511   2.757   4.379   1.469
 7522TIP3    H222512   2.903   4.347   1.441
 7523TIP3   OH222513   4.544   2.316   0.770
 7523TIP3    H122514   4.628   2.305   0.814
 7523TIP3    H222515   4.479   2.292   0.836
 7524TIP3   OH222516   0.275   3.325   3.326
 7524TIP3    H122517   0.288   3.414   3.291
 7524TIP3    H222518   0.180   3.320   3.343
 7525TIP3   OH222519   5.095   2.355   1.687
 7525TIP3    H122520   5.033   2.331   1.619
 7525TIP3    H222521   5.106   2.276   1.740
 7526TIP3   OH222522   7.425   5.722   3.305
 7526TIP3    H122523   7.467   5.808   3.303
 7526TIP3    H222524   7.498   5.660   3.301
 7527TIP3   OH222525   0.303   1.903   3.016
 7527TIP3    H122526   0.394   1.876   3.001
 7527TIP3    H222527   0.269   1.837   3.077
 7528TIP3   OH222528   5.941   4.216   0.094
 7528TIP3    H122529   5.937   4.246   0.184
 7528TIP3    H222530   5.903   4.288   0.043
 7529TIP3   OH222531   3.040   2.495   4.155
 7529TIP3    H122532   3.025   2.584   4.124
 7529TIP3    H222533   2.954   2.452   4.147
 7530TIP3   OH222534   7.881   5.808   2.026
 7530TIP3    H122535   7.854   5.893   2.061
 7530TIP3    H222536   7.942   5.774   2.091
 7531TIP3   OH222537   0.543   5.630   0.464
 7531TIP3    H122538   0.486   5.644   0.540
 7531TIP3    H222539   0.559   5.719   0.431
 7532TIP3   OH222540   5.362   3.524   6.540
 7532TIP3    H122541   5.453   3.544   6.517
 7532TIP3    H222542   5.335   3.596   6.596
 7533TIP3   OH222543   0.030   1.003   2.515
 7533TIP3    H122544   0.063   1.087   2.483
 7533TIP3    H222545   0.057   0.940   2.448
 7534TIP3   OH222546   3.579   1.537   0.738
 7534TIP3    H122547   3.485   1.540   0.720
 7534TIP3    H222548   3.586   1.512   0.830
 7535TIP3   OH222549   2.365   0.132   5.149
 7535TIP3    H122550   2.351   0.054   5.202
 7535TIP3    H222551   2.323   0.202   5.197
 7536TIP3   OH222552   8.290   4.392   6.720
 7536TIP3    H122553   8.326   4.445   6.648
 7536TIP3    H222554   8.276   4.455   6.791
 7537TIP3   OH222555   7.381   3.934   5.070
 7537TIP3    H122556   7.382   3.868   5.000
 7537TIP3    H222557   7.379   4.018   5.024
 7538TIP3   OH222558   5.807   4.280   5.077
 7538TIP3    H122559   5.881   4.293   5.136
 7538TIP3    H222560   5.768   4.197   5.105
 7539TIP3   OH222561   8.031   0.609   1.147
 7539TIP3    H122562   8.050   0.515   1.156
 7539TIP3    H222563   8.090   0.651   1.210
 7540TIP3   OH222564   7.271   0.725   2.527
 7540TIP3    H122565   7.201   0.780   2.492
 7540TIP3    H222566   7.336   0.721   2.457
 7541TIP3   OH222567   1.737   1.925   1.679
 7541TIP3    H122568   1.701   1.969   1.755
 7541TIP3    H222569   1.723   1.986   1.606
 7542TIP3   OH222570   7.104   0.906   1.168
 7542TIP3    H122571   7.097   0.918   1.263
 7542TIP3    H222572   7.029   0.952   1.132
 7543TIP3   OH222573   3.175   1.352   6.597
 7543TIP3    H122574   3.114   1.425   6.609
 7543TIP3    H222575   3.255   1.393   6.563
 7544TIP3   OH222576   2.721   3.150   1.815
 7544TIP3    H122577   2.792   3.093   1.845
 7544TIP3    H222578   2.725   3.225   1.874
 7545TIP3   OH222579   7.020   4.605   3.603
 7545TIP3    H122580   6.956   4.536   3.587
 7545TIP3    H222581   7.100   4.574   3.560
 7546TIP3   OH222582   3.919   3.409   5.422
 7546TIP3    H122583   3.967   3.463   5.359
 7546TIP3    H222584   3.853   3.363   5.370
 7547TIP3   OH222585   0.260   7.371   0.874
 7547TIP3    H122586   0.334   7.389   0.932
 7547TIP3    H222587   0.279   7.286   0.835
 7548TIP3   OH222588   2.405   3.816   2.096
 7548TIP3    H122589   2.462   3.833   2.171
 7548TIP3    H222590   2.451   3.855   2.021
 7549TIP3   OH222591   5.154   3.780   6.066
 7549TIP3    H122592   5.184   3.691   6.048
 7549TIP3    H222593   5.155   3.787   6.161
 7550TIP3   OH222594   0.040   2.015   5.721
 7550TIP3    H122595  -0.056   2.017   5.731
 7550TIP3    H222596   0.058   2.073   5.648
 7551TIP3   OH222597   2.662   3.987   6.664
 7551TIP3    H122598   2.709   3.903   6.666
 7551TIP3    H222599   2.646   4.002   6.570
 7552TIP3   OH222600   7.590   2.076   3.244
 7552TIP3    H122601   7.510   2.058   3.293
 7552TIP3    H222602   7.649   2.115   3.309
 7553TIP3   OH222603   1.987   5.157   2.091
 7553TIP3    H122604   1.923   5.203   2.145
 7553TIP3    H222605   2.019   5.224   2.030
 7554TIP3   OH222606   5.578   1.373   2.743
 7554TIP3    H122607   5.495   1.363   2.788
 7554TIP3    H222608   5.629   1.296   2.769
 7555TIP3   OH222609   1.773   6.997   5.229
 7555TIP3    H122610   1.692   7.039   5.199
 7555TIP3    H222611   1.748   6.951   5.309
 7556TIP3   OH222612   4.962   7.495   4.766
 7556TIP3    H122613   4.929   7.482   4.855
 7556TIP3    H222614   5.054   7.470   4.771
 7557TIP3   OH222615   0.214   6.373   1.730
 7557TIP3    H122616   0.136   6.327   1.698
 7557TIP3    H222617   0.276   6.304   1.752
 7558TIP3   OH222618   2.185   5.846   3.732
 7558TIP3    H122619   2.186   5.889   3.817
 7558TIP3    H222620   2.093   5.819   3.721
 7559TIP3   OH222621   0.381   2.459   2.892
 7559TIP3    H122622   0.434   2.477   2.814
 7559TIP3    H222623   0.364   2.365   2.888
 7560TIP3   OH222624   2.798   2.320   5.997
 7560TIP3    H122625   2.797   2.303   6.092
 7560TIP3    H222626   2.803   2.415   5.990
 7561TIP3   OH222627   6.089   6.076   5.204
 7561TIP3    H122628   6.178   6.045   5.221
 7561TIP3    H222629   6.093   6.171   5.215
 7562TIP3   OH222630   0.556   4.386   2.465
 7562TIP3    H122631   0.555   4.406   2.558
 7562TIP3    H222632   0.494   4.448   2.426
 7563TIP3   OH222633   1.686   7.602   6.051
 7563TIP3    H122634   1.754   7.568   5.992
 7563TIP3    H222635   1.606   7.557   6.024
 7564TIP3   OH222636   8.288   6.084   2.031
 7564TIP3    H122637   8.233   6.110   2.105
 7564TIP3    H222638   8.324   6.167   1.999
 7565TIP3   OH222639   6.442   6.666   6.204
 7565TIP3    H122640   6.433   6.573   6.225
 7565TIP3    H222641   6.372   6.709   6.253
 7566TIP3   OH222642   1.786   1.618   2.333
 7566TIP3    H122643   1.860   1.610   2.394
 7566TIP3    H222644   1.756   1.708   2.344
 7567TIP3   OH222645   1.224   5.360   5.098
 7567TIP3    H122646   1.153   5.308   5.137
 7567TIP3    H222647   1.180   5.410   5.029
 7568TIP3   OH222648   4.906   3.635   3.235
 7568TIP3    H122649   4.900   3.563   3.298
 7568TIP3    H222650   4.998   3.637   3.210
 7569TIP3   OH222651   3.857   1.472   4.220
 7569TIP3    H122652   3.849   1.568   4.218
 7569TIP3    H222653   3.926   1.453   4.156
 7570TIP3   OH222654   2.611   4.540   4.423
 7570TIP3    H122655   2.589   4.449   4.445
 7570TIP3    H222656   2.701   4.536   4.392
 7571TIP3   OH222657   6.725   5.450   3.755
 7571TIP3    H122658   6.657   5.503   3.712
 7571TIP3    H222659   6.699   5.360   3.738
 7572TIP3   OH222660   1.061   0.707   2.915
 7572TIP3    H122661   1.125   0.762   2.961
 7572TIP3    H222662   0.992   0.693   2.980
 7573TIP3   OH222663   0.829   4.523   0.894
 7573TIP3    H122664   0.781   4.517   0.812
 7573TIP3    H222665   0.863   4.613   0.896
 7574TIP3   OH222666   5.022   4.531   5.692
 7574TIP3    H122667   5.058   4.614   5.661
 7574TIP3    H222668   4.969   4.554   5.768
 7575TIP3   OH222669   3.027   7.413   4.501
 7575TIP3    H122670   2.975   7.458   4.434
 7575TIP3    H222671   2.989   7.325   4.506
 7576TIP3   OH222672   0.124   2.922   1.725
 7576TIP3    H122673   0.215   2.947   1.710
 7576TIP3    H222674   0.107   2.947   1.816
 7577TIP3   OH222675   7.625   0.734   1.646
 7577TIP3    H122676   7.538   0.733   1.687
 7577TIP3    H222677   7.684   0.703   1.714
 7578TIP3   OH222678   3.305   2.418   1.630
 7578TIP3    H122679   3.248   2.400   1.704
 7578TIP3    H222680   3.393   2.399   1.662
 7579TIP3   OH222681   1.539   7.357   2.409
 7579TIP3    H122682   1.466   7.408   2.373
 7579TIP3    H222683   1.610   7.421   2.420
 7580TIP3   OH222684   0.032   6.936   0.367
 7580TIP3    H122685  -0.013   7.001   0.421
 7580TIP3    H222686  -0.003   6.950   0.279
 7581TIP3   OH222687   6.482   1.940   0.633
 7581TIP3    H122688   6.429   1.970   0.560
 7581TIP3    H222689   6.541   1.874   0.596
 7582TIP3   OH222690   7.045   7.581   5.578
 7582TIP3    H122691   6.975   7.518   5.563
 7582TIP3    H222692   7.092   7.587   5.495
 7583TIP3   OH222693   3.212   7.024   4.652
 7583TIP3    H122694   3.157   7.046   4.577
 7583TIP3    H222695   3.271   7.098   4.660
 7584TIP3   OH222696   7.717   4.524   3.882
 7584TIP3    H122697   7.723   4.581   3.959
 7584TIP3    H222698   7.745   4.579   3.809
 7585TIP3   OH222699   4.660   1.294   3.956
 7585TIP3    H122700   4.650   1.315   4.048
 7585TIP3    H222701   4.673   1.378   3.913
 7586TIP3   OH222702   0.865   5.369   5.254
 7586TIP3    H122703   0.807   5.322   5.194
 7586TIP3    H222704   0.828   5.458   5.257
 7587TIP3   OH222705   8.115   2.679   6.020
 7587TIP3    H122706   8.047   2.633   5.970
 7587TIP3    H222707   8.128   2.761   5.973
 7588TIP3   OH222708   0.637   1.299   3.596
 7588TIP3    H122709   0.641   1.345   3.512
 7588TIP3    H222710   0.588   1.358   3.654
 7589TIP3   OH222711   2.500   6.228   5.859
 7589TIP3    H122712   2.568   6.287   5.890
 7589TIP3    H222713   2.546   6.145   5.842
 7590TIP3   OH222714   5.114   2.055   3.736
 7590TIP3    H122715   5.120   2.112   3.660
 7590TIP3    H222716   5.172   2.097   3.801
 7591TIP3   OH222717   8.047   4.410   1.811
 7591TIP3    H122718   8.028   4.318   1.791
 7591TIP3    H222719   8.101   4.406   1.890
 7592TIP3   OH222720   1.567   0.423   5.629
 7592TIP3    H122721   1.636   0.357   5.633
 7592TIP3    H222722   1.499   0.383   5.575
 7593TIP3   OH222723   1.684   6.798   2.225
 7593TIP3    H122724   1.758   6.812   2.165
 7593TIP3    H222725   1.607   6.820   2.173
 7594TIP3   OH222726   5.831   1.058   4.315
 7594TIP3    H122727   5.854   0.972   4.281
 7594TIP3    H222728   5.749   1.080   4.270
 7595TIP3   OH222729   3.808   1.419   3.184
 7595TIP3    H122730   3.873   1.444   3.250
 7595TIP3    H222731   3.749   1.360   3.230
 7596TIP3   OH222732   6.173   1.880   3.289
 7596TIP3    H122733   6.123   1.876   3.371
 7596TIP3    H222734   6.192   1.789   3.268
 7597TIP3   OH222735   6.765   0.007   2.342
 7597TIP3    H122736   6.706   0.082   2.349
 7597TIP3    H222737   6.739  -0.050   2.414
 7598TIP3   OH222738   3.945   1.919   2.712
 7598TIP3    H122739   4.004   1.864   2.661
 7598TIP3    H222740   3.998   1.946   2.787
 7599TIP3   OH222741   0.515   0.973   4.791
 7599TIP3    H122742   0.482   0.977   4.701
 7599TIP3    H222743   0.510   0.880   4.815
 7600TIP3   OH222744   7.794   2.120   3.454
 7600TIP3    H122745   7.847   2.076   3.388
 7600TIP3    H222746   7.856   2.173   3.504
 7601TIP3   OH222747   2.794   4.841   2.379
 7601TIP3    H122748   2.760   4.751   2.380
 7601TIP3    H222749   2.765   4.878   2.463
 7602TIP3   OH222750   5.393   4.931   5.289
 7602TIP3    H122751   5.448   4.856   5.265
 7602TIP3    H222752   5.325   4.893   5.345
 7603TIP3   OH222753   7.083   0.965   3.222
 7603TIP3    H122754   7.073   0.881   3.178
 7603TIP3    H222755   7.018   1.022   3.180
 7604TIP3   OH222756   7.544   7.291   1.905
 7604TIP3    H122757   7.507   7.250   1.983
 7604TIP3    H222758   7.632   7.319   1.931
 7605TIP3   OH222759   2.780   4.697   4.968
 7605TIP3    H122760   2.864   4.728   5.002
 7605TIP3    H222761   2.802   4.619   4.917
 7606TIP3   OH222762   5.450   0.393   1.781
 7606TIP3    H122763   5.539   0.379   1.813
 7606TIP3    H222764   5.456   0.472   1.727
 7607TIP3   OH222765   7.921   1.208   2.082
 7607TIP3    H122766   7.875   1.190   2.164
 7607TIP3    H222767   7.963   1.293   2.097
 7608TIP3   OH222768   1.152   3.978   4.706
 7608TIP3    H122769   1.185   3.946   4.790
 7608TIP3    H222770   1.231   4.006   4.659
 7609TIP3   OH222771   8.250   5.437   6.137
 7609TIP3    H122772   8.240   5.352   6.095
 7609TIP3    H222773   8.344   5.450   6.144
 7610TIP3   OH222774   5.098   5.519   3.441
 7610TIP3    H122775   5.095   5.527   3.536
 7610TIP3    H222776   5.168   5.456   3.424
 7611TIP3   OH222777   6.375   4.933   4.731
 7611TIP3    H122778   6.353   4.840   4.723
 7611TIP3    H222779   6.442   4.936   4.799
 7612TIP3   OH222780   0.511   7.463   4.797
 7612TIP3    H122781   0.538   7.432   4.884
 7612TIP3    H222782   0.465   7.389   4.759
 7613TIP3   OH222783   1.644   0.584   1.946
 7613TIP3    H122784   1.623   0.584   2.040
 7613TIP3    H222785   1.716   0.521   1.937
 7614TIP3   OH222786   4.971   0.545   4.609
 7614TIP3    H122787   5.002   0.614   4.667
 7614TIP3    H222788   4.983   0.580   4.521
 7615TIP3   OH222789   7.194   1.632   4.600
 7615TIP3    H122790   7.215   1.555   4.653
 7615TIP3    H222791   7.099   1.638   4.602
 7616TIP3   OH222792   0.079   6.600   1.513
 7616TIP3    H122793   0.038   6.596   1.427
 7616TIP3    H222794   0.017   6.557   1.571
 7617TIP3   OH222795   4.484   3.964   5.894
 7617TIP3    H122796   4.531   3.927   5.819
 7617TIP3    H222797   4.401   3.994   5.858
 7618TIP3   OH222798   1.202   4.415   3.121
 7618TIP3    H122799   1.171   4.348   3.060
 7618TIP3    H222800   1.143   4.489   3.108
 7619TIP3   OH222801   4.144   5.954   6.440
 7619TIP3    H122802   4.163   5.899   6.515
 7619TIP3    H222803   4.194   6.034   6.455
 7620TIP3   OH222804   2.604   1.911   0.480
 7620TIP3    H122805   2.602   1.981   0.545
 7620TIP3    H222806   2.550   1.944   0.408
 7621TIP3   OH222807   3.627   7.370   3.915
 7621TIP3    H122808   3.652   7.425   3.989
 7621TIP3    H222809   3.606   7.285   3.954
 7622TIP3   OH222810   1.089   5.358   3.751
 7622TIP3    H122811   1.016   5.329   3.696
 7622TIP3    H222812   1.081   5.305   3.831
 7623TIP3   OH222813   5.564   5.300   5.394
 7623TIP3    H122814   5.501   5.265   5.331
 7623TIP3    H222815   5.639   5.327   5.341
 7624TIP3   OH222816   0.034   4.695   4.825
 7624TIP3    H122817   0.047   4.788   4.843
 7624TIP3    H222818  -0.062   4.684   4.824
 7625TIP3   OH222819   5.216   4.666   2.114
 7625TIP3    H122820   5.219   4.699   2.203
 7625TIP3    H222821   5.232   4.743   2.059
 7626TIP3   OH222822   6.848   2.374   3.733
 7626TIP3    H122823   6.792   2.349   3.806
 7626TIP3    H222824   6.795   2.434   3.680
 7627TIP3   OH222825   6.980   5.312   2.145
 7627TIP3    H122826   6.902   5.261   2.124
 7627TIP3    H222827   7.039   5.297   2.071
 7628TIP3   OH222828   1.991   4.073   2.361
 7628TIP3    H122829   1.916   4.015   2.373
 7628TIP3    H222830   2.065   4.014   2.347
 7629TIP3   OH222831   7.528   6.581   4.757
 7629TIP3    H122832   7.494   6.633   4.685
 7629TIP3    H222833   7.516   6.635   4.835
 7630TIP3   OH222834   5.233   7.438   4.419
 7630TIP3    H122835   5.245   7.344   4.433
 7630TIP3    H222836   5.294   7.479   4.480
 7631TIP3   OH222837   1.535   5.688   5.559
 7631TIP3    H122838   1.443   5.699   5.585
 7631TIP3    H222839   1.560   5.773   5.522
 7632TIP3   OH222840   0.299   0.350   1.892
 7632TIP3    H122841   0.211   0.388   1.902
 7632TIP3    H222842   0.326   0.375   1.804
 7633TIP3   OH222843   3.839   6.650   1.207
 7633TIP3    H122844   3.795   6.671   1.125
 7633TIP3    H222845   3.869   6.735   1.240
 7634TIP3   OH222846   6.651   0.956   0.791
 7634TIP3    H122847   6.571   0.956   0.737
 7634TIP3    H222848   6.633   0.890   0.858
 7635TIP3   OH222849   2.068   2.333   2.452
 7635TIP3    H122850   2.123   2.400   2.493
 7635TIP3    H222851   2.124   2.295   2.384
 7636TIP3   OH222852   7.125   6.211   6.402
 7636TIP3    H122853   7.139   6.305   6.404
 7636TIP3    H222854   7.033   6.200   6.378
 7637TIP3   OH222855   3.839   6.800   4.130
 7637TIP3    H122856   3.800   6.817   4.216
 7637TIP3    H222857   3.924   6.761   4.150
 7638TIP3   OH222858   7.277   0.373   5.055
 7638TIP3    H122859   7.183   0.381   5.073
 7638TIP3    H222860   7.294   0.439   4.987
 7639TIP3   OH222861   5.317   2.147   3.318
 7639TIP3    H122862   5.406   2.126   3.290
 7639TIP3    H222863   5.262   2.084   3.272
 7640TIP3   OH222864   3.723   3.153   6.076
 7640TIP3    H122865   3.732   3.071   6.125
 7640TIP3    H222866   3.724   3.127   5.984
 7641TIP3   OH222867   3.982   7.457   4.011
 7641TIP3    H122868   3.978   7.362   4.001
 7641TIP3    H222869   4.064   7.472   4.058
 7642TIP3   OH222870   7.184   3.768   1.671
 7642TIP3    H122871   7.242   3.813   1.732
 7642TIP3    H222872   7.153   3.838   1.613
 7643TIP3   OH222873   0.596   3.333   3.594
 7643TIP3    H122874   0.552   3.365   3.673
 7643TIP3    H222875   0.527   3.294   3.542
 7644TIP3   OH222876   6.977   2.685   4.708
 7644TIP3    H122877   6.950   2.619   4.644
 7644TIP3    H222878   6.983   2.766   4.658
 7645TIP3   OH222879   1.274   4.932   3.771
 7645TIP3    H122880   1.311   4.981   3.844
 7645TIP3    H222881   1.347   4.919   3.711
 7646TIP3   OH222882   3.103   1.664   1.795
 7646TIP3    H122883   3.036   1.666   1.863
 7646TIP3    H222884   3.085   1.741   1.742
 7647TIP3   OH222885   5.437   2.263   6.406
 7647TIP3    H122886   5.473   2.174   6.415
 7647TIP3    H222887   5.507   2.320   6.436
 7648TIP3   OH222888   2.657   7.466   1.243
 7648TIP3    H122889   2.724   7.534   1.242
 7648TIP3    H222890   2.700   7.391   1.286
 7649TIP3   OH222891   1.005   5.278   3.165
 7649TIP3    H122892   0.916   5.304   3.142
 7649TIP3    H222893   1.055   5.290   3.084
 7650TIP3   OH222894   2.673   7.549   0.736
 7650TIP3    H122895   2.748   7.555   0.676
 7650TIP3    H222896   2.669   7.456   0.759
 7651TIP3   OH222897   6.144   1.682   4.917
 7651TIP3    H122898   6.060   1.636   4.908
 7651TIP3    H222899   6.201   1.619   4.960
 7652TIP3   OH222900   5.961   4.929   1.227
 7652TIP3    H122901   5.935   4.966   1.142
 7652TIP3    H222902   5.959   4.835   1.214
 7653TIP3   OH222903   7.208   7.018   1.730
 7653TIP3    H122904   7.231   6.954   1.662
 7653TIP3    H222905   7.126   7.056   1.699
 7654TIP3   OH222906   1.167   1.756   0.272
 7654TIP3    H122907   1.160   1.838   0.323
 7654TIP3    H222908   1.172   1.785   0.181
 7655TIP3   OH222909   1.128   6.350   3.690
 7655TIP3    H122910   1.192   6.422   3.691
 7655TIP3    H222911   1.057   6.382   3.635
 7656TIP3   OH222912   2.301   6.108   6.275
 7656TIP3    H122913   2.277   6.184   6.223
 7656TIP3    H222914   2.323   6.040   6.211
 7657TIP3   OH222915   4.165   6.236   6.452
 7657TIP3    H122916   4.073   6.258   6.464
 7657TIP3    H222917   4.212   6.312   6.485
 7658TIP3   OH222918   2.025   5.357   5.903
 7658TIP3    H122919   2.067   5.274   5.881
 7658TIP3    H222920   2.079   5.393   5.974
 7659TIP3   OH222921   3.632   2.660   1.838
 7659TIP3    H122922   3.598   2.715   1.767
 7659TIP3    H222923   3.636   2.720   1.913
 7660TIP3   OH222924   8.147   5.730   5.556
 7660TIP3    H122925   8.192   5.814   5.565
 7660TIP3    H222926   8.068   5.739   5.609
 7661TIP3   OH222927   7.182   1.059   5.756
 7661TIP3    H122928   7.133   1.073   5.675
 7661TIP3    H222929   7.214   1.146   5.781
 7662TIP3   OH222930   6.535   1.028   3.116
 7662TIP3    H122931   6.564   1.118   3.135
 7662TIP3    H222932   6.464   1.012   3.178
 7663TIP3   OH222933   6.358   6.905   4.659
 7663TIP3    H122934   6.450   6.880   4.665
 7663TIP3    H222935   6.310   6.822   4.664
 7664TIP3   OH222936   0.200   3.494   4.471
 7664TIP3    H122937   0.218   3.424   4.533
 7664TIP3    H222938   0.281   3.545   4.469
 7665TIP3   OH222939   5.779   0.505   1.521
 7665TIP3    H122940   5.715   0.556   1.570
 7665TIP3    H222941   5.864   0.530   1.558
 7666TIP3   OH222942   7.670   3.622   1.210
 7666TIP3    H122943   7.704   3.703   1.247
 7666TIP3    H222944   7.636   3.574   1.286
 7667TIP3   OH222945   7.818   3.000   4.061
 7667TIP3    H122946   7.908   2.993   4.029
 7667TIP3    H222947   7.790   3.088   4.036
 7668TIP3   OH222948   2.346   0.029   0.743
 7668TIP3    H122949   2.436   0.062   0.754
 7668TIP3    H222950   2.323   0.054   0.654
 7669TIP3   OH222951   0.112   6.726   4.838
 7669TIP3    H122952   0.019   6.708   4.825
 7669TIP3    H222953   0.117   6.762   4.926
 7670TIP3   OH222954   4.119   1.220   2.283
 7670TIP3    H122955   4.125   1.230   2.378
 7670TIP3    H222956   4.176   1.145   2.263
 7671TIP3   OH222957   0.286   5.519   6.087
 7671TIP3    H122958   0.347   5.463   6.134
 7671TIP3    H222959   0.279   5.481   6.000
 7672TIP3   OH222960   4.470   4.105   6.127
 7672TIP3    H122961   4.442   4.054   6.051
 7672TIP3    H222962   4.564   4.087   6.136
 7673TIP3   OH222963   6.782   7.333   5.190
 7673TIP3    H122964   6.735   7.249   5.194
 7673TIP3    H222965   6.856   7.316   5.131
 7674TIP3   OH222966   6.712   5.528   4.984
 7674TIP3    H122967   6.760   5.584   5.046
 7674TIP3    H222968   6.645   5.586   4.948
 7675TIP3   OH222969   3.381   4.653   2.512
 7675TIP3    H122970   3.360   4.712   2.585
 7675TIP3    H222971   3.463   4.688   2.476
 7676TIP3   OH222972   7.942   1.380   6.616
 7676TIP3    H122973   7.997   1.447   6.657
 7676TIP3    H222974   7.880   1.428   6.562
 7677TIP3   OH222975   6.658   7.808   6.675
 7677TIP3    H122976   6.640   7.818   6.581
 7677TIP3    H222977   6.751   7.782   6.678
 7678TIP3   OH222978   8.087   6.940   5.559
 7678TIP3    H122979   8.137   6.930   5.640
 7678TIP3    H222980   8.150   6.921   5.490
 7679TIP3   OH222981   0.496   1.305   6.597
 7679TIP3    H122982   0.488   1.211   6.581
 7679TIP3    H222983   0.500   1.314   6.692
 7680TIP3   OH222984   4.307   0.518   3.690
 7680TIP3    H122985   4.342   0.563   3.767
 7680TIP3    H222986   4.227   0.477   3.721
 7681TIP3   OH222987   0.028   3.004   5.148
 7681TIP3    H122988   0.036   2.911   5.123
 7681TIP3    H222989  -0.004   3.047   5.070
 7682TIP3   OH222990   4.223   0.856   2.128
 7682TIP3    H122991   4.246   0.911   2.203
 7682TIP3    H222992   4.259   0.901   2.052
 7683TIP3   OH222993   6.651   4.467   6.394
 7683TIP3    H122994   6.721   4.449   6.456
 7683TIP3    H222995   6.673   4.415   6.317
 7684TIP3   OH222996   0.413   7.363   1.121
 7684TIP3    H122997   0.502   7.338   1.147
 7684TIP3    H222998   0.360   7.346   1.198
 7685TIP3   OH222999   2.007   6.849   0.067
 7685TIP3    H123000   1.997   6.756   0.048
 7685TIP3    H223001   1.920   6.877   0.094
 7686TIP3   OH223002   1.325   6.512   4.006
 7686TIP3    H123003   1.418   6.492   4.009
 7686TIP3    H223004   1.313   6.557   3.922
 7687TIP3   OH223005   3.099   5.260   6.510
 7687TIP3    H123006   3.135   5.246   6.422
 7687TIP3    H223007   3.097   5.355   6.519
 7688TIP3   OH223008   7.389   7.181   5.876
 7688TIP3    H123009   7.331   7.165   5.801
 7688TIP3    H223010   7.377   7.274   5.897
 7689TIP3   OH223011   8.232   6.190   5.268
 7689TIP3    H123012   8.176   6.216   5.194
 7689TIP3    H223013   8.180   6.126   5.317
 7690TIP3   OH223014   0.048   5.208   3.127
 7690TIP3    H123015   0.131   5.185   3.169
 7690TIP3    H223016   0.039   5.302   3.141
 7691TIP3   OH223017   7.882   3.951   2.828
 7691TIP3    H123018   7.945   4.023   2.828
 7691TIP3    H223019   7.910   3.894   2.756
 7692TIP3   OH223020   0.118   6.598   3.276
 7692TIP3    H123021   0.116   6.639   3.363
 7692TIP3    H223022   0.101   6.505   3.293
 7693TIP3   OH223023   1.562   3.152   0.822
 7693TIP3    H123024   1.529   3.225   0.770
 7693TIP3    H223025   1.610   3.098   0.759
 7694TIP3   OH223026   1.275   5.156   3.402
 7694TIP3    H123027   1.201   5.141   3.461
 7694TIP3    H223028   1.238   5.146   3.314
 7695TIP3   OH223029   3.005   5.276   6.185
 7695TIP3    H123030   3.069   5.215   6.222
 7695TIP3    H223031   3.059   5.338   6.134
 7696TIP3   OH223032   0.429   3.915   0.521
 7696TIP3    H123033   0.340   3.892   0.547
 7696TIP3    H223034   0.475   3.832   0.516
 7697TIP3   OH223035   5.043   5.191   0.708
 7697TIP3    H123036   5.106   5.181   0.780
 7697TIP3    H223037   4.960   5.208   0.752
 7698TIP3   OH223038   5.427   5.122   2.076
 7698TIP3    H123039   5.506   5.114   2.129
 7698TIP3    H223040   5.356   5.126   2.140
 7699TIP3   OH223041   7.037   3.313   1.063
 7699TIP3    H123042   7.016   3.224   1.034
 7699TIP3    H223043   6.976   3.329   1.135
 7700TIP3   OH223044   0.307   6.926   6.270
 7700TIP3    H123045   0.308   7.020   6.292
 7700TIP3    H223046   0.380   6.890   6.320
 7701TIP3   OH223047   8.062   1.461   5.115
 7701TIP3    H123048   8.074   1.549   5.151
 7701TIP3    H223049   8.002   1.419   5.176
 7702TIP3   OH223050   4.591   7.594   0.632
 7702TIP3    H123051   4.583   7.633   0.719
 7702TIP3    H223052   4.685   7.599   0.613
 7703TIP3   OH223053   2.548   4.273   1.308
 7703TIP3    H123054   2.527   4.313   1.393
 7703TIP3    H223055   2.622   4.215   1.327
 7704TIP3   OH223056   5.596   0.779   5.551
 7704TIP3    H123057   5.623   0.784   5.459
 7704TIP3    H223058   5.644   0.849   5.594
 7705TIP3   OH223059   2.672   5.333   3.950
 7705TIP3    H123060   2.702   5.268   4.014
 7705TIP3    H223061   2.745   5.394   3.941
 7706TIP3   OH223062   3.065   0.785   1.381
 7706TIP3    H123063   3.093   0.846   1.314
 7706TIP3    H223064   3.094   0.699   1.350
 7707TIP3   OH223065   6.022   5.656   2.024
 7707TIP3    H123066   5.974   5.733   2.054
 7707TIP3    H223067   6.113   5.676   2.042
 7708TIP3   OH223068   6.906   7.620   3.742
 7708TIP3    H123069   6.868   7.675   3.810
 7708TIP3    H223070   6.840   7.618   3.673
 7709TIP3   OH223071   7.274   1.165   2.994
 7709TIP3    H123072   7.354   1.190   2.949
 7709TIP3    H223073   7.298   1.164   3.087
 7710TIP3   OH223074   0.784   5.144   3.906
 7710TIP3    H123075   0.845   5.072   3.887
 7710TIP3    H223076   0.817   5.182   3.987
 7711TIP3   OH223077   5.184   1.945   3.164
 7711TIP3    H123078   5.208   1.974   3.076
 7711TIP3    H223079   5.190   1.850   3.161
 7712TIP3   OH223080   1.448   2.565   5.713
 7712TIP3    H123081   1.435   2.630   5.781
 7712TIP3    H223082   1.494   2.493   5.757
 7713TIP3   OH223083   0.297   2.774   3.743
 7713TIP3    H123084   0.269   2.816   3.662
 7713TIP3    H223085   0.377   2.727   3.720
 7714TIP3   OH223086   2.426   2.284   3.039
 7714TIP3    H123087   2.387   2.211   2.991
 7714TIP3    H223088   2.353   2.323   3.088
 7715TIP3   OH223089   2.781   3.032   4.043
 7715TIP3    H123090   2.809   3.014   4.133
 7715TIP3    H223091   2.848   3.092   4.010
 7716TIP3   OH223092   1.170   5.404   2.971
 7716TIP3    H123093   1.240   5.447   3.021
 7716TIP3    H223094   1.097   5.466   2.975
 7717TIP3   OH223095   4.883   0.173   4.085
 7717TIP3    H123096   4.886   0.086   4.124
 7717TIP3    H223097   4.906   0.232   4.157
 7718TIP3   OH223098   3.109   4.032   5.801
 7718TIP3    H123099   3.122   4.114   5.848
 7718TIP3    H223100   3.062   4.056   5.722
 7719TIP3   OH223101   7.337   4.831   3.436
 7719TIP3    H123102   7.312   4.755   3.489
 7719TIP3    H223103   7.389   4.794   3.365
 7720TIP3   OH223104   7.135   2.736   3.047
 7720TIP3    H123105   7.109   2.828   3.037
 7720TIP3    H223106   7.078   2.688   2.986
 7721TIP3   OH223107   6.769   6.057   0.316
 7721TIP3    H123108   6.768   6.035   0.410
 7721TIP3    H223109   6.809   6.144   0.313
 7722TIP3   OH223110   7.229   5.300   2.546
 7722TIP3    H123111   7.179   5.275   2.624
 7722TIP3    H223112   7.171   5.360   2.499
 7723TIP3   OH223113   7.057   2.676   5.153
 7723TIP3    H123114   7.069   2.620   5.076
 7723TIP3    H223115   7.065   2.765   5.120
 7724TIP3   OH223116   1.476   4.535   1.674
 7724TIP3    H123117   1.455   4.564   1.586
 7724TIP3    H223118   1.564   4.497   1.667
 7725TIP3   OH223119   4.850   1.338   4.910
 7725TIP3    H123120   4.835   1.302   4.822
 7725TIP3    H223121   4.936   1.305   4.935
 7726TIP3   OH223122   0.611   1.969   1.494
 7726TIP3    H123123   0.590   1.908   1.564
 7726TIP3    H223124   0.700   1.999   1.514
 7727TIP3   OH223125   0.557   5.585   5.817
 7727TIP3    H123126   0.477   5.569   5.767
 7727TIP3    H223127   0.615   5.513   5.791
 7728TIP3   OH223128   2.803   4.552   2.168
 7728TIP3    H123129   2.776   4.564   2.259
 7728TIP3    H223130   2.830   4.640   2.140
 7729TIP3   OH223131   4.552   5.593   5.715
 7729TIP3    H123132   4.495   5.641   5.656
 7729TIP3    H223133   4.536   5.500   5.695
 7730TIP3   OH223134   6.969   2.277   0.137
 7730TIP3    H123135   7.025   2.238   0.205
 7730TIP3    H223136   6.979   2.219   0.062
 7731TIP3   OH223137   7.825   4.914   4.164
 7731TIP3    H123138   7.797   4.908   4.073
 7731TIP3    H223139   7.783   4.993   4.198
 7732TIP3   OH223140   4.049   2.471   4.103
 7732TIP3    H123141   4.143   2.476   4.116
 7732TIP3    H223142   4.036   2.499   4.012
 7733TIP3   OH223143   5.940   7.400   1.469
 7733TIP3    H123144   5.949   7.415   1.375
 7733TIP3    H223145   5.930   7.305   1.477
 7734TIP3   OH223146   8.264   4.381   1.655
 7734TIP3    H123147   8.307   4.467   1.650
 7734TIP3    H223148   8.185   4.396   1.706
 7735TIP3   OH223149   3.781   4.081   0.494
 7735TIP3    H123150   3.748   4.022   0.561
 7735TIP3    H223151   3.802   4.024   0.420
 7736TIP3   OH223152   3.374   4.741   5.991
 7736TIP3    H123153   3.432   4.816   5.984
 7736TIP3    H223154   3.315   4.762   6.063
 7737TIP3   OH223155   8.231   1.556   6.807
 7737TIP3    H123156   8.231   1.640   6.760
 7737TIP3    H223157   8.250   1.491   6.739
 7738TIP3   OH223158   0.753   6.848   2.052
 7738TIP3    H123159   0.738   6.754   2.038
 7738TIP3    H223160   0.699   6.870   2.127
 7739TIP3   OH223161   3.458   5.179   1.610
 7739TIP3    H123162   3.374   5.204   1.649
 7739TIP3    H223163   3.483   5.254   1.556
 7740TIP3   OH223164   3.681   4.191   1.086
 7740TIP3    H123165   3.769   4.227   1.075
 7740TIP3    H223166   3.639   4.248   1.150
 7741TIP3   OH223167   6.983   0.991   2.718
 7741TIP3    H123168   7.001   0.898   2.707
 7741TIP3    H223169   6.907   0.995   2.775
 7742TIP3   OH223170   2.942   4.311   4.676
 7742TIP3    H123171   2.937   4.357   4.592
 7742TIP3    H223172   2.864   4.341   4.724
 7743TIP3   OH223173   7.654   6.116   4.842
 7743TIP3    H123174   7.574   6.160   4.871
 7743TIP3    H223175   7.624   6.038   4.795
 7744TIP3   OH223176   6.047   4.476   2.353
 7744TIP3    H123177   6.114   4.520   2.300
 7744TIP3    H223178   6.081   4.481   2.443
 7745TIP3   OH223179   4.511   3.435   4.561
 7745TIP3    H123180   4.511   3.343   4.587
 7745TIP3    H223181   4.601   3.465   4.575
 7746TIP3   OH223182   7.750   5.842   6.460
 7746TIP3    H123183   7.774   5.750   6.474
 7746TIP3    H223184   7.785   5.863   6.374
 7747TIP3   OH223185   1.166   1.226   2.633
 7747TIP3    H123186   1.245   1.249   2.682
 7747TIP3    H223187   1.181   1.136   2.605
 7748TIP3   OH223188   7.185   3.991   4.381
 7748TIP3    H123189   7.188   4.077   4.341
 7748TIP3    H223190   7.099   3.987   4.424
 7749TIP3   OH223191   4.626   3.003   2.206
 7749TIP3    H123192   4.689   3.065   2.169
 7749TIP3    H223193   4.635   2.925   2.153
 7750TIP3   OH223194   7.800   7.689   5.200
 7750TIP3    H123195   7.817   7.599   5.225
 7750TIP3    H223196   7.806   7.689   5.104
 7751TIP3   OH223197   8.008   3.670   1.898
 7751TIP3    H123198   7.939   3.633   1.843
 7751TIP3    H223199   8.074   3.700   1.837
 7752TIP3   OH223200   3.844   0.555   2.150
 7752TIP3    H123201   3.884   0.528   2.232
 7752TIP3    H223202   3.892   0.508   2.082
 7753TIP3   OH223203   6.231   1.083   2.909
 7753TIP3    H123204   6.276   1.140   2.972
 7753TIP3    H223205   6.182   1.143   2.854
 7754TIP3   OH223206   3.858   2.734   5.070
 7754TIP3    H123207   3.914   2.772   5.002
 7754TIP3    H223208   3.843   2.644   5.040
 7755TIP3   OH223209   3.108   1.744   2.321
 7755TIP3    H123210   3.077   1.827   2.357
 7755TIP3    H223211   3.085   1.678   2.387
 7756TIP3   OH223212   7.849   4.264   5.384
 7756TIP3    H123213   7.827   4.174   5.410
 7756TIP3    H223214   7.798   4.280   5.306
 7757TIP3   OH223215   5.450   2.156   4.738
 7757TIP3    H123216   5.486   2.193   4.818
 7757TIP3    H223217   5.384   2.093   4.768
 7758TIP3   OH223218   6.351   0.815   5.448
 7758TIP3    H123219   6.333   0.887   5.508
 7758TIP3    H223220   6.337   0.851   5.361
 7759TIP3   OH223221   2.204   7.093   1.451
 7759TIP3    H123222   2.138   7.085   1.383
 7759TIP3    H223223   2.286   7.065   1.409
 7760TIP3   OH223224   0.485   5.366   0.453
 7760TIP3    H123225   0.513   5.452   0.486
 7760TIP3    H223226   0.534   5.303   0.506
 7761TIP3   OH223227   1.204   3.854   4.356
 7761TIP3    H123228   1.211   3.852   4.261
 7761TIP3    H223229   1.275   3.911   4.385
 7762TIP3   OH223230   6.646   1.571   5.293
 7762TIP3    H123231   6.649   1.655   5.339
 7762TIP3    H223232   6.583   1.519   5.342
 7763TIP3   OH223233   5.480   0.721   3.319
 7763TIP3    H123234   5.572   0.745   3.335
 7763TIP3    H223235   5.457   0.664   3.392
 7764TIP3   OH223236   8.082   2.434   6.377
 7764TIP3    H123237   8.005   2.466   6.424
 7764TIP3    H223238   8.118   2.366   6.434
 7765TIP3   OH223239   2.576   1.088   2.061
 7765TIP3    H123240   2.648   1.077   1.998
 7765TIP3    H223241   2.618   1.122   2.140
 7766TIP3   OH223242   6.529   3.681   5.337
 7766TIP3    H123243   6.606   3.672   5.281
 7766TIP3    H223244   6.469   3.735   5.286
 7767TIP3   OH223245   2.228   0.712   5.914
 7767TIP3    H123246   2.144   0.750   5.939
 7767TIP3    H223247   2.266   0.776   5.854
 7768TIP3   OH223248   3.637   0.192   3.468
 7768TIP3    H123249   3.643   0.281   3.503
 7768TIP3    H223250   3.728   0.165   3.455
 7769TIP3   OH223251   5.546   7.375   2.466
 7769TIP3    H123252   5.545   7.411   2.377
 7769TIP3    H223253   5.602   7.435   2.515
 7770TIP3   OH223254   7.368   1.320   5.677
 7770TIP3    H123255   7.392   1.243   5.626
 7770TIP3    H223256   7.447   1.341   5.727
 7771TIP3   OH223257   6.750   4.851   4.200
 7771TIP3    H123258   6.786   4.939   4.188
 7771TIP3    H223259   6.827   4.795   4.203
 7772TIP3   OH223260   3.361   5.916   2.967
 7772TIP3    H123261   3.328   5.831   2.997
 7772TIP3    H223262   3.410   5.896   2.887
 7773TIP3   OH223263   4.936   3.494   6.342
 7773TIP3    H123264   4.971   3.423   6.287
 7773TIP3    H223265   4.909   3.561   6.279
 7774TIP3   OH223266   4.300   0.028   0.220
 7774TIP3    H123267   4.247   0.105   0.200
 7774TIP3    H223268   4.370   0.030   0.155
 7775TIP3   OH223269   2.825   2.295   0.938
 7775TIP3    H123270   2.817   2.387   0.916
 7775TIP3    H223271   2.885   2.259   0.872
 7776TIP3   OH223272   0.070   3.457   2.775
 7776TIP3    H123273   0.108   3.520   2.837
 7776TIP3    H223274   0.079   3.500   2.690
 7777TIP3   OH223275   2.820   7.523   5.066
 7777TIP3    H123276   2.897   7.467   5.058
 7777TIP3    H223277   2.792   7.538   4.976
 7778TIP3   OH223278   5.499   3.560   1.447
 7778TIP3    H123279   5.589   3.551   1.414
 7778TIP3    H223280   5.488   3.654   1.460
 7779TIP3   OH223281   4.597   4.507   4.452
 7779TIP3    H123282   4.572   4.500   4.544
 7779TIP3    H223283   4.521   4.473   4.404
 7780TIP3   OH223284   3.480   4.787   2.041
 7780TIP3    H123285   3.575   4.776   2.041
 7780TIP3    H223286   3.462   4.836   1.961
 7781TIP3   OH223287   6.601   0.343   5.731
 7781TIP3    H123288   6.599   0.276   5.663
 7781TIP3    H223289   6.609   0.426   5.684
 7782TIP3   OH223290   7.534   5.061   1.262
 7782TIP3    H123291   7.580   5.136   1.298
 7782TIP3    H223292   7.575   5.046   1.177
 7783TIP3   OH223293   4.803   4.232   5.134
 7783TIP3    H123294   4.859   4.187   5.071
 7783TIP3    H223295   4.793   4.320   5.098
 7784TIP3   OH223296   5.617   6.680   4.882
 7784TIP3    H123297   5.654   6.765   4.857
 7784TIP3    H223298   5.656   6.618   4.821
 7785TIP3   OH223299   6.736   2.710   2.172
 7785TIP3    H123300   6.715   2.802   2.159
 7785TIP3    H223301   6.652   2.668   2.189
 7786TIP3   OH223302   7.856   0.122   6.042
 7786TIP3    H123303   7.824   0.085   5.959
 7786TIP3    H223304   7.856   0.048   6.102
 7787TIP3   OH223305   4.189   3.011   6.195
 7787TIP3    H123306   4.240   2.996   6.275
 7787TIP3    H223307   4.132   2.934   6.188
 7788TIP3   OH223308   3.991   7.735   1.442
 7788TIP3    H123309   3.981   7.763   1.532
 7788TIP3    H223310   3.964   7.811   1.390
 7789TIP3   OH223311   2.347   0.322   0.251
 7789TIP3    H123312   2.439   0.299   0.266
 7789TIP3    H223313   2.340   0.414   0.280
 7790TIP3   OH223314   4.492   5.976   6.470
 7790TIP3    H123315   4.516   5.976   6.377
 7790TIP3    H223316   4.552   5.913   6.510
 7791TIP3   OH223317   3.664   4.760   3.048
 7791TIP3    H123318   3.750   4.717   3.043
 7791TIP3    H223319   3.606   4.695   3.087
 7792TIP3   OH223320   0.501   1.357   5.987
 7792TIP3    H123321   0.550   1.407   5.922
 7792TIP3    H223322   0.563   1.292   6.020
 7793TIP3   OH223323   3.216   6.306   1.264
 7793TIP3    H123324   3.296   6.318   1.315
 7793TIP3    H223325   3.246   6.274   1.179
 7794TIP3   OH223326   3.730   6.121   2.013
 7794TIP3    H123327   3.788   6.129   2.089
 7794TIP3    H223328   3.657   6.069   2.045
 7795TIP3   OH223329   6.130   0.741   1.972
 7795TIP3    H123330   6.215   0.765   2.010
 7795TIP3    H223331   6.103   0.818   1.924
 7796TIP3   OH223332   6.245   3.218   0.960
 7796TIP3    H123333   6.187   3.204   0.885
 7796TIP3    H223334   6.292   3.299   0.939
 7797TIP3   OH223335   2.262  -0.013   4.178
 7797TIP3    H123336   2.320   0.063   4.180
 7797TIP3    H223337   2.189   0.015   4.123
 7798TIP3   OH223338   3.058   5.311   1.391
 7798TIP3    H123339   3.141   5.358   1.401
 7798TIP3    H223340   3.076   5.223   1.423
 7799TIP3   OH223341   6.899   0.639   3.705
 7799TIP3    H123342   6.830   0.572   3.708
 7799TIP3    H223343   6.854   0.718   3.677
 7800TIP3   OH223344   0.675   6.066   0.073
 7800TIP3    H123345   0.581   6.086   0.081
 7800TIP3    H223346   0.684   5.979   0.110
 7801TIP3   OH223347   4.527   7.164   3.181
 7801TIP3    H123348   4.607   7.115   3.160
 7801TIP3    H223349   4.559   7.249   3.211
 7802TIP3   OH223350   3.690   4.406   0.017
 7802TIP3    H123351   3.665   4.327   0.067
 7802TIP3    H223352   3.680   4.477   0.080
 7803TIP3   OH223353   3.763   6.259   1.800
 7803TIP3    H123354   3.749   6.200   1.875
 7803TIP3    H223355   3.689   6.320   1.804
 7804TIP3   OH223356   0.379   6.963   2.089
 7804TIP3    H123357   0.348   7.050   2.117
 7804TIP3    H223358   0.457   6.947   2.143
 7805TIP3   OH223359   5.260   6.644   4.567
 7805TIP3    H123360   5.192   6.691   4.616
 7805TIP3    H223361   5.342   6.681   4.598
 7806TIP3   OH223362   1.027   0.291   3.372
 7806TIP3    H123363   1.042   0.213   3.318
 7806TIP3    H223364   1.009   0.256   3.460
 7807TIP3   OH223365   3.752   6.238   1.487
 7807TIP3    H123366   3.809   6.239   1.564
 7807TIP3    H223367   3.750   6.328   1.456
 7808TIP3   OH223368   5.773   0.463   3.335
 7808TIP3    H123369   5.691   0.479   3.381
 7808TIP3    H223370   5.754   0.389   3.277
 7809TIP3   OH223371   6.590   6.622   1.441
 7809TIP3    H123372   6.680   6.595   1.425
 7809TIP3    H223373   6.578   6.699   1.386
 7810TIP3   OH223374   0.183   3.727   4.272
 7810TIP3    H123375   0.168   3.667   4.345
 7810TIP3    H223376   0.120   3.797   4.285
 7811TIP3   OH223377   8.146   3.418   4.928
 7811TIP3    H123378   8.210   3.422   4.857
 7811TIP3    H223379   8.076   3.478   4.900
 7812TIP3   OH223380   4.865   2.849   4.069
 7812TIP3    H123381   4.913   2.932   4.064
 7812TIP3    H223382   4.818   2.853   4.152
 7813TIP3   OH223383   3.570   3.912   2.011
 7813TIP3    H123384   3.608   3.945   2.092
 7813TIP3    H223385   3.545   3.821   2.031
 7814TIP3   OH223386   4.466   4.783   1.393
 7814TIP3    H123387   4.492   4.873   1.414
 7814TIP3    H223388   4.373   4.789   1.370
 7815TIP3   OH223389   7.317   7.395   0.822
 7815TIP3    H123390   7.281   7.384   0.909
 7815TIP3    H223391   7.245   7.429   0.769
 7816TIP3   OH223392   4.741   2.106   2.433
 7816TIP3    H123393   4.692   2.115   2.514
 7816TIP3    H223394   4.674   2.087   2.367
 7817TIP3   OH223395   6.089   0.037   2.376
 7817TIP3    H123396   6.035   0.052   2.298
 7817TIP3    H223397   6.142  -0.040   2.354
 7818TIP3   OH223398   2.124   0.855   1.021
 7818TIP3    H123399   2.076   0.777   0.992
 7818TIP3    H223400   2.128   0.847   1.116
 7819TIP3   OH223401   6.045   7.127   5.998
 7819TIP3    H123402   6.106   7.058   5.971
 7819TIP3    H223403   5.973   7.080   6.039
 7820TIP3   OH223404   1.099   6.046   4.962
 7820TIP3    H123405   1.102   6.116   5.028
 7820TIP3    H223406   1.092   5.965   5.013
 7821TIP3   OH223407   0.751   1.869   3.726
 7821TIP3    H123408   0.771   1.832   3.812
 7821TIP3    H223409   0.783   1.803   3.664
 7822TIP3   OH223410   8.033   6.580   6.625
 7822TIP3    H123411   8.042   6.582   6.721
 7822TIP3    H223412   8.074   6.662   6.596
 7823TIP3   OH223413   1.571   3.176   1.217
 7823TIP3    H123414   1.636   3.156   1.283
 7823TIP3    H223415   1.620   3.215   1.145
 7824TIP3   OH223416   3.402   7.734   3.756
 7824TIP3    H123417   3.401   7.667   3.824
 7824TIP3    H223418   3.404   7.817   3.804
 7825TIP3   OH223419   7.136   6.705   6.425
 7825TIP3    H123420   7.195   6.650   6.478
 7825TIP3    H223421   7.072   6.644   6.390
 7826TIP3   OH223422   2.818   3.779   1.555
 7826TIP3    H123423   2.884   3.750   1.492
 7826TIP3    H223424   2.742   3.801   1.501
 7827TIP3   OH223425   7.364   5.496   3.554
 7827TIP3    H123426   7.440   5.438   3.543
 7827TIP3    H223427   7.329   5.507   3.466
 7828TIP3   OH223428   6.960   5.867   0.740
 7828TIP3    H123429   7.035   5.825   0.697
 7828TIP3    H223430   6.900   5.887   0.668
 7829TIP3   OH223431   5.788   2.650   4.059
 7829TIP3    H123432   5.821   2.689   4.140
 7829TIP3    H223433   5.699   2.682   4.051
 7830TIP3   OH223434   7.616   4.274   6.224
 7830TIP3    H123435   7.595   4.203   6.163
 7830TIP3    H223436   7.679   4.235   6.284
 7831TIP3   OH223437   1.997   1.622   6.587
 7831TIP3    H123438   2.003   1.706   6.631
 7831TIP3    H223439   2.028   1.639   6.498
 7832TIP3   OH223440   2.337   4.142   5.528
 7832TIP3    H123441   2.385   4.084   5.586
 7832TIP3    H223442   2.403   4.203   5.494
 7833TIP3   OH223443   7.290   5.743   5.286
 7833TIP3    H123444   7.238   5.815   5.322
 7833TIP3    H223445   7.362   5.785   5.240
 7834TIP3   OH223446   2.224   5.262   0.256
 7834TIP3    H123447   2.301   5.311   0.228
 7834TIP3    H223448   2.198   5.212   0.179
 7835TIP3   OH223449   5.769   4.224   2.179
 7835TIP3    H123450   5.756   4.292   2.246
 7835TIP3    H223451   5.807   4.151   2.227
 7836TIP3   OH223452   3.139   4.658   4.261
 7836TIP3    H123453   3.076   4.593   4.292
 7836TIP3    H223454   3.099   4.742   4.283
 7837TIP3   OH223455   3.353   3.262   3.664
 7837TIP3    H123456   3.395   3.191   3.713
 7837TIP3    H223457   3.415   3.283   3.594
 7838TIP3   OH223458   0.376   0.431   5.019
 7838TIP3    H123459   0.327   0.349   5.012
 7838TIP3    H223460   0.328   0.492   4.962
 7839TIP3   OH223461   6.458   5.718   4.480
 7839TIP3    H123462   6.372   5.678   4.470
 7839TIP3    H223463   6.443   5.811   4.469
 7840TIP3   OH223464   0.617   5.069   6.403
 7840TIP3    H123465   0.622   5.153   6.357
 7840TIP3    H223466   0.689   5.073   6.466
 7841TIP3   OH223467   1.531   0.535   4.230
 7841TIP3    H123468   1.580   0.560   4.151
 7841TIP3    H223469   1.487   0.615   4.257
 7842TIP3   OH223470   2.227   3.423   0.412
 7842TIP3    H123471   2.312   3.430   0.455
 7842TIP3    H223472   2.190   3.341   0.445
 7843TIP3   OH223473   7.190   2.657   1.684
 7843TIP3    H123474   7.125   2.598   1.647
 7843TIP3    H223475   7.150   2.744   1.678
 7844TIP3   OH223476   5.375   5.507   5.479
 7844TIP3    H123477   5.342   5.471   5.561
 7844TIP3    H223478   5.449   5.451   5.456
 7845TIP3   OH223479   6.703   0.290   2.603
 7845TIP3    H123480   6.766   0.362   2.613
 7845TIP3    H223481   6.630   0.313   2.661
 7846TIP3   OH223482   3.010   6.472   4.898
 7846TIP3    H123483   3.049   6.413   4.962
 7846TIP3    H223484   3.078   6.483   4.831
 7847TIP3   OH223485   2.397   2.461   4.443
 7847TIP3    H123486   2.389   2.489   4.352
 7847TIP3    H223487   2.353   2.376   4.447
 7848TIP3   OH223488   0.916   7.232   0.664
 7848TIP3    H123489   0.965   7.161   0.706
 7848TIP3    H223490   0.981   7.278   0.611
 7849TIP3   OH223491   2.094   2.618   2.766
 7849TIP3    H123492   2.189   2.627   2.761
 7849TIP3    H223493   2.064   2.704   2.793
 7850TIP3   OH223494   5.296   5.717   2.580
 7850TIP3    H123495   5.292   5.623   2.601
 7850TIP3    H223496   5.207   5.748   2.592
 7851TIP3   OH223497   3.836   1.492   1.126
 7851TIP3    H123498   3.887   1.571   1.110
 7851TIP3    H223499   3.787   1.479   1.045
 7852TIP3   OH223500   2.654   6.649   5.843
 7852TIP3    H123501   2.730   6.620   5.894
 7852TIP3    H223502   2.692   6.688   5.764
 7853TIP3   OH223503   7.966   0.347   2.229
 7853TIP3    H123504   7.913   0.284   2.278
 7853TIP3    H223505   7.932   0.343   2.140
 7854TIP3   OH223506   7.988   0.151   1.982
 7854TIP3    H123507   8.058   0.131   1.920
 7854TIP3    H223508   7.975   0.246   1.974
 7855TIP3   OH223509   0.100   0.441   5.352
 7855TIP3    H123510   0.094   0.528   5.314
 7855TIP3    H223511   0.031   0.391   5.309
 7856TIP3   OH223512   0.987   4.325   4.695
 7856TIP3    H123513   0.935   4.262   4.644
 7856TIP3    H223514   0.998   4.282   4.780
 7857TIP3   OH223515   3.482   2.491   2.166
 7857TIP3    H123516   3.570   2.461   2.146
 7857TIP3    H223517   3.495   2.569   2.221
 7858TIP3   OH223518   3.162   5.793   5.571
 7858TIP3    H123519   3.070   5.783   5.547
 7858TIP3    H223520   3.202   5.836   5.495
 7859TIP3   OH223521   3.111   4.597   5.277
 7859TIP3    H123522   3.118   4.672   5.336
 7859TIP3    H223523   3.165   4.621   5.202
 7860TIP3   OH223524   0.100   0.369   4.642
 7860TIP3    H123525   0.068   0.391   4.554
 7860TIP3    H223526   0.043   0.298   4.671
 7861TIP3   OH223527   3.208   6.918   6.779
 7861TIP3    H123528   3.160   6.963   6.849
 7861TIP3    H223529   3.157   6.936   6.700
 7862TIP3   OH223530   6.461   2.502   0.835
 7862TIP3    H123531   6.427   2.421   0.871
 7862TIP3    H223532   6.398   2.569   0.862
 7863TIP3   OH223533   0.660   2.925   5.801
 7863TIP3    H123534   0.686   3.016   5.789
 7863TIP3    H223535   0.566   2.929   5.822
 7864TIP3   OH223536   2.364   0.278   2.145
 7864TIP3    H123537   2.428   0.316   2.083
 7864TIP3    H223538   2.354   0.346   2.212
 7865TIP3   OH223539   7.765   1.118   2.279
 7865TIP3    H123540   7.707   1.130   2.204
 7865TIP3    H223541   7.775   1.024   2.288
 7866TIP3   OH223542   7.769   2.761   2.080
 7866TIP3    H123543   7.854   2.805   2.083
 7866TIP3    H223544   7.777   2.697   2.009
 7867TIP3   OH223545   7.823   2.072   6.289
 7867TIP3    H123546   7.900   2.018   6.300
 7867TIP3    H223547   7.752   2.010   6.270
 7868TIP3   OH223548   5.171   5.264   6.748
 7868TIP3    H123549   5.201   5.337   6.693
 7868TIP3    H223550   5.139   5.305   6.828
 7869TIP3   OH223551   5.455   2.463   0.268
 7869TIP3    H123552   5.518   2.432   0.204
 7869TIP3    H223553   5.491   2.436   0.353
 7870TIP3   OH223554   4.238   2.892   0.538
 7870TIP3    H123555   4.235   2.883   0.443
 7870TIP3    H223556   4.313   2.950   0.554
 7871TIP3   OH223557   0.296   3.367   4.690
 7871TIP3    H123558   0.353   3.439   4.717
 7871TIP3    H223559   0.305   3.302   4.760
 7872TIP3   OH223560   6.164   4.157   6.604
 7872TIP3    H123561   6.215   4.215   6.659
 7872TIP3    H223562   6.073   4.181   6.619
 7873TIP3   OH223563   5.398   7.326   5.689
 7873TIP3    H123564   5.329   7.393   5.690
 7873TIP3    H223565   5.480   7.376   5.692
 7874TIP3   OH223566   4.210   0.842   0.793
 7874TIP3    H123567   4.122   0.880   0.788
 7874TIP3    H223568   4.263   0.897   0.736
 7875TIP3   OH223569   3.103   5.046   1.409
 7875TIP3    H123570   3.110   5.002   1.494
 7875TIP3    H223571   3.168   5.002   1.354
 7876TIP3   OH223572   0.184   7.599   4.885
 7876TIP3    H123573   0.092   7.574   4.878
 7876TIP3    H223574   0.219   7.587   4.797
 7877TIP3   OH223575   2.471   0.785   5.716
 7877TIP3    H123576   2.498   0.695   5.734
 7877TIP3    H223577   2.521   0.810   5.638
 7878TIP3   OH223578  -0.017   2.310   1.796
 7878TIP3    H123579   0.045   2.266   1.739
 7878TIP3    H223580   0.002   2.403   1.785
 7879TIP3   OH223581   6.505   0.542   2.107
 7879TIP3    H123582   6.420   0.539   2.063
 7879TIP3    H223583   6.519   0.634   2.128
 7880TIP3   OH223584   5.243   6.786   5.252
 7880TIP3    H123585   5.175   6.841   5.292
 7880TIP3    H223586   5.314   6.846   5.231
 7881TIP3   OH223587   5.039   5.383   4.806
 7881TIP3    H123588   5.070   5.412   4.892
 7881TIP3    H223589   5.090   5.434   4.744
 7882TIP3   OH223590   4.195   4.805   0.385
 7882TIP3    H123591   4.194   4.723   0.334
 7882TIP3    H223592   4.288   4.825   0.394
 7883TIP3   OH223593   0.979   2.402   4.759
 7883TIP3    H123594   1.056   2.345   4.767
 7883TIP3    H223595   0.950   2.416   4.849
 7884TIP3   OH223596   1.869   3.804   4.678
 7884TIP3    H123597   1.938   3.744   4.652
 7884TIP3    H223598   1.908   3.854   4.751
 7885TIP3   OH223599   0.114   4.782   2.455
 7885TIP3    H123600   0.045   4.802   2.518
 7885TIP3    H223601   0.178   4.852   2.466
 7886TIP3   OH223602   6.973   0.571   2.386
 7886TIP3    H123603   6.878   0.575   2.376
 7886TIP3    H223604   6.996   0.481   2.363
 7887TIP3   OH223605   0.334   1.097   4.573
 7887TIP3    H123606   0.271   1.118   4.503
 7887TIP3    H223607   0.378   1.180   4.591
 7888TIP3   OH223608   6.264   6.668   5.603
 7888TIP3    H123609   6.194   6.604   5.593
 7888TIP3    H223610   6.339   6.617   5.634
 7889TIP3   OH223611   5.885   3.864   0.886
 7889TIP3    H123612   5.894   3.795   0.951
 7889TIP3    H223613   5.822   3.925   0.924
 7890TIP3   OH223614   7.646   4.187   0.681
 7890TIP3    H123615   7.711   4.233   0.627
 7890TIP3    H223616   7.667   4.213   0.771
 7891TIP3   OH223617   1.748   4.850   0.131
 7891TIP3    H123618   1.683   4.827   0.065
 7891TIP3    H223619   1.708   4.824   0.214
 7892TIP3   OH223620   5.859   0.099   2.535
 7892TIP3    H123621   5.793   0.059   2.479
 7892TIP3    H223622   5.942   0.061   2.506
 7893TIP3   OH223623   2.086   5.071   0.824
 7893TIP3    H123624   2.178   5.050   0.841
 7893TIP3    H223625   2.073   5.050   0.732
 7894TIP3   OH223626   5.700   7.832   4.499
 7894TIP3    H123627   5.689   7.757   4.441
 7894TIP3    H223628   5.763   7.802   4.565
 7895TIP3   OH223629   3.127   1.831   5.394
 7895TIP3    H123630   3.062   1.874   5.449
 7895TIP3    H223631   3.103   1.853   5.304
 7896TIP3   OH223632   8.096   2.957   4.278
 7896TIP3    H123633   8.096   2.927   4.187
 7896TIP3    H223634   8.173   3.012   4.285
 7897TIP3   OH223635   0.981   7.407   0.226
 7897TIP3    H123636   1.053   7.359   0.267
 7897TIP3    H223637   0.990   7.387   0.133
 7898TIP3   OH223638   3.444   1.392   5.206
 7898TIP3    H123639   3.436   1.485   5.184
 7898TIP3    H223640   3.365   1.352   5.170
 7899TIP3   OH223641   2.084   2.050   6.152
 7899TIP3    H123642   1.990   2.063   6.149
 7899TIP3    H223643   2.096   1.957   6.168
 7900TIP3   OH223644   7.969   5.219   1.840
 7900TIP3    H123645   7.880   5.251   1.825
 7900TIP3    H223646   8.025   5.294   1.819
 7901TIP3   OH223647   2.337   0.441   2.359
 7901TIP3    H123648   2.358   0.532   2.382
 7901TIP3    H223649   2.316   0.400   2.443
 7902TIP3   OH223650   4.022   2.149   1.889
 7902TIP3    H123651   4.047   2.098   1.812
 7902TIP3    H223652   4.035   2.240   1.862
 7903TIP3   OH223653   3.772   2.968   4.335
 7903TIP3    H123654   3.723   3.004   4.260
 7903TIP3    H223655   3.756   3.030   4.406
 7904TIP3   OH223656   5.417   6.492   3.222
 7904TIP3    H123657   5.495   6.536   3.256
 7904TIP3    H223658   5.390   6.433   3.292
 7905TIP3   OH223659   6.160   2.672   0.599
 7905TIP3    H123660   6.074   2.714   0.606
 7905TIP3    H223661   6.181   2.646   0.689
 7906TIP3   OH223662   0.397   6.643   5.084
 7906TIP3    H123663   0.308   6.650   5.120
 7906TIP3    H223664   0.454   6.661   5.159
 7907TIP3   OH223665   6.524   6.172   3.631
 7907TIP3    H123666   6.549   6.090   3.674
 7907TIP3    H223667   6.472   6.218   3.697
 7908TIP3   OH223668   1.419   6.791   3.085
 7908TIP3    H123669   1.378   6.791   2.998
 7908TIP3    H223670   1.460   6.877   3.092
 7909TIP3   OH223671   5.884   5.217   3.025
 7909TIP3    H123672   5.924   5.238   3.109
 7909TIP3    H223673   5.845   5.130   3.037
 7910TIP3   OH223674   7.972   0.650   2.273
 7910TIP3    H123675   8.006   0.661   2.362
 7910TIP3    H223676   7.960   0.556   2.263
 7911TIP3   OH223677   3.289   3.387   0.349
 7911TIP3    H123678   3.218   3.404   0.287
 7911TIP3    H223679   3.356   3.342   0.298
 7912TIP3   OH223680   6.786   0.176   5.604
 7912TIP3    H123681   6.756   0.265   5.587
 7912TIP3    H223682   6.841   0.155   5.528
 7913TIP3   OH223683   3.638   4.705   5.713
 7913TIP3    H123684   3.603   4.631   5.762
 7913TIP3    H223685   3.689   4.755   5.776
 7914TIP3   OH223686   4.600   7.208   2.763
 7914TIP3    H123687   4.640   7.275   2.818
 7914TIP3    H223688   4.616   7.126   2.809
 7915TIP3   OH223689   7.896   3.443   6.126
 7915TIP3    H123690   7.974   3.447   6.182
 7915TIP3    H223691   7.823   3.458   6.185
 7916TIP3   OH223692   5.292   5.353   3.101
 7916TIP3    H123693   5.387   5.343   3.104
 7916TIP3    H223694   5.259   5.274   3.145
 7917TIP3   OH223695   4.227   6.027   1.448
 7917TIP3    H123696   4.218   6.046   1.541
 7917TIP3    H223697   4.152   5.972   1.427
 7918TIP3   OH223698   0.894   3.455   2.142
 7918TIP3    H123699   0.815   3.509   2.143
 7918TIP3    H223700   0.882   3.393   2.213
 7919TIP3   OH223701   2.253   1.657   4.180
 7919TIP3    H123702   2.199   1.700   4.246
 7919TIP3    H223703   2.335   1.707   4.181
 7920TIP3   OH223704   8.036   7.455   1.313
 7920TIP3    H123705   8.016   7.548   1.301
 7920TIP3    H223706   8.040   7.420   1.224
 7921TIP3   OH223707   1.588   5.582   2.641
 7921TIP3    H123708   1.532   5.628   2.704
 7921TIP3    H223709   1.577   5.631   2.559
 7922TIP3   OH223710   5.217   3.240   2.764
 7922TIP3    H123711   5.249   3.236   2.854
 7922TIP3    H223712   5.128   3.272   2.770
 7923TIP3   OH223713   6.288   0.618   2.347
 7923TIP3    H123714   6.251   0.531   2.332
 7923TIP3    H223715   6.346   0.608   2.422
 7924TIP3   OH223716   1.743   6.273   5.659
 7924TIP3    H123717   1.679   6.209   5.693
 7924TIP3    H223718   1.805   6.221   5.609
 7925TIP3   OH223719   1.145   0.588   1.566
 7925TIP3    H123720   1.127   0.678   1.591
 7925TIP3    H223721   1.144   0.539   1.648
 7926TIP3   OH223722   6.038   2.241   2.593
 7926TIP3    H123723   6.024   2.189   2.672
 7926TIP3    H223724   5.957   2.232   2.543
 7927TIP3   OH223725   3.429   5.131   1.250
 7927TIP3    H123726   3.444   5.208   1.304
 7927TIP3    H223727   3.510   5.082   1.254
 7928TIP3   OH223728   5.592   4.428   5.140
 7928TIP3    H123729   5.575   4.367   5.211
 7928TIP3    H223730   5.675   4.398   5.102
 7929TIP3   OH223731   2.482   6.893   3.689
 7929TIP3    H123732   2.455   6.957   3.755
 7929TIP3    H223733   2.538   6.832   3.738
 7930TIP3   OH223734   4.690   3.706   2.103
 7930TIP3    H123735   4.612   3.748   2.066
 7930TIP3    H223736   4.740   3.677   2.027
 7931TIP3   OH223737   6.219   3.740   0.575
 7931TIP3    H123738   6.272   3.752   0.654
 7931TIP3    H223739   6.137   3.701   0.607
 7932TIP3   OH223740   4.389   5.311   5.980
 7932TIP3    H123741   4.477   5.315   6.017
 7932TIP3    H223742   4.341   5.382   6.023
 7933TIP3   OH223743   6.502   5.989   2.847
 7933TIP3    H123744   6.581   5.963   2.800
 7933TIP3    H223745   6.506   6.085   2.852
 7934TIP3   OH223746   0.872   7.095   2.136
 7934TIP3    H123747   0.872   7.002   2.112
 7934TIP3    H223748   0.784   7.110   2.171
 7935TIP3   OH223749   0.934   4.656   4.697
 7935TIP3    H123750   0.889   4.651   4.613
 7935TIP3    H223751   1.027   4.656   4.674
 7936TIP3   OH223752   8.079   6.290   1.820
 7936TIP3    H123753   8.152   6.265   1.764
 7936TIP3    H223754   8.104   6.374   1.857
 7937TIP3   OH223755   5.080   1.882   0.201
 7937TIP3    H123756   5.155   1.874   0.260
 7937TIP3    H223757   5.118   1.911   0.118
 7938TIP3   OH223758   6.778   7.281   5.942
 7938TIP3    H123759   6.859   7.297   5.990
 7938TIP3    H223760   6.777   7.186   5.928
 7939TIP3   OH223761   4.247   6.153   3.296
 7939TIP3    H123762   4.290   6.102   3.228
 7939TIP3    H223763   4.189   6.091   3.341
 7940TIP3   OH223764   7.729   5.983   0.027
 7940TIP3    H123765   7.798   5.952   0.086
 7940TIP3    H223766   7.648   5.967   0.075
 7941TIP3   OH223767   2.860   6.187   4.274
 7941TIP3    H123768   2.953   6.172   4.290
 7941TIP3    H223769   2.854   6.281   4.257
 7942TIP3   OH223770   1.870   2.279   1.262
 7942TIP3    H123771   1.825   2.344   1.315
 7942TIP3    H223772   1.949   2.324   1.231
 7943TIP3   OH223773   6.377   5.585   3.777
 7943TIP3    H123774   6.380   5.546   3.864
 7943TIP3    H223775   6.466   5.574   3.742
 7944TIP3   OH223776   5.190   5.315   2.861
 7944TIP3    H123777   5.236   5.346   2.939
 7944TIP3    H223778   5.247   5.247   2.825
 7945TIP3   OH223779   4.155   1.169   6.757
 7945TIP3    H123780   4.065   1.161   6.727
 7945TIP3    H223781   4.168   1.263   6.770
 7946TIP3   OH223782   5.275   7.154   4.406
 7946TIP3    H123783   5.257   7.080   4.463
 7946TIP3    H223784   5.302   7.115   4.323
 7947TIP3   OH223785   4.413   0.561   4.519
 7947TIP3    H123786   4.481   0.580   4.583
 7947TIP3    H223787   4.429   0.470   4.492
 7948TIP3   OH223788   4.250   7.694   6.656
 7948TIP3    H123789   4.238   7.728   6.567
 7948TIP3    H223790   4.301   7.761   6.701
 7949TIP3   OH223791   3.976   0.492   5.187
 7949TIP3    H123792   4.048   0.540   5.228
 7949TIP3    H223793   3.912   0.481   5.258
 7950TIP3   OH223794   2.792   3.961   3.038
 7950TIP3    H123795   2.776   3.952   2.944
 7950TIP3    H223796   2.867   4.020   3.044
 7951TIP3   OH223797   7.640   4.698   5.029
 7951TIP3    H123798   7.591   4.691   4.947
 7951TIP3    H223799   7.648   4.792   5.044
 7952TIP3   OH223800   5.546   3.580   0.737
 7952TIP3    H123801   5.588   3.495   0.722
 7952TIP3    H223802   5.488   3.565   0.813
 7953TIP3   OH223803   7.291   5.447   1.360
 7953TIP3    H123804   7.289   5.356   1.390
 7953TIP3    H223805   7.299   5.441   1.265
 7954TIP3   OH223806   7.740   7.172   0.101
 7954TIP3    H123807   7.750   7.077   0.098
 7954TIP3    H223808   7.828   7.205   0.121
 7955TIP3   OH223809   1.798   7.545   1.884
 7955TIP3    H123810   1.754   7.495   1.815
 7955TIP3    H223811   1.824   7.627   1.842
 7956TIP3   OH223812   3.893   3.500   2.977
 7956TIP3    H123813   3.931   3.567   3.033
 7956TIP3    H223814   3.932   3.514   2.891
 7957TIP3   OH223815   4.459   6.182   0.791
 7957TIP3    H123816   4.451   6.096   0.750
 7957TIP3    H223817   4.535   6.174   0.849
 7958TIP3   OH223818   7.777   1.940   0.486
 7958TIP3    H123819   7.831   2.002   0.535
 7958TIP3    H223820   7.700   1.927   0.541
 7959TIP3   OH223821   5.882   2.805   3.758
 7959TIP3    H123822   5.828   2.883   3.770
 7959TIP3    H223823   5.929   2.821   3.677
 7960TIP3   OH223824   1.327   5.889   0.818
 7960TIP3    H123825   1.284   5.859   0.738
 7960TIP3    H223826   1.409   5.929   0.788
 7961TIP3   OH223827   2.057   6.169   4.636
 7961TIP3    H123828   2.012   6.253   4.638
 7961TIP3    H223829   1.995   6.109   4.595
 7962TIP3   OH223830   7.612   4.843   3.090
 7962TIP3    H123831   7.622   4.918   3.148
 7962TIP3    H223832   7.586   4.881   3.006
 7963TIP3   OH223833   0.375   3.060   1.751
 7963TIP3    H123834   0.448   3.122   1.751
 7963TIP3    H223835   0.304   3.106   1.796
 7964TIP3   OH223836   3.193   0.468   5.519
 7964TIP3    H123837   3.265   0.458   5.456
 7964TIP3    H223838   3.114   0.452   5.467
 7965TIP3   OH223839   5.200   3.466   4.974
 7965TIP3    H123840   5.186   3.405   5.046
 7965TIP3    H223841   5.115   3.510   4.963
 7966TIP3   OH223842   7.255   4.227   0.358
 7966TIP3    H123843   7.291   4.253   0.274
 7966TIP3    H223844   7.165   4.259   0.357
 7967TIP3   OH223845   0.413   2.458   2.394
 7967TIP3    H123846   0.389   2.367   2.411
 7967TIP3    H223847   0.353   2.486   2.325
 7968TIP3   OH223848   3.192   2.814   3.770
 7968TIP3    H123849   3.201   2.740   3.711
 7968TIP3    H223850   3.121   2.866   3.732
 7969TIP3   OH223851   5.343   5.672   6.518
 7969TIP3    H123852   5.285   5.717   6.457
 7969TIP3    H223853   5.312   5.581   6.518
 7970TIP3   OH223854   5.402   0.421   4.727
 7970TIP3    H123855   5.390   0.430   4.633
 7970TIP3    H223856   5.317   0.392   4.760
 7971TIP3   OH223857   6.309   2.013   0.419
 7971TIP3    H123858   6.237   2.068   0.390
 7971TIP3    H223859   6.361   1.998   0.340
 7972TIP3   OH223860   3.070   1.515   0.349
 7972TIP3    H123861   3.025   1.536   0.267
 7972TIP3    H223862   3.073   1.598   0.397
 7973TIP3   OH223863   1.550   6.964   3.786
 7973TIP3    H123864   1.598   6.883   3.801
 7973TIP3    H223865   1.545   6.973   3.691
 7974TIP3   OH223866   0.891   5.520   4.271
 7974TIP3    H123867   0.984   5.540   4.283
 7974TIP3    H223868   0.864   5.478   4.353
 7975TIP3   OH223869   6.696   4.028   2.643
 7975TIP3    H123870   6.788   4.049   2.627
 7975TIP3    H223871   6.694   3.998   2.733
 7976TIP3   OH223872   8.193   2.773   1.244
 7976TIP3    H123873   8.274   2.804   1.285
 7976TIP3    H223874   8.222   2.722   1.169
 7977TIP3   OH223875   7.541   4.356   2.077
 7977TIP3    H123876   7.577   4.400   2.154
 7977TIP3    H223877   7.453   4.392   2.068
 7978TIP3   OH223878   5.043   2.270   2.124
 7978TIP3    H123879   5.126   2.224   2.137
 7978TIP3    H223880   4.985   2.204   2.086
 7979TIP3   OH223881   5.161   1.068   3.565
 7979TIP3    H123882   5.192   1.087   3.653
 7979TIP3    H223883   5.076   1.111   3.559
 7980TIP3   OH223884   8.089   4.784   1.084
 7980TIP3    H123885   8.029   4.713   1.063
 7980TIP3    H223886   8.077   4.847   1.013
 7981TIP3   OH223887   6.099   2.490   4.882
 7981TIP3    H123888   6.067   2.455   4.799
 7981TIP3    H223889   6.073   2.582   4.881
 7982TIP3   OH223890   7.527   1.814   2.801
 7982TIP3    H123891   7.481   1.732   2.781
 7982TIP3    H223892   7.539   1.813   2.896
 7983TIP3   OH223893   6.341   3.848   1.854
 7983TIP3    H123894   6.338   3.800   1.937
 7983TIP3    H223895   6.276   3.804   1.799
 7984TIP3   OH223896   6.680   7.072   5.208
 7984TIP3    H123897   6.629   7.003   5.165
 7984TIP3    H223898   6.710   7.031   5.290
 7985TIP3   OH223899   2.381   6.745   1.118
 7985TIP3    H123900   2.445   6.690   1.073
 7985TIP3    H223901   2.340   6.687   1.182
 7986TIP3   OH223902   2.522   7.417   6.478
 7986TIP3    H123903   2.549   7.508   6.492
 7986TIP3    H223904   2.438   7.409   6.523
 7987TIP3   OH223905   4.679   1.185   2.032
 7987TIP3    H123906   4.689   1.276   2.063
 7987TIP3    H223907   4.705   1.188   1.940
 7988TIP3   OH223908   1.973   0.872   6.058
 7988TIP3    H123909   2.003   0.954   6.018
 7988TIP3    H223910   1.935   0.822   5.985
 7989TIP3   OH223911   7.398   4.410   5.056
 7989TIP3    H123912   7.387   4.415   5.151
 7989TIP3    H223913   7.332   4.470   5.021
 7990TIP3   OH223914   5.478   3.918   0.139
 7990TIP3    H123915   5.450   3.959   0.221
 7990TIP3    H223916   5.530   3.842   0.167
 7991TIP3   OH223917   0.642   6.169   4.348
 7991TIP3    H123918   0.626   6.077   4.367
 7991TIP3    H223919   0.609   6.216   4.424
 7992TIP3   OH223920   7.186   6.527   5.763
 7992TIP3    H123921   7.154   6.574   5.840
 7992TIP3    H223922   7.108   6.485   5.727
 7993TIP3   OH223923   5.208   3.516   2.213
 7993TIP3    H123924   5.172   3.512   2.301
 7993TIP3    H223925   5.167   3.443   2.166
 7994TIP3   OH223926   3.507   6.611   6.253
 7994TIP3    H123927   3.525   6.572   6.339
 7994TIP3    H223928   3.574   6.678   6.242
 7995TIP3   OH223929   7.675   1.495   6.178
 7995TIP3    H123930   7.698   1.447   6.258
 7995TIP3    H223931   7.618   1.434   6.130
 7996TIP3   OH223932   5.536   4.650   2.513
 7996TIP3    H123933   5.622   4.662   2.473
 7996TIP3    H223934   5.530   4.717   2.581
 7997TIP3   OH223935   1.775   1.738   3.602
 7997TIP3    H123936   1.869   1.752   3.607
 7997TIP3    H223937   1.759   1.660   3.655
 7998TIP3   OH223938   2.471   0.861   2.163
 7998TIP3    H123939   2.552   0.814   2.179
 7998TIP3    H223940   2.498   0.944   2.123
 7999TIP3   OH223941   4.601   2.383   2.829
 7999TIP3    H123942   4.568   2.355   2.914
 7999TIP3    H223943   4.667   2.449   2.848
 8000TIP3   OH223944   4.723   6.149   6.014
 8000TIP3    H123945   4.809   6.110   6.033
 8000TIP3    H223946   4.680   6.084   5.958
 8001TIP3   OH223947   7.771   0.841   2.256
 8001TIP3    H123948   7.840   0.775   2.260
 8001TIP3    H223949   7.691   0.792   2.275
 8002TIP3   OH223950   5.054   0.846   2.505
 8002TIP3    H123951   4.990   0.917   2.494
 8002TIP3    H223952   5.047   0.823   2.597
 8003TIP3   OH223953   0.088   6.220   6.416
 8003TIP3    H123954   0.043   6.225   6.332
 8003TIP3    H223955   0.175   6.187   6.394
 8004TIP3   OH223956   8.290   3.953   3.106
 8004TIP3    H123957   8.322   3.972   3.018
 8004TIP3    H223958   8.198   3.930   3.094
 8005TIP3   OH223959   3.587   4.032   5.663
 8005TIP3    H123960   3.680   4.041   5.683
 8005TIP3    H223961   3.545   4.107   5.705
 8006TIP3   OH223962   2.646   0.360   4.843
 8006TIP3    H123963   2.552   0.377   4.851
 8006TIP3    H223964   2.652   0.270   4.811
 8007TIP3   OH223965   0.013   5.948   6.129
 8007TIP3    H123966   0.095   5.925   6.173
 8007TIP3    H223967   0.031   5.934   6.036
 8008TIP3   OH223968   2.973   6.784   2.117
 8008TIP3    H123969   2.926   6.832   2.049
 8008TIP3    H223970   2.968   6.692   2.089
 8009TIP3   OH223971   2.134   7.479   1.946
 8009TIP3    H123972   2.116   7.573   1.948
 8009TIP3    H223973   2.115   7.452   1.856
 8010TIP3   OH223974   5.546   6.021   5.509
 8010TIP3    H123975   5.512   6.093   5.563
 8010TIP3    H223976   5.527   5.943   5.561
 8011TIP3   OH223977   4.275   4.332   6.300
 8011TIP3    H123978   4.364   4.301   6.315
 8011TIP3    H223979   4.245   4.283   6.223
 8012TIP3   OH223980   2.340   6.742   1.698
 8012TIP3    H123981   2.359   6.707   1.611
 8012TIP3    H223982   2.308   6.666   1.747
 8013TIP3   OH223983   1.311   6.346   0.618
 8013TIP3    H123984   1.251   6.271   0.613
 8013TIP3    H223985   1.259   6.415   0.659
 8014TIP3   OH223986   5.036   4.820   6.096
 8014TIP3    H123987   5.005   4.750   6.153
 8014TIP3    H223988   4.972   4.890   6.107
 8015TIP3   OH223989   7.508   3.767   2.066
 8015TIP3    H123990   7.527   3.673   2.068
 8015TIP3    H223991   7.456   3.783   2.145
 8016TIP3   OH223992   2.422   3.710   2.476
 8016TIP3    H123993   2.472   3.753   2.407
 8016TIP3    H223994   2.455   3.747   2.557
 8017TIP3   OH223995   3.816   1.997   6.325
 8017TIP3    H123996   3.812   2.059   6.398
 8017TIP3    H223997   3.810   2.052   6.247
 8018TIP3   OH223998   7.530   6.732   2.611
 8018TIP3    H123999   7.474   6.711   2.686
 8018TIP3    H224000   7.560   6.647   2.578
 8019TIP3   OH224001   2.014   3.530   4.036
 8019TIP3    H124002   1.967   3.600   4.080
 8019TIP3    H224003   2.102   3.564   4.022
 8020TIP3   OH224004   3.027   0.581   3.194
 8020TIP3    H124005   3.039   0.666   3.152
 8020TIP3    H224006   3.064   0.592   3.282
 8021TIP3   OH224007   2.485   1.186   5.106
 8021TIP3    H124008   2.529   1.246   5.046
 8021TIP3    H224009   2.449   1.242   5.174
 8022TIP3   OH224010   3.708   0.797   4.389
 8022TIP3    H124011   3.696   0.708   4.421
 8022TIP3    H224012   3.715   0.851   4.468
 8023TIP3   OH224013   7.124   4.777   4.952
 8023TIP3    H124014   7.159   4.852   4.999
 8023TIP3    H224015   7.111   4.809   4.862
 8024TIP3   OH224016   5.150   6.282   0.990
 8024TIP3    H124017   5.166   6.192   0.962
 8024TIP3    H224018   5.201   6.336   0.930
 8025TIP3   OH224019   1.101   1.419   5.751
 8025TIP3    H124020   1.021   1.367   5.754
 8025TIP3    H224021   1.170   1.357   5.729
 8026TIP3   OH224022   0.895   2.952   1.970
 8026TIP3    H124023   0.910   3.000   1.889
 8026TIP3    H224024   0.955   2.990   2.033
 8027TIP3   OH224025   7.940   5.855   4.110
 8027TIP3    H124026   7.972   5.766   4.096
 8027TIP3    H224027   7.863   5.844   4.167
 8028TIP3   OH224028   3.574   7.132   6.316
 8028TIP3    H124029   3.585   7.100   6.227
 8028TIP3    H224030   3.511   7.073   6.356
 8029TIP3   OH224031   5.701   7.677   0.794
 8029TIP3    H124032   5.676   7.761   0.755
 8029TIP3    H224033   5.785   7.656   0.754
 8030TIP3   OH224034   6.454   0.843   4.347
 8030TIP3    H124035   6.458   0.832   4.252
 8030TIP3    H224036   6.540   0.814   4.378
 8031TIP3   OH224037   6.704   3.145   5.928
 8031TIP3    H124038   6.647   3.194   5.869
 8031TIP3    H224039   6.789   3.144   5.885
 8032TIP3   OH224040   7.477   3.658   3.186
 8032TIP3    H124041   7.447   3.607   3.111
 8032TIP3    H224042   7.399   3.702   3.219
 8033TIP3   OH224043   2.606   1.609   6.600
 8033TIP3    H124044   2.609   1.644   6.511
 8033TIP3    H224045   2.518   1.629   6.632
 8034TIP3   OH224046   1.898   7.570   5.885
 8034TIP3    H124047   1.973   7.517   5.858
 8034TIP3    H224048   1.913   7.655   5.843
 8035TIP3   OH224049   0.115   0.349   2.300
 8035TIP3    H124050   0.194   0.402   2.293
 8035TIP3    H224051   0.141   0.262   2.268
 8036TIP3   OH224052   5.075   3.170   6.389
 8036TIP3    H124053   4.990   3.126   6.399
 8036TIP3    H224054   5.091   3.210   6.475
 8037TIP3   OH224055   1.465   2.195   6.201
 8037TIP3    H124056   1.433   2.201   6.111
 8037TIP3    H224057   1.432   2.275   6.243
 8038TIP3   OH224058   1.444   3.208   1.536
 8038TIP3    H124059   1.443   3.296   1.499
 8038TIP3    H224060   1.395   3.155   1.473
 8039TIP3   OH224061   6.260   1.765   5.357
 8039TIP3    H124062   6.307   1.743   5.437
 8039TIP3    H224063   6.170   1.736   5.373
 8040TIP3   OH224064   5.838   2.133   1.858
 8040TIP3    H124065   5.844   2.052   1.807
 8040TIP3    H224066   5.771   2.185   1.813
 8041TIP3   OH224067   6.414   1.087   4.571
 8041TIP3    H124068   6.334   1.046   4.538
 8041TIP3    H224069   6.482   1.020   4.562
 8042TIP3   OH224070   2.430   1.609   2.128
 8042TIP3    H124071   2.369   1.557   2.076
 8042TIP3    H224072   2.378   1.642   2.201
 8043TIP3   OH224073   0.039   3.688   6.279
 8043TIP3    H124074   0.061   3.707   6.370
 8043TIP3    H224075   0.034   3.774   6.237
 8044TIP3   OH224076   0.640   4.089   2.125
 8044TIP3    H124077   0.558   4.136   2.112
 8044TIP3    H224078   0.677   4.125   2.205
 8045TIP3   OH224079   2.062   2.652   0.060
 8045TIP3    H124080   2.077   2.747   0.061
 8045TIP3    H224081   2.046   2.632  -0.033
 8046TIP3   OH224082   1.318   6.501   4.522
 8046TIP3    H124083   1.262   6.570   4.488
 8046TIP3    H224084   1.391   6.496   4.459
 8047TIP3   OH224085   4.389   4.034   5.286
 8047TIP3    H124086   4.449   3.964   5.312
 8047TIP3    H224087   4.439   4.115   5.299
 8048TIP3   OH224088   4.651   7.453   2.121
 8048TIP3    H124089   4.614   7.528   2.075
 8048TIP3    H224090   4.608   7.453   2.206
 8049TIP3   OH224091   4.025   3.383   1.298
 8049TIP3    H124092   3.962   3.348   1.361
 8049TIP3    H224093   4.037   3.314   1.234
 8050TIP3   OH224094   8.120   2.419   4.928
 8050TIP3    H124095   8.167   2.483   4.876
 8050TIP3    H224096   8.055   2.470   4.976
 8051TIP3   OH224097   5.301   1.641   1.200
 8051TIP3    H124098   5.250   1.697   1.142
 8051TIP3    H224099   5.247   1.632   1.279
 8052TIP3   OH224100   7.656   4.028   1.838
 8052TIP3    H124101   7.561   4.037   1.827
 8052TIP3    H224102   7.692   4.103   1.790
 8053TIP3   OH224103   4.533   6.666   5.695
 8053TIP3    H124104   4.555   6.756   5.721
 8053TIP3    H224105   4.482   6.676   5.615
 8054TIP3   OH224106   5.752   6.914   5.364
 8054TIP3    H124107   5.831   6.902   5.312
 8054TIP3    H224108   5.775   6.980   5.429
 8055TIP3   OH224109   0.907   7.520   3.910
 8055TIP3    H124110   0.871   7.464   3.979
 8055TIP3    H224111   0.857   7.601   3.915
 8056TIP3   OH224112   7.994   3.698   0.331
 8056TIP3    H124113   8.069   3.647   0.363
 8056TIP3    H224114   7.924   3.633   0.321
 8057TIP3   OH224115   7.604   3.906   1.010
 8057TIP3    H124116   7.574   3.822   0.974
 8057TIP3    H224117   7.528   3.964   1.000
 8058TIP3   OH224118   4.826   1.405   1.638
 8058TIP3    H124119   4.907   1.452   1.658
 8058TIP3    H224120   4.788   1.451   1.563
 8059TIP3   OH224121   7.387   7.751   5.007
 8059TIP3    H124122   7.410   7.718   4.920
 8059TIP3    H224123   7.365   7.843   4.993
 8060TIP3   OH224124   4.605   1.636   3.591
 8060TIP3    H124125   4.531   1.680   3.549
 8060TIP3    H224126   4.647   1.587   3.520
 8061TIP3   OH224127   3.405   4.030   3.381
 8061TIP3    H124128   3.426   3.993   3.296
 8061TIP3    H224129   3.345   4.102   3.362
 8062TIP3   OH224130   4.804   3.903   3.857
 8062TIP3    H124131   4.721   3.936   3.823
 8062TIP3    H224132   4.814   3.945   3.943
 8063TIP3   OH224133   5.627   2.665   6.604
 8063TIP3    H124134   5.619   2.758   6.582
 8063TIP3    H224135   5.615   2.661   6.698
 8064TIP3   OH224136   0.189   7.586   0.487
 8064TIP3    H124137   0.095   7.581   0.502
 8064TIP3    H224138   0.227   7.602   0.574
 8065TIP3   OH224139   0.398   6.620   5.661
 8065TIP3    H124140   0.452   6.560   5.609
 8065TIP3    H224141   0.440   6.620   5.748
 8066TIP3   OH224142   7.691   3.308   1.663
 8066TIP3    H124143   7.695   3.378   1.728
 8066TIP3    H224144   7.633   3.243   1.701
 8067TIP3   OH224145   0.518   1.802   2.575
 8067TIP3    H124146   0.475   1.865   2.632
 8067TIP3    H224147   0.596   1.775   2.624
 8068TIP3   OH224148   8.228   0.428   4.437
 8068TIP3    H124149   8.183   0.474   4.366
 8068TIP3    H224150   8.195   0.338   4.432
 8069TIP3   OH224151   4.049   0.827   2.589
 8069TIP3    H124152   4.026   0.755   2.647
 8069TIP3    H224153   4.057   0.786   2.502
 8070TIP3   OH224154   1.676   3.542   0.378
 8070TIP3    H124155   1.707   3.594   0.452
 8070TIP3    H224156   1.633   3.605   0.320
 8071TIP3   OH224157   2.130   5.953   2.368
 8071TIP3    H124158   2.071   6.022   2.338
 8071TIP3    H224159   2.131   5.889   2.297
 8072TIP3   OH224160   1.234   1.518   2.309
 8072TIP3    H124161   1.317   1.551   2.345
 8072TIP3    H224162   1.259   1.480   2.224
 8073TIP3   OH224163   0.771   6.373   2.809
 8073TIP3    H124164   0.778   6.333   2.722
 8073TIP3    H224165   0.711   6.315   2.856
 8074TIP3   OH224166   8.055   1.544   2.996
 8074TIP3    H124167   8.139   1.573   2.962
 8074TIP3    H224168   8.060   1.448   2.994
 8075TIP3   OH224169   2.078   7.366   5.839
 8075TIP3    H124170   2.072   7.373   5.744
 8075TIP3    H224171   2.171   7.357   5.858
 8076TIP3   OH224172   1.453   7.183   0.895
 8076TIP3    H124173   1.453   7.185   0.799
 8076TIP3    H224174   1.482   7.271   0.920
 8077TIP3   OH224175   6.809   6.878   4.905
 8077TIP3    H124176   6.776   6.789   4.896
 8077TIP3    H224177   6.903   6.867   4.924
 8078TIP3   OH224178   6.099   5.928   4.948
 8078TIP3    H124179   6.194   5.927   4.947
 8078TIP3    H224180   6.075   5.931   5.040
 8079TIP3   OH224181   2.847   6.227   6.640
 8079TIP3    H124182   2.813   6.157   6.583
 8079TIP3    H224183   2.769   6.267   6.678
 8080TIP3   OH224184   2.329   4.608   2.298
 8080TIP3    H124185   2.385   4.598   2.375
 8080TIP3    H224186   2.377   4.671   2.243
 8081TIP3   OH224187   2.301   4.671   5.965
 8081TIP3    H124188   2.259   4.596   6.006
 8081TIP3    H224189   2.369   4.633   5.908
 8082TIP3   OH224190   0.199   2.288   0.540
 8082TIP3    H124191   0.123   2.262   0.489
 8082TIP3    H224192   0.274   2.275   0.482
 8083TIP3   OH224193   4.636   0.116   0.212
 8083TIP3    H124194   4.600   0.175   0.145
 8083TIP3    H224195   4.611   0.156   0.295
 8084TIP3   OH224196   2.331   6.249   4.732
 8084TIP3    H124197   2.394   6.178   4.736
 8084TIP3    H224198   2.247   6.207   4.712
 8085TIP3   OH224199   6.896   0.499   4.610
 8085TIP3    H124200   6.942   0.577   4.580
 8085TIP3    H224201   6.836   0.478   4.539
 8086TIP3   OH224202   2.087   1.252   2.481
 8086TIP3    H124203   2.141   1.228   2.556
 8086TIP3    H224204   2.081   1.172   2.428
 8087TIP3   OH224205   1.940   0.300   3.748
 8087TIP3    H124206   1.861   0.251   3.724
 8087TIP3    H224207   1.951   0.364   3.679
 8088TIP3   OH224208   5.860   3.803   4.079
 8088TIP3    H124209   5.816   3.719   4.065
 8088TIP3    H224210   5.909   3.791   4.161
 8089TIP3   OH224211   1.672   5.829   1.474
 8089TIP3    H124212   1.578   5.825   1.491
 8089TIP3    H224213   1.679   5.822   1.379
 8090TIP3   OH224214   4.140   6.413   3.532
 8090TIP3    H124215   4.054   6.375   3.549
 8090TIP3    H224216   4.148   6.412   3.436
 8091TIP3   OH224217   4.538   2.139   0.540
 8091TIP3    H124218   4.514   2.209   0.600
 8091TIP3    H224219   4.555   2.063   0.597
 8092TIP3   OH224220   5.493   6.318   1.389
 8092TIP3    H124221   5.484   6.277   1.303
 8092TIP3    H224222   5.514   6.246   1.448
 8093TIP3   OH224223   1.080   4.541   5.223
 8093TIP3    H124224   1.162   4.500   5.250
 8093TIP3    H224225   1.058   4.600   5.296
 8094TIP3   OH224226   2.045   3.252   3.421
 8094TIP3    H124227   2.123   3.255   3.475
 8094TIP3    H224228   2.071   3.201   3.344
 8095TIP3   OH224229   5.081   3.530   2.906
 8095TIP3    H124230   5.012   3.578   2.952
 8095TIP3    H224231   5.039   3.500   2.825
 8096TIP3   OH224232   6.829   1.971   2.228
 8096TIP3    H124233   6.826   2.060   2.263
 8096TIP3    H224234   6.777   1.974   2.148
 8097TIP3   OH224235   1.243   1.405   3.283
 8097TIP3    H124236   1.215   1.396   3.191
 8097TIP3    H224237   1.249   1.314   3.314
 8098TIP3   OH224238   1.900   0.755   5.833
 8098TIP3    H124239   1.896   0.660   5.829
 8098TIP3    H224240   1.906   0.782   5.741
 8099TIP3   OH224241   4.051   2.201   2.308
 8099TIP3    H124242   3.968   2.248   2.316
 8099TIP3    H224243   4.115   2.257   2.351
 8100TIP3   OH224244   7.192   7.078   1.441
 8100TIP3    H124245   7.127   7.145   1.462
 8100TIP3    H224246   7.275   7.116   1.468
 8101TIP3   OH224247   1.853   6.318   0.339
 8101TIP3    H124248   1.765   6.352   0.329
 8101TIP3    H224249   1.863   6.303   0.433
 8102TIP3   OH224250   4.401   3.024   4.509
 8102TIP3    H124251   4.399   2.929   4.517
 8102TIP3    H224252   4.379   3.057   4.596
 8103TIP3   OH224253   3.716   5.805   6.211
 8103TIP3    H124254   3.775   5.853   6.269
 8103TIP3    H224255   3.646   5.868   6.192
 8104TIP3   OH224256   7.072   6.435   4.683
 8104TIP3    H124257   6.987   6.391   4.680
 8104TIP3    H224258   7.136   6.364   4.674
 8105TIP3   OH224259   4.276   6.297   2.880
 8105TIP3    H124260   4.276   6.325   2.972
 8105TIP3    H224261   4.199   6.341   2.842
 8106TIP3   OH224262   1.488   6.397   4.733
 8106TIP3    H124263   1.408   6.370   4.778
 8106TIP3    H224264   1.458   6.432   4.649
 8107TIP3   OH224265   1.959   0.801   4.478
 8107TIP3    H124266   2.042   0.824   4.518
 8107TIP3    H224267   1.983   0.763   4.393
 8108TIP3   OH224268   7.891   7.426   5.270
 8108TIP3    H124269   7.901   7.346   5.219
 8108TIP3    H224270   7.980   7.453   5.291
 8109TIP3   OH224271   3.361   7.621   0.465
 8109TIP3    H124272   3.452   7.608   0.491
 8109TIP3    H224273   3.358   7.596   0.373
 8110TIP3   OH224274   2.132   5.550   6.550
 8110TIP3    H124275   2.089   5.625   6.590
 8110TIP3    H224276   2.222   5.579   6.534
 8111TIP3   OH224277   1.834   1.153   5.843
 8111TIP3    H124278   1.859   1.228   5.789
 8111TIP3    H224279   1.792   1.092   5.782
 8112TIP3   OH224280   1.250   7.274   0.321
 8112TIP3    H124281   1.295   7.357   0.304
 8112TIP3    H224282   1.316   7.207   0.306
 8113TIP3   OH224283   5.722   6.931   1.901
 8113TIP3    H124284   5.664   6.872   1.949
 8113TIP3    H224285   5.683   6.937   1.814
 8114TIP3   OH224286   0.900   1.845   5.020
 8114TIP3    H124287   0.879   1.765   5.069
 8114TIP3    H224288   0.855   1.834   4.936
 8115TIP3   OH224289   1.299   6.663   4.979
 8115TIP3    H124290   1.391   6.690   4.979
 8115TIP3    H224291   1.267   6.685   4.892
 8116TIP3   OH224292   0.984   1.957   6.562
 8116TIP3    H124293   1.066   2.003   6.580
 8116TIP3    H224294   0.966   1.907   6.641
 8117TIP3   OH224295   6.334   0.791   2.672
 8117TIP3    H124296   6.352   0.802   2.766
 8117TIP3    H224297   6.279   0.713   2.667
 8118TIP3   OH224298   0.409   3.708   0.774
 8118TIP3    H124299   0.359   3.654   0.713
 8118TIP3    H224300   0.477   3.650   0.807
 8119TIP3   OH224301   0.827   4.122   4.612
 8119TIP3    H124302   0.876   4.059   4.560
 8119TIP3    H224303   0.748   4.140   4.561
 8120TIP3   OH224304   2.525   6.986   0.269
 8120TIP3    H124305   2.493   7.030   0.190
 8120TIP3    H224306   2.453   6.928   0.294
 8121TIP3   OH224307   4.371   1.362   0.559
 8121TIP3    H124308   4.442   1.328   0.612
 8121TIP3    H224309   4.297   1.304   0.578
 8122TIP3   OH224310   8.088   4.871   4.089
 8122TIP3    H124311   7.994   4.877   4.078
 8122TIP3    H224312   8.100   4.809   4.161
 8123TIP3   OH224313   1.182   4.679   4.536
 8123TIP3    H124314   1.275   4.663   4.519
 8123TIP3    H224315   1.138   4.652   4.455
 8124TIP3   OH224316   5.208   3.193   3.919
 8124TIP3    H124317   5.142   3.125   3.904
 8124TIP3    H224318   5.292   3.149   3.907
 8125TIP3   OH224319   7.515   3.112   5.298
 8125TIP3    H124320   7.429   3.139   5.266
 8125TIP3    H224321   7.555   3.193   5.329
 8126TIP3   OH224322   2.861   6.215   3.101
 8126TIP3    H124323   2.796   6.147   3.081
 8126TIP3    H224324   2.921   6.212   3.027
 8127TIP3   OH224325   5.278   3.781   1.441
 8127TIP3    H124326   5.254   3.768   1.532
 8127TIP3    H224327   5.196   3.806   1.398
 8128TIP3   OH224328   5.232   6.934   1.979
 8128TIP3    H124329   5.289   6.984   1.921
 8128TIP3    H224330   5.162   6.994   2.001
 8129TIP3   OH224331   5.301   2.000   5.685
 8129TIP3    H124332   5.327   2.025   5.774
 8129TIP3    H224333   5.302   1.904   5.687
 8130TIP3   OH224334   6.388   1.674   0.769
 8130TIP3    H124335   6.403   1.706   0.858
 8130TIP3    H224336   6.450   1.724   0.716
 8131TIP3   OH224337   4.871   7.758   4.308
 8131TIP3    H124338   4.789   7.800   4.281
 8131TIP3    H224339   4.909   7.727   4.226
 8132TIP3   OH224340   0.503   4.087   6.099
 8132TIP3    H124341   0.480   4.121   6.012
 8132TIP3    H224342   0.420   4.087   6.147
 8133TIP3   OH224343   0.650   6.478   1.845
 8133TIP3    H124344   0.611   6.440   1.767
 8133TIP3    H224345   0.584   6.466   1.913
 8134TIP3   OH224346   3.622   1.010   6.025
 8134TIP3    H124347   3.680   1.084   6.040
 8134TIP3    H224348   3.580   1.029   5.941
 8135TIP3   OH224349   8.135   7.499   2.846
 8135TIP3    H124350   8.041   7.514   2.855
 8135TIP3    H224351   8.148   7.411   2.881
 8136TIP3   OH224352   2.498   4.904   1.499
 8136TIP3    H124353   2.528   4.952   1.422
 8136TIP3    H224354   2.528   4.814   1.484
 8137TIP3   OH224355   2.296   3.083   5.583
 8137TIP3    H124356   2.282   3.170   5.546
 8137TIP3    H224357   2.239   3.026   5.532
 8138TIP3   OH224358   7.380   0.511   1.390
 8138TIP3    H124359   7.320   0.449   1.433
 8138TIP3    H224360   7.326   0.587   1.370
 8139TIP3   OH224361   0.697   1.280   3.167
 8139TIP3    H124362   0.746   1.200   3.151
 8139TIP3    H224363   0.685   1.320   3.081
 8140TIP3   OH224364   0.405   6.575   0.278
 8140TIP3    H124365   0.364   6.655   0.312
 8140TIP3    H224366   0.399   6.582   0.183
 8141TIP3   OH224367   1.858   5.052   5.759
 8141TIP3    H124368   1.822   5.141   5.760
 8141TIP3    H224369   1.913   5.049   5.681
 8142TIP3   OH224370   0.485   0.402   0.525
 8142TIP3    H124371   0.558   0.341   0.514
 8142TIP3    H224372   0.450   0.414   0.437
 8143TIP3   OH224373   4.491   0.163   0.665
 8143TIP3    H124374   4.585   0.148   0.676
 8143TIP3    H224375   4.459   0.085   0.618
 8144TIP3   OH224376   4.361   6.409   6.559
 8144TIP3    H124377   4.336   6.421   6.651
 8144TIP3    H224378   4.449   6.446   6.553
 8145TIP3   OH224379   2.921   5.312   1.169
 8145TIP3    H124380   2.877   5.227   1.173
 8145TIP3    H224381   2.951   5.328   1.259
 8146TIP3   OH224382   0.575   3.580   5.777
 8146TIP3    H124383   0.580   3.502   5.832
 8146TIP3    H224384   0.647   3.635   5.807
 8147TIP3   OH224385   6.601   0.788   6.754
 8147TIP3    H124386   6.685   0.801   6.709
 8147TIP3    H224387   6.566   0.876   6.766
 8148TIP3   OH224388   1.929   4.426   2.377
 8148TIP3    H124389   1.978   4.505   2.352
 8148TIP3    H224390   1.845   4.459   2.409
 8149TIP3   OH224391   2.541   3.997   5.175
 8149TIP3    H124392   2.590   4.066   5.219
 8149TIP3    H224393   2.449   4.017   5.195
 8150TIP3   OH224394   8.007   3.622   4.742
 8150TIP3    H124395   7.943   3.686   4.712
 8150TIP3    H224396   8.091   3.655   4.710
 8151TIP3   OH224397   2.312   0.999   2.481
 8151TIP3    H124398   2.329   0.917   2.527
 8151TIP3    H224399   2.390   1.052   2.498
 8152TIP3   OH224400   1.819   6.413   3.600
 8152TIP3    H124401   1.815   6.499   3.559
 8152TIP3    H224402   1.817   6.351   3.527
 8153TIP3   OH224403   7.457   7.329   2.514
 8153TIP3    H124404   7.453   7.286   2.428
 8153TIP3    H224405   7.543   7.372   2.515
 8154TIP3   OH224406   4.576   3.627   5.523
 8154TIP3    H124407   4.562   3.552   5.580
 8154TIP3    H224408   4.496   3.633   5.470
 8155TIP3   OH224409   6.087   6.552   4.937
 8155TIP3    H124410   6.029   6.565   5.012
 8155TIP3    H224411   6.105   6.458   4.937
 8156TIP3   OH224412   6.656   0.877   1.262
 8156TIP3    H124413   6.565   0.846   1.256
 8156TIP3    H224414   6.671   0.890   1.356
 8157TIP3   OH224415   0.281   1.365   0.574
 8157TIP3    H124416   0.314   1.428   0.638
 8157TIP3    H224417   0.310   1.280   0.607
 8158TIP3   OH224418   6.344   4.541   2.389
 8158TIP3    H124419   6.413   4.608   2.387
 8158TIP3    H224420   6.373   4.476   2.324
 8159TIP3   OH224421   3.662   0.560   4.815
 8159TIP3    H124422   3.666   0.604   4.731
 8159TIP3    H224423   3.663   0.630   4.880
 8160TIP3   OH224424   0.987   1.616   4.422
 8160TIP3    H124425   0.920   1.553   4.445
 8160TIP3    H224426   1.046   1.618   4.498
 8161TIP3   OH224427   7.136   7.484   2.789
 8161TIP3    H124428   7.206   7.467   2.852
 8161TIP3    H224429   7.070   7.417   2.807
 8162TIP3   OH224430   5.321   2.323   6.013
 8162TIP3    H124431   5.349   2.381   6.084
 8162TIP3    H224432   5.270   2.379   5.955
 8163TIP3   OH224433   0.854   2.808   1.624
 8163TIP3    H124434   0.920   2.745   1.655
 8163TIP3    H224435   0.778   2.754   1.602
 8164TIP3   OH224436   7.357   6.231   2.191
 8164TIP3    H124437   7.314   6.161   2.142
 8164TIP3    H224438   7.391   6.291   2.124
 8165TIP3   OH224439   5.753   7.079   5.609
 8165TIP3    H124440   5.800   7.147   5.562
 8165TIP3    H224441   5.665   7.080   5.572
 8166TIP3   OH224442   1.906   6.975   2.911
 8166TIP3    H124443   1.888   7.052   2.965
 8166TIP3    H224444   1.851   6.987   2.834
 8167TIP3   OH224445   0.317   0.420   2.688
 8167TIP3    H124446   0.323   0.454   2.777
 8167TIP3    H224447   0.277   0.491   2.638
 8168TIP3   OH224448   7.349   5.901   4.032
 8168TIP3    H124449   7.344   5.995   4.048
 8168TIP3    H224450   7.439   5.877   4.055
 8169TIP3   OH224451   6.716   0.837   3.096
 8169TIP3    H124452   6.766   0.836   3.178
 8169TIP3    H224453   6.634   0.880   3.118
 8170TIP3   OH224454   4.471   5.114   6.417
 8170TIP3    H124455   4.506   5.055   6.484
 8170TIP3    H224456   4.404   5.063   6.372
 8171TIP3   OH224457   5.160   2.101   2.684
 8171TIP3    H124458   5.097   2.149   2.630
 8171TIP3    H224459   5.245   2.138   2.660
 8172TIP3   OH224460   6.092   3.996   0.733
 8172TIP3    H124461   6.032   4.071   0.733
 8172TIP3    H224462   6.040   3.925   0.772
 8173TIP3   OH224463   4.724   2.284   3.129
 8173TIP3    H124464   4.672   2.363   3.144
 8173TIP3    H224465   4.660   2.217   3.104
 8174TIP3   OH224466   1.884   3.304   3.934
 8174TIP3    H124467   1.936   3.352   3.998
 8174TIP3    H224468   1.796   3.340   3.943
 8175TIP3   OH224469   2.407   2.942   3.375
 8175TIP3    H124470   2.454   2.888   3.312
 8175TIP3    H224471   2.327   2.893   3.393
 8176TIP3   OH224472   2.521   2.944   4.137
 8176TIP3    H124473   2.444   2.941   4.080
 8176TIP3    H224474   2.592   2.970   4.079
 8177TIP3   OH224475   7.953   0.109   3.295
 8177TIP3    H124476   7.921   0.181   3.349
 8177TIP3    H224477   7.969   0.148   3.209
 8178TIP3   OH224478   4.778   3.273   6.689
 8178TIP3    H124479   4.733   3.198   6.728
 8178TIP3    H224480   4.859   3.281   6.738
 8179TIP3   OH224481   0.498   7.835   0.445
 8179TIP3    H124482   0.432   7.776   0.478
 8179TIP3    H224483   0.522   7.799   0.359
 8180TIP3   OH224484   7.898   7.662   2.566
 8180TIP3    H124485   7.871   7.717   2.640
 8180TIP3    H224486   7.870   7.710   2.489
 8181TIP3   OH224487   1.241   2.715   5.338
 8181TIP3    H124488   1.240   2.670   5.422
 8181TIP3    H224489   1.272   2.804   5.358
 8182TIP3   OH224490   3.586   6.719   3.963
 8182TIP3    H124491   3.639   6.775   4.020
 8182TIP3    H224492   3.496   6.746   3.979
 8183TIP3   OH224493   2.261   1.570   5.034
 8183TIP3    H124494   2.198   1.501   5.054
 8183TIP3    H224495   2.257   1.579   4.939
 8184TIP3   OH224496   7.371   5.436   0.818
 8184TIP3    H124497   7.454   5.403   0.781
 8184TIP3    H224498   7.310   5.432   0.745
 8185TIP3   OH224499   7.361   3.857   5.349
 8185TIP3    H124500   7.446   3.884   5.385
 8185TIP3    H224501   7.366   3.880   5.257
 8186TIP3   OH224502   2.617   3.297   4.473
 8186TIP3    H124503   2.622   3.316   4.379
 8186TIP3    H224504   2.540   3.344   4.503
 8187TIP3   OH224505   8.304   0.241   5.950
 8187TIP3    H124506   8.238   0.211   6.011
 8187TIP3    H224507   8.345   0.316   5.993
 8188TIP3   OH224508   4.267   2.427   0.870
 8188TIP3    H124509   4.178   2.391   0.866
 8188TIP3    H224510   4.288   2.450   0.780
 8189TIP3   OH224511   5.348   2.205   5.492
 8189TIP3    H124512   5.401   2.246   5.560
 8189TIP3    H224513   5.324   2.120   5.529
 8190TIP3   OH224514   7.408   5.790   5.557
 8190TIP3    H124515   7.491   5.797   5.510
 8190TIP3    H224516   7.349   5.849   5.510
 8191TIP3   OH224517   3.513   1.350   5.483
 8191TIP3    H124518   3.434   1.301   5.507
 8191TIP3    H224519   3.496   1.380   5.394
 8192TIP3   OH224520   3.552   5.163   2.232
 8192TIP3    H124521   3.592   5.247   2.214
 8192TIP3    H224522   3.625   5.102   2.238
 8193TIP3   OH224523   4.749   0.884   2.369
 8193TIP3    H124524   4.695   0.917   2.297
 8193TIP3    H224525   4.687   0.866   2.440
 8194TIP3   OH224526   7.207   0.524   5.592
 8194TIP3    H124527   7.197   0.560   5.504
 8194TIP3    H224528   7.296   0.546   5.618
 8195TIP3   OH224529   2.543   1.236   0.950
 8195TIP3    H124530   2.452   1.248   0.922
 8195TIP3    H224531   2.543   1.151   0.995
 8196TIP3   OH224532   3.797   0.236   1.021
 8196TIP3    H124533   3.776   0.185   0.943
 8196TIP3    H224534   3.745   0.316   1.011
 8197TIP3   OH224535   5.025   3.864   1.341
 8197TIP3    H124536   4.958   3.922   1.376
 8197TIP3    H224537   5.002   3.852   1.249
 8198TIP3   OH224538   5.819   7.756   2.064
 8198TIP3    H124539   5.759   7.708   2.121
 8198TIP3    H224540   5.805   7.719   1.977
 8199TIP3   OH224541   7.205   2.309   5.141
 8199TIP3    H124542   7.229   2.318   5.049
 8199TIP3    H224543   7.231   2.392   5.181
 8200TIP3   OH224544   0.503   3.150   4.539
 8200TIP3    H124545   0.504   3.180   4.630
 8200TIP3    H224546   0.564   3.209   4.494
 8201TIP3   OH224547   3.148   0.546   5.994
 8201TIP3    H124548   3.240   0.521   5.987
 8201TIP3    H224549   3.149   0.631   6.037
 8202TIP3   OH224550   1.346   2.585   4.975
 8202TIP3    H124551   1.285   2.659   4.971
 8202TIP3    H224552   1.292   2.510   4.997
 8203TIP3   OH224553   5.320   1.374   2.839
 8203TIP3    H124554   5.316   1.404   2.930
 8203TIP3    H224555   5.234   1.395   2.803
 8204TIP3   OH224556   0.006   1.186   6.107
 8204TIP3    H124557   0.005   1.149   6.196
 8204TIP3    H224558   0.079   1.248   6.107
 8205TIP3   OH224559   7.789   3.717   5.574
 8205TIP3    H124560   7.826   3.651   5.633
 8205TIP3    H224561   7.707   3.743   5.616
 8206TIP3   OH224562   7.863   5.443   4.677
 8206TIP3    H124563   7.892   5.354   4.658
 8206TIP3    H224564   7.920   5.472   4.748
 8207TIP3   OH224565   2.235   6.229   5.382
 8207TIP3    H124566   2.162   6.169   5.366
 8207TIP3    H224567   2.200   6.292   5.445
 8208TIP3   OH224568   7.678   5.039   0.703
 8208TIP3    H124569   7.756   5.084   0.671
 8208TIP3    H224570   7.605   5.076   0.653
 8209TIP3   OH224571   1.751   2.742   4.588
 8209TIP3    H124572   1.669   2.705   4.622
 8209TIP3    H224573   1.745   2.728   4.493
 8210TIP3   OH224574   2.975   6.274   1.990
 8210TIP3    H124575   2.961   6.368   1.977
 8210TIP3    H224576   3.006   6.243   1.905
 8211TIP3   OH224577   5.062   3.760   2.574
 8211TIP3    H124578   5.023   3.840   2.609
 8211TIP3    H224579   5.019   3.689   2.622
 8212TIP3   OH224580   1.925   3.311   0.285
 8212TIP3    H124581   1.913   3.328   0.379
 8212TIP3    H224582   1.837   3.300   0.251
 8213TIP3   OH224583   0.366   7.638   0.680
 8213TIP3    H124584   0.304   7.711   0.680
 8213TIP3    H224585   0.378   7.616   0.772
 8214TIP3   OH224586   8.119   6.714   0.048
 8214TIP3    H124587   8.061   6.719  -0.028
 8214TIP3    H224588   8.072   6.759   0.117
 8215TIP3   OH224589   1.105   2.042   2.158
 8215TIP3    H124590   1.045   2.078   2.223
 8215TIP3    H224591   1.167   1.989   2.208
 8216TIP3   OH224592   3.498   1.983   0.433
 8216TIP3    H124593   3.536   1.931   0.504
 8216TIP3    H224594   3.467   1.917   0.370
 8217TIP3   OH224595   3.810   2.406   3.879
 8217TIP3    H124596   3.767   2.478   3.925
 8217TIP3    H224597   3.773   2.327   3.919
 8218TIP3   OH224598   0.657   5.771   0.109
 8218TIP3    H124599   0.703   5.693   0.078
 8218TIP3    H224600   0.576   5.737   0.147
 8219TIP3   OH224601   0.014   3.858   6.490
 8219TIP3    H124602  -0.052   3.904   6.438
 8219TIP3    H224603   0.071   3.927   6.523
 8220TIP3   OH224604   2.597   0.161   4.656
 8220TIP3    H124605   2.540   0.087   4.675
 8220TIP3    H224606   2.655   0.129   4.586
 8221TIP3   OH224607   4.104   7.372   0.194
 8221TIP3    H124608   4.189   7.339   0.166
 8221TIP3    H224609   4.117   7.395   0.286
 8222TIP3   OH224610   4.315   6.304   5.360
 8222TIP3    H124611   4.338   6.276   5.272
 8222TIP3    H224612   4.398   6.311   5.406
 8223TIP3   OH224613   2.142   5.710   4.452
 8223TIP3    H124614   2.143   5.625   4.407
 8223TIP3    H224615   2.230   5.745   4.439
 8224TIP3   OH224616   0.275   4.982   1.766
 8224TIP3    H124617   0.272   5.064   1.717
 8224TIP3    H224618   0.220   4.922   1.714
 8225TIP3   OH224619   7.904   7.455   4.683
 8225TIP3    H124620   7.892   7.396   4.608
 8225TIP3    H224621   7.821   7.502   4.690
 8226TIP3   OH224622   7.940   6.394   0.900
 8226TIP3    H124623   7.901   6.471   0.857
 8226TIP3    H224624   8.027   6.424   0.929
 8227TIP3   OH224625   5.413   1.590   0.186
 8227TIP3    H124626   5.416   1.567   0.093
 8227TIP3    H224627   5.427   1.684   0.189
 8228TIP3   OH224628   3.389   0.392   0.344
 8228TIP3    H124629   3.366   0.429   0.430
 8228TIP3    H224630   3.309   0.400   0.292
 8229TIP3   OH224631   6.952   1.256   5.883
 8229TIP3    H124632   6.905   1.277   5.963
 8229TIP3    H224633   7.031   1.310   5.886
 8230TIP3   OH224634   5.779   0.763   6.713
 8230TIP3    H124635   5.796   0.678   6.753
 8230TIP3    H224636   5.848   0.772   6.647
 8231TIP3   OH224637   2.282   0.297   2.586
 8231TIP3    H124638   2.258   0.311   2.677
 8231TIP3    H224639   2.362   0.245   2.590
 8232TIP3   OH224640   3.635   5.578   6.782
 8232TIP3    H124641   3.586   5.659   6.771
 8232TIP3    H224642   3.572   5.509   6.758
 8233TIP3   OH224643   0.074   7.346   3.963
 8233TIP3    H124644   0.044   7.301   4.042
 8233TIP3    H224645   0.169   7.332   3.962
 8234TIP3   OH224646   1.258   0.264   0.819
 8234TIP3    H124647   1.218   0.241   0.735
 8234TIP3    H224648   1.188   0.251   0.883
 8235TIP3   OH224649   7.688   7.580   2.057
 8235TIP3    H124650   7.741   7.621   1.989
 8235TIP3    H224651   7.721   7.491   2.062
 8236TIP3   OH224652   2.780   1.210   0.167
 8236TIP3    H124653   2.707   1.157   0.198
 8236TIP3    H224654   2.755   1.236   0.078
 8237TIP3   OH224655   7.359   6.444   1.328
 8237TIP3    H124656   7.434   6.493   1.364
 8237TIP3    H224657   7.397   6.361   1.299
 8238TIP3   OH224658   5.519   0.732   1.258
 8238TIP3    H124659   5.478   0.781   1.329
 8238TIP3    H224660   5.467   0.754   1.181
 8239TIP3   OH224661   2.941   3.461   0.402
 8239TIP3    H124662   2.927   3.531   0.466
 8239TIP3    H224663   2.879   3.393   0.426
 8240TIP3   OH224664   6.369   1.353   3.022
 8240TIP3    H124665   6.368   1.408   3.100
 8240TIP3    H224666   6.460   1.356   2.992
 8241TIP3   OH224667   3.152   2.992   6.741
 8241TIP3    H124668   3.090   2.982   6.668
 8241TIP3    H224669   3.152   3.085   6.761
 8242TIP3   OH224670   7.203   1.826   5.886
 8242TIP3    H124671   7.135   1.849   5.822
 8242TIP3    H224672   7.279   1.877   5.858
 8243TIP3   OH224673   6.886   1.607   2.148
 8243TIP3    H124674   6.841   1.655   2.218
 8243TIP3    H224675   6.824   1.606   2.075
 8244TIP3   OH224676   4.920   1.115   2.335
 8244TIP3    H124677   4.885   1.183   2.392
 8244TIP3    H224678   4.852   1.048   2.333
 8245TIP3   OH224679   0.947   2.956   1.397
 8245TIP3    H124680   1.038   2.931   1.383
 8245TIP3    H224681   0.914   2.892   1.459
 8246TIP3   OH224682   3.564   6.967   1.435
 8246TIP3    H124683   3.483   6.994   1.393
 8246TIP3    H224684   3.599   7.048   1.474
 8247TIP3   OH224685   7.974   6.313   3.039
 8247TIP3    H124686   8.011   6.309   3.128
 8247TIP3    H224687   8.010   6.237   2.995
 8248TIP3   OH224688   7.582   4.583   3.509
 8248TIP3    H124689   7.562   4.490   3.496
 8248TIP3    H224690   7.553   4.625   3.428
 8249TIP3   OH224691   3.965   7.793   4.348
 8249TIP3    H124692   3.947   7.853   4.420
 8249TIP3    H224693   4.061   7.788   4.344
 8250TIP3   OH224694   6.097   5.323   5.166
 8250TIP3    H124695   6.159   5.306   5.237
 8250TIP3    H224696   6.067   5.235   5.140
 8251TIP3   OH224697   5.521   3.745   4.964
 8251TIP3    H124698   5.509   3.748   5.059
 8251TIP3    H224699   5.434   3.763   4.928
 8252TIP3   OH224700   2.769   0.491   1.463
 8252TIP3    H124701   2.748   0.555   1.531
 8252TIP3    H224702   2.706   0.421   1.476
 8253TIP3   OH224703   6.945   2.015   5.458
 8253TIP3    H124704   6.921   2.101   5.424
 8253TIP3    H224705   7.040   2.019   5.467
 8254TIP3   OH224706   2.212   3.809   2.896
 8254TIP3    H124707   2.254   3.851   2.971
 8254TIP3    H224708   2.218   3.715   2.914
 8255TIP3   OH224709   5.638   4.898   5.063
 8255TIP3    H124710   5.660   4.991   5.069
 8255TIP3    H224711   5.722   4.853   5.069
 8256TIP3   OH224712   0.131   4.576   1.926
 8256TIP3    H124713   0.053   4.620   1.960
 8256TIP3    H224714   0.124   4.586   1.831
 8257TIP3   OH224715   3.499   1.148   4.286
 8257TIP3    H124716   3.476   1.065   4.244
 8257TIP3    H224717   3.546   1.197   4.218
 8258TIP3   OH224718   0.856   4.743   3.782
 8258TIP3    H124719   0.940   4.741   3.736
 8258TIP3    H224720   0.815   4.825   3.754
 8259TIP3   OH224721   2.022   6.610   1.689
 8259TIP3    H124722   2.024   6.703   1.669
 8259TIP3    H224723   2.069   6.569   1.616
 8260TIP3   OH224724   7.138   1.003   4.618
 8260TIP3    H124725   7.206   1.012   4.551
 8260TIP3    H224726   7.077   1.074   4.600
 8261TIP3   OH224727   2.839   4.330   1.987
 8261TIP3    H124728   2.811   4.345   2.077
 8261TIP3    H224729   2.901   4.401   1.969
 8262TIP3   OH224730   3.890   1.550   4.689
 8262TIP3    H124731   3.964   1.581   4.638
 8262TIP3    H224732   3.823   1.619   4.679
 8263TIP3   OH224733   0.854   3.297   1.387
 8263TIP3    H124734   0.948   3.292   1.368
 8263TIP3    H224735   0.825   3.206   1.388
 8264TIP3   OH224736   6.382   1.278   2.153
 8264TIP3    H124737   6.429   1.359   2.133
 8264TIP3    H224738   6.451   1.216   2.176
 8265TIP3   OH224739   2.737   4.608   0.544
 8265TIP3    H124740   2.646   4.614   0.573
 8265TIP3    H224741   2.732   4.599   0.449
 8266TIP3   OH224742   3.268   4.855   4.665
 8266TIP3    H124743   3.315   4.899   4.736
 8266TIP3    H224744   3.176   4.860   4.691
 8267TIP3   OH224745   5.844   5.203   0.333
 8267TIP3    H124746   5.754   5.214   0.364
 8267TIP3    H224747   5.836   5.185   0.240
 8268TIP3   OH224748   6.675   6.093   1.137
 8268TIP3    H124749   6.756   6.100   1.188
 8268TIP3    H224750   6.692   6.020   1.077
 8269TIP3   OH224751   6.807   0.613   5.156
 8269TIP3    H124752   6.722   0.637   5.119
 8269TIP3    H224753   6.786   0.551   5.226
 8270TIP3   OH224754   7.971   6.879   3.645
 8270TIP3    H124755   8.049   6.906   3.595
 8270TIP3    H224756   7.899   6.892   3.584
 8271TIP3   OH224757   4.619   2.117   3.572
 8271TIP3    H124758   4.637   2.210   3.554
 8271TIP3    H224759   4.525   2.107   3.555
 8272TIP3   OH224760   1.634   3.112   3.933
 8272TIP3    H124761   1.586   3.029   3.923
 8272TIP3    H224762   1.720   3.085   3.966
 8273TIP3   OH224763   1.291   3.340   3.520
 8273TIP3    H124764   1.354   3.338   3.447
 8273TIP3    H224765   1.214   3.294   3.487
 8274TIP3   OH224766   2.657   5.183   5.707
 8274TIP3    H124767   2.736   5.156   5.753
 8274TIP3    H224768   2.657   5.279   5.713
 8275TIP3   OH224769   6.799   0.594   1.237
 8275TIP3    H124770   6.892   0.572   1.232
 8275TIP3    H224771   6.796   0.688   1.220
 8276TIP3   OH224772   5.768   2.770   5.494
 8276TIP3    H124773   5.693   2.725   5.532
 8276TIP3    H224774   5.843   2.716   5.518
 8277TIP3   OH224775   2.575   2.631   6.518
 8277TIP3    H124776   2.487   2.668   6.511
 8277TIP3    H224777   2.627   2.700   6.559
 8278TIP3   OH224778   2.036   4.162   6.269
 8278TIP3    H124779   1.951   4.125   6.245
 8278TIP3    H224780   2.099   4.111   6.219
 8279TIP3   OH224781   6.038   5.394   0.370
 8279TIP3    H124782   6.090   5.349   0.304
 8279TIP3    H224783   5.965   5.335   0.389
 8280TIP3   OH224784   0.512   5.206   3.937
 8280TIP3    H124785   0.606   5.191   3.928
 8280TIP3    H224786   0.488   5.160   4.017
 8281TIP3   OH224787   7.433   2.980   0.775
 8281TIP3    H124788   7.438   3.064   0.729
 8281TIP3    H224789   7.384   2.999   0.855
 8282TIP3   OH224790   6.970   6.906   0.387
 8282TIP3    H124791   6.997   6.859   0.309
 8282TIP3    H224792   6.984   6.998   0.366
 8283TIP3   OH224793   6.327   7.369   6.212
 8283TIP3    H124794   6.388   7.325   6.154
 8283TIP3    H224795   6.268   7.299   6.242
 8284TIP3   OH224796   1.511   3.051   5.029
 8284TIP3    H124797   1.572   2.977   5.024
 8284TIP3    H224798   1.424   3.011   5.025
 8285TIP3   OH224799   8.298   5.990   0.143
 8285TIP3    H124800   8.249   5.970   0.062
 8285TIP3    H224801   8.313   5.904   0.182
 8286TIP3   OH224802   0.443   1.608   1.544
 8286TIP3    H124803   0.364   1.572   1.584
 8286TIP3    H224804   0.411   1.658   1.469
 8287TIP3   OH224805   6.569   1.150   2.730
 8287TIP3    H124806   6.476   1.172   2.720
 8287TIP3    H224807   6.578   1.065   2.686
 8288TIP3   OH224808   3.227   0.856   6.397
 8288TIP3    H124809   3.175   0.777   6.380
 8288TIP3    H224810   3.304   0.846   6.341
 8289TIP3   OH224811   2.344   2.574   6.085
 8289TIP3    H124812   2.371   2.586   5.994
 8289TIP3    H224813   2.314   2.660   6.113
 8290TIP3   OH224814   1.832   6.561   2.243
 8290TIP3    H124815   1.884   6.597   2.171
 8290TIP3    H224816   1.758   6.621   2.251
 8291TIP3   OH224817   7.451   4.676   3.248
 8291TIP3    H124818   7.472   4.583   3.239
 8291TIP3    H224819   7.508   4.719   3.185
 8292TIP3   OH224820   2.513   7.315   2.938
 8292TIP3    H124821   2.595   7.348   2.900
 8292TIP3    H224822   2.540   7.239   2.990
 8293TIP3   OH224823   1.584   4.745   2.171
 8293TIP3    H124824   1.656   4.708   2.120
 8293TIP3    H224825   1.546   4.670   2.217
 8294TIP3   OH224826   6.148   3.002   0.017
 8294TIP3    H124827   6.216   2.937   0.033
 8294TIP3    H224828   6.174   3.078   0.070
 8295TIP3   OH224829   0.121   5.827   4.397
 8295TIP3    H124830   0.124   5.782   4.313
 8295TIP3    H224831   0.071   5.906   4.381
 8296TIP3   OH224832   6.999   4.062   2.619
 8296TIP3    H124833   7.061   3.999   2.656
 8296TIP3    H224834   7.030   4.147   2.649
 8297TIP3   OH224835   3.702   4.974   3.820
 8297TIP3    H124836   3.696   4.882   3.844
 8297TIP3    H224837   3.678   4.977   3.728
 8298TIP3   OH224838   1.587   4.561   5.435
 8298TIP3    H124839   1.655   4.518   5.486
 8298TIP3    H224840   1.605   4.537   5.345
 8299TIP3   OH224841   8.077   3.913   6.058
 8299TIP3    H124842   7.985   3.925   6.034
 8299TIP3    H224843   8.094   3.819   6.044
 8300TIP3   OH224844   4.061   1.919   6.569
 8300TIP3    H124845   4.085   1.827   6.578
 8300TIP3    H224846   3.967   1.921   6.590
 8301TIP3   OH224847   5.347   5.244   0.055
 8301TIP3    H124848   5.427   5.227   0.005
 8301TIP3    H224849   5.345   5.340   0.064
 8302TIP3   OH224850   4.927   4.807   5.112
 8302TIP3    H124851   5.016   4.808   5.149
 8302TIP3    H224852   4.902   4.899   5.109
 8303TIP3   OH224853   8.156   3.551   5.517
 8303TIP3    H124854   8.119   3.612   5.453
 8303TIP3    H224855   8.250   3.570   5.518
 8304TIP3   OH224856   6.795   1.385   0.400
 8304TIP3    H124857   6.889   1.378   0.382
 8304TIP3    H224858   6.760   1.439   0.329
 8305TIP3   OH224859   0.920   5.228   4.898
 8305TIP3    H124860   0.973   5.154   4.929
 8305TIP3    H224861   0.933   5.228   4.803
 8306TIP3   OH224862   2.811   3.978   2.755
 8306TIP3    H124863   2.906   3.987   2.758
 8306TIP3    H224864   2.788   4.000   2.665
 8307TIP3   OH224865   6.229   1.129   6.187
 8307TIP3    H124866   6.183   1.092   6.262
 8307TIP3    H224867   6.300   1.067   6.169
 8308TIP3   OH224868   6.986   3.186   0.643
 8308TIP3    H124869   7.060   3.155   0.590
 8308TIP3    H224870   6.944   3.252   0.588
 8309TIP3   OH224871   6.871   0.063   3.750
 8309TIP3    H124872   6.920  -0.018   3.757
 8309TIP3    H224873   6.806   0.047   3.681
 8310TIP3   OH224874   7.851   0.341   5.794
 8310TIP3    H124875   7.945   0.325   5.798
 8310TIP3    H224876   7.821   0.291   5.718
 8311TIP3   OH224877   6.005   5.975   3.402
 8311TIP3    H124878   6.064   5.989   3.477
 8311TIP3    H224879   5.938   5.915   3.436
 8312TIP3   OH224880   1.608   1.218   2.902
 8312TIP3    H124881   1.565   1.143   2.861
 8312TIP3    H224882   1.648   1.266   2.828
 8313TIP3   OH224883   6.115   5.324   1.196
 8313TIP3    H124884   6.024   5.311   1.169
 8313TIP3    H224885   6.113   5.404   1.248
 8314TIP3   OH224886   6.399   3.017   2.587
 8314TIP3    H124887   6.366   2.995   2.500
 8314TIP3    H224888   6.404   2.933   2.633
 8315TIP3   OH224889   5.373   2.649   3.761
 8315TIP3    H124890   5.356   2.610   3.675
 8315TIP3    H224891   5.372   2.744   3.745
 8316TIP3   OH224892   5.465   5.959   2.507
 8316TIP3    H124893   5.452   5.902   2.582
 8316TIP3    H224894   5.377   5.988   2.483
 8317TIP3   OH224895   3.092   0.187   0.938
 8317TIP3    H124896   3.077   0.110   0.993
 8317TIP3    H224897   3.006   0.207   0.901
 8318TIP3   OH224898   1.014   1.361   5.334
 8318TIP3    H124899   1.059   1.431   5.287
 8318TIP3    H224900   0.935   1.403   5.368
 8319TIP3   OH224901   6.213   4.302   0.363
 8319TIP3    H124902   6.167   4.230   0.405
 8319TIP3    H224903   6.144   4.360   0.330
 8320TIP3   OH224904   7.721   6.100   5.127
 8320TIP3    H124905   7.683   6.013   5.114
 8320TIP3    H224906   7.736   6.133   5.039
 8321TIP3   OH224907   4.998   7.423   3.761
 8321TIP3    H124908   4.950   7.346   3.732
 8321TIP3    H224909   4.963   7.442   3.849
 8322TIP3   OH224910   2.471   4.243   3.595
 8322TIP3    H124911   2.421   4.235   3.676
 8322TIP3    H224912   2.460   4.159   3.551
 8323TIP3   OH224913   5.075   1.742   6.582
 8323TIP3    H124914   5.124   1.758   6.663
 8323TIP3    H224915   5.115   1.663   6.545
 8324TIP3   OH224916   7.724   2.788   4.725
 8324TIP3    H124917   7.691   2.874   4.750
 8324TIP3    H224918   7.750   2.797   4.633
 8325TIP3   OH224919   1.953   0.828   3.546
 8325TIP3    H124920   2.028   0.791   3.594
 8325TIP3    H224921   1.899   0.752   3.524
 8326TIP3   OH224922   7.597   7.169   3.748
 8326TIP3    H124923   7.560   7.200   3.831
 8326TIP3    H224924   7.553   7.086   3.730
 8327TIP3   OH224925   7.595   4.535   6.071
 8327TIP3    H124926   7.662   4.600   6.093
 8327TIP3    H224927   7.581   4.486   6.152
 8328TIP3   OH224928   1.724   7.185   1.394
 8328TIP3    H124929   1.668   7.231   1.331
 8328TIP3    H224930   1.754   7.254   1.454
 8329TIP3   OH224931   6.853   2.065   0.767
 8329TIP3    H124932   6.944   2.084   0.741
 8329TIP3    H224933   6.853   1.972   0.785
 8330TIP3   OH224934   2.152   3.257   4.727
 8330TIP3    H124935   2.069   3.279   4.770
 8330TIP3    H224936   2.213   3.325   4.756
 8331TIP3   OH224937   0.638   6.952   1.492
 8331TIP3    H124938   0.702   6.884   1.471
 8331TIP3    H224939   0.654   7.022   1.429
 8332TIP3   OH224940   0.774   1.038   1.515
 8332TIP3    H124941   0.805   0.957   1.473
 8332TIP3    H224942   0.724   1.082   1.447
 8333TIP3   OH224943   5.106   6.765   4.990
 8333TIP3    H124944   5.061   6.682   4.971
 8333TIP3    H224945   5.137   6.755   5.080
 8334TIP3   OH224946   4.522   7.029   4.169
 8334TIP3    H124947   4.435   7.015   4.205
 8334TIP3    H224948   4.560   6.941   4.165
 8335TIP3   OH224949   8.293   5.883   3.601
 8335TIP3    H124950   8.203   5.911   3.581
 8335TIP3    H224951   8.335   5.875   3.516
 8336TIP3   OH224952   2.652   6.446   6.039
 8336TIP3    H124953   2.714   6.516   6.022
 8336TIP3    H224954   2.700   6.383   6.092
 8337TIP3   OH224955   3.563   4.111   4.753
 8337TIP3    H124956   3.556   4.204   4.732
 8337TIP3    H224957   3.484   4.072   4.716
 8338TIP3   OH224958   5.451   2.712   1.018
 8338TIP3    H124959   5.384   2.675   0.960
 8338TIP3    H224960   5.499   2.774   0.963
 8339TIP3   OH224961   6.490   3.086   6.133
 8339TIP3    H124962   6.480   3.156   6.067
 8339TIP3    H224963   6.581   3.058   6.126
 8340TIP3   OH224964   6.779   4.924   5.328
 8340TIP3    H124965   6.769   4.830   5.342
 8340TIP3    H224966   6.756   4.937   5.236
 8341TIP3   OH224967   6.501   2.413   4.324
 8341TIP3    H124968   6.483   2.372   4.408
 8341TIP3    H224969   6.472   2.348   4.259
 8342TIP3   OH224970   1.674   5.987   2.930
 8342TIP3    H124971   1.604   6.047   2.903
 8342TIP3    H224972   1.754   6.029   2.898
 8343TIP3   OH224973   3.778   4.456   5.673
 8343TIP3    H124974   3.782   4.544   5.635
 8343TIP3    H224975   3.699   4.458   5.727
 8344TIP3   OH224976   6.405   2.216   3.495
 8344TIP3    H124977   6.334   2.196   3.434
 8344TIP3    H224978   6.402   2.311   3.506
 8345TIP3   OH224979   6.903   1.052   6.267
 8345TIP3    H124980   6.989   1.089   6.247
 8345TIP3    H224981   6.918   0.995   6.343
 8346TIP3   OH224982   3.614   5.922   3.407
 8346TIP3    H124983   3.634   5.996   3.351
 8346TIP3    H224984   3.524   5.935   3.434
 8347TIP3   OH224985   2.167   1.671   1.526
 8347TIP3    H124986   2.100   1.694   1.589
 8347TIP3    H224987   2.119   1.653   1.445
 8348TIP3   OH224988   7.159   4.393   1.181
 8348TIP3    H124989   7.235   4.450   1.194
 8348TIP3    H224990   7.083   4.450   1.193
 8349TIP3   OH224991   3.128   3.139   2.907
 8349TIP3    H124992   3.061   3.073   2.888
 8349TIP3    H224993   3.084   3.202   2.964
 8350TIP3   OH224994   7.450   5.124   0.531
 8350TIP3    H124995   7.360   5.156   0.529
 8350TIP3    H224996   7.444   5.033   0.501
 8351TIP3   OH224997   1.548   3.930   2.978
 8351TIP3    H124998   1.629   3.881   2.989
 8351TIP3    H224999   1.564   4.012   3.025
 8352TIP3   OH225000   5.712   5.297   1.806
 8352TIP3    H125001   5.757   5.212   1.804
 8352TIP3    H225002   5.768   5.352   1.860
 8353TIP3   OH225003   1.093   7.135   5.155
 8353TIP3    H125004   1.042   7.059   5.128
 8353TIP3    H225005   1.057   7.208   5.106
 8354TIP3   OH225006   6.743   5.705   1.840
 8354TIP3    H125007   6.742   5.774   1.906
 8354TIP3    H225008   6.772   5.750   1.760
 8355TIP3   OH225009   0.959   3.504   0.844
 8355TIP3    H125010   0.884   3.523   0.788
 8355TIP3    H225011   0.921   3.473   0.926
 8356TIP3   OH225012   2.205   2.418   2.090
 8356TIP3    H125013   2.168   2.434   2.003
 8356TIP3    H225014   2.145   2.356   2.131
 8357TIP3   OH225015   6.346   4.595   0.842
 8357TIP3    H125016   6.391   4.652   0.904
 8357TIP3    H225017   6.384   4.508   0.858
 8358TIP3   OH225018   2.452   6.417   0.762
 8358TIP3    H125019   2.400   6.493   0.787
 8358TIP3    H225020   2.451   6.418   0.666
 8359TIP3   OH225021   1.934   5.994   6.618
 8359TIP3    H125022   1.843   5.982   6.589
 8359TIP3    H225023   1.970   6.057   6.556
 8360TIP3   OH225024   2.005   3.429   1.212
 8360TIP3    H125025   1.957   3.472   1.282
 8360TIP3    H225026   1.992   3.335   1.227
 8361TIP3   OH225027   5.946   6.675   4.401
 8361TIP3    H125028   5.912   6.720   4.478
 8361TIP3    H225029   5.936   6.738   4.330
 8362TIP3   OH225030   6.574   0.424   0.033
 8362TIP3    H125031   6.489   0.389   0.008
 8362TIP3    H225032   6.598   0.376   0.113
 8363TIP3   OH225033   6.184   2.708   2.927
 8363TIP3    H125034   6.111   2.659   2.891
 8363TIP3    H225035   6.144   2.781   2.974
 8364TIP3   OH225036   6.888   3.887   2.451
 8364TIP3    H125037   6.918   3.953   2.513
 8364TIP3    H225038   6.866   3.936   2.372
 8365TIP3   OH225039   2.763   1.144   2.916
 8365TIP3    H125040   2.806   1.082   2.857
 8365TIP3    H225041   2.833   1.201   2.946
 8366TIP3   OH225042   2.439   3.557   1.411
 8366TIP3    H125043   2.382   3.628   1.382
 8366TIP3    H225044   2.421   3.486   1.349
 8367TIP3   OH225045   4.052   0.927   5.135
 8367TIP3    H125046   4.002   0.982   5.075
 8367TIP3    H225047   4.063   0.982   5.213
 8368TIP3   OH225048   7.557   1.693   5.933
 8368TIP3    H125049   7.488   1.704   5.998
 8368TIP3    H225050   7.574   1.599   5.932
 8369TIP3   OH225051   6.663   6.371   0.482
 8369TIP3    H125052   6.704   6.303   0.535
 8369TIP3    H225053   6.726   6.443   0.482
 8370TIP3   OH225054   2.111   2.336   3.040
 8370TIP3    H125055   2.110   2.283   3.120
 8370TIP3    H225056   2.041   2.298   2.986
 8371TIP3   OH225057   1.440   3.506   4.858
 8371TIP3    H125058   1.472   3.528   4.771
 8371TIP3    H225059   1.500   3.439   4.890
 8372TIP3   OH225060   3.321   3.421   4.690
 8372TIP3    H125061   3.288   3.472   4.616
 8372TIP3    H225062   3.311   3.479   4.766
 8373TIP3   OH225063   3.936   1.782   0.588
 8373TIP3    H125064   3.951   1.857   0.530
 8373TIP3    H225065   4.007   1.722   0.568
 8374TIP3   OH225066   0.720   3.241   6.452
 8374TIP3    H125067   0.772   3.239   6.372
 8374TIP3    H225068   0.633   3.270   6.424
 8375TIP3   OH225069   6.291   6.631   5.940
 8375TIP3    H125070   6.357   6.594   5.999
 8375TIP3    H225071   6.244   6.555   5.906
 8376TIP3   OH225072   0.167   0.871   1.505
 8376TIP3    H125073   0.139   0.820   1.581
 8376TIP3    H225074   0.206   0.806   1.446
 8377TIP3   OH225075   2.036   1.889   6.717
 8377TIP3    H125076   2.041   1.974   6.760
 8377TIP3    H225077   2.055   1.907   6.625
 8378TIP3   OH225078   2.333   2.140   1.964
 8378TIP3    H125079   2.321   2.051   1.997
 8378TIP3    H225080   2.373   2.188   2.036
 8379TIP3   OH225081   4.728   1.879   3.656
 8379TIP3    H125082   4.654   1.819   3.660
 8379TIP3    H225083   4.690   1.962   3.627
 8380TIP3   OH225084   1.790   5.469   6.175
 8380TIP3    H125085   1.785   5.373   6.174
 8380TIP3    H225086   1.882   5.488   6.191
 8381TIP3   OH225087   5.278   1.582   6.402
 8381TIP3    H125088   5.292   1.656   6.343
 8381TIP3    H225089   5.317   1.508   6.357
 8382TIP3   OH225090   7.384   6.520   5.091
 8382TIP3    H125091   7.349   6.592   5.143
 8382TIP3    H225092   7.386   6.445   5.150
 8383TIP3   OH225093   5.214   0.072   4.533
 8383TIP3    H125094   5.214   0.094   4.440
 8383TIP3    H225095   5.161   0.141   4.574
 8384TIP3   OH225096   2.882   7.337   1.583
 8384TIP3    H125097   2.924   7.309   1.664
 8384TIP3    H225098   2.933   7.295   1.514
 8385TIP3   OH225099   8.293   3.035   3.420
 8385TIP3    H125100   8.198   3.048   3.424
 8385TIP3    H225101   8.317   3.059   3.331
 8386TIP3   OH225102   8.093   6.001   5.391
 8386TIP3    H125103   8.085   5.912   5.359
 8386TIP3    H225104   8.048   6.001   5.475
 8387TIP3   OH225105   5.001   2.824   1.152
 8387TIP3    H125106   5.079   2.805   1.205
 8387TIP3    H225107   5.033   2.821   1.062
 8388TIP3   OH225108   2.536   2.176   0.889
 8388TIP3    H125109   2.556   2.171   0.795
 8388TIP3    H225110   2.528   2.085   0.916
 8389TIP3   OH225111   7.498   2.263   1.453
 8389TIP3    H125112   7.582   2.290   1.417
 8389TIP3    H225113   7.463   2.343   1.493
 8390TIP3   OH225114   0.557   5.398   4.634
 8390TIP3    H125115   0.516   5.380   4.719
 8390TIP3    H225116   0.499   5.463   4.594
 8391TIP3   OH225117   2.310   3.465   6.395
 8391TIP3    H125118   2.291   3.552   6.430
 8391TIP3    H225119   2.302   3.476   6.300
 8392TIP3   OH225120   1.239   2.560   5.964
 8392TIP3    H125121   1.253   2.570   6.058
 8392TIP3    H225122   1.289   2.481   5.941
 8393TIP3   OH225123   8.172   7.639   0.460
 8393TIP3    H125124   8.149   7.607   0.548
 8393TIP3    H225125   8.166   7.734   0.467
 8394TIP3   OH225126   1.563   7.481   4.344
 8394TIP3    H125127   1.653   7.496   4.373
 8394TIP3    H225128   1.508   7.516   4.413
 8395TIP3   OH225129   5.580   7.661   3.752
 8395TIP3    H125130   5.672   7.668   3.727
 8395TIP3    H225131   5.574   7.583   3.806
 8396TIP3   OH225132   0.738   0.216   3.175
 8396TIP3    H125133   0.711   0.187   3.263
 8396TIP3    H225134   0.762   0.308   3.186
 8397TIP3   OH225135   2.412   7.309   3.705
 8397TIP3    H125136   2.457   7.334   3.623
 8397TIP3    H225137   2.343   7.249   3.677
 8398TIP3   OH225138   4.262   1.797   2.211
 8398TIP3    H125139   4.333   1.805   2.148
 8398TIP3    H225140   4.201   1.867   2.187
 8399TIP3   OH225141   3.625   3.397   3.019
 8399TIP3    H125142   3.714   3.433   3.016
 8399TIP3    H225143   3.595   3.401   2.928
 8400TIP3   OH225144   3.803   3.988   4.747
 8400TIP3    H125145   3.718   4.022   4.776
 8400TIP3    H225146   3.794   3.893   4.755
 8401TIP3   OH225147   3.864   5.002   5.585
 8401TIP3    H125148   3.866   4.973   5.676
 8401TIP3    H225149   3.771   5.012   5.565
 8402TIP3   OH225150   0.501   5.096   5.221
 8402TIP3    H125151   0.584   5.064   5.186
 8402TIP3    H225152   0.525   5.143   5.301
 8403TIP3   OH225153   1.953   3.532   6.645
 8403TIP3    H125154   1.875   3.526   6.700
 8403TIP3    H225155   1.927   3.590   6.574
 8404TIP3   OH225156   3.456   1.383   2.819
 8404TIP3    H125157   3.495   1.460   2.779
 8404TIP3    H225158   3.514   1.311   2.794
 8405TIP3   OH225159   0.536   2.871   4.061
 8405TIP3    H125160   0.547   2.874   3.966
 8405TIP3    H225161   0.538   2.963   4.089
 8406TIP3   OH225162   7.838   0.945   3.977
 8406TIP3    H125163   7.856   0.908   4.063
 8406TIP3    H225164   7.908   1.010   3.964
 8407TIP3   OH225165   3.674   3.175   2.738
 8407TIP3    H125166   3.582   3.166   2.761
 8407TIP3    H225167   3.718   3.107   2.789
 8408TIP3   OH225168   1.864   3.558   5.230
 8408TIP3    H125169   1.880   3.618   5.157
 8408TIP3    H225170   1.891   3.473   5.197
 8409TIP3   OH225171   2.100   2.470   1.818
 8409TIP3    H125172   2.156   2.438   1.748
 8409TIP3    H225173   2.010   2.458   1.786
 8410TIP3   OH225174   6.693   2.505   2.847
 8410TIP3    H125175   6.598   2.503   2.843
 8410TIP3    H225176   6.722   2.465   2.765
 8411TIP3   OH225177   5.192   6.260   0.098
 8411TIP3    H125178   5.184   6.215   0.181
 8411TIP3    H225179   5.277   6.304   0.102
 8412TIP3   OH225180   7.301   7.099   3.942
 8412TIP3    H125181   7.355   7.026   3.972
 8412TIP3    H225182   7.230   7.104   4.005
 8413TIP3   OH225183   7.797   1.771   5.607
 8413TIP3    H125184   7.855   1.719   5.551
 8413TIP3    H225185   7.853   1.798   5.679
 8414TIP3   OH225186   6.001   5.363   5.486
 8414TIP3    H125187   6.074   5.345   5.545
 8414TIP3    H225188   5.979   5.277   5.448
 8415TIP3   OH225189   3.017   5.129   3.694
 8415TIP3    H125190   2.950   5.138   3.626
 8415TIP3    H225191   3.073   5.206   3.684
 8416TIP3   OH225192   6.249   3.651   2.118
 8416TIP3    H125193   6.287   3.704   2.188
 8416TIP3    H225194   6.188   3.592   2.163
 8417TIP3   OH225195   2.560   2.058   3.996
 8417TIP3    H125196   2.650   2.089   4.004
 8417TIP3    H225197   2.548   2.042   3.903
 8418TIP3   OH225198   4.139   0.353   4.971
 8418TIP3    H125199   4.199   0.420   4.938
 8418TIP3    H225200   4.076   0.401   5.024
 8419TIP3   OH225201   3.827   0.972   4.822
 8419TIP3    H125202   3.902   0.933   4.777
 8419TIP3    H225203   3.821   0.925   4.905
 8420TIP3   OH225204   3.272   2.246   4.865
 8420TIP3    H125205   3.184   2.242   4.901
 8420TIP3    H225206   3.264   2.210   4.777
 8421TIP3   OH225207   4.286   5.119   5.810
 8421TIP3    H125208   4.199   5.128   5.772
 8421TIP3    H225209   4.303   5.203   5.853
 8422TIP3   OH225210   4.728   5.178   2.042
 8422TIP3    H125211   4.807   5.129   2.064
 8422TIP3    H225212   4.747   5.218   1.957
 8423TIP3   OH225213   3.381   7.687   0.762
 8423TIP3    H125214   3.335   7.676   0.679
 8423TIP3    H225215   3.424   7.603   0.778
 8424TIP3   OH225216   7.487   5.873   1.438
 8424TIP3    H125217   7.514   5.845   1.526
 8424TIP3    H225218   7.505   5.967   1.437
 8425TIP3   OH225219   0.642   0.345   5.751
 8425TIP3    H125220   0.574   0.352   5.818
 8425TIP3    H225221   0.720   0.383   5.792
 8426TIP3   OH225222   7.543   3.004   5.978
 8426TIP3    H125223   7.474   2.941   5.997
 8426TIP3    H225224   7.610   2.989   6.045
 8427TIP3   OH225225   0.709   5.793   3.927
 8427TIP3    H125226   0.802   5.808   3.909
 8427TIP3    H225227   0.681   5.871   3.975
 8428TIP3   OH225228   0.889   1.598   3.268
 8428TIP3    H125229   0.942   1.529   3.230
 8428TIP3    H225230   0.842   1.556   3.340
 8429TIP3   OH225231   1.248   5.702   3.950
 8429TIP3    H125232   1.279   5.629   4.005
 8429TIP3    H225233   1.322   5.763   3.948
 8430TIP3   OH225234   7.979   7.497   2.292
 8430TIP3    H125235   8.019   7.500   2.379
 8430TIP3    H225236   7.972   7.588   2.265
 8431TIP3   OH225237   6.353   5.951   5.285
 8431TIP3    H125238   6.444   5.932   5.307
 8431TIP3    H225239   6.316   5.991   5.364
 8432TIP3   OH225240   7.143   1.266   6.472
 8432TIP3    H125241   7.184   1.224   6.397
 8432TIP3    H225242   7.206   1.254   6.543
 8433TIP3   OH225243   0.442   6.641   0.711
 8433TIP3    H125244   0.371   6.706   0.716
 8433TIP3    H225245   0.404   6.569   0.661
 8434TIP3   OH225246   3.398   7.220   5.152
 8434TIP3    H125247   3.360   7.265   5.228
 8434TIP3    H225248   3.476   7.176   5.187
 8435TIP3   OH225249   4.782   3.125   4.673
 8435TIP3    H125250   4.855   3.160   4.724
 8435TIP3    H225251   4.789   3.030   4.682
 8436TIP3   OH225252   3.201   1.432   2.311
 8436TIP3    H125253   3.156   1.390   2.238
 8436TIP3    H225254   3.282   1.466   2.273
 8437TIP3   OH225255  -0.017   3.902   5.780
 8437TIP3    H125256   0.032   3.883   5.700
 8437TIP3    H225257  -0.001   3.825   5.836
 8438TIP3   OH225258   0.208   5.031   2.059
 8438TIP3    H125259   0.230   5.124   2.064
 8438TIP3    H225260   0.199   5.013   1.965
 8439TIP3   OH225261   4.983   5.116   4.307
 8439TIP3    H125262   5.048   5.137   4.374
 8439TIP3    H225263   5.005   5.027   4.279
 8440TIP3   OH225264   5.765   7.553   5.369
 8440TIP3    H125265   5.789   7.591   5.454
 8440TIP3    H225266   5.833   7.585   5.309
 8441TIP3   OH225267   6.592   3.248   0.280
 8441TIP3    H125268   6.624   3.295   0.356
 8441TIP3    H225269   6.558   3.316   0.221
 8442TIP3   OH225270   1.919   1.573   5.302
 8442TIP3    H125271   1.852   1.546   5.240
 8442TIP3    H225272   1.879   1.644   5.352
 8443TIP3   OH225273   0.490   0.854   1.674
 8443TIP3    H125274   0.481   0.816   1.586
 8443TIP3    H225275   0.564   0.915   1.666
 8444TIP3   OH225276   0.813   7.156   4.453
 8444TIP3    H125277   0.840   7.123   4.539
 8444TIP3    H225278   0.866   7.234   4.440
 8445TIP3   OH225279   4.702   4.883   2.777
 8445TIP3    H125280   4.764   4.896   2.705
 8445TIP3    H225281   4.630   4.942   2.757
 8446TIP3   OH225282   3.867   0.864   1.020
 8446TIP3    H125283   3.852   0.938   1.079
 8446TIP3    H225284   3.902   0.903   0.941
 8447TIP3   OH225285   4.452   1.264   3.291
 8447TIP3    H125286   4.503   1.345   3.282
 8447TIP3    H225287   4.496   1.215   3.360
 8448TIP3   OH225288   6.330   6.583   4.584
 8448TIP3    H125289   6.250   6.587   4.637
 8448TIP3    H225290   6.401   6.572   4.647
 8449TIP3   OH225291   1.167   1.016   2.845
 8449TIP3    H125292   1.090   0.976   2.884
 8449TIP3    H225293   1.169   1.105   2.882
 8450TIP3   OH225294   6.720   7.376   1.081
 8450TIP3    H125295   6.769   7.430   1.020
 8450TIP3    H225296   6.682   7.438   1.143
 8451TIP3   OH225297   3.741   5.976   3.982
 8451TIP3    H125298   3.733   5.910   3.913
 8451TIP3    H225299   3.651   5.998   4.005
 8452TIP3   OH225300   1.812   3.429   5.782
 8452TIP3    H125301   1.778   3.499   5.838
 8452TIP3    H225302   1.793   3.458   5.693
 8453TIP3   OH225303   7.454   4.041   3.475
 8453TIP3    H125304   7.458   4.023   3.381
 8453TIP3    H225305   7.361   4.052   3.493
 8454TIP3   OH225306   3.694   3.306   1.994
 8454TIP3    H125307   3.680   3.221   1.952
 8454TIP3    H225308   3.635   3.305   2.069
 8455TIP3   OH225309   4.045   5.356   6.636
 8455TIP3    H125310   4.113   5.325   6.576
 8455TIP3    H225311   4.011   5.435   6.594
 8456TIP3   OH225312   6.946   6.564   0.976
 8456TIP3    H125313   6.862   6.543   1.017
 8456TIP3    H225314   7.010   6.554   1.046
 8457TIP3   OH225315   2.310   6.899   4.378
 8457TIP3    H125316   2.292   6.806   4.370
 8457TIP3    H225317   2.378   6.916   4.312
 8458TIP3   OH225318   3.255   4.719   6.254
 8458TIP3    H125319   3.199   4.778   6.303
 8458TIP3    H225320   3.219   4.632   6.270
 8459TIP3   OH225321   3.183   7.152   5.547
 8459TIP3    H125322   3.166   7.213   5.475
 8459TIP3    H225323   3.148   7.068   5.516
 8460TIP3   OH225324   7.057   2.527   4.441
 8460TIP3    H125325   6.980   2.560   4.393
 8460TIP3    H225326   7.131   2.553   4.386
 8461TIP3   OH225327   7.876   4.419   3.559
 8461TIP3    H125328   7.795   4.465   3.580
 8461TIP3    H225329   7.943   4.488   3.557
 8462TIP3   OH225330   7.569   4.311   4.223
 8462TIP3    H125331   7.662   4.327   4.241
 8462TIP3    H225332   7.566   4.223   4.186
 8463TIP3   OH225333   2.445   4.627   1.255
 8463TIP3    H125334   2.406   4.693   1.198
 8463TIP3    H225335   2.537   4.653   1.263
 8464TIP3   OH225336   4.675   2.309   1.458
 8464TIP3    H125337   4.617   2.328   1.384
 8464TIP3    H225338   4.763   2.307   1.419
 8465TIP3   OH225339   0.366   6.897   4.322
 8465TIP3    H125340   0.408   6.983   4.323
 8465TIP3    H225341   0.322   6.891   4.407
 8466TIP3   OH225342   6.735   5.313   0.417
 8466TIP3    H125343   6.682   5.246   0.460
 8466TIP3    H225344   6.825   5.291   0.441
 8467TIP3   OH225345   2.395   3.413   2.187
 8467TIP3    H125346   2.369   3.321   2.181
 8467TIP3    H225347   2.341   3.457   2.121
 8468TIP3   OH225348   0.136   2.352   4.235
 8468TIP3    H125349   0.228   2.341   4.209
 8468TIP3    H225350   0.124   2.446   4.244
 8469TIP3   OH225351   3.768   6.974   6.613
 8469TIP3    H125352   3.753   6.909   6.682
 8469TIP3    H225353   3.692   7.032   6.618
 8470TIP3   OH225354   1.474   0.248   4.228
 8470TIP3    H125355   1.495   0.334   4.264
 8470TIP3    H225356   1.379   0.244   4.227
 8471TIP3   OH225357   3.802   5.637   2.461
 8471TIP3    H125358   3.878   5.591   2.497
 8471TIP3    H225359   3.765   5.576   2.398
 8472TIP3   OH225360   5.907   1.515   4.942
 8472TIP3    H125361   5.837   1.581   4.941
 8472TIP3    H225362   5.877   1.447   4.882
 8473TIP3   OH225363   0.817   4.360   2.185
 8473TIP3    H125364   0.764   4.320   2.254
 8473TIP3    H225365   0.907   4.334   2.206
 8474TIP3   OH225366   4.536   2.222   6.046
 8474TIP3    H125367   4.577   2.246   5.963
 8474TIP3    H225368   4.494   2.138   6.030
 8475TIP3   OH225369   4.592   2.519   3.842
 8475TIP3    H125370   4.680   2.543   3.872
 8475TIP3    H225371   4.533   2.548   3.911
 8476TIP3   OH225372   3.051   6.004   1.233
 8476TIP3    H125373   2.980   6.067   1.220
 8476TIP3    H225374   3.097   6.036   1.311
 8477TIP3   OH225375   2.705   3.891   6.014
 8477TIP3    H125376   2.796   3.893   6.043
 8477TIP3    H225377   2.690   3.976   5.973
 8478TIP3   OH225378   5.827   1.959   3.122
 8478TIP3    H125379   5.771   1.891   3.161
 8478TIP3    H225380   5.852   1.923   3.037
 8479TIP3   OH225381   3.827   2.135   1.562
 8479TIP3    H125382   3.734   2.153   1.576
 8479TIP3    H225383   3.842   2.052   1.606
 8480TIP3   OH225384   3.861   7.840   5.901
 8480TIP3    H125385   3.911   7.822   5.981
 8480TIP3    H225386   3.878   7.765   5.845
 8481TIP3   OH225387   6.007   1.741   3.752
 8481TIP3    H125388   6.101   1.725   3.749
 8481TIP3    H225389   5.976   1.687   3.824
 8482TIP3   OH225390   3.228   4.338   4.245
 8482TIP3    H125391   3.248   4.383   4.163
 8482TIP3    H225392   3.133   4.342   4.252
 8483TIP3   OH225393   6.992   4.717   4.473
 8483TIP3    H125394   7.042   4.636   4.478
 8483TIP3    H225395   7.058   4.783   4.449
 8484TIP3   OH225396   4.308   1.486   3.804
 8484TIP3    H125397   4.355   1.563   3.835
 8484TIP3    H225398   4.238   1.473   3.868
 8485TIP3   OH225399   4.022   5.521   2.549
 8485TIP3    H125400   4.104   5.567   2.569
 8485TIP3    H225401   4.028   5.440   2.598
 8486TIP3   OH225402   6.415   3.277   5.924
 8486TIP3    H125403   6.444   3.286   5.833
 8486TIP3    H225404   6.360   3.353   5.940
 8487TIP3   OH225405   6.832   6.330   4.251
 8487TIP3    H125406   6.797   6.407   4.296
 8487TIP3    H225407   6.843   6.358   4.160
 8488TIP3   OH225408   5.052   7.125   6.464
 8488TIP3    H125409   5.001   7.144   6.385
 8488TIP3    H225410   5.098   7.044   6.444
 8489TIP3   OH225411   1.151   2.092   3.931
 8489TIP3    H125412   1.164   2.066   3.839
 8489TIP3    H225413   1.127   2.011   3.975
 8490TIP3   OH225414   6.663   0.214   0.336
 8490TIP3    H125415   6.633   0.144   0.278
 8490TIP3    H225416   6.673   0.172   0.421
 8491TIP3   OH225417   5.457   7.037   3.280
 8491TIP3    H125418   5.490   7.013   3.193
 8491TIP3    H225419   5.477   7.130   3.287
 8492TIP3   OH225420   3.336   6.320   2.414
 8492TIP3    H125421   3.281   6.290   2.487
 8492TIP3    H225422   3.346   6.414   2.430
 8493TIP3   OH225423   1.991   5.644   1.821
 8493TIP3    H125424   1.941   5.711   1.774
 8493TIP3    H225425   2.076   5.641   1.776
 8494TIP3   OH225426   1.719   6.731   5.380
 8494TIP3    H125427   1.692   6.674   5.452
 8494TIP3    H225428   1.809   6.706   5.362
 8495TIP3   OH225429   5.566   1.610   1.270
 8495TIP3    H125430   5.487   1.609   1.216
 8495TIP3    H225431   5.629   1.557   1.222
 8496TIP3   OH225432   5.394   1.590   2.521
 8496TIP3    H125433   5.459   1.526   2.550
 8496TIP3    H225434   5.366   1.559   2.435
 8497TIP3   OH225435   3.587   0.284   6.780
 8497TIP3    H125436   3.527   0.329   6.720
 8497TIP3    H225437   3.543   0.201   6.800
 8498TIP3   OH225438   2.228   3.580   1.208
 8498TIP3    H125439   2.161   3.512   1.222
 8498TIP3    H225440   2.180   3.662   1.216
 8499TIP3   OH225441   2.793   1.699   0.906
 8499TIP3    H125442   2.887   1.709   0.892
 8499TIP3    H225443   2.786   1.631   0.973
 8500TIP3   OH225444   5.223   4.198   2.284
 8500TIP3    H125445   5.266   4.249   2.216
 8500TIP3    H225446   5.294   4.155   2.331
 8501TIP3   OH225447   4.789   5.041   5.170
 8501TIP3    H125448   4.717   4.998   5.124
 8501TIP3    H225449   4.806   5.120   5.119
 8502TIP3   OH225450   6.456   6.007   4.491
 8502TIP3    H125451   6.441   6.045   4.405
 8502TIP3    H225452   6.458   6.082   4.551
 8503TIP3   OH225453   7.162   5.748   2.301
 8503TIP3    H125454   7.084   5.751   2.247
 8503TIP3    H225455   7.234   5.739   2.239
 8504TIP3   OH225456   0.296   2.627   4.010
 8504TIP3    H125457   0.350   2.647   4.086
 8504TIP3    H225458   0.302   2.704   3.955
 8505TIP3   OH225459   4.348   3.202   5.920
 8505TIP3    H125460   4.359   3.131   5.984
 8505TIP3    H225461   4.438   3.232   5.902
 8506TIP3   OH225462   3.606   4.695   1.713
 8506TIP3    H125463   3.531   4.751   1.732
 8506TIP3    H225464   3.589   4.660   1.625
 8507TIP3   OH225465   4.578   1.153   3.507
 8507TIP3    H125466   4.556   1.230   3.559
 8507TIP3    H225467   4.579   1.081   3.570
 8508TIP3   OH225468   2.388   3.554   2.807
 8508TIP3    H125469   2.463   3.508   2.767
 8508TIP3    H225470   2.311   3.511   2.770
 8509TIP3   OH225471   2.056   5.243   3.886
 8509TIP3    H125472   2.129   5.220   3.829
 8509TIP3    H225473   2.097   5.265   3.970
 8510TIP3   OH225474   0.691   1.389   1.536
 8510TIP3    H125475   0.686   1.311   1.481
 8510TIP3    H225476   0.676   1.461   1.475
 8511TIP3   OH225477   0.903   5.823   3.486
 8511TIP3    H125478   0.985   5.792   3.525
 8511TIP3    H225479   0.838   5.758   3.514
 8512TIP3   OH225480   2.944   6.216   3.344
 8512TIP3    H125481   2.882   6.147   3.367
 8512TIP3    H225482   2.928   6.234   3.252
 8513TIP3   OH225483   1.787   2.373   4.649
 8513TIP3    H125484   1.818   2.282   4.653
 8513TIP3    H225485   1.752   2.382   4.561
 8514TIP3   OH225486   2.766   4.571   2.774
 8514TIP3    H125487   2.849   4.528   2.796
 8514TIP3    H225488   2.714   4.566   2.854
 8515TIP3   OH225489   1.279   5.963   2.549
 8515TIP3    H125490   1.238   6.049   2.553
 8515TIP3    H225491   1.313   5.948   2.637
 8516TIP3   OH225492   6.323   0.452   4.937
 8516TIP3    H125493   6.280   0.443   4.852
 8516TIP3    H225494   6.379   0.374   4.944
 8517TIP3   OH225495   5.662   2.932   4.149
 8517TIP3    H125496   5.609   2.856   4.124
 8517TIP3    H225497   5.599   2.997   4.179
 8518TIP3   OH225498   5.496   1.356   5.814
 8518TIP3    H125499   5.441   1.410   5.871
 8518TIP3    H225500   5.434   1.299   5.769
 8519TIP3   OH225501   4.642   7.313   5.035
 8519TIP3    H125502   4.656   7.277   4.948
 8519TIP3    H225503   4.726   7.354   5.058
 8520TIP3   OH225504   2.048   0.398   1.482
 8520TIP3    H125505   2.138   0.407   1.449
 8520TIP3    H225506   2.022   0.487   1.506
 8521TIP3   OH225507   7.609   3.002   1.979
 8521TIP3    H125508   7.681   3.064   1.971
 8521TIP3    H225509   7.637   2.939   2.044
 8522TIP3   OH225510   5.898   0.030   5.962
 8522TIP3    H125511   5.810   0.058   5.988
 8522TIP3    H225512   5.901   0.046   5.868
 8523TIP3   OH225513   3.942   2.606   1.171
 8523TIP3    H125514   3.969   2.636   1.258
 8523TIP3    H225515   3.904   2.520   1.186
 8524TIP3   OH225516   7.252   2.947   5.978
 8524TIP3    H125517   7.203   2.865   5.975
 8524TIP3    H225518   7.244   2.983   5.889
 8525TIP3   OH225519   5.038   1.848   2.620
 8525TIP3    H125520   4.965   1.901   2.653
 8525TIP3    H225521   5.116   1.900   2.637
 8526TIP3   OH225522   1.204   2.752   2.227
 8526TIP3    H125523   1.275   2.730   2.288
 8526TIP3    H225524   1.218   2.845   2.207
 8527TIP3   OH225525   7.781   1.117   3.634
 8527TIP3    H125526   7.801   1.106   3.541
 8527TIP3    H225527   7.832   1.193   3.661
 8528TIP3   OH225528   7.477   3.140   4.319
 8528TIP3    H125529   7.554   3.195   4.306
 8528TIP3    H225530   7.463   3.097   4.234
 8529TIP3   OH225531   7.640   5.880   4.070
 8529TIP3    H125532   7.677   5.811   4.125
 8529TIP3    H225533   7.661   5.853   3.981
 8530TIP3   OH225534   0.592   1.431   0.873
 8530TIP3    H125535   0.664   1.484   0.908
 8530TIP3    H225536   0.616   1.416   0.781
 8531TIP3   OH225537   5.210   5.133   0.927
 8531TIP3    H125538   5.246   5.221   0.919
 8531TIP3    H225539   5.197   5.121   1.021
 8532TIP3   OH225540   0.510   5.395   5.151
 8532TIP3    H125541   0.433   5.453   5.161
 8532TIP3    H225542   0.538   5.376   5.240
 8533TIP3   OH225543   6.602   6.224   2.577
 8533TIP3    H125544   6.562   6.248   2.661
 8533TIP3    H225545   6.689   6.192   2.600
 8534TIP3   OH225546   2.751   4.220   2.884
 8534TIP3    H125547   2.795   4.191   2.964
 8534TIP3    H225548   2.795   4.170   2.814
 8535TIP3   OH225549   4.485   1.397   3.626
 8535TIP3    H125550   4.440   1.403   3.710
 8535TIP3    H225551   4.521   1.484   3.611
 8536TIP3   OH225552   8.129   1.506   2.392
 8536TIP3    H125553   8.097   1.465   2.472
 8536TIP3    H225554   8.137   1.599   2.413
 8537TIP3   OH225555   6.780   3.819   4.806
 8537TIP3    H125556   6.762   3.908   4.835
 8537TIP3    H225557   6.816   3.829   4.718
 8538TIP3   OH225558   0.914   7.804   5.201
 8538TIP3    H125559   0.821   7.783   5.192
 8538TIP3    H225560   0.957   7.719   5.213
 8539TIP3   OH225561   3.009   1.666   4.795
 8539TIP3    H125562   3.001   1.701   4.706
 8539TIP3    H225563   2.920   1.643   4.821
 8540TIP3   OH225564   7.046   6.146   4.362
 8540TIP3    H125565   7.120   6.195   4.398
 8540TIP3    H225566   6.992   6.212   4.319
 8541TIP3   OH225567   1.001   2.976   3.728
 8541TIP3    H125568   1.016   3.021   3.811
 8541TIP3    H225569   0.950   2.899   3.752
 8542TIP3   OH225570   4.114   1.559   0.538
 8542TIP3    H125571   4.090   1.470   0.561
 8542TIP3    H225572   4.168   1.590   0.611
 8543TIP3   OH225573   2.857   3.471   5.110
 8543TIP3    H125574   2.877   3.478   5.017
 8543TIP3    H225575   2.931   3.423   5.147
 8544TIP3   OH225576   1.714   5.892   6.502
 8544TIP3    H125577   1.683   5.888   6.411
 8544TIP3    H225578   1.743   5.803   6.521
 8545TIP3   OH225579   7.485   6.931   1.064
 8545TIP3    H125580   7.496   7.011   1.116
 8545TIP3    H225581   7.446   6.961   0.982
 8546TIP3   OH225582   3.264   6.872   1.546
 8546TIP3    H125583   3.346   6.840   1.583
 8546TIP3    H225584   3.269   6.848   1.453
 8547TIP3   OH225585   4.925   3.071   3.604
 8547TIP3    H125586   4.932   2.993   3.550
 8547TIP3    H225587   4.928   3.038   3.694
 8548TIP3   OH225588   6.083   0.989   4.765
 8548TIP3    H125589   5.995   1.014   4.736
 8548TIP3    H225590   6.138   1.064   4.741
 8549TIP3   OH225591   4.527   4.057   2.814
 8549TIP3    H125592   4.452   3.998   2.819
 8549TIP3    H225593   4.523   4.108   2.894
 8550TIP3   OH225594   0.746   4.205   2.381
 8550TIP3    H125595   0.812   4.179   2.445
 8550TIP3    H225596   0.681   4.254   2.431
 8551TIP3   OH225597   6.610   6.352   2.122
 8551TIP3    H125598   6.617   6.348   2.027
 8551TIP3    H225599   6.605   6.260   2.149
 8552TIP3   OH225600   5.212   3.015   6.617
 8552TIP3    H125601   5.279   3.074   6.582
 8552TIP3    H225602   5.194   2.953   6.546
 8553TIP3   OH225603   7.547   5.320   5.663
 8553TIP3    H125604   7.464   5.283   5.694
 8553TIP3    H225605   7.523   5.406   5.629
 8554TIP3   OH225606   4.457   2.926   3.932
 8554TIP3    H125607   4.396   2.852   3.930
 8554TIP3    H225608   4.413   2.994   3.881
 8555TIP3   OH225609   7.786   0.637   3.542
 8555TIP3    H125610   7.861   0.628   3.483
 8555TIP3    H225611   7.782   0.730   3.563
 8556TIP3   OH225612   4.474   2.755   4.463
 8556TIP3    H125613   4.487   2.664   4.490
 8556TIP3    H225614   4.562   2.785   4.438
 8557TIP3   OH225615   3.603   5.698   2.669
 8557TIP3    H125616   3.567   5.633   2.728
 8557TIP3    H225617   3.662   5.649   2.612
 8558TIP3   OH225618   3.099   3.283   5.863
 8558TIP3    H125619   3.019   3.336   5.866
 8558TIP3    H225620   3.151   3.313   5.937
 8559TIP3   OH225621   4.120   0.833   6.524
 8559TIP3    H125622   4.181   0.821   6.450
 8559TIP3    H225623   4.173   0.877   6.591
 8560TIP3   OH225624   1.490   4.903   4.659
 8560TIP3    H125625   1.465   4.969   4.724
 8560TIP3    H225626   1.415   4.843   4.656
 8561TIP3   OH225627   6.100   2.736   5.289
 8561TIP3    H125628   6.142   2.691   5.363
 8561TIP3    H225629   6.161   2.723   5.216
 8562TIP3   OH225630   6.893   3.661   3.046
 8562TIP3    H125631   6.822   3.709   3.088
 8562TIP3    H225632   6.964   3.725   3.039
 8563TIP3   OH225633   0.398   5.076   2.289
 8563TIP3    H125634   0.351   5.159   2.296
 8563TIP3    H225635   0.486   5.096   2.320
 8564TIP3   OH225636   7.943   5.043   4.768
 8564TIP3    H125637   7.914   4.991   4.843
 8564TIP3    H225638   8.011   5.100   4.803
 8565TIP3   OH225639   7.752   6.833   1.300
 8565TIP3    H125640   7.805   6.883   1.238
 8565TIP3    H225641   7.757   6.883   1.382
 8566TIP3   OH225642   3.889   5.124   3.338
 8566TIP3    H125643   3.907   5.042   3.292
 8566TIP3    H225644   3.812   5.160   3.293
 8567TIP3   OH225645   5.799   3.466   6.238
 8567TIP3    H125646   5.735   3.510   6.182
 8567TIP3    H225647   5.859   3.536   6.265
 8568TIP3   OH225648   2.831   3.157   4.578
 8568TIP3    H125649   2.760   3.175   4.518
 8568TIP3    H225650   2.860   3.243   4.608
 8569TIP3   OH225651   1.768   3.955   0.450
 8569TIP3    H125652   1.729   4.040   0.432
 8569TIP3    H225653   1.825   3.970   0.525
 8570TIP3   OH225654   7.735   6.841   0.978
 8570TIP3    H125655   7.779   6.910   1.027
 8570TIP3    H225656   7.642   6.865   0.982
 8571TIP3   OH225657   2.025   5.927   0.428
 8571TIP3    H125658   2.051   5.896   0.341
 8571TIP3    H225659   2.105   5.922   0.480
 8572TIP3   OH225660   6.243   0.448   3.304
 8572TIP3    H125661   6.220   0.472   3.215
 8572TIP3    H225662   6.337   0.465   3.311
 8573TIP3   OH225663   8.159   2.028  -0.008
 8573TIP3    H125664   8.116   1.942  -0.008
 8573TIP3    H225665   8.217   2.026   0.068
 8574TIP3   OH225666   6.782   1.852   6.210
 8574TIP3    H125667   6.859   1.822   6.161
 8574TIP3    H225668   6.709   1.805   6.169
 8575TIP3   OH225669   7.457   3.234   0.628
 8575TIP3    H125670   7.420   3.255   0.542
 8575TIP3    H225671   7.469   3.319   0.670
 8576TIP3   OH225672   8.087   1.095   0.044
 8576TIP3    H125673   8.182   1.084   0.054
 8576TIP3    H225674   8.051   1.008   0.058
 8577TIP3   OH225675   0.703   5.418   2.862
 8577TIP3    H125676   0.715   5.513   2.862
 8577TIP3    H225677   0.689   5.395   2.954
 8578TIP3   OH225678   6.933   6.712   6.644
 8578TIP3    H125679   6.977   6.669   6.571
 8578TIP3    H225680   6.981   6.682   6.721
 8579TIP3   OH225681   7.266   3.773   0.015
 8579TIP3    H125682   7.263   3.802   0.106
 8579TIP3    H225683   7.314   3.690   0.017
 8580TIP3   OH225684   6.012   2.793   0.817
 8580TIP3    H125685   6.011   2.833   0.904
 8580TIP3    H225686   5.970   2.857   0.760
 8581TIP3   OH225687   4.845   0.303   1.291
 8581TIP3    H125688   4.905   0.308   1.216
 8581TIP3    H225689   4.870   0.222   1.335
 8582TIP3   OH225690   0.169   0.738   5.647
 8582TIP3    H125691   0.225   0.777   5.715
 8582TIP3    H225692   0.227   0.727   5.572
 8583TIP3   OH225693   0.912   2.982   5.891
 8583TIP3    H125694   0.845   2.929   5.848
 8583TIP3    H225695   0.990   2.927   5.892
 8584TIP3   OH225696   8.158   2.272   0.731
 8584TIP3    H125697   8.212   2.196   0.711
 8584TIP3    H225698   8.161   2.279   0.827
 8585TIP3   OH225699   4.041   3.703   2.860
 8585TIP3    H125700   4.072   3.715   2.950
 8585TIP3    H225701   4.107   3.648   2.819
 8586TIP3   OH225702   0.204   3.917   2.557
 8586TIP3    H125703   0.171   3.970   2.484
 8586TIP3    H225704   0.126   3.889   2.604
 8587TIP3   OH225705   4.276   6.977   4.256
 8587TIP3    H125706   4.230   7.053   4.291
 8587TIP3    H225707   4.211   6.907   4.259
 8588TIP3   OH225708   0.448   3.721   5.022
 8588TIP3    H125709   0.353   3.712   5.030
 8588TIP3    H225710   0.469   3.803   5.067
 8589TIP3   OH225711   5.456   4.183   6.411
 8589TIP3    H125712   5.423   4.225   6.332
 8589TIP3    H225713   5.410   4.099   6.415
 8590TIP3   OH225714   1.507   7.148   0.306
 8590TIP3    H125715   1.600   7.166   0.315
 8590TIP3    H225716   1.485   7.177   0.218
 8591TIP3   OH225717   7.659   4.533   2.577
 8591TIP3    H125718   7.633   4.514   2.487
 8591TIP3    H225719   7.713   4.458   2.603
 8592TIP3   OH225720   2.094   7.032   6.489
 8592TIP3    H125721   2.009   7.051   6.529
 8592TIP3    H225722   2.096   7.087   6.410
 8593TIP3   OH225723   1.981   5.591   2.119
 8593TIP3    H125724   1.993   5.686   2.125
 8593TIP3    H225725   1.993   5.572   2.026
 8594TIP3   OH225726   6.396   6.048   2.549
 8594TIP3    H125727   6.413   5.966   2.595
 8594TIP3    H225728   6.471   6.103   2.570
 8595TIP3   OH225729   3.060   4.236   3.783
 8595TIP3    H125730   2.975   4.229   3.826
 8595TIP3    H225731   3.053   4.315   3.730
 8596TIP3   OH225732   4.456   6.148   6.664
 8596TIP3    H125733   4.481   6.097   6.587
 8596TIP3    H225734   4.396   6.214   6.631
 8597TIP3   OH225735   2.773   1.502   0.395
 8597TIP3    H125736   2.803   1.583   0.437
 8597TIP3    H225737   2.853   1.458   0.369
 8598TIP3   OH225738   2.946   3.395   1.379
 8598TIP3    H125739   2.901   3.372   1.461
 8598TIP3    H225740   2.889   3.459   1.337
 8599TIP3   OH225741   0.103   0.285   3.034
 8599TIP3    H125742   0.064   0.310   2.950
 8599TIP3    H225743   0.101   0.366   3.086
 8600TIP3   OH225744   7.237   0.736   2.028
 8600TIP3    H125745   7.151   0.725   2.066
 8600TIP3    H225746   7.294   0.759   2.101
 8601TIP3   OH225747   1.087   4.836   2.411
 8601TIP3    H125748   1.098   4.930   2.396
 8601TIP3    H225749   1.075   4.800   2.323
 8602TIP3   OH225750   2.702   1.908   0.799
 8602TIP3    H125751   2.732   1.823   0.831
 8602TIP3    H225752   2.607   1.907   0.813
 8603TIP3   OH225753   3.388   7.224   4.692
 8603TIP3    H125754   3.374   7.258   4.780
 8603TIP3    H225755   3.369   7.298   4.634
 8604TIP3   OH225756   3.873   4.005   2.854
 8604TIP3    H125757   3.826   4.080   2.890
 8604TIP3    H225758   3.848   3.932   2.910
 8605TIP3   OH225759   3.035   0.388   6.207
 8605TIP3    H125760   3.073   0.452   6.147
 8605TIP3    H225761   2.953   0.430   6.237
 8606TIP3   OH225762   1.747   1.834   2.866
 8606TIP3    H125763   1.813   1.898   2.839
 8606TIP3    H225764   1.728   1.857   2.957
 8607TIP3   OH225765   1.645   0.236   6.632
 8607TIP3    H125766   1.607   0.217   6.546
 8607TIP3    H225767   1.670   0.328   6.626
 8608TIP3   OH225768   0.357   1.345   1.068
 8608TIP3    H125769   0.388   1.399   0.995
 8608TIP3    H225770   0.308   1.406   1.123
 8609TIP3   OH225771   2.962   0.619   0.967
 8609TIP3    H125772   2.923   0.565   1.035
 8609TIP3    H225773   3.055   0.593   0.966
 8610TIP3   OH225774   1.618   2.015   1.894
 8610TIP3    H125775   1.639   1.969   1.975
 8610TIP3    H225776   1.634   2.108   1.914
 8611TIP3   OH225777   6.325   0.992   2.515
 8611TIP3    H125778   6.311   0.918   2.574
 8611TIP3    H225779   6.378   0.956   2.444
 8612TIP3   OH225780   8.096   3.492   6.319
 8612TIP3    H125781   8.171   3.541   6.285
 8612TIP3    H225782   8.135   3.424   6.374
 8613TIP3   OH225783   3.604   4.728   0.703
 8613TIP3    H125784   3.585   4.635   0.695
 8613TIP3    H225785   3.650   4.751   0.622
 8614TIP3   OH225786   6.385   0.851   2.018
 8614TIP3    H125787   6.410   0.941   2.039
 8614TIP3    H225788   6.465   0.800   2.032
 8615TIP3   OH225789   2.255   2.225   3.745
 8615TIP3    H125790   2.181   2.277   3.778
 8615TIP3    H225791   2.240   2.219   3.651
 8616TIP3   OH225792   3.052   4.070   2.353
 8616TIP3    H125793   3.145   4.049   2.365
 8616TIP3    H225794   3.047   4.165   2.365
 8617TIP3   OH225795   1.761   2.424   6.538
 8617TIP3    H125796   1.843   2.384   6.569
 8617TIP3    H225797   1.777   2.519   6.544
 8618TIP3   OH225798   2.831   6.115   0.559
 8618TIP3    H125799   2.825   6.033   0.509
 8618TIP3    H225800   2.895   6.096   0.628
 8619TIP3   OH225801   1.622   0.044   2.176
 8619TIP3    H125802   1.706   0.005   2.198
 8619TIP3    H225803   1.580   0.061   2.260
 8620TIP3   OH225804   2.716   7.693   0.975
 8620TIP3    H125805   2.732   7.641   0.896
 8620TIP3    H225806   2.730   7.783   0.948
 8621TIP3   OH225807   1.056   2.372   3.888
 8621TIP3    H125808   1.126   2.435   3.903
 8621TIP3    H225809   1.085   2.293   3.934
 8622TIP3   OH225810   8.159   7.242   3.789
 8622TIP3    H125811   8.159   7.231   3.694
 8622TIP3    H225812   8.234   7.298   3.807
 8623TIP3   OH225813   8.284   6.444   6.513
 8623TIP3    H125814   8.306   6.351   6.502
 8623TIP3    H225815   8.222   6.445   6.586
 8624TIP3   OH225816   7.393   3.282   1.546
 8624TIP3    H125817   7.307   3.322   1.550
 8624TIP3    H225818   7.419   3.271   1.638
 8625TIP3   OH225819   2.401   2.100   4.340
 8625TIP3    H125820   2.312   2.092   4.375
 8625TIP3    H225821   2.390   2.106   4.245
 8626TIP3   OH225822   4.375   2.119   4.790
 8626TIP3    H125823   4.332   2.035   4.774
 8626TIP3    H225824   4.305   2.184   4.786
 8627TIP3   OH225825   3.968   4.296   3.115
 8627TIP3    H125826   4.003   4.285   3.203
 8627TIP3    H225827   3.996   4.218   3.067
 8628TIP3   OH225828   3.229   4.273   4.658
 8628TIP3    H125829   3.135   4.263   4.669
 8628TIP3    H225830   3.243   4.368   4.657
 8629TIP3   OH225831   2.074   1.410   5.140
 8629TIP3    H125832   2.007   1.341   5.141
 8629TIP3    H225833   2.030   1.487   5.177
 8630TIP3   OH225834   6.885   7.431   4.615
 8630TIP3    H125835   6.862   7.367   4.682
 8630TIP3    H225836   6.901   7.380   4.536
 8631TIP3   OH225837   7.953   2.293   6.159
 8631TIP3    H125838   8.017   2.334   6.217
 8631TIP3    H225839   7.942   2.205   6.194
 8632TIP3   OH225840   6.487   6.849   2.697
 8632TIP3    H125841   6.467   6.941   2.679
 8632TIP3    H225842   6.493   6.844   2.793
 8633TIP3   OH225843   2.405   5.848   3.931
 8633TIP3    H125844   2.470   5.807   3.988
 8633TIP3    H225845   2.453   5.872   3.852
 8634TIP3   OH225846   7.373   1.962   2.187
 8634TIP3    H125847   7.284   1.949   2.154
 8634TIP3    H225848   7.381   1.901   2.260
 8635TIP3   OH225849   6.330   6.702   3.947
 8635TIP3    H125850   6.259   6.643   3.922
 8635TIP3    H225851   6.311   6.725   4.038
 8636TIP3   OH225852   6.603   2.960   2.136
 8636TIP3    H125853   6.665   3.031   2.120
 8636TIP3    H225854   6.544   2.994   2.204
 8637TIP3   OH225855   7.252   4.697   2.032
 8637TIP3    H125856   7.334   4.747   2.030
 8637TIP3    H225857   7.264   4.634   2.103
 8638TIP3   OH225858   6.884   3.791   1.431
 8638TIP3    H125859   6.917   3.864   1.380
 8638TIP3    H225860   6.901   3.714   1.376
 8639TIP3   OH225861   4.623   2.359   1.780
 8639TIP3    H125862   4.566   2.284   1.794
 8639TIP3    H225863   4.650   2.352   1.688
 8640TIP3   OH225864   7.835   2.095   0.099
 8640TIP3    H125865   7.756   2.146   0.081
 8640TIP3    H225866   7.808   2.004   0.088
 8641TIP3   OH225867   5.979   1.116   6.600
 8641TIP3    H125868   5.885   1.119   6.619
 8641TIP3    H225869   6.000   1.204   6.568
 8642TIP3   OH225870   1.816   3.600   5.483
 8642TIP3    H125871   1.909   3.622   5.495
 8642TIP3    H225872   1.814   3.550   5.401
 8643TIP3   OH225873   6.852   7.553   0.918
 8643TIP3    H125874   6.910   7.628   0.913
 8643TIP3    H225875   6.890   7.490   0.855
 8644TIP3   OH225876   2.470   5.504   4.524
 8644TIP3    H125877   2.556   5.504   4.482
 8644TIP3    H225878   2.450   5.411   4.538
 8645TIP3   OH225879   2.248   4.985   0.302
 8645TIP3    H125880   2.333   4.976   0.257
 8645TIP3    H225881   2.235   5.079   0.309
 8646TIP3   OH225882   7.740   7.824   0.508
 8646TIP3    H125883   7.786   7.763   0.450
 8646TIP3    H225884   7.648   7.800   0.501
 8647TIP3   OH225885   5.784   0.207   4.784
 8647TIP3    H125886   5.726   0.279   4.757
 8647TIP3    H225887   5.728   0.129   4.781
 8648TIP3   OH225888   2.794   0.539   6.235
 8648TIP3    H125889   2.796   0.634   6.225
 8648TIP3    H225890   2.730   0.509   6.171
 8649TIP3   OH225891   7.933   2.727   6.567
 8649TIP3    H125892   7.993   2.671   6.615
 8649TIP3    H225893   7.986   2.765   6.497
 8650TIP3   OH225894   1.014   0.961   4.223
 8650TIP3    H125895   1.026   1.052   4.198
 8650TIP3    H225896   1.082   0.944   4.288
 8651TIP3   OH225897   7.328   1.905   0.731
 8651TIP3    H125898   7.245   1.860   0.717
 8651TIP3    H225899   7.304   1.990   0.767
 8652TIP3   OH225900   1.481   4.811   2.577
 8652TIP3    H125901   1.543   4.832   2.647
 8652TIP3    H225902   1.445   4.895   2.550
 8653TIP3   OH225903   6.498   4.268   6.094
 8653TIP3    H125904   6.432   4.290   6.029
 8653TIP3    H225905   6.563   4.217   6.047
 8654TIP3   OH225906   2.141   0.691   0.133
 8654TIP3    H125907   2.226   0.664   0.098
 8654TIP3    H225908   2.125   0.776   0.092
 8655TIP3   OH225909   3.736   3.002   0.564
 8655TIP3    H125910   3.660   3.019   0.620
 8655TIP3    H225911   3.768   2.916   0.592
 8656TIP3   OH225912   7.135   3.723   4.620
 8656TIP3    H125913   7.219   3.716   4.665
 8656TIP3    H225914   7.085   3.648   4.652
 8657TIP3   OH225915   0.059   3.016   6.531
 8657TIP3    H125916   0.082   2.990   6.621
 8657TIP3    H225917   0.142   3.013   6.484
 8658TIP3   OH225918   0.395   3.495   2.745
 8658TIP3    H125919   0.365   3.586   2.748
 8658TIP3    H225920   0.329   3.449   2.693
 8659TIP3   OH225921   7.061   6.267   3.382
 8659TIP3    H125922   7.117   6.191   3.402
 8659TIP3    H225923   6.975   6.243   3.416
 8660TIP3   OH225924   5.108   2.764   2.811
 8660TIP3    H125925   5.143   2.728   2.730
 8660TIP3    H225926   5.054   2.838   2.783
 8661TIP3   OH225927   2.231   3.507   2.462
 8661TIP3    H125928   2.308   3.555   2.493
 8661TIP3    H225929   2.264   3.452   2.391
 8662TIP3   OH225930   1.558   3.620   2.528
 8662TIP3    H125931   1.629   3.643   2.587
 8662TIP3    H225932   1.478   3.644   2.576
 8663TIP3   OH225933   2.710   6.638   3.218
 8663TIP3    H125934   2.744   6.727   3.204
 8663TIP3    H225935   2.724   6.594   3.134
 8664TIP3   OH225936   6.385   5.509   6.077
 8664TIP3    H125937   6.361   5.583   6.133
 8664TIP3    H225938   6.470   5.480   6.110
 8665TIP3   OH225939   0.349   6.558   1.488
 8665TIP3    H125940   0.256   6.554   1.511
 8665TIP3    H225941   0.352   6.535   1.395
 8666TIP3   OH225942   5.505   5.923   1.266
 8666TIP3    H125943   5.522   5.839   1.308
 8666TIP3    H225944   5.419   5.950   1.299
 8667TIP3   OH225945   1.912   5.776   4.030
 8667TIP3    H125946   1.986   5.715   4.026
 8667TIP3    H225947   1.883   5.772   4.121
 8668TIP3   OH225948   6.208   4.028   3.604
 8668TIP3    H125949   6.144   4.068   3.662
 8668TIP3    H225950   6.292   4.046   3.646
 8669TIP3   OH225951   6.820   4.061   5.209
 8669TIP3    H125952   6.795   4.149   5.182
 8669TIP3    H225953   6.915   4.065   5.222
 8670TIP3   OH225954   3.050   1.992   2.401
 8670TIP3    H125955   3.003   2.075   2.390
 8670TIP3    H225956   3.045   1.973   2.494
 8671TIP3   OH225957   1.050   5.660   2.288
 8671TIP3    H125958   1.087   5.609   2.216
 8671TIP3    H225959   1.117   5.656   2.356
 8672TIP3   OH225960   1.368   2.225   4.015
 8672TIP3    H125961   1.401   2.229   3.926
 8672TIP3    H225962   1.298   2.159   4.012
 8673TIP3   OH225963   6.181   6.613   0.286
 8673TIP3    H125964   6.268   6.615   0.325
 8673TIP3    H225965   6.156   6.521   0.285
 8674TIP3   OH225966   1.477   5.601   3.783
 8674TIP3    H125967   1.452   5.574   3.872
 8674TIP3    H225968   1.406   5.569   3.728
 8675TIP3   OH225969   3.525   7.720   4.221
 8675TIP3    H125970   3.448   7.674   4.190
 8675TIP3    H225971   3.553   7.670   4.298
 8676TIP3   OH225972   0.044   0.429   6.337
 8676TIP3    H125973   0.080   0.515   6.318
 8676TIP3    H225974   0.070   0.375   6.263
 8677TIP3   OH225975   1.131   4.375   5.498
 8677TIP3    H125976   1.065   4.445   5.500
 8677TIP3    H225977   1.199   4.408   5.441
 8678TIP3   OH225978   3.944   3.370   5.055
 8678TIP3    H125979   4.035   3.354   5.079
 8678TIP3    H225980   3.934   3.465   5.061
 8679TIP3   OH225981   3.108   3.853   1.839
 8679TIP3    H125982   3.085   3.937   1.879
 8679TIP3    H225983   3.028   3.802   1.842
 8680TIP3   OH225984   7.035   3.778   4.090
 8680TIP3    H125985   7.017   3.712   4.157
 8680TIP3    H225986   7.112   3.825   4.122
 8681TIP3   OH225987   6.953   5.013   4.546
 8681TIP3    H125988   6.921   5.091   4.500
 8681TIP3    H225989   7.005   4.966   4.481
 8682TIP3   OH225990   8.261   0.024   1.118
 8682TIP3    H125991   8.255   0.023   1.214
 8682TIP3    H225992   8.171   0.038   1.088
 8683TIP3   OH225993   2.473   3.342   1.240
 8683TIP3    H125994   2.460   3.321   1.148
 8683TIP3    H225995   2.474   3.258   1.285
 8684TIP3   OH225996   3.796   1.864   6.625
 8684TIP3    H125997   3.776   1.775   6.652
 8684TIP3    H225998   3.712   1.901   6.598
 8685TIP3   OH225999   7.135   7.040   4.972
 8685TIP3    H126000   7.059   7.097   4.962
 8685TIP3    H226001   7.144   7.028   5.066
 8686TIP3   OH226002   3.825   0.247   0.496
 8686TIP3    H126003   3.920   0.243   0.487
 8686TIP3    H226004   3.794   0.161   0.465
 8687TIP3   OH226005   6.080   6.727   2.143
 8687TIP3    H126006   6.049   6.711   2.054
 8687TIP3    H226007   6.001   6.733   2.196
 8688TIP3   OH226008   3.849   3.870   0.295
 8688TIP3    H126009   3.890   3.784   0.300
 8688TIP3    H226010   3.776   3.859   0.234
 8689TIP3   OH226011   6.767   5.702   6.294
 8689TIP3    H126012   6.758   5.775   6.357
 8689TIP3    H226013   6.708   5.635   6.328
 8690TIP3   OH226014   1.368   0.998   2.163
 8690TIP3    H126015   1.446   1.042   2.130
 8690TIP3    H226016   1.296   1.059   2.147
 8691TIP3   OH226017   0.847   0.351   4.261
 8691TIP3    H126018   0.939   0.368   4.282
 8691TIP3    H226019   0.800   0.367   4.343
 8692TIP3   OH226020   5.658   2.780   1.410
 8692TIP3    H126021   5.731   2.732   1.371
 8692TIP3    H226022   5.629   2.724   1.482
 8693TIP3   OH226023   4.900   3.788   1.782
 8693TIP3    H126024   4.885   3.874   1.823
 8693TIP3    H226025   4.830   3.781   1.716
 8694TIP3   OH226026   6.297   7.714   4.530
 8694TIP3    H126027   6.296   7.808   4.543
 8694TIP3    H226028   6.301   7.677   4.619
 8695TIP3   OH226029   4.930   7.032   6.168
 8695TIP3    H126030   4.925   6.941   6.198
 8695TIP3    H226031   4.876   7.080   6.231
 8696TIP3   OH226032   5.751   5.846   6.241
 8696TIP3    H126033   5.775   5.883   6.326
 8696TIP3    H226034   5.704   5.766   6.262
 8697TIP3   OH226035   2.735   1.411   0.941
 8697TIP3    H126036   2.693   1.471   0.880
 8697TIP3    H226037   2.666   1.349   0.966
 8698TIP3   OH226038   6.604   6.506   4.383
 8698TIP3    H126039   6.520   6.522   4.424
 8698TIP3    H226040   6.623   6.586   4.334
 8699TIP3   OH226041   5.419   6.407   6.499
 8699TIP3    H126042   5.387   6.398   6.589
 8699TIP3    H226043   5.510   6.435   6.509
 8700TIP3   OH226044   0.673   7.514   1.199
 8700TIP3    H126045   0.623   7.516   1.281
 8700TIP3    H226046   0.739   7.583   1.208
 8701TIP3   OH226047   1.669   3.048   6.242
 8701TIP3    H126048   1.696   3.051   6.150
 8701TIP3    H226049   1.630   2.961   6.254
 8702TIP3   OH226050   1.730   6.615   0.880
 8702TIP3    H126051   1.822   6.634   0.862
 8702TIP3    H226052   1.706   6.551   0.813
 8703TIP3   OH226053   7.275   4.236   4.297
 8703TIP3    H126054   7.269   4.203   4.208
 8703TIP3    H226055   7.318   4.321   4.288
 8704TIP3   OH226056   3.935   3.986   5.341
 8704TIP3    H126057   3.948   3.897   5.373
 8704TIP3    H226058   3.858   4.018   5.388
 8705TIP3   OH226059   7.168   2.101   0.256
 8705TIP3    H126060   7.156   2.015   0.215
 8705TIP3    H226061   7.093   2.111   0.314
 8706TIP3   OH226062   6.867   6.739   1.587
 8706TIP3    H126063   6.960   6.762   1.577
 8706TIP3    H226064   6.820   6.809   1.544
 8707TIP3   OH226065   7.423   3.651   4.191
 8707TIP3    H126066   7.378   3.724   4.148
 8707TIP3    H226067   7.430   3.677   4.282
 8708TIP3   OH226068   4.251   5.105   0.529
 8708TIP3    H126069   4.187   5.102   0.458
 8708TIP3    H226070   4.331   5.137   0.489
 8709TIP3   OH226071   0.476   1.099   1.060
 8709TIP3    H126072   0.441   1.188   1.052
 8709TIP3    H226073   0.399   1.044   1.073
 8710TIP3   OH226074   5.148   2.313   0.246
 8710TIP3    H126075   5.195   2.364   0.312
 8710TIP3    H226076   5.115   2.378   0.184
 8711TIP3   OH226077   6.348   4.879   2.124
 8711TIP3    H126078   6.376   4.855   2.035
 8711TIP3    H226079   6.310   4.799   2.160
 8712TIP3   OH226080   5.066   2.407   2.402
 8712TIP3    H126081   5.102   2.358   2.328
 8712TIP3    H226082   5.060   2.343   2.473
 8713TIP3   OH226083   3.227   6.140   6.075
 8713TIP3    H126084   3.282   6.143   5.997
 8713TIP3    H226085   3.247   6.221   6.121
 8714TIP3   OH226086   6.762   1.555   3.779
 8714TIP3    H126087   6.757   1.611   3.701
 8714TIP3    H226088   6.702   1.595   3.841
 8715TIP3   OH226089   2.941   4.660   4.603
 8715TIP3    H126090   3.015   4.604   4.628
 8715TIP3    H226091   2.913   4.625   4.518
 8716TIP3   OH226092   5.251   4.371   2.661
 8716TIP3    H126093   5.313   4.380   2.589
 8716TIP3    H226094   5.205   4.289   2.643
 8717TIP3   OH226095   6.040   3.533   0.715
 8717TIP3    H126096   5.976   3.489   0.770
 8717TIP3    H226097   6.109   3.468   0.701
 8718TIP3   OH226098   3.890   4.166   6.153
 8718TIP3    H126099   3.914   4.255   6.176
 8718TIP3    H226100   3.894   4.118   6.236
 8719TIP3   OH226101   4.749   4.777   0.087
 8719TIP3    H126102   4.786   4.833   0.019
 8719TIP3    H226103   4.693   4.835   0.139
 8720TIP3   OH226104   2.506   1.540   4.758
 8720TIP3    H126105   2.418   1.530   4.794
 8720TIP3    H226106   2.495   1.526   4.664
 8721TIP3   OH226107   8.179   2.125   3.280
 8721TIP3    H126108   8.236   2.111   3.204
 8721TIP3    H226109   8.196   2.216   3.306
 8722TIP3   OH226110   2.713   6.428   1.890
 8722TIP3    H126111   2.652   6.358   1.868
 8722TIP3    H226112   2.682   6.461   1.975
 8723TIP3   OH226113   2.116   5.538   0.119
 8723TIP3    H126114   2.080   5.572   0.037
 8723TIP3    H226115   2.113   5.443   0.108
 8724TIP3   OH226116   1.075   7.801   6.060
 8724TIP3    H126117   1.083   7.834   5.971
 8724TIP3    H226118   0.987   7.763   6.064
 8725TIP3   OH226119   1.905   2.136   4.565
 8725TIP3    H126120   1.986   2.099   4.598
 8725TIP3    H226121   1.877   2.077   4.495
 8726TIP3   OH226122   6.483   0.240   6.094
 8726TIP3    H126123   6.515   0.211   6.008
 8726TIP3    H226124   6.561   0.272   6.139
 8727TIP3   OH226125   7.409   3.124   0.169
 8727TIP3    H126126   7.397   3.106   0.262
 8727TIP3    H226127   7.500   3.100   0.151
 8728TIP3   OH226128   7.667   5.408   6.401
 8728TIP3    H126129   7.672   5.330   6.345
 8728TIP3    H226130   7.704   5.478   6.347
 8729TIP3   OH226131   0.958   2.082   2.691
 8729TIP3    H126132   0.959   2.038   2.776
 8729TIP3    H226133   1.050   2.086   2.665
 8730TIP3   OH226134   3.992   7.802   6.143
 8730TIP3    H126135   3.992   7.799   6.238
 8730TIP3    H226136   4.058   7.738   6.117
 8731TIP3   OH226137   4.595   7.656   5.544
 8731TIP3    H126138   4.524   7.714   5.572
 8731TIP3    H226139   4.675   7.701   5.571
 8732TIP3   OH226140   5.498   4.686   5.149
 8732TIP3    H126141   5.565   4.739   5.105
 8732TIP3    H226142   5.534   4.597   5.147
 8733TIP3   OH226143   1.514   4.577   6.623
 8733TIP3    H126144   1.555   4.662   6.638
 8733TIP3    H226145   1.547   4.521   6.693
 8734TIP3   OH226146   4.246   7.078   6.345
 8734TIP3    H126147   4.196   7.120   6.414
 8734TIP3    H226148   4.332   7.061   6.384
 8735TIP3   OH226149   7.804   5.114   2.236
 8735TIP3    H126150   7.831   5.026   2.208
 8735TIP3    H226151   7.811   5.112   2.331
 8736TIP3   OH226152   0.229   4.868   3.740
 8736TIP3    H126153   0.160   4.896   3.800
 8736TIP3    H226154   0.301   4.841   3.796
 8737TIP3   OH226155   0.096   0.390   4.917
 8737TIP3    H126156   0.142   0.417   4.837
 8737TIP3    H226157   0.013   0.436   4.913
 8738TIP3   OH226158   6.554   2.935   0.696
 8738TIP3    H126159   6.624   2.947   0.632
 8738TIP3    H226160   6.500   2.865   0.660
 8739TIP3   OH226161   6.914   0.291   2.367
 8739TIP3    H126162   6.848   0.278   2.435
 8739TIP3    H226163   6.882   0.240   2.292
 8740TIP3   OH226164   5.412   6.494   2.192
 8740TIP3    H126165   5.479   6.530   2.133
 8740TIP3    H226166   5.352   6.447   2.136
 8741TIP3   OH226167   7.722   4.140   0.352
 8741TIP3    H126168   7.811   4.149   0.320
 8741TIP3    H226169   7.720   4.054   0.393
 8742TIP3   OH226170   6.029   3.766   3.267
 8742TIP3    H126171   5.963   3.784   3.334
 8742TIP3    H226172   6.086   3.700   3.306
 8743TIP3   OH226173   4.445   6.866   4.762
 8743TIP3    H126174   4.431   6.774   4.741
 8743TIP3    H226175   4.416   6.913   4.683
 8744TIP3   OH226176   5.090   7.762   4.609
 8744TIP3    H126177   5.170   7.731   4.566
 8744TIP3    H226178   5.071   7.846   4.566
 8745TIP3   OH226179   4.016   2.425   2.918
 8745TIP3    H126180   4.024   2.407   2.824
 8745TIP3    H226181   3.985   2.515   2.922
 8746TIP3   OH226182   2.744   7.685   5.301
 8746TIP3    H126183   2.766   7.641   5.218
 8746TIP3    H226184   2.687   7.624   5.347
 8747TIP3   OH226185   5.273   4.409   1.892
 8747TIP3    H126186   5.283   4.376   1.802
 8747TIP3    H226187   5.359   4.398   1.931
 8748TIP3   OH226188   1.180   1.023   0.057
 8748TIP3    H126189   1.198   1.030  -0.037
 8748TIP3    H226190   1.119   1.095   0.074
 8749TIP3   OH226191   6.955   1.995   4.531
 8749TIP3    H126192   6.872   2.036   4.509
 8749TIP3    H226193   6.937   1.947   4.612
 8750TIP3   OH226194   3.091   3.365   6.427
 8750TIP3    H126195   3.030   3.298   6.395
 8750TIP3    H226196   3.154   3.377   6.355
 8751TIP3   OH226197   7.286   6.611   0.969
 8751TIP3    H126198   7.236   6.589   1.048
 8751TIP3    H226199   7.276   6.534   0.912
 8752TIP3   OH226200   6.237   4.118   1.935
 8752TIP3    H126201   6.261   4.075   1.853
 8752TIP3    H226202   6.217   4.046   1.995
 8753TIP3   OH226203   2.331   0.675   0.745
 8753TIP3    H126204   2.253   0.666   0.801
 8753TIP3    H226205   2.297   0.665   0.656
 8754TIP3   OH226206   4.994   6.155   6.512
 8754TIP3    H126207   4.979   6.198   6.596
 8754TIP3    H226208   5.020   6.065   6.536
 8755TIP3   OH226209   7.983   3.439   4.377
 8755TIP3    H126210   8.001   3.387   4.455
 8755TIP3    H226211   8.067   3.481   4.356
 8756TIP3   OH226212   0.701   4.590   6.534
 8756TIP3    H126213   0.619   4.625   6.569
 8756TIP3    H226214   0.674   4.521   6.473
 8757TIP3   OH226215   3.767   1.921   2.982
 8757TIP3    H126216   3.761   1.826   2.968
 8757TIP3    H226217   3.860   1.939   2.987
 8758TIP3   OH226218   5.845   1.613   2.375
 8758TIP3    H126219   5.826   1.524   2.404
 8758TIP3    H226220   5.774   1.634   2.313
 8759TIP3   OH226221   4.036   4.883   6.142
 8759TIP3    H126222   3.986   4.866   6.062
 8759TIP3    H226223   4.099   4.811   6.146
 8760TIP3   OH226224   0.158   1.854   4.935
 8760TIP3    H126225   0.123   1.932   4.891
 8760TIP3    H226226   0.189   1.798   4.864
 8761TIP3   OH226227   7.463   3.108   2.840
 8761TIP3    H126228   7.444   3.016   2.856
 8761TIP3    H226229   7.425   3.126   2.754
 8762TIP3   OH226230   2.768   3.731   6.630
 8762TIP3    H126231   2.699   3.734   6.564
 8762TIP3    H226232   2.790   3.638   6.638
 8763TIP3   OH226233   5.946   3.339   6.647
 8763TIP3    H126234   5.862   3.365   6.685
 8763TIP3    H226235   5.994   3.420   6.635
 8764TIP3   OH226236   4.637   7.190   1.799
 8764TIP3    H126237   4.692   7.268   1.807
 8764TIP3    H226238   4.561   7.209   1.854
 8765TIP3   OH226239   4.978   2.532   4.519
 8765TIP3    H126240   5.052   2.488   4.478
 8765TIP3    H226241   5.018   2.597   4.577
 8766TIP3   OH226242   0.326   0.171   3.592
 8766TIP3    H126243   0.274   0.241   3.630
 8766TIP3    H226244   0.382   0.141   3.665
 8767TIP3   OH226245   5.732   0.798   3.333
 8767TIP3    H126246   5.809   0.742   3.343
 8767TIP3    H226247   5.745   0.868   3.398
 8768TIP3   OH226248   1.026   6.634   5.055
 8768TIP3    H126249   1.041   6.540   5.062
 8768TIP3    H226250   1.113   6.672   5.041
 8769TIP3   OH226251   6.066   3.594   2.574
 8769TIP3    H126252   5.972   3.601   2.594
 8769TIP3    H226253   6.069   3.573   2.481
 8770TIP3   OH226254   4.398   3.345   3.418
 8770TIP3    H126255   4.310   3.363   3.450
 8770TIP3    H226256   4.450   3.421   3.446
 8771TIP3   OH226257   2.293   1.327   3.415
 8771TIP3    H126258   2.371   1.382   3.429
 8771TIP3    H226259   2.294   1.309   3.321
 8772TIP3   OH226260   4.679   0.030   6.580
 8772TIP3    H126261   4.654  -0.055   6.617
 8772TIP3    H226262   4.619   0.092   6.620
 8773TIP3   OH226263   0.453   0.874   0.817
 8773TIP3    H126264   0.428   0.796   0.866
 8773TIP3    H226265   0.500   0.928   0.881
 8774TIP3   OH226266   2.349   6.737   3.511
 8774TIP3    H126267   2.396   6.653   3.507
 8774TIP3    H226268   2.395   6.787   3.578
 8775TIP3   OH226269   4.309   7.214   0.135
 8775TIP3    H126270   4.394   7.227   0.179
 8775TIP3    H226271   4.327   7.149   0.067
 8776TIP3   OH226272   5.294   1.175   4.168
 8776TIP3    H126273   5.269   1.240   4.102
 8776TIP3    H226274   5.256   1.208   4.249
 8777TIP3   OH226275   4.471   1.354   6.559
 8777TIP3    H126276   4.481   1.271   6.511
 8777TIP3    H226277   4.524   1.342   6.638
 8778TIP3   OH226278   7.260   4.178   4.035
 8778TIP3    H126279   7.322   4.169   3.963
 8778TIP3    H226280   7.176   4.193   3.992
 8779TIP3   OH226281   6.622   1.696   0.561
 8779TIP3    H126282   6.637   1.601   0.562
 8779TIP3    H226283   6.638   1.722   0.470
 8780TIP3   OH226284   3.703   0.842   3.252
 8780TIP3    H126285   3.623   0.878   3.213
 8780TIP3    H226286   3.702   0.873   3.342
 8781TIP3   OH226287   6.413   2.039   4.373
 8781TIP3    H126288   6.500   2.052   4.410
 8781TIP3    H226289   6.392   1.947   4.390
 8782TIP3   OH226290   0.874   1.740   1.320
 8782TIP3    H126291   0.885   1.647   1.299
 8782TIP3    H226292   0.956   1.766   1.362
 8783TIP3   OH226293   4.317   1.072   6.202
 8783TIP3    H126294   4.277   1.158   6.192
 8783TIP3    H226295   4.250   1.019   6.244
 8784TIP3   OH226296   5.712   7.584   5.651
 8784TIP3    H126297   5.624   7.589   5.686
 8784TIP3    H226298   5.745   7.499   5.680
 8785TIP3   OH226299   6.154   0.700   4.388
 8785TIP3    H126300   6.121   0.619   4.426
 8785TIP3    H226301   6.234   0.719   4.437
 8786TIP3   OH226302   2.980   7.253   3.159
 8786TIP3    H126303   2.889   7.278   3.147
 8786TIP3    H226304   2.977   7.185   3.226
 8787TIP3   OH226305   6.586   2.758   6.314
 8787TIP3    H126306   6.664   2.774   6.261
 8787TIP3    H226307   6.528   2.708   6.258
 8788TIP3   OH226308   1.097   0.908   6.517
 8788TIP3    H126309   1.173   0.912   6.459
 8788TIP3    H226310   1.124   0.955   6.596
 8789TIP3   OH226311   0.824   5.719   5.994
 8789TIP3    H126312   0.784   5.635   6.017
 8789TIP3    H226313   0.876   5.743   6.071
 8790TIP3   OH226314   6.974   2.608   2.864
 8790TIP3    H126315   6.893   2.556   2.873
 8790TIP3    H226316   6.945   2.690   2.824
 8791TIP3   OH226317   2.184   5.760   6.282
 8791TIP3    H126318   2.273   5.778   6.249
 8791TIP3    H226319   2.182   5.802   6.368
 8792TIP3   OH226320   2.868   3.112   0.842
 8792TIP3    H126321   2.855   3.116   0.936
 8792TIP3    H226322   2.957   3.080   0.831
 8793TIP3   OH226323   5.249   7.027   5.477
 8793TIP3    H126324   5.166   7.058   5.442
 8793TIP3    H226325   5.227   6.945   5.522
 8794TIP3   OH226326   3.737   1.327   1.320
 8794TIP3    H126327   3.720   1.254   1.261
 8794TIP3    H226328   3.786   1.390   1.267
 8795TIP3   OH226329   3.661   3.888   6.382
 8795TIP3    H126330   3.673   3.809   6.436
 8795TIP3    H226331   3.743   3.936   6.393
 8796TIP3   OH226332   7.688   0.068   3.608
 8796TIP3    H126333   7.738   0.016   3.671
 8796TIP3    H226334   7.666   0.148   3.656
 8797TIP3   OH226335   5.412   1.988   2.575
 8797TIP3    H126336   5.410   2.062   2.514
 8797TIP3    H226337   5.385   1.913   2.521
 8798TIP3   OH226338   7.022   4.537   3.879
 8798TIP3    H126339   7.051   4.575   3.796
 8798TIP3    H226340   6.932   4.508   3.862
 8799TIP3   OH226341   3.854   1.723   3.299
 8799TIP3    H126342   3.820   1.655   3.357
 8799TIP3    H226343   3.777   1.757   3.253
 8800TIP3   OH226344   6.868   2.423   4.644
 8800TIP3    H126345   6.910   2.402   4.561
 8800TIP3    H226346   6.865   2.340   4.691
 8801TIP3   OH226347   5.511   7.082   2.654
 8801TIP3    H126348   5.429   7.063   2.607
 8801TIP3    H226349   5.495   7.051   2.743
 8802TIP3   OH226350   5.679   1.908   6.612
 8802TIP3    H126351   5.695   1.818   6.585
 8802TIP3    H226352   5.746   1.925   6.679
 8803TIP3   OH226353   1.672   1.927   5.328
 8803TIP3    H126354   1.609   1.983   5.374
 8803TIP3    H226355   1.618   1.871   5.272
 8804TIP3   OH226356   6.043   0.998   1.906
 8804TIP3    H126357   6.064   1.018   1.997
 8804TIP3    H226358   6.092   1.062   1.855
 8805TIP3   OH226359   1.099   2.533   3.451
 8805TIP3    H126360   1.160   2.510   3.380
 8805TIP3    H226361   1.153   2.578   3.515
 8806TIP3   OH226362   7.432   2.796   6.530
 8806TIP3    H126363   7.517   2.754   6.514
 8806TIP3    H226364   7.407   2.767   6.618
 8807TIP3   OH226365   5.889   6.120   1.837
 8807TIP3    H126366   5.810   6.100   1.787
 8807TIP3    H226367   5.860   6.181   1.905
 8808TIP3   OH226368   7.516   0.116   3.167
 8808TIP3    H126369   7.514   0.068   3.083
 8808TIP3    H226370   7.533   0.048   3.232
 8809TIP3   OH226371   0.810   0.871   4.942
 8809TIP3    H126372   0.857   0.944   4.983
 8809TIP3    H226373   0.796   0.808   5.014
 8810TIP3   OH226374   1.210   5.534   4.586
 8810TIP3    H126375   1.248   5.454   4.621
 8810TIP3    H226376   1.233   5.602   4.649
 8811TIP3   OH226377   7.173   5.741   1.005
 8811TIP3    H126378   7.190   5.725   0.912
 8811TIP3    H226379   7.236   5.808   1.030
 8812TIP3   OH226380   5.508   7.089   1.435
 8812TIP3    H126381   5.442   7.088   1.365
 8812TIP3    H226382   5.541   7.179   1.434
 8813TIP3   OH226383   6.217   7.100   0.847
 8813TIP3    H126384   6.253   7.173   0.897
 8813TIP3    H226385   6.229   7.024   0.904
 8814TIP3   OH226386   6.600   2.821   1.682
 8814TIP3    H126387   6.633   2.865   1.760
 8814TIP3    H226388   6.507   2.804   1.701
 8815TIP3   OH226389   8.200   4.822   5.355
 8815TIP3    H126390   8.146   4.889   5.313
 8815TIP3    H226391   8.169   4.820   5.445
 8816TIP3   OH226392   3.510   4.414   4.428
 8816TIP3    H126393   3.452   4.481   4.393
 8816TIP3    H226394   3.463   4.332   4.412
 8817TIP3   OH226395   5.527   6.634   5.149
 8817TIP3    H126396   5.547   6.642   5.056
 8817TIP3    H226397   5.507   6.723   5.178
 8818TIP3   OH226398   4.141   0.053   2.918
 8818TIP3    H126399   4.224   0.055   2.965
 8818TIP3    H226400   4.075   0.049   2.988
 8819TIP3   OH226401   6.310   6.793   0.911
 8819TIP3    H126402   6.399   6.802   0.879
 8819TIP3    H226403   6.257   6.779   0.832
 8820TIP3   OH226404   6.486   0.184   3.176
 8820TIP3    H126405   6.508   0.264   3.223
 8820TIP3    H226406   6.559   0.125   3.193
 8821TIP3   OH226407   2.107   2.004   4.239
 8821TIP3    H126408   2.158   2.062   4.182
 8821TIP3    H226409   2.035   2.058   4.271
 8822TIP3   OH226410   3.577   5.622   0.411
 8822TIP3    H126411   3.611   5.542   0.371
 8822TIP3    H226412   3.555   5.597   0.500
 8823TIP3   OH226413   7.224   2.212   2.083
 8823TIP3    H126414   7.189   2.149   2.146
 8823TIP3    H226415   7.318   2.191   2.078
 8824TIP3   OH226416   3.952   3.786   5.133
 8824TIP3    H126417   3.869   3.832   5.147
 8824TIP3    H226418   4.018   3.845   5.169
 8825TIP3   OH226419   2.749   7.094   6.631
 8825TIP3    H126420   2.663   7.098   6.673
 8825TIP3    H226421   2.744   7.159   6.561
 8826TIP3   OH226422   3.249   7.535   3.292
 8826TIP3    H126423   3.249   7.484   3.211
 8826TIP3    H226424   3.315   7.602   3.278
 8827TIP3   OH226425   3.330   2.441   0.313
 8827TIP3    H126426   3.314   2.357   0.270
 8827TIP3    H226427   3.424   2.442   0.328
 8828TIP3   OH226428   6.180   6.372   0.448
 8828TIP3    H126429   6.130   6.307   0.400
 8828TIP3    H226430   6.271   6.340   0.444
 8829TIP3   OH226431   3.826   5.025   2.576
 8829TIP3    H126432   3.863   5.094   2.522
 8829TIP3    H226433   3.732   5.044   2.579
 8830TIP3   OH226434   7.500   0.089   2.067
 8830TIP3    H126435   7.506   0.175   2.108
 8830TIP3    H226436   7.577   0.083   2.011
 8831TIP3   OH226437   8.064   3.097   5.564
 8831TIP3    H126438   8.065   3.002   5.550
 8831TIP3    H226439   8.043   3.133   5.478
 8832TIP3   OH226440   8.190   3.179   6.040
 8832TIP3    H126441   8.177   3.152   6.130
 8832TIP3    H226442   8.109   3.225   6.016
 8833TIP3   OH226443   3.212   4.541   2.324
 8833TIP3    H126444   3.279   4.581   2.380
 8833TIP3    H226445   3.216   4.591   2.243
 8834TIP3   OH226446   3.393   5.788   5.142
 8834TIP3    H126447   3.357   5.843   5.073
 8834TIP3    H226448   3.477   5.758   5.109
 8835TIP3   OH226449   8.205   0.640   5.253
 8835TIP3    H126450   8.159   0.674   5.330
 8835TIP3    H226451   8.148   0.570   5.221
 8836TIP3   OH226452   3.780   7.680   2.956
 8836TIP3    H126453   3.716   7.694   2.887
 8836TIP3    H226454   3.864   7.673   2.911
 8837TIP3   OH226455   4.997   6.883   2.908
 8837TIP3    H126456   4.977   6.976   2.924
 8837TIP3    H226457   4.944   6.836   2.973
 8838TIP3   OH226458   2.936   6.584   3.760
 8838TIP3    H126459   3.016   6.633   3.779
 8838TIP3    H226460   2.961   6.492   3.767
 8839TIP3   OH226461   4.258   6.639   3.298
 8839TIP3    H126462   4.200   6.715   3.306
 8839TIP3    H226463   4.343   6.670   3.328
 8840TIP3   OH226464   7.788   4.150   1.250
 8840TIP3    H126465   7.787   4.187   1.162
 8840TIP3    H226466   7.696   4.152   1.278
 8841TIP3   OH226467   7.777   1.610   4.704
 8841TIP3    H126468   7.761   1.576   4.616
 8841TIP3    H226469   7.850   1.671   4.693
 8842TIP3   OH226470   2.067   6.523   5.369
 8842TIP3    H126471   2.136   6.549   5.308
 8842TIP3    H226472   2.114   6.499   5.449
 8843TIP3   OH226473   7.579   7.234   4.524
 8843TIP3    H126474   7.629   7.315   4.515
 8843TIP3    H226475   7.573   7.219   4.618
 8844TIP3   OH226476   0.585   0.536   2.509
 8844TIP3    H126477   0.640   0.490   2.445
 8844TIP3    H226478   0.559   0.469   2.571
 8845TIP3   OH226479   6.876   5.732   5.117
 8845TIP3    H126480   6.932   5.692   5.183
 8845TIP3    H226481   6.928   5.802   5.079
 8846TIP3   OH226482   4.818   5.068   0.465
 8846TIP3    H126483   4.732   5.081   0.423
 8846TIP3    H226484   4.798   5.027   0.549
 8847TIP3   OH226485   0.519   5.956   5.598
 8847TIP3    H126486   0.586   5.985   5.661
 8847TIP3    H226487   0.441   5.942   5.652
 8848TIP3   OH226488   3.172   5.392   3.969
 8848TIP3    H126489   3.165   5.465   4.031
 8848TIP3    H226490   3.082   5.367   3.952
 8849TIP3   OH226491   4.731   5.245   3.341
 8849TIP3    H126492   4.774   5.328   3.359
 8849TIP3    H226493   4.688   5.259   3.256
 8850TIP3   OH226494   2.209   0.880   1.743
 8850TIP3    H126495   2.207   0.825   1.822
 8850TIP3    H226496   2.205   0.970   1.777
 8851TIP3   OH226497   6.990   5.813   2.085
 8851TIP3    H126498   6.926   5.758   2.131
 8851TIP3    H226499   6.959   5.903   2.099
 8852TIP3   OH226500   4.063   0.412   3.074
 8852TIP3    H126501   4.121   0.360   3.019
 8852TIP3    H226502   4.123   0.460   3.132
 8853TIP3   OH226503   8.245   3.935   2.422
 8853TIP3    H126504   8.254   3.841   2.410
 8853TIP3    H226505   8.227   3.969   2.334
 8854TIP3   OH226506   0.602   1.000   0.359
 8854TIP3    H126507   0.662   0.928   0.342
 8854TIP3    H226508   0.613   1.059   0.285
 8855TIP3   OH226509   7.727   4.058   4.543
 8855TIP3    H126510   7.786   4.123   4.505
 8855TIP3    H226511   7.640   4.083   4.511
 8856TIP3   OH226512   7.415   2.673   4.990
 8856TIP3    H126513   7.447   2.757   5.023
 8856TIP3    H226514   7.494   2.623   4.971
 8857TIP3   OH226515   3.265   3.112   4.479
 8857TIP3    H126516   3.191   3.055   4.461
 8857TIP3    H226517   3.270   3.115   4.574
 8858TIP3   OH226518   0.369   0.977   2.912
 8858TIP3    H126519   0.285   0.961   2.869
 8858TIP3    H226520   0.348   0.987   3.004
 8859TIP3   OH226521   4.730   5.480   6.498
 8859TIP3    H126522   4.737   5.424   6.420
 8859TIP3    H226523   4.637   5.501   6.504
 8860TIP3   OH226524   0.956   3.659   3.345
 8860TIP3    H126525   1.041   3.630   3.312
 8860TIP3    H226526   0.919   3.710   3.273
 8861TIP3   OH226527   1.699   5.335   0.030
 8861TIP3    H126528   1.719   5.427   0.046
 8861TIP3    H226529   1.714   5.293   0.115
 8862TIP3   OH226530   2.341   5.124   6.660
 8862TIP3    H126531   2.417   5.086   6.705
 8862TIP3    H226532   2.379   5.190   6.601
 8863TIP3   OH226533   6.712   5.633   3.325
 8863TIP3    H126534   6.712   5.539   3.306
 8863TIP3    H226535   6.758   5.640   3.409
 8864TIP3   OH226536   6.640   0.005   2.614
 8864TIP3    H126537   6.570   0.002   2.549
 8864TIP3    H226538   6.662   0.098   2.623
 8865TIP3   OH226539   6.044   5.188   6.654
 8865TIP3    H126540   6.082   5.107   6.619
 8865TIP3    H226541   6.108   5.219   6.718
 8866TIP3   OH226542   2.980   1.017   5.908
 8866TIP3    H126543   3.006   1.109   5.910
 8866TIP3    H226544   3.051   0.971   5.953
 8867TIP3   OH226545   3.267   5.332   0.101
 8867TIP3    H126546   3.331   5.333   0.173
 8867TIP3    H226547   3.210   5.407   0.119
 8868TIP3   OH226548   3.481   6.895   4.692
 8868TIP3    H126549   3.399   6.918   4.648
 8868TIP3    H226550   3.537   6.971   4.678
 8869TIP3   OH226551   2.727   3.705   1.977
 8869TIP3    H126552   2.657   3.766   1.954
 8869TIP3    H226553   2.707   3.679   2.067
 8870TIP3   OH226554   0.421   2.399   6.622
 8870TIP3    H126555   0.508   2.391   6.583
 8870TIP3    H226556   0.395   2.489   6.603
 8871TIP3   OH226557   1.624   4.567   1.414
 8871TIP3    H126558   1.708   4.534   1.447
 8871TIP3    H226559   1.576   4.488   1.388
 8872TIP3   OH226560   0.234   1.411   1.641
 8872TIP3    H126561   0.161   1.354   1.666
 8872TIP3    H226562   0.193   1.485   1.598
 8873TIP3   OH226563   6.705   7.769   2.663
 8873TIP3    H126564   6.768   7.780   2.735
 8873TIP3    H226565   6.624   7.743   2.706
 8874TIP3   OH226566   7.266   4.518   3.564
 8874TIP3    H126567   7.236   4.456   3.497
 8874TIP3    H226568   7.278   4.464   3.643
 8875TIP3   OH226569   3.101   4.370   4.915
 8875TIP3    H126570   3.051   4.350   4.835
 8875TIP3    H226571   3.118   4.464   4.910
 8876TIP3   OH226572   7.989   0.762   0.633
 8876TIP3    H126573   7.974   0.725   0.720
 8876TIP3    H226574   7.907   0.807   0.611
 8877TIP3   OH226575   5.337   2.921   3.772
 8877TIP3    H126576   5.263   2.952   3.825
 8877TIP3    H226577   5.401   2.992   3.775
 8878TIP3   OH226578   1.841   7.796   4.991
 8878TIP3    H126579   1.910   7.739   5.027
 8878TIP3    H226580   1.889   7.862   4.941
 8879TIP3   OH226581   3.420   0.466   2.654
 8879TIP3    H126582   3.420   0.525   2.578
 8879TIP3    H226583   3.500   0.489   2.702
 8880TIP3   OH226584   5.533   4.552   5.698
 8880TIP3    H126585   5.570   4.493   5.633
 8880TIP3    H226586   5.606   4.572   5.757
 8881TIP3   OH226587   5.931   1.497   3.620
 8881TIP3    H126588   5.918   1.590   3.638
 8881TIP3    H226589   6.019   1.491   3.583
 8882TIP3   OH226590   7.157   0.381   2.026
 8882TIP3    H126591   7.182   0.438   1.953
 8882TIP3    H226592   7.174   0.292   1.995
 8883TIP3   OH226593   5.228   5.081   3.149
 8883TIP3    H126594   5.156   5.075   3.212
 8883TIP3    H226595   5.290   5.014   3.178
 8884TIP3   OH226596   6.434   3.017   0.418
 8884TIP3    H126597   6.414   2.934   0.462
 8884TIP3    H226598   6.495   2.992   0.348
 8885TIP3   OH226599   1.158   7.756   1.136
 8885TIP3    H126600   1.214   7.783   1.063
 8885TIP3    H226601   1.214   7.761   1.213
 8886TIP3   OH226602   2.465   6.150   0.029
 8886TIP3    H126603   2.551   6.143  -0.012
 8886TIP3    H226604   2.474   6.224   0.090
 8887TIP3   OH226605   5.052   7.786   5.783
 8887TIP3    H126606   4.965   7.791   5.823
 8887TIP3    H226607   5.050   7.851   5.713
 8888TIP3   OH226608   6.603   3.337   0.579
 8888TIP3    H126609   6.612   3.417   0.632
 8888TIP3    H226610   6.553   3.278   0.636
 8889TIP3   OH226611   6.432   3.479   5.083
 8889TIP3    H126612   6.488   3.458   5.008
 8889TIP3    H226613   6.471   3.431   5.156
 8890TIP3   OH226614   7.565   7.565   2.345
 8890TIP3    H126615   7.530   7.631   2.285
 8890TIP3    H226616   7.522   7.484   2.319
 8891TIP3   OH226617   1.541   6.592   3.573
 8891TIP3    H126618   1.629   6.630   3.570
 8891TIP3    H226619   1.553   6.501   3.547
 8892TIP3   OH226620   0.385   4.152   6.697
 8892TIP3    H126621   0.296   4.129   6.669
 8892TIP3    H226622   0.423   4.069   6.727
 8893TIP3   OH226623   4.857   3.586   3.913
 8893TIP3    H126624   4.906   3.544   3.842
 8893TIP3    H226625   4.793   3.641   3.868
 8894TIP3   OH226626   3.185   2.820   3.192
 8894TIP3    H126627   3.144   2.843   3.276
 8894TIP3    H226628   3.277   2.845   3.203
 8895TIP3   OH226629   8.276   0.293   0.625
 8895TIP3    H126630   8.253   0.247   0.544
 8895TIP3    H226631   8.208   0.359   0.635
 8896TIP3   OH226632   6.054   0.820   0.140
 8896TIP3    H126633   5.996   0.754   0.102
 8896TIP3    H226634   6.142   0.791   0.116
 8897TIP3   OH226635   1.119   1.825   3.948
 8897TIP3    H126636   1.050   1.761   3.931
 8897TIP3    H226637   1.186   1.806   3.881
 8898TIP3   OH226638   4.921   6.437   1.290
 8898TIP3    H126639   4.942   6.414   1.381
 8898TIP3    H226640   4.972   6.516   1.273
 8899TIP3   OH226641   0.358   4.415   0.005
 8899TIP3    H126642   0.402   4.330   0.009
 8899TIP3    H226643   0.400   4.467   0.073
 8900TIP3   OH226644   5.647   1.784   3.498
 8900TIP3    H126645   5.599   1.778   3.580
 8900TIP3    H226646   5.596   1.844   3.444
 8901TIP3   OH226647   6.728   2.122   0.047
 8901TIP3    H126648   6.705   2.215   0.051
 8901TIP3    H226649   6.771   2.111  -0.038
 8902TIP3   OH226650   2.175   5.447   4.413
 8902TIP3    H126651   2.258   5.421   4.453
 8902TIP3    H226652   2.110   5.386   4.447
 8903TIP3   OH226653   1.462   5.134   0.030
 8903TIP3    H126654   1.544   5.093   0.058
 8903TIP3    H226655   1.488   5.220  -0.002
 8904TIP3   OH226656   0.524   6.300   2.935
 8904TIP3    H126657   0.474   6.236   2.885
 8904TIP3    H226658   0.480   6.305   3.020
 8905TIP3   OH226659   2.463   6.835   2.077
 8905TIP3    H126660   2.507   6.750   2.082
 8905TIP3    H226661   2.376   6.819   2.114
 8906TIP3   OH226662   2.638   5.978   5.816
 8906TIP3    H126663   2.578   5.906   5.795
 8906TIP3    H226664   2.714   5.934   5.855
 8907TIP3   OH226665   6.778   5.412   1.921
 8907TIP3    H126666   6.734   5.439   2.002
 8907TIP3    H226667   6.865   5.452   1.926
 8908TIP3   OH226668   5.894   5.008   2.237
 8908TIP3    H126669   5.963   5.017   2.172
 8908TIP3    H226670   5.919   5.067   2.308
 8909TIP3   OH226671   8.057   4.438   3.218
 8909TIP3    H126672   8.133   4.496   3.230
 8909TIP3    H226673   8.078   4.361   3.270
 8910TIP3   OH226674   0.181   3.532   5.009
 8910TIP3    H126675   0.250   3.482   4.965
 8910TIP3    H226676   0.151   3.475   5.079
 8911TIP3   OH226677   2.463   4.113   2.306
 8911TIP3    H126678   2.523   4.154   2.369
 8911TIP3    H226679   2.440   4.184   2.247
 8912TIP3   OH226680   1.475   1.816   6.109
 8912TIP3    H126681   1.484   1.742   6.169
 8912TIP3    H226682   1.421   1.879   6.157
 8913TIP3   OH226683   4.977   0.755   4.903
 8913TIP3    H126684   5.034   0.742   4.828
 8913TIP3    H226685   4.893   0.781   4.864
 8914TIP3   OH226686   6.378   2.300   6.677
 8914TIP3    H126687   6.299   2.327   6.632
 8914TIP3    H226688   6.348   2.239   6.745
 8915TIP3   OH226689   6.123   1.991   4.601
 8915TIP3    H126690   6.165   1.906   4.615
 8915TIP3    H226691   6.032   1.970   4.583
 8916TIP3   OH226692   2.374   2.942   3.907
 8916TIP3    H126693   2.307   2.927   3.840
 8916TIP3    H226694   2.365   3.035   3.930
 8917TIP3   OH226695   1.297   1.368   0.130
 8917TIP3    H126696   1.280   1.390   0.038
 8917TIP3    H226697   1.213   1.335   0.162
 8918TIP3   OH226698   4.876   1.359   2.458
 8918TIP3    H126699   4.956   1.385   2.414
 8918TIP3    H226700   4.826   1.440   2.467
 8919TIP3   OH226701   3.666   3.462   6.376
 8919TIP3    H126702   3.612   3.527   6.420
 8919TIP3    H226703   3.703   3.410   6.446
 8920TIP3   OH226704   0.270   6.176   6.680
 8920TIP3    H126705   0.225   6.224   6.611
 8920TIP3    H226706   0.246   6.084   6.665
 8921TIP3   OH226707   7.202   6.197   4.627
 8921TIP3    H126708   7.271   6.145   4.585
 8921TIP3    H226709   7.130   6.135   4.639
 8922TIP3   OH226710   4.843   2.523   5.224
 8922TIP3    H126711   4.934   2.525   5.252
 8922TIP3    H226712   4.793   2.543   5.303
 8923TIP3   OH226713   3.519   2.047   6.164
 8923TIP3    H126714   3.443   1.989   6.175
 8923TIP3    H226715   3.592   1.987   6.151
 8924TIP3   OH226716   3.253   2.059   6.182
 8924TIP3    H126717   3.255   2.143   6.229
 8924TIP3    H226718   3.257   2.083   6.090
 8925TIP3   OH226719   7.364   3.616   0.655
 8925TIP3    H126720   7.291   3.560   0.681
 8925TIP3    H226721   7.371   3.604   0.561
 8926TIP3   OH226722   7.930   2.967   4.502
 8926TIP3    H126723   7.859   2.903   4.496
 8926TIP3    H226724   7.981   2.955   4.422
 8927TIP3   OH226725   7.212   2.530   6.035
 8927TIP3    H126726   7.159   2.450   6.034
 8927TIP3    H226727   7.163   2.592   5.980
 8928TIP3   OH226728   6.191   4.719   2.530
 8928TIP3    H126729   6.208   4.658   2.459
 8928TIP3    H226730   6.209   4.805   2.493
 8929TIP3   OH226731   3.746   7.222   1.587
 8929TIP3    H126732   3.823   7.260   1.543
 8929TIP3    H226733   3.783   7.160   1.650
 8930TIP3   OH226734   0.378   0.421   5.796
 8930TIP3    H126735   0.341   0.483   5.858
 8930TIP3    H226736   0.324   0.429   5.718
 8931TIP3   OH226737   2.641   5.082   0.949
 8931TIP3    H126738   2.649   5.031   0.869
 8931TIP3    H226739   2.730   5.114   0.966
 8932TIP3   OH226740   3.502   1.707   5.538
 8932TIP3    H126741   3.584   1.658   5.534
 8932TIP3    H226742   3.446   1.665   5.473
 8933TIP3   OH226743   4.145   4.641   4.289
 8933TIP3    H126744   4.230   4.685   4.290
 8933TIP3    H226745   4.082   4.711   4.276
 8934TIP3   OH226746   5.220   4.641   1.109
 8934TIP3    H126747   5.273   4.563   1.090
 8934TIP3    H226748   5.147   4.636   1.047
 8935TIP3   OH226749   6.122   4.446   5.523
 8935TIP3    H126750   6.161   4.504   5.588
 8935TIP3    H226751   6.157   4.476   5.440
 8936TIP3   OH226752   6.087   2.139   1.989
 8936TIP3    H126753   6.006   2.121   1.941
 8936TIP3    H226754   6.077   2.228   2.021
 8937TIP3   OH226755   5.254   5.653   2.900
 8937TIP3    H126756   5.263   5.586   2.832
 8937TIP3    H226757   5.294   5.614   2.978
 8938TIP3   OH226758   0.693   7.383   4.599
 8938TIP3    H126759   0.633   7.426   4.660
 8938TIP3    H226760   0.744   7.454   4.562
 8939TIP3   OH226761   5.141   5.082   4.813
 8939TIP3    H126762   5.122   5.079   4.906
 8939TIP3    H226763   5.236   5.091   4.808
 8940TIP3   OH226764   1.909   4.091   5.401
 8940TIP3    H126765   1.926   4.180   5.370
 8940TIP3    H226766   1.947   4.034   5.335
 8941TIP3   OH226767   7.016   3.933   6.563
 8941TIP3    H126768   6.934   3.915   6.516
 8941TIP3    H226769   7.080   3.949   6.494
 8942TIP3   OH226770   5.045   0.756   0.901
 8942TIP3    H126771   5.082   0.815   0.967
 8942TIP3    H226772   5.054   0.804   0.818
 8943TIP3   OH226773   2.660   5.384   0.738
 8943TIP3    H126774   2.700   5.467   0.763
 8943TIP3    H226775   2.733   5.323   0.731
 8944TIP3   OH226776   6.968   0.126   6.515
 8944TIP3    H126777   6.894   0.153   6.570
 8944TIP3    H226778   7.045   0.163   6.558
 8945TIP3   OH226779   2.465   2.116   4.795
 8945TIP3    H126780   2.494   2.056   4.726
 8945TIP3    H226781   2.497   2.078   4.876
 8946TIP3   OH226782   6.639   7.540   0.275
 8946TIP3    H126783   6.553   7.559   0.238
 8946TIP3    H226784   6.641   7.591   0.357
 8947TIP3   OH226785   4.230   2.778   3.870
 8947TIP3    H126786   4.215   2.683   3.870
 8947TIP3    H226787   4.230   2.802   3.963
 8948TIP3   OH226788   6.798   4.802   2.172
 8948TIP3    H126789   6.809   4.716   2.133
 8948TIP3    H226790   6.875   4.814   2.226
 8949TIP3   OH226791   1.241   4.052   2.391
 8949TIP3    H126792   1.307   4.117   2.367
 8949TIP3    H226793   1.236   4.058   2.487
 8950TIP3   OH226794   7.634   6.278   5.318
 8950TIP3    H126795   7.687   6.215   5.270
 8950TIP3    H226796   7.544   6.248   5.307
 8951TIP3   OH226797   7.430   4.572   2.773
 8951TIP3    H126798   7.467   4.602   2.856
 8951TIP3    H226799   7.506   4.546   2.721
 8952TIP3   OH226800   2.146   1.893   2.255
 8952TIP3    H126801   2.086   1.820   2.239
 8952TIP3    H226802   2.120   1.959   2.191
 8953TIP3   OH226803   3.338   2.135   2.769
 8953TIP3    H126804   3.323   2.126   2.863
 8953TIP3    H226805   3.433   2.141   2.760
 8954TIP3   OH226806   7.925   2.744   3.619
 8954TIP3    H126807   7.995   2.685   3.589
 8954TIP3    H226808   7.962   2.788   3.695
 8955TIP3   OH226809   1.942   2.918   3.408
 8955TIP3    H126810   1.892   2.997   3.430
 8955TIP3    H226811   1.915   2.897   3.319
 8956TIP3   OH226812   6.847   0.361   3.503
 8956TIP3    H126813   6.791   0.308   3.560
 8956TIP3    H226814   6.897   0.298   3.452
 8957TIP3   OH226815   2.016   7.593   0.423
 8957TIP3    H126816   1.954   7.598   0.350
 8957TIP3    H226817   2.032   7.500   0.434
 8958TIP3   OH226818   5.353   1.713   2.796
 8958TIP3    H126819   5.374   1.657   2.722
 8958TIP3    H226820   5.411   1.789   2.787
 8959TIP3   OH226821   4.081   5.746   3.788
 8959TIP3    H126822   4.110   5.657   3.768
 8959TIP3    H226823   3.992   5.734   3.824
 8960TIP3   OH226824   4.656   2.370   4.258
 8960TIP3    H126825   4.702   2.449   4.288
 8960TIP3    H226826   4.726   2.315   4.222
 8961TIP3   OH226827   1.641   2.027   3.936
 8961TIP3    H126828   1.689   1.945   3.949
 8961TIP3    H226829   1.707   2.089   3.905
 8962TIP3   OH226830   1.480   1.015   2.803
 8962TIP3    H126831   1.444   1.003   2.715
 8962TIP3    H226832   1.403   1.016   2.860
 8963TIP3   OH226833   1.737   0.115   4.547
 8963TIP3    H126834   1.658   0.151   4.589
 8963TIP3    H226835   1.713   0.109   4.455
 8964TIP3   OH226836   0.849   6.301   6.648
 8964TIP3    H126837   0.841   6.278   6.741
 8964TIP3    H226838   0.887   6.223   6.607
 8965TIP3   OH226839   4.713   5.667   3.762
 8965TIP3    H126840   4.716   5.761   3.780
 8965TIP3    H226841   4.770   5.655   3.686
 8966TIP3   OH226842   7.931   6.164   3.739
 8966TIP3    H126843   7.960   6.243   3.693
 8966TIP3    H226844   7.894   6.195   3.821
 8967TIP3   OH226845   1.268   4.449  -0.008
 8967TIP3    H126846   1.182   4.480   0.018
 8967TIP3    H226847   1.313   4.430   0.075
 8968TIP3   OH226848   1.596   4.387   5.716
 8968TIP3    H126849   1.664   4.455   5.717
 8968TIP3    H226850   1.521   4.428   5.759
 8969TIP3   OH226851   3.795   4.362   4.346
 8969TIP3    H126852   3.700   4.363   4.354
 8969TIP3    H226853   3.825   4.308   4.419
 8970TIP3   OH226854   4.772   2.745   2.660
 8970TIP3    H126855   4.705   2.688   2.620
 8970TIP3    H226856   4.855   2.704   2.636
 8971TIP3   OH226857   7.157   4.487   4.407
 8971TIP3    H126858   7.231   4.439   4.443
 8971TIP3    H226859   7.169   4.481   4.312
 8972TIP3   OH226860   2.755   5.112   3.077
 8972TIP3    H126861   2.681   5.170   3.098
 8972TIP3    H226862   2.832   5.161   3.105
 8973TIP3   OH226863   7.190   2.974   4.388
 8973TIP3    H126864   7.178   3.028   4.310
 8973TIP3    H226865   7.281   2.987   4.413
 8974TIP3   OH226866   6.173   6.731   2.832
 8974TIP3    H126867   6.134   6.678   2.902
 8974TIP3    H226868   6.261   6.752   2.864
 8975TIP3   OH226869   7.283   6.753   3.518
 8975TIP3    H126870   7.198   6.795   3.514
 8975TIP3    H226871   7.266   6.661   3.496
 8976TIP3   OH226872   4.891   6.836   5.830
 8976TIP3    H126873   4.817   6.869   5.779
 8976TIP3    H226874   4.855   6.819   5.916
 8977TIP3   OH226875   2.568   0.423   2.008
 8977TIP3    H126876   2.516   0.487   1.959
 8977TIP3    H226877   2.595   0.359   1.942
 8978TIP3   OH226878   5.250   4.451   3.871
 8978TIP3    H126879   5.330   4.434   3.921
 8978TIP3    H226880   5.222   4.538   3.901
 8979TIP3   OH226881   5.361   7.516   0.512
 8979TIP3    H126882   5.380   7.429   0.476
 8979TIP3    H226883   5.341   7.570   0.435
 8980TIP3   OH226884   3.711   7.503   1.969
 8980TIP3    H126885   3.741   7.432   2.027
 8980TIP3    H226886   3.656   7.458   1.904
 8981TIP3   OH226887   7.935   2.212   4.863
 8981TIP3    H126888   7.966   2.232   4.775
 8981TIP3    H226889   7.980   2.275   4.919
 8982TIP3   OH226890   8.160   0.974   4.681
 8982TIP3    H126891   8.219   0.899   4.673
 8982TIP3    H226892   8.146   1.003   4.590
 8983TIP3   OH226893   0.935   6.250   3.319
 8983TIP3    H126894   0.900   6.204   3.394
 8983TIP3    H226895   0.971   6.331   3.355
 8984TIP3   OH226896   5.108   6.474   6.704
 8984TIP3    H126897   5.158   6.482   6.785
 8984TIP3    H226898   5.035   6.417   6.727
 8985TIP3   OH226899   3.873   6.364   3.571
 8985TIP3    H126900   3.846   6.274   3.550
 8985TIP3    H226901   3.818   6.419   3.515
 8986TIP3   OH226902   0.823   4.805   4.923
 8986TIP3    H126903   0.849   4.744   4.992
 8986TIP3    H226904   0.834   4.756   4.842
 8987TIP3   OH226905   6.901   2.870   3.179
 8987TIP3    H126906   6.966   2.921   3.130
 8987TIP3    H226907   6.850   2.935   3.227
 8988TIP3   OH226908   6.931   3.666   0.988
 8988TIP3    H126909   6.966   3.679   0.900
 8988TIP3    H226910   6.846   3.623   0.973
 8989TIP3   OH226911   4.582   3.053   6.216
 8989TIP3    H126912   4.552   3.044   6.307
 8989TIP3    H226913   4.519   3.003   6.165
 8990TIP3   OH226914   5.342   1.809   0.704
 8990TIP3    H126915   5.259   1.850   0.726
 8990TIP3    H226916   5.342   1.804   0.608
 8991TIP3   OH226917   8.289   5.605   5.761
 8991TIP3    H126918   8.222   5.573   5.821
 8991TIP3    H226919   8.242   5.626   5.680
 8992TIP3   OH226920   3.080   6.734   6.269
 8992TIP3    H126921   3.057   6.647   6.236
 8992TIP3    H226922   3.157   6.759   6.217
 8993TIP3   OH226923   6.568   2.868   4.634
 8993TIP3    H126924   6.476   2.882   4.611
 8993TIP3    H226925   6.576   2.773   4.644
 8994TIP3   OH226926   1.847   2.870   2.613
 8994TIP3    H126927   1.861   2.867   2.707
 8994TIP3    H226928   1.757   2.840   2.600
 8995TIP3   OH226929   1.300   6.155   0.339
 8995TIP3    H126930   1.234   6.156   0.408
 8995TIP3    H226931   1.252   6.178   0.260
 8996TIP3   OH226932   6.309   0.151   2.127
 8996TIP3    H126933   6.238   0.189   2.179
 8996TIP3    H226934   6.374   0.221   2.119
 8997TIP3   OH226935   5.377   4.390   3.622
 8997TIP3    H126936   5.447   4.340   3.664
 8997TIP3    H226937   5.308   4.396   3.689
 8998TIP3   OH226938   4.278   5.567   4.129
 8998TIP3    H126939   4.307   5.653   4.101
 8998TIP3    H226940   4.324   5.506   4.072
 8999TIP3   OH226941   1.183   5.750   2.825
 8999TIP3    H126942   1.162   5.840   2.802
 8999TIP3    H226943   1.273   5.738   2.795
 9000TIP3   OH226944   4.782   0.866   0.455
 9000TIP3    H126945   4.728   0.797   0.417
 9000TIP3    H226946   4.860   0.821   0.487
 9001TIP3   OH226947   0.335   4.848   5.806
 9001TIP3    H126948   0.402   4.907   5.839
 9001TIP3    H226949   0.383   4.774   5.770
 9002TIP3   OH226950   4.597   4.842   3.099
 9002TIP3    H126951   4.508   4.824   3.070
 9002TIP3    H226952   4.626   4.914   3.044
 9003TIP3   OH226953   2.670   6.791   4.549
 9003TIP3    H126954   2.709   6.778   4.635
 9003TIP3    H226955   2.671   6.886   4.536
 9004TIP3   OH226956   3.011   4.583   2.483
 9004TIP3    H126957   3.054   4.668   2.491
 9004TIP3    H226958   3.073   4.531   2.431
 9005TIP3   OH226959   7.349   5.833   1.899
 9005TIP3    H126960   7.254   5.827   1.887
 9005TIP3    H226961   7.366   5.792   1.983
 9006TIP3   OH226962   6.234   4.943   2.407
 9006TIP3    H126963   6.241   4.925   2.313
 9006TIP3    H226964   6.325   4.949   2.437
 9007TIP3   OH226965   7.006   5.338   1.454
 9007TIP3    H126966   6.931   5.378   1.497
 9007TIP3    H226967   7.032   5.401   1.387
 9008TIP3   OH226968   2.984   5.860   3.342
 9008TIP3    H126969   2.899   5.903   3.338
 9008TIP3    H226970   3.042   5.924   3.382
 9009TIP3   OH226971   7.757   4.778   2.360
 9009TIP3    H126972   7.732   4.870   2.350
 9009TIP3    H226973   7.813   4.777   2.438
 9010TIP3   OH226974   5.138   2.096   0.508
 9010TIP3    H126975   5.074   2.025   0.515
 9010TIP3    H226976   5.156   2.105   0.415
 9011TIP3   OH226977   2.686   1.448   4.214
 9011TIP3    H126978   2.780   1.430   4.211
 9011TIP3    H226979   2.645   1.362   4.207
 9012TIP3   OH226980   5.386   4.438   2.447
 9012TIP3    H126981   5.343   4.466   2.366
 9012TIP3    H226982   5.445   4.510   2.469
 9013TIP3   OH226983   3.562   5.724   4.085
 9013TIP3    H126984   3.605   5.642   4.059
 9013TIP3    H226985   3.589   5.738   4.176
 9014TIP3   OH226986   3.064   6.327   3.780
 9014TIP3    H126987   3.153   6.298   3.759
 9014TIP3    H226988   3.057   6.315   3.874
 9015TIP3   OH226989   2.083   3.631   1.778
 9015TIP3    H126990   2.174   3.625   1.750
 9015TIP3    H226991   2.087   3.678   1.861
 9016TIP3   OH226992   5.339   1.043   0.096
 9016TIP3    H126993   5.307   1.045   0.006
 9016TIP3    H226994   5.424   0.997   0.089
 9017TIP3   OH226995   5.685   2.342   4.071
 9017TIP3    H126996   5.715   2.305   3.988
 9017TIP3    H226997   5.702   2.436   4.063
 9018TIP3   OH226998   0.187   3.616   3.291
 9018TIP3    H126999   0.177   3.704   3.253
 9018TIP3    H227000   0.279   3.593   3.275
 9019TIP3   OH227001   5.311   3.242   4.552
 9019TIP3    H127002   5.398   3.281   4.555
 9019TIP3    H227003   5.291   3.221   4.643
 9020TIP3   OH227004   4.114   1.873   3.654
 9020TIP3    H127005   4.085   1.807   3.717
 9020TIP3    H227006   4.126   1.824   3.572
 9021TIP3   OH227007   4.017   4.245   2.392
 9021TIP3    H127008   4.079   4.310   2.358
 9021TIP3    H227009   3.963   4.294   2.454
 9022TIP3   OH227010   1.685   7.445   4.832
 9022TIP3    H127011   1.658   7.497   4.908
 9022TIP3    H227012   1.738   7.506   4.780
 9023TIP3   OH227013   8.065   5.908   5.861
 9023TIP3    H127014   8.146   5.874   5.898
 9023TIP3    H227015   8.062   5.999   5.889
 9024TIP3   OH227016   2.727   1.175   2.306
 9024TIP3    H127017   2.757   1.192   2.396
 9024TIP3    H227018   2.726   1.262   2.265
 9025TIP3   OH227019   4.271   6.977   5.705
 9025TIP3    H127020   4.234   6.901   5.750
 9025TIP3    H227021   4.248   6.964   5.613
 9026TIP3   OH227022   2.790   5.852   0.500
 9026TIP3    H127023   2.793   5.804   0.418
 9026TIP3    H227024   2.710   5.823   0.543
 9027TIP3   OH227025   7.017   5.994   4.578
 9027TIP3    H127026   7.038   6.036   4.495
 9027TIP3    H227027   7.001   5.902   4.556
 9028TIP3   OH227028   0.873   4.922   2.603
 9028TIP3    H127029   0.926   5.001   2.614
 9028TIP3    H227030   0.931   4.860   2.559
 9029TIP3   OH227031   6.563   1.942   5.864
 9029TIP3    H127032   6.652   1.962   5.892
 9029TIP3    H227033   6.523   1.899   5.939
 9030TIP3   OH227034   2.684   2.900   2.083
 9030TIP3    H127035   2.706   2.862   1.998
 9030TIP3    H227036   2.769   2.920   2.123
 9031TIP3   OH227037   6.897   5.292   4.487
 9031TIP3    H127038   6.968   5.332   4.536
 9031TIP3    H227039   6.893   5.341   4.405
 9032TIP3   OH227040   4.508   1.838   0.824
 9032TIP3    H127041   4.446   1.903   0.791
 9032TIP3    H227042   4.517   1.775   0.752
 9033TIP3   OH227043   1.243   5.277   4.689
 9033TIP3    H127044   1.164   5.236   4.724
 9033TIP3    H227045   1.315   5.223   4.721
 9034TIP3   OH227046   6.651   6.416   2.388
 9034TIP3    H127047   6.623   6.343   2.442
 9034TIP3    H227048   6.619   6.394   2.300
 9035TIP3   OH227049   1.772   4.925   2.274
 9035TIP3    H127050   1.687   4.881   2.275
 9035TIP3    H227051   1.789   4.944   2.366
 9036TIP3   OH227052   8.126   5.584   4.599
 9036TIP3    H127053   8.118   5.500   4.644
 9036TIP3    H227054   8.220   5.599   4.593
 9037TIP3   OH227055   1.195   3.521   6.588
 9037TIP3    H127056   1.237   3.565   6.514
 9037TIP3    H227057   1.104   3.509   6.561
 9038TIP3   OH227058   6.942   7.453   1.510
 9038TIP3    H127059   6.930   7.429   1.418
 9038TIP3    H227060   6.856   7.484   1.538
 9039TIP3   OH227061   0.469   6.047   5.073
 9039TIP3    H127062   0.449   6.075   5.162
 9039TIP3    H227063   0.538   5.981   5.083
 9040TIP3   OH227064   0.825   1.245   0.897
 9040TIP3    H127065   0.917   1.272   0.902
 9040TIP3    H227066   0.798   1.269   0.808
 9041TIP3   OH227067   0.319   3.020   6.416
 9041TIP3    H127068   0.389   2.955   6.422
 9041TIP3    H227069   0.303   3.029   6.322
 9042TIP3   OH227070   4.069   6.346   6.136
 9042TIP3    H127071   4.114   6.265   6.108
 9042TIP3    H227072   4.121   6.416   6.096
 9043TIP3   OH227073   0.690   1.033   6.684
 9043TIP3    H127074   0.644   0.994   6.758
 9043TIP3    H227075   0.741   1.104   6.723
 9044TIP3   OH227076   7.983   2.720   3.901
 9044TIP3    H127077   8.026   2.663   3.965
 9044TIP3    H227078   8.007   2.809   3.928
 9045TIP3   OH227079   2.194   5.067   2.846
 9045TIP3    H127080   2.158   5.145   2.888
 9045TIP3    H227081   2.239   5.020   2.917
 9046TIP3   OH227082   2.142   5.661   0.796
 9046TIP3    H127083   2.216   5.639   0.740
 9046TIP3    H227084   2.133   5.586   0.854
 9047TIP3   OH227085   3.827   0.873   5.917
 9047TIP3    H127086   3.804   0.797   5.971
 9047TIP3    H227087   3.772   0.944   5.949
 9048TIP3   OH227088   6.183   2.580   6.670
 9048TIP3    H127089   6.144   2.667   6.682
 9048TIP3    H227090   6.213   2.555   6.758
 9049TIP3   OH227091   7.748   0.779   5.784
 9049TIP3    H127092   7.730   0.694   5.824
 9049TIP3    H227093   7.829   0.808   5.825
 9050TIP3   OH227094   1.840   3.772   5.053
 9050TIP3    H127095   1.809   3.846   5.001
 9050TIP3    H227096   1.817   3.795   5.143
 9051TIP3   OH227097   6.199   3.121   2.342
 9051TIP3    H127098   6.137   3.153   2.407
 9051TIP3    H227099   6.162   3.038   2.313
 9052TIP3   OH227100   4.964   4.868   3.673
 9052TIP3    H127101   4.920   4.799   3.723
 9052TIP3    H227102   4.917   4.871   3.590
 9053TIP3   OH227103   2.169   6.638   4.353
 9053TIP3    H127104   2.184   6.606   4.442
 9053TIP3    H227105   2.086   6.599   4.326
 9054TIP3   OH227106   8.240   4.246   6.193
 9054TIP3    H127107   8.217   4.187   6.265
 9054TIP3    H227108   8.323   4.285   6.220
 9055TIP3   OH227109   1.672   2.177   5.573
 9055TIP3    H127110   1.660   2.225   5.491
 9055TIP3    H227111   1.731   2.232   5.625
 9056TIP3   OH227112   1.863   2.228   2.907
 9056TIP3    H127113   1.787   2.218   2.965
 9056TIP3    H227114   1.901   2.140   2.902
 9057TIP3   OH227115   7.647   4.900   5.942
 9057TIP3    H127116   7.583   4.886   5.873
 9057TIP3    H227117   7.728   4.863   5.908
 9058TIP3   OH227118   4.756   7.051   5.214
 9058TIP3    H127119   4.710   6.967   5.214
 9058TIP3    H227120   4.720   7.098   5.289
 9059TIP3   OH227121   7.913   4.394   2.780
 9059TIP3    H127122   7.904   4.442   2.863
 9059TIP3    H227123   7.835   4.338   2.777
 9060TIP3   OH227124   3.813   3.547   5.657
 9060TIP3    H127125   3.864   3.486   5.604
 9060TIP3    H227126   3.724   3.510   5.656
 9061TIP3   OH227127   4.392   1.354   0.282
 9061TIP3    H127128   4.487   1.348   0.270
 9061TIP3    H227129   4.380   1.361   0.376
 9062TIP3   OH227130   3.634   4.293   1.758
 9062TIP3    H127131   3.570   4.232   1.720
 9062TIP3    H227132   3.653   4.354   1.687
 9063TIP3   OH227133   5.998   2.325   3.984
 9063TIP3    H127134   5.918   2.274   3.980
 9063TIP3    H227135   6.017   2.349   3.894
 9064TIP3   OH227136   4.759   6.154   4.033
 9064TIP3    H127137   4.692   6.133   4.098
 9064TIP3    H227138   4.817   6.078   4.033
 9065TIP3   OH227139   0.104   2.330   2.394
 9065TIP3    H127140   0.102   2.361   2.303
 9065TIP3    H227141   0.182   2.275   2.398
 9066TIP3   OH227142   2.679   7.719   0.410
 9066TIP3    H127143   2.757   7.690   0.456
 9066TIP3    H227144   2.655   7.801   0.454
 9067TIP3   OH227145   7.627   1.399   3.874
 9067TIP3    H127146   7.574   1.477   3.861
 9067TIP3    H227147   7.618   1.379   3.967
 9068TIP3   OH227148   3.779   5.729   4.659
 9068TIP3    H127149   3.865   5.700   4.630
 9068TIP3    H227150   3.771   5.697   4.748
 9069TIP3   OH227151   5.860   2.767   6.079
 9069TIP3    H127152   5.868   2.680   6.118
 9069TIP3    H227153   5.766   2.785   6.078
 9070TIP3   OH227154   7.158   1.710   2.079
 9070TIP3    H127155   7.151   1.687   1.987
 9070TIP3    H227156   7.072   1.690   2.115
 9071TIP3   OH227157   5.343   0.572   4.466
 9071TIP3    H127158   5.433   0.553   4.492
 9071TIP3    H227159   5.337   0.668   4.469
 9072TIP3   OH227160   6.132   1.873   5.633
 9072TIP3    H127161   6.069   1.802   5.644
 9072TIP3    H227162   6.194   1.862   5.705
 9073TIP3   OH227163   2.703   5.136   2.383
 9073TIP3    H127164   2.616   5.169   2.406
 9073TIP3    H227165   2.686   5.048   2.348
 9074TIP3   OH227166   1.279   6.071   6.097
 9074TIP3    H127167   1.311   6.020   6.022
 9074TIP3    H227168   1.186   6.084   6.079
 9075TIP3   OH227169   4.727   7.027   0.749
 9075TIP3    H127170   4.747   7.121   0.752
 9075TIP3    H227171   4.777   6.989   0.821
 9076TIP3   OH227172   8.270   6.940   6.053
 9076TIP3    H127173   8.350   6.891   6.071
 9076TIP3    H227174   8.246   6.913   5.964
 9077TIP3   OH227175   6.851   7.348   5.619
 9077TIP3    H127176   6.787   7.412   5.587
 9077TIP3    H227177   6.798   7.275   5.650
 9078TIP3   OH227178   4.251   1.867   5.171
 9078TIP3    H127179   4.267   1.959   5.146
 9078TIP3    H227180   4.338   1.830   5.181
 9079TIP3   OH227181   7.529   7.106   2.729
 9079TIP3    H127182   7.519   7.018   2.692
 9079TIP3    H227183   7.508   7.165   2.657
 9080TIP3   OH227184   1.054   0.079   1.822
 9080TIP3    H127185   1.079   0.170   1.804
 9080TIP3    H227186   1.138   0.033   1.830
 9081TIP3   OH227187   5.752   5.816   1.489
 9081TIP3    H127188   5.724   5.742   1.435
 9081TIP3    H227189   5.831   5.848   1.446
 9082TIP3   OH227190   6.366   5.260   4.947
 9082TIP3    H127191   6.387   5.199   5.018
 9082TIP3    H227192   6.443   5.260   4.890
 9083TIP3   OH227193   4.848   3.109   3.904
 9083TIP3    H127194   4.853   3.196   3.944
 9083TIP3    H227195   4.760   3.104   3.867
 9084TIP3   OH227196   6.009   0.617   2.350
 9084TIP3    H127197   6.024   0.530   2.313
 9084TIP3    H227198   6.095   0.645   2.382
 9085TIP3   OH227199   0.234   2.977   3.538
 9085TIP3    H127200   0.147   2.995   3.504
 9085TIP3    H227201   0.240   3.028   3.618
 9086TIP3   OH227202   3.907   5.863   5.860
 9086TIP3    H127203   3.845   5.908   5.917
 9086TIP3    H227204   3.891   5.900   5.773
 9087TIP3   OH227205   2.708   1.168   4.733
 9087TIP3    H127206   2.759   1.089   4.720
 9087TIP3    H227207   2.639   1.164   4.667
 9088TIP3   OH227208   6.503   0.449   3.856
 9088TIP3    H127209   6.550   0.482   3.932
 9088TIP3    H227210   6.556   0.375   3.825
 9089TIP3   OH227211   3.267   0.945   0.253
 9089TIP3    H127212   3.258   0.886   0.178
 9089TIP3    H227213   3.178   0.954   0.288
 9090TIP3   OH227214   3.809   4.409   1.966
 9090TIP3    H127215   3.755   4.366   1.899
 9090TIP3    H227216   3.798   4.354   2.044
 9091TIP3   OH227217   0.376   3.366   0.456
 9091TIP3    H127218   0.449   3.411   0.414
 9091TIP3    H227219   0.346   3.427   0.524
 9092TIP3   OH227220   6.735   4.887   0.740
 9092TIP3    H127221   6.827   4.889   0.713
 9092TIP3    H227222   6.695   4.821   0.685
 9093TIP3   OH227223   3.589   4.159   4.230
 9093TIP3    H127224   3.576   4.231   4.169
 9093TIP3    H227225   3.525   4.173   4.299
 9094TIP3   OH227226   6.325   6.906   0.112
 9094TIP3    H127227   6.287   6.947   0.190
 9094TIP3    H227228   6.258   6.845   0.081
 9095TIP3   OH227229   4.496   6.823   6.166
 9095TIP3    H127230   4.459   6.898   6.213
 9095TIP3    H227231   4.451   6.747   6.202
 9096TIP3   OH227232   1.786   6.308   3.876
 9096TIP3    H127233   1.736   6.337   3.800
 9096TIP3    H227234   1.876   6.299   3.843
 9097TIP3   OH227235   7.222   5.863   3.778
 9097TIP3    H127236   7.260   5.869   3.866
 9097TIP3    H227237   7.297   5.869   3.719
 9098TIP3   OH227238   5.029   0.390   5.194
 9098TIP3    H127239   5.120   0.409   5.170
 9098TIP3    H227240   4.978   0.456   5.147
 9099TIP3   OH227241   6.788   2.238   1.515
 9099TIP3    H127242   6.707   2.238   1.567
 9099TIP3    H227243   6.853   2.281   1.571
 9100TIP3   OH227244   5.356   4.725   5.814
 9100TIP3    H127245   5.415   4.679   5.755
 9100TIP3    H227246   5.407   4.800   5.845
 9101TIP3   OH227247   3.662   4.293   5.259
 9101TIP3    H127248   3.704   4.279   5.344
 9101TIP3    H227249   3.682   4.214   5.209
 9102TIP3   OH227250   3.957   0.562   4.926
 9102TIP3    H127251   3.952   0.573   5.021
 9102TIP3    H227252   3.873   0.594   4.893
 9103TIP3   OH227253   6.689   2.631   4.716
 9103TIP3    H127254   6.734   2.556   4.679
 9103TIP3    H227255   6.733   2.648   4.799
 9104TIP3   OH227256   3.650   7.723   4.714
 9104TIP3    H127257   3.700   7.804   4.729
 9104TIP3    H227258   3.561   7.745   4.739
 9105TIP3   OH227259   3.387   3.248   1.754
 9105TIP3    H127260   3.355   3.209   1.836
 9105TIP3    H227261   3.473   3.209   1.741
 9106TIP3   OH227262   7.826   1.545   2.797
 9106TIP3    H127263   7.908   1.539   2.845
 9106TIP3    H227264   7.852   1.564   2.707
 9107TIP3   OH227265   6.182   7.653   1.557
 9107TIP3    H127266   6.210   7.562   1.566
 9107TIP3    H227267   6.241   7.702   1.615
 9108TIP3   OH227268   7.708   4.016   3.528
 9108TIP3    H127269   7.724   3.921   3.529
 9108TIP3    H227270   7.613   4.024   3.517
 9109TIP3   OH227271   7.486   3.138   2.190
 9109TIP3    H127272   7.555   3.102   2.246
 9109TIP3    H227273   7.498   3.095   2.106
 9110TIP3   OH227274   2.079   2.757   2.202
 9110TIP3    H127275   2.071   2.726   2.293
 9110TIP3    H227276   2.174   2.762   2.188
 9111TIP3   OH227277   4.031   7.352   0.601
 9111TIP3    H127278   4.009   7.263   0.631
 9111TIP3    H227279   4.085   7.388   0.671
 9112TIP3   OH227280   6.507   1.069   0.518
 9112TIP3    H127281   6.459   1.014   0.456
 9112TIP3    H227282   6.571   1.116   0.465
 9113TIP3   OH227283   7.785   1.700   5.274
 9113TIP3    H127284   7.714   1.764   5.270
 9113TIP3    H227285   7.743   1.617   5.297
 9114TIP3   OH227286   6.478   7.203   6.024
 9114TIP3    H127287   6.573   7.197   6.021
 9114TIP3    H227288   6.448   7.149   5.951
 9115TIP3   OH227289   1.702   6.112   2.352
 9115TIP3    H127290   1.757   6.091   2.277
 9115TIP3    H227291   1.727   6.201   2.377
 9116TIP3   OH227292   4.469   3.083   6.608
 9116TIP3    H127293   4.540   3.097   6.671
 9116TIP3    H227294   4.441   3.171   6.583
 9117TIP3   OH227295   5.606   0.304   6.266
 9117TIP3    H127296   5.656   0.262   6.336
 9117TIP3    H227297   5.517   0.310   6.301
 9118TIP3   OH227298   7.613   3.034   4.789
 9118TIP3    H127299   7.648   3.102   4.731
 9118TIP3    H227300   7.545   3.079   4.840
 9119TIP3   OH227301   7.046   3.576   1.367
 9119TIP3    H127302   6.978   3.537   1.422
 9119TIP3    H227303   7.128   3.539   1.400
 9120TIP3   OH227304   3.387   2.919   3.565
 9120TIP3    H127305   3.453   2.935   3.632
 9120TIP3    H227306   3.388   2.824   3.553
 9121TIP3   OH227307   2.491   7.135   1.276
 9121TIP3    H127308   2.446   7.203   1.325
 9121TIP3    H227309   2.481   7.056   1.330
 9122TIP3   OH227310   4.250   0.135   6.550
 9122TIP3    H127311   4.240   0.048   6.589
 9122TIP3    H227312   4.198   0.132   6.469
 9123TIP3   OH227313   5.638   2.241   1.685
 9123TIP3    H127314   5.592   2.325   1.679
 9123TIP3    H227315   5.659   2.219   1.594
 9124TIP3   OH227316   7.489   4.801   0.074
 9124TIP3    H127317   7.513   4.888   0.041
 9124TIP3    H227318   7.420   4.817   0.137
 9125TIP3   OH227319   2.394   3.466   5.231
 9125TIP3    H127320   2.424   3.557   5.226
 9125TIP3    H227321   2.474   3.415   5.239
 9126TIP3   OH227322   1.613   5.541   4.086
 9126TIP3    H127323   1.620   5.629   4.048
 9126TIP3    H227324   1.698   5.500   4.068
 9127TIP3   OH227325   8.233   1.195   4.888
 9127TIP3    H127326   8.295   1.194   4.815
 9127TIP3    H227327   8.162   1.251   4.857
 9128TIP3   OH227328   0.311   0.953   3.184
 9128TIP3    H127329   0.379   1.005   3.226
 9128TIP3    H227330   0.271   0.903   3.255
 9129TIP3   OH227331   4.321   6.447   0.731
 9129TIP3    H127332   4.359   6.360   0.734
 9129TIP3    H227333   4.263   6.451   0.807
 9130TIP3   OH227334   4.321   3.747   1.833
 9130TIP3    H127335   4.392   3.796   1.876
 9130TIP3    H227336   4.243   3.802   1.847
 9131TIP3   OH227337   5.593   7.283   0.080
 9131TIP3    H127338   5.631   7.353   0.134
 9131TIP3    H227339   5.618   7.305  -0.009
 9132TIP3   OH227340   4.603   2.504   3.283
 9132TIP3    H127341   4.552   2.527   3.360
 9132TIP3    H227342   4.543   2.517   3.209
 9133TIP3   OH227343   7.601   3.644   5.350
 9133TIP3    H127344   7.540   3.673   5.418
 9133TIP3    H227345   7.685   3.636   5.396
 9134TIP3   OH227346   6.551   4.091   1.219
 9134TIP3    H127347   6.577   3.999   1.212
 9134TIP3    H227348   6.457   4.088   1.238
 9135TIP3   OH227349   3.073   4.170   1.904
 9135TIP3    H127350   3.024   4.231   1.960
 9135TIP3    H227351   3.146   4.222   1.871
 9136TIP3   OH227352   7.553   6.264   3.642
 9136TIP3    H127353   7.613   6.190   3.636
 9136TIP3    H227354   7.602   6.339   3.608
 9137TIP3   OH227355   6.967   0.926   1.851
 9137TIP3    H127356   6.903   0.923   1.780
 9137TIP3    H227357   7.052   0.915   1.807
 9138TIP3   OH227358   0.327   2.997   4.364
 9138TIP3    H127359   0.392   3.052   4.408
 9138TIP3    H227360   0.334   3.021   4.271
 9139TIP3   OH227361   7.420   3.484   5.222
 9139TIP3    H127362   7.478   3.558   5.239
 9139TIP3    H227363   7.358   3.485   5.295
 9140TIP3   OH227364   2.551   0.306   2.497
 9140TIP3    H127365   2.548   0.390   2.453
 9140TIP3    H227366   2.557   0.242   2.427
 9141TIP3   OH227367   4.885   4.876   0.954
 9141TIP3    H127368   4.826   4.817   1.001
 9141TIP3    H227369   4.953   4.898   1.017
 9142TIP3   OH227370   5.088   2.338   4.348
 9142TIP3    H127371   5.091   2.389   4.267
 9142TIP3    H227372   5.134   2.256   4.326
 9143TIP3   OH227373   5.932   4.948   1.652
 9143TIP3    H127374   5.969   5.011   1.591
 9143TIP3    H227375   5.998   4.879   1.659
 9144TIP3   OH227376   3.944   2.220   3.502
 9144TIP3    H127377   3.878   2.172   3.552
 9144TIP3    H227378   3.927   2.198   3.410
 9145TIP3   OH227379   5.063   5.952   5.118
 9145TIP3    H127380   5.090   6.001   5.195
 9145TIP3    H227381   5.005   5.884   5.153
 9146TIP3   OH227382   4.033   7.325   2.474
 9146TIP3    H127383   4.041   7.317   2.569
 9146TIP3    H227384   3.963   7.264   2.450
 9147TIP3   OH227385   6.765   2.369   0.302
 9147TIP3    H127386   6.803   2.456   0.318
 9147TIP3    H227387   6.825   2.329   0.239
 9148TIP3   OH227388   5.047   4.471   1.553
 9148TIP3    H127389   5.092   4.528   1.490
 9148TIP3    H227390   5.090   4.386   1.543
 9149TIP3   OH227391   0.096   2.105   1.301
 9149TIP3    H127392   0.078   2.075   1.212
 9149TIP3    H227393   0.079   2.029   1.356
 9150TIP3   OH227394   4.394   4.750   4.331
 9150TIP3    H127395   4.404   4.836   4.290
 9150TIP3    H227396   4.446   4.756   4.412
 9151TIP3   OH227397   7.461   5.607   2.644
 9151TIP3    H127398   7.481   5.522   2.681
 9151TIP3    H227399   7.532   5.624   2.582
 9152TIP3   OH227400   0.413   6.427   6.034
 9152TIP3    H127401   0.375   6.482   6.103
 9152TIP3    H227402   0.478   6.373   6.080
 9153TIP3   OH227403   5.861   1.069   4.594
 9153TIP3    H127404   5.869   0.974   4.585
 9153TIP3    H227405   5.855   1.101   4.504
 9154TIP3   OH227406   2.663   7.438   3.608
 9154TIP3    H127407   2.724   7.364   3.605
 9154TIP3    H227408   2.718   7.514   3.629
 9155TIP3   OH227409   0.159   0.233   4.362
 9155TIP3    H127410   0.155   0.176   4.439
 9155TIP3    H227411   0.101   0.192   4.298
 9156TIP3   OH227412   0.007   1.122   2.790
 9156TIP3    H127413   0.020   1.070   2.710
 9156TIP3    H227414   0.065   1.197   2.780
 9157TIP3   OH227415   0.613   6.387   1.576
 9157TIP3    H127416   0.531   6.338   1.579
 9157TIP3    H227417   0.610   6.435   1.493
 9158TIP3   OH227418  -0.007   7.721   1.874
 9158TIP3    H127419  -0.018   7.751   1.784
 9158TIP3    H227420   0.055   7.648   1.866
 9159TIP3   OH227421   3.339   0.602   2.074
 9159TIP3    H127422   3.258   0.624   2.027
 9159TIP3    H227423   3.377   0.530   2.024
 9160TIP3   OH227424   2.645   7.441   4.745
 9160TIP3    H127425   2.609   7.382   4.679
 9160TIP3    H227426   2.595   7.522   4.735
 9161TIP3   OH227427   4.315   0.668   4.271
 9161TIP3    H127428   4.370   0.661   4.349
 9161TIP3    H227429   4.321   0.761   4.246
 9162TIP3   OH227430   3.765   1.291   0.659
 9162TIP3    H127431   3.861   1.291   0.660
 9162TIP3    H227432   3.741   1.384   0.658
 9163TIP3   OH227433   6.368   3.769   4.807
 9163TIP3    H127434   6.414   3.696   4.764
 9163TIP3    H227435   6.430   3.803   4.871
 9164TIP3   OH227436   2.976   2.150   5.884
 9164TIP3    H127437   2.912   2.206   5.929
 9164TIP3    H227438   3.060   2.190   5.903
 9165TIP3   OH227439   7.785   5.405   5.797
 9165TIP3    H127440   7.810   5.327   5.847
 9165TIP3    H227441   7.695   5.387   5.769
 9166TIP3   OH227442   5.370   6.290   3.395
 9166TIP3    H127443   5.366   6.228   3.468
 9166TIP3    H227444   5.443   6.259   3.341
 9167TIP3   OH227445   2.051   2.115   5.515
 9167TIP3    H127446   1.964   2.102   5.551
 9167TIP3    H227447   2.109   2.115   5.591
 9168TIP3   OH227448   0.971   4.151   0.476
 9168TIP3    H127449   1.041   4.086   0.474
 9168TIP3    H227450   0.939   4.154   0.386
 9169TIP3   OH227451   1.000   4.230   4.079
 9169TIP3    H127452   1.050   4.208   4.000
 9169TIP3    H227453   1.066   4.255   4.143
 9170TIP3   OH227454   1.822   6.689   2.831
 9170TIP3    H127455   1.847   6.740   2.908
 9170TIP3    H227456   1.831   6.598   2.858
 9171TIP3   OH227457   4.760   1.419   5.951
 9171TIP3    H127458   4.837   1.384   5.996
 9171TIP3    H227459   4.796   1.463   5.873
 9172TIP3   OH227460   2.395   7.371   0.525
 9172TIP3    H127461   2.374   7.321   0.446
 9172TIP3    H227462   2.437   7.307   0.583
 9173TIP3   OH227463   5.370   7.251   2.088
 9173TIP3    H127464   5.440   7.225   2.028
 9173TIP3    H227465   5.372   7.186   2.158
 9174TIP3   OH227466   5.060   4.857   4.282
 9174TIP3    H127467   4.986   4.800   4.302
 9174TIP3    H227468   5.135   4.813   4.323
 9175TIP3   OH227469   5.241   0.559   1.314
 9175TIP3    H127470   5.321   0.548   1.262
 9175TIP3    H227471   5.217   0.470   1.340
 9176TIP3   OH227472   7.732   2.634   1.837
 9176TIP3    H127473   7.639   2.632   1.813
 9176TIP3    H227474   7.767   2.709   1.788
 9177TIP3   OH227475   5.670   0.321   0.191
 9177TIP3    H127476   5.637   0.343   0.104
 9177TIP3    H227477   5.649   0.228   0.202
 9178TIP3   OH227478   0.911   3.832   2.057
 9178TIP3    H127479   0.852   3.782   2.113
 9178TIP3    H227480   0.999   3.804   2.085
 9179TIP3   OH227481   6.935   5.612   0.874
 9179TIP3    H127482   6.908   5.703   0.862
 9179TIP3    H227483   6.919   5.594   0.967
 9180TIP3   OH227484   1.837   1.763   1.943
 9180TIP3    H127485   1.759   1.708   1.940
 9180TIP3    H227486   1.871   1.762   1.853
 9181TIP3   OH227487   0.149   6.745   6.103
 9181TIP3    H127488   0.204   6.668   6.090
 9181TIP3    H227489   0.209   6.812   6.136
 9182TIP3   OH227490   2.019   1.162   0.303
 9182TIP3    H127491   2.024   1.175   0.397
 9182TIP3    H227492   2.109   1.146   0.276
 9183TIP3   OH227493   3.568   4.334   3.782
 9183TIP3    H127494   3.560   4.373   3.695
 9183TIP3    H227495   3.609   4.249   3.766
 9184TIP3   OH227496   5.881   2.777   2.585
 9184TIP3    H127497   5.903   2.693   2.543
 9184TIP3    H227498   5.964   2.808   2.622
 9185TIP3   OH227499   2.214   5.219   3.357
 9185TIP3    H127500   2.136   5.207   3.413
 9185TIP3    H227501   2.203   5.155   3.287
 9186TIP3   OH227502   4.789   2.593   4.316
 9186TIP3    H127503   4.856   2.578   4.384
 9186TIP3    H227504   4.775   2.687   4.318
 9187TIP3   OH227505   4.412   3.737   0.580
 9187TIP3    H127506   4.372   3.790   0.512
 9187TIP3    H227507   4.505   3.760   0.576
 9188TIP3   OH227508   7.813   1.023   6.734
 9188TIP3    H127509   7.905   1.013   6.760
 9188TIP3    H227510   7.799   0.952   6.672
 9189TIP3   OH227511   1.085   3.840   3.122
 9189TIP3    H127512   1.136   3.861   3.200
 9189TIP3    H227513   1.031   3.918   3.106
 9190TIP3   OH227514   2.375   4.345   2.919
 9190TIP3    H127515   2.384   4.281   2.849
 9190TIP3    H227516   2.284   4.375   2.912
 9191TIP3   OH227517   4.819   1.709   1.269
 9191TIP3    H127518   4.862   1.641   1.217
 9191TIP3    H227519   4.790   1.774   1.205
 9192TIP3   OH227520   4.001   7.446   6.099
 9192TIP3    H127521   4.055   7.507   6.049
 9192TIP3    H227522   4.053   7.365   6.101
 9193TIP3   OH227523   7.171   7.557   6.391
 9193TIP3    H127524   7.238   7.494   6.416
 9193TIP3    H227525   7.206   7.599   6.312
 9194TIP3   OH227526   1.053   5.112   2.616
 9194TIP3    H127527   1.051   5.188   2.559
 9194TIP3    H227528   1.025   5.145   2.702
 9195TIP3   OH227529   6.177   1.925   5.021
 9195TIP3    H127530   6.163   1.844   4.971
 9195TIP3    H227531   6.177   1.994   4.955
 9196TIP3   OH227532   7.851   5.323   0.311
 9196TIP3    H127533   7.837   5.316   0.216
 9196TIP3    H227534   7.771   5.288   0.349
 9197TIP3   OH227535   4.822   2.788   5.862
 9197TIP3    H127536   4.821   2.846   5.938
 9197TIP3    H227537   4.763   2.829   5.799
 9198TIP3   OH227538   0.011   0.757   4.690
 9198TIP3    H127539  -0.042   0.766   4.768
 9198TIP3    H227540   0.085   0.703   4.717
 9199TIP3   OH227541   6.264   4.219   2.371
 9199TIP3    H127542   6.211   4.255   2.442
 9199TIP3    H227543   6.331   4.168   2.416
 9200TIP3   OH227544   5.395   3.992   6.078
 9200TIP3    H127545   5.308   4.010   6.113
 9200TIP3    H227546   5.398   4.040   5.995
 9201TIP3   OH227547   3.734   3.054   1.862
 9201TIP3    H127548   3.698   3.090   1.781
 9201TIP3    H227549   3.828   3.049   1.847
 9202TIP3   OH227550   5.175   1.704   3.310
 9202TIP3    H127551   5.166   1.797   3.328
 9202TIP3    H227552   5.269   1.687   3.313
 9203TIP3   OH227553   7.618   2.269   0.062
 9203TIP3    H127554   7.549   2.213   0.026
 9203TIP3    H227555   7.604   2.354   0.021
 9204TIP3   OH227556   5.051   5.015   0.201
 9204TIP3    H127557   5.053   5.064   0.284
 9204TIP3    H227558   5.137   4.975   0.194
 9205TIP3   OH227559   7.884   1.364   5.305
 9205TIP3    H127560   7.807   1.309   5.316
 9205TIP3    H227561   7.864   1.445   5.352
 9206TIP3   OH227562   1.886   4.629   1.042
 9206TIP3    H127563   1.793   4.616   1.056
 9206TIP3    H227564   1.892   4.674   0.958
 9207TIP3   OH227565   4.823   6.076   0.649
 9207TIP3    H127566   4.875   6.016   0.703
 9207TIP3    H227567   4.759   6.113   0.709
 9208TIP3   OH227568   2.412   7.567   2.125
 9208TIP3    H127569   2.447   7.651   2.098
 9208TIP3    H227570   2.343   7.589   2.188
 9209TIP3   OH227571   0.294   1.248   0.140
 9209TIP3    H127572   0.351   1.294   0.079
 9209TIP3    H227573   0.213   1.234   0.091
 9210TIP3   OH227574   7.557   2.000   5.576
 9210TIP3    H127575   7.625   1.934   5.588
 9210TIP3    H227576   7.605   2.080   5.554
 9211TIP3   OH227577   2.874   2.267   3.149
 9211TIP3    H127578   2.881   2.245   3.242
 9211TIP3    H227579   2.808   2.337   3.146
 9212TIP3   OH227580   2.473   2.735   2.555
 9212TIP3    H127581   2.490   2.824   2.587
 9212TIP3    H227582   2.558   2.691   2.561
 9213TIP3   OH227583   0.385   1.568   0.727
 9213TIP3    H127584   0.405   1.660   0.747
 9213TIP3    H227585   0.459   1.519   0.763
 9214TIP3   OH227586   0.157   0.232   2.616
 9214TIP3    H127587   0.161   0.277   2.531
 9214TIP3    H227588   0.232   0.264   2.664
 9215TIP3   OH227589   6.817   1.076   0.543
 9215TIP3    H127590   6.781   1.163   0.556
 9215TIP3    H227591   6.767   1.020   0.602
 9216TIP3   OH227592   4.091   2.734   2.097
 9216TIP3    H127593   4.137   2.816   2.116
 9216TIP3    H227594   4.161   2.670   2.081
 9217TIP3   OH227595   6.601   0.556   4.093
 9217TIP3    H127596   6.584   0.649   4.103
 9217TIP3    H227597   6.681   0.541   4.144
 9218TIP3   OH227598   2.538   3.487   1.660
 9218TIP3    H127599   2.628   3.461   1.637
 9218TIP3    H227600   2.501   3.519   1.578
 9219TIP3   OH227601   7.509   4.071   1.402
 9219TIP3    H127602   7.415   4.066   1.382
 9219TIP3    H227603   7.524   4.001   1.466
 9220TIP3   OH227604   5.941   0.028   3.937
 9220TIP3    H127605   5.922   0.016   3.844
 9220TIP3    H227606   5.895  -0.043   3.981
 9221TIP3   OH227607   7.318   1.710   3.577
 9221TIP3    H127608   7.287   1.664   3.498
 9221TIP3    H227609   7.254   1.686   3.644
 9222TIP3   OH227610   5.509   6.473   5.927
 9222TIP3    H127611   5.600   6.500   5.915
 9222TIP3    H227612   5.512   6.410   5.999
 9223TIP3   OH227613   6.437   6.389   6.051
 9223TIP3    H127614   6.508   6.372   6.112
 9223TIP3    H227615   6.442   6.317   5.988
 9224TIP3   OH227616   2.133   7.810   0.279
 9224TIP3    H127617   2.124   7.734   0.336
 9224TIP3    H227618   2.042   7.837   0.262
 9225TIP3   OH227619   1.867   4.983   2.511
 9225TIP3    H127620   1.862   5.062   2.564
 9225TIP3    H227621   1.961   4.969   2.497
 9226TIP3   OH227622   1.797   6.864   0.650
 9226TIP3    H127623   1.808   6.769   0.649
 9226TIP3    H227624   1.858   6.894   0.718
 9227TIP3   OH227625   0.051   5.190   5.462
 9227TIP3    H127626   0.114   5.117   5.462
 9227TIP3    H227627   0.104   5.267   5.485
 9228TIP3   OH227628   5.993   6.536   6.482
 9228TIP3    H127629   5.902   6.549   6.454
 9228TIP3    H227630   6.001   6.590   6.561
 9229TIP3   OH227631   7.212   3.906   6.753
 9229TIP3    H127632   7.241   3.993   6.727
 9229TIP3    H227633   7.126   3.896   6.712
 9230TIP3   OH227634   7.935   2.509   0.936
 9230TIP3    H127635   8.006   2.457   0.899
 9230TIP3    H227636   7.935   2.590   0.884
 9231TIP3   OH227637   0.366   6.061   3.792
 9231TIP3    H127638   0.276   6.040   3.817
 9231TIP3    H227639   0.413   5.978   3.797
 9232TIP3   OH227640   3.087   3.140   2.054
 9232TIP3    H127641   3.090   3.127   2.149
 9232TIP3    H227642   3.170   3.182   2.033
 9233TIP3   OH227643   2.892   3.848   2.364
 9233TIP3    H127644   2.903   3.794   2.286
 9233TIP3    H227645   2.948   3.924   2.349
 9234TIP3   OH227646   6.152   7.279   3.381
 9234TIP3    H127647   6.108   7.329   3.450
 9234TIP3    H227648   6.153   7.339   3.306
 9235TIP3   OH227649   2.225   1.908   0.645
 9235TIP3    H127650   2.268   1.824   0.624
 9235TIP3    H227651   2.246   1.923   0.737
 9236TIP3   OH227652   6.137   4.645   6.616
 9236TIP3    H127653   6.170   4.615   6.531
 9236TIP3    H227654   6.062   4.700   6.594
 9237TIP3   OH227655   6.260   2.035   1.740
 9237TIP3    H127656   6.187   2.022   1.680
 9237TIP3    H227657   6.237   2.114   1.789
 9238TIP3   OH227658   1.880   7.594   0.169
 9238TIP3    H127659   1.812   7.538   0.131
 9238TIP3    H227660   1.837   7.679   0.180
 9239TIP3   OH227661   3.017   2.976   4.813
 9239TIP3    H127662   2.986   3.040   4.876
 9239TIP3    H227663   3.079   3.024   4.758
 9240TIP3   OH227664   5.673   4.006   3.999
 9240TIP3    H127665   5.745   3.954   4.035
 9240TIP3    H227666   5.695   4.097   4.021
 9241TIP3   OH227667   5.087   6.650   1.200
 9241TIP3    H127668   5.140   6.645   1.120
 9241TIP3    H227669   5.003   6.685   1.171
 9242TIP3   OH227670   5.800   1.163   1.193
 9242TIP3    H127671   5.797   1.125   1.106
 9242TIP3    H227672   5.791   1.258   1.179
 9243TIP3   OH227673   5.512   4.081   3.692
 9243TIP3    H127674   5.563   4.161   3.700
 9243TIP3    H227675   5.577   4.013   3.671
 9244TIP3   OH227676   4.525   0.407   4.986
 9244TIP3    H127677   4.522   0.436   4.895
 9244TIP3    H227678   4.497   0.483   5.036
 9245TIP3   OH227679   8.067   1.652   4.782
 9245TIP3    H127680   8.162   1.643   4.788
 9245TIP3    H227681   8.033   1.565   4.801
 9246TIP3   OH227682   1.125   5.156   0.452
 9246TIP3    H127683   1.073   5.222   0.499
 9246TIP3    H227684   1.120   5.183   0.360
 9247TIP3   OH227685   3.163   0.253   1.553
 9247TIP3    H127686   3.148   0.320   1.486
 9247TIP3    H227687   3.258   0.244   1.557
 9248TIP3   OH227688   6.950   0.787   2.925
 9248TIP3    H127689   6.920   0.696   2.922
 9248TIP3    H227690   6.873   0.837   2.953
 9249TIP3   OH227691   7.947   5.030   0.152
 9249TIP3    H127692   7.944   4.951   0.098
 9249TIP3    H227693   7.911   5.099   0.096
 9250TIP3   OH227694   7.483   3.661   5.593
 9250TIP3    H127695   7.469   3.752   5.616
 9250TIP3    H227696   7.415   3.613   5.640
 9251TIP3   OH227697   6.892   7.680   4.307
 9251TIP3    H127698   6.934   7.679   4.393
 9251TIP3    H227699   6.954   7.725   4.250
 9252TIP3   OH227700   1.331   1.337   0.988
 9252TIP3    H127701   1.336   1.403   0.918
 9252TIP3    H227702   1.267   1.273   0.955
 9253TIP3   OH227703   0.599   4.949   2.665
 9253TIP3    H127704   0.621   4.941   2.758
 9253TIP3    H227705   0.680   4.928   2.619
 9254TIP3   OH227706   3.115   1.426   1.102
 9254TIP3    H127707   3.029   1.431   1.143
 9254TIP3    H227708   3.105   1.361   1.033
 9255TIP3   OH227709   2.001   6.146   6.131
 9255TIP3    H127710   1.927   6.197   6.099
 9255TIP3    H227711   2.004   6.070   6.073
 9256TIP3   OH227712   1.068   5.870   0.944
 9256TIP3    H127713   1.070   5.808   1.017
 9256TIP3    H227714   1.155   5.864   0.905
 9257TIP3   OH227715   5.145   3.282   3.262
 9257TIP3    H127716   5.198   3.300   3.185
 9257TIP3    H227717   5.104   3.198   3.244
 9258TIP3   OH227718   1.266   7.825   3.656
 9258TIP3    H127719   1.349   7.781   3.673
 9258TIP3    H227720   1.199   7.766   3.691
 9259TIP3   OH227721   7.806   3.158   2.051
 9259TIP3    H127722   7.835   3.152   2.142
 9259TIP3    H227723   7.869   3.215   2.009
 9260TIP3   OH227724   2.330   0.199   3.195
 9260TIP3    H127725   2.417   0.215   3.159
 9260TIP3    H227726   2.309   0.280   3.242
 9261TIP3   OH227727   2.227   5.782   0.268
 9261TIP3    H127728   2.193   5.706   0.220
 9261TIP3    H227729   2.269   5.836   0.202
 9262TIP3   OH227730   3.487   2.822   3.906
 9262TIP3    H127731   3.401   2.799   3.872
 9262TIP3    H227732   3.523   2.740   3.939
 9263TIP3   OH227733   2.253   4.969   3.523
 9263TIP3    H127734   2.250   5.054   3.481
 9263TIP3    H227735   2.328   4.974   3.583
 9264TIP3   OH227736   5.478   7.615   0.130
 9264TIP3    H127737   5.567   7.584   0.150
 9264TIP3    H227738   5.478   7.626   0.035
 9265TIP3   OH227739   0.289   5.652   3.174
 9265TIP3    H127740   0.380   5.659   3.149
 9265TIP3    H227741   0.255   5.741   3.171
 9266TIP3   OH227742   6.444   5.674   4.087
 9266TIP3    H127743   6.475   5.756   4.124
 9266TIP3    H227744   6.349   5.685   4.080
 9267TIP3   OH227745   7.668   0.989   4.785
 9267TIP3    H127746   7.664   1.018   4.694
 9267TIP3    H227747   7.658   0.894   4.780
 9268TIP3   OH227748   6.602   2.059   3.276
 9268TIP3    H127749   6.595   2.155   3.271
 9268TIP3    H227750   6.599   2.039   3.369
 9269TIP3   OH227751   5.442   4.368   5.976
 9269TIP3    H127752   5.445   4.363   5.881
 9269TIP3    H227753   5.414   4.457   5.995
 9270TIP3   OH227754   6.540   4.743   2.336
 9270TIP3    H127755   6.618   4.693   2.359
 9270TIP3    H227756   6.567   4.796   2.261
 9271TIP3   OH227757   6.161   6.399   5.884
 9271TIP3    H127758   6.227   6.333   5.906
 9271TIP3    H227759   6.078   6.362   5.915
 9272TIP3   OH227760   5.386   4.437   0.239
 9272TIP3    H127761   5.351   4.522   0.213
 9272TIP3    H227762   5.421   4.400   0.159
 9273TIP3   OH227763   3.107   3.693   0.841
 9273TIP3    H127764   3.151   3.648   0.912
 9273TIP3    H227765   3.176   3.712   0.778
 9274TIP3   OH227766   6.597   2.164   1.315
 9274TIP3    H127767   6.656   2.205   1.378
 9274TIP3    H227768   6.595   2.224   1.240
 9275TIP3   OH227769   4.642   6.399   4.070
 9275TIP3    H127770   4.689   6.317   4.056
 9275TIP3    H227771   4.698   6.466   4.031
 9276TIP3   OH227772   8.081   2.286   0.085
 9276TIP3    H127773   8.088   2.205   0.034
 9276TIP3    H227774   8.029   2.261   0.162
 9277TIP3   OH227775   6.776   3.505   3.999
 9277TIP3    H127776   6.825   3.586   4.011
 9277TIP3    H227777   6.811   3.446   4.065
 9278TIP3   OH227778   3.893   2.105   3.264
 9278TIP3    H127779   3.809   2.145   3.241
 9278TIP3    H227780   3.877   2.011   3.263
 9279TIP3   OH227781   4.781   2.254   5.376
 9279TIP3    H127782   4.793   2.223   5.286
 9279TIP3    H227783   4.859   2.224   5.422
 9280TIP3   OH227784   0.315   1.458   3.527
 9280TIP3    H127785   0.270   1.393   3.582
 9280TIP3    H227786   0.400   1.470   3.570
 9281TIP3   OH227787   5.746   7.549   0.135
 9281TIP3    H127788   5.815   7.555   0.069
 9281TIP3    H227789   5.768   7.616   0.200
 9282TIP3   OH227790   1.804   6.971   4.951
 9282TIP3    H127791   1.762   6.887   4.930
 9282TIP3    H227792   1.822   6.966   5.045
 9283TIP3   OH227793   3.106   7.317   0.545
 9283TIP3    H127794   3.050   7.242   0.566
 9283TIP3    H227795   3.078   7.386   0.605
 9284TIP3   OH227796   1.264   2.945   0.274
 9284TIP3    H127797   1.318   2.926   0.197
 9284TIP3    H227798   1.303   3.024   0.312
 9285TIP3   OH227799   0.985   5.668   3.849
 9285TIP3    H127800   1.078   5.658   3.867
 9285TIP3    H227801   0.968   5.610   3.775
 9286TIP3   OH227802   3.989   6.024   1.921
 9286TIP3    H127803   3.916   6.083   1.937
 9286TIP3    H227804   3.950   5.937   1.920
 9287TIP3   OH227805   2.990   6.567   1.916
 9287TIP3    H127806   3.039   6.603   1.841
 9287TIP3    H227807   2.911   6.529   1.877
 9288TIP3   OH227808   5.116   2.487   4.085
 9288TIP3    H127809   5.211   2.476   4.082
 9288TIP3    H227810   5.095   2.537   4.006
 9289TIP3   OH227811   2.372   4.771   2.799
 9289TIP3    H127812   2.334   4.851   2.835
 9289TIP3    H227813   2.431   4.740   2.867
 9290TIP3   OH227814   6.570   5.065   3.208
 9290TIP3    H127815   6.500   5.041   3.270
 9290TIP3    H227816   6.639   5.001   3.225
 9291TIP3   OH227817   3.248   3.135   0.935
 9291TIP3    H127818   3.223   3.192   0.862
 9291TIP3    H227819   3.289   3.194   0.998
 9292TIP3   OH227820   5.250   3.215   5.500
 9292TIP3    H127821   5.299   3.291   5.467
 9292TIP3    H227822   5.312   3.169   5.556
 9293TIP3   OH227823   4.155   7.551   3.505
 9293TIP3    H127824   4.163   7.594   3.420
 9293TIP3    H227825   4.061   7.536   3.515
 9294TIP3   OH227826   2.064   7.290   3.756
 9294TIP3    H127827   2.025   7.323   3.837
 9294TIP3    H227828   2.108   7.209   3.782
 9295TIP3   OH227829   4.925   5.583   4.175
 9295TIP3    H127830   4.841   5.629   4.171
 9295TIP3    H227831   4.926   5.529   4.096
 9296TIP3   OH227832   1.511   3.837   4.094
 9296TIP3    H127833   1.426   3.876   4.070
 9296TIP3    H227834   1.500   3.743   4.076
 9297TIP3   OH227835   0.711   2.253   2.254
 9297TIP3    H127836   0.686   2.344   2.268
 9297TIP3    H227837   0.802   2.249   2.282
 9298TIP3   OH227838   4.373   7.339   1.551
 9298TIP3    H127839   4.446   7.279   1.532
 9298TIP3    H227840   4.351   7.322   1.642
 9299TIP3   OH227841   6.153   0.759   1.009
 9299TIP3    H127842   6.221   0.826   1.018
 9299TIP3    H227843   6.160   0.731   0.918
 9300TIP3   OH227844   8.096   4.200   3.324
 9300TIP3    H127845   8.014   4.158   3.297
 9300TIP3    H227846   8.093   4.198   3.420
 9301TIP3   OH227847   5.243   1.260   0.233
 9301TIP3    H127848   5.267   1.168   0.237
 9301TIP3    H227849   5.250   1.283   0.140
 9302TIP3   OH227850   7.713   1.655   2.440
 9302TIP3    H127851   7.648   1.584   2.436
 9302TIP3    H227852   7.778   1.632   2.374
 9303TIP3   OH227853   7.033   1.763   2.446
 9303TIP3    H127854   6.943   1.755   2.413
 9303TIP3    H227855   7.064   1.672   2.452
 9304TIP3   OH227856   4.029   5.958   1.014
 9304TIP3    H127857   3.936   5.980   1.021
 9304TIP3    H227858   4.075   6.040   1.027
 9305TIP3   OH227859   6.002   0.577   1.671
 9305TIP3    H127860   5.997   0.526   1.752
 9305TIP3    H227861   6.089   0.557   1.636
 9306TIP3   OH227862   7.793   7.672   4.902
 9306TIP3    H127863   7.775   7.766   4.906
 9306TIP3    H227864   7.760   7.645   4.817
 9307TIP3   OH227865   6.501   4.559   6.097
 9307TIP3    H127866   6.411   4.530   6.079
 9307TIP3    H227867   6.549   4.478   6.115
 9308TIP3   OH227868   0.928   0.113   1.220
 9308TIP3    H127869   0.953   0.205   1.207
 9308TIP3    H227870   0.946   0.096   1.312
 9309TIP3   OH227871   7.743   6.172   2.334
 9309TIP3    H127872   7.680   6.180   2.406
 9309TIP3    H227873   7.727   6.249   2.279
 9310TIP3   OH227874   2.460   5.894   0.873
 9310TIP3    H127875   2.524   5.950   0.916
 9310TIP3    H227876   2.375   5.924   0.906
 9311TIP3   OH227877   0.968   2.233   2.320
 9311TIP3    H127878   1.042   2.290   2.300
 9311TIP3    H227879   0.984   2.204   2.410
 9312TIP3   OH227880   3.342   6.828   4.024
 9312TIP3    H127881   3.259   6.876   4.025
 9312TIP3    H227882   3.367   6.820   4.116
 9313TIP3   OH227883   7.545   5.535   4.406
 9313TIP3    H127884   7.639   5.524   4.391
 9313TIP3    H227885   7.507   5.548   4.319
 9314TIP3   OH227886   0.533   6.636   3.739
 9314TIP3    H127887   0.531   6.609   3.647
 9314TIP3    H227888   0.482   6.568   3.784
 9315TIP3   OH227889   5.526   5.158   4.323
 9315TIP3    H127890   5.578   5.198   4.392
 9315TIP3    H227891   5.587   5.149   4.249
 9316TIP3   OH227892   7.013   5.029   3.520
 9316TIP3    H127893   6.994   5.077   3.601
 9316TIP3    H227894   7.102   5.055   3.496
 9317TIP3   OH227895   0.674   1.665   0.637
 9317TIP3    H127896   0.644   1.589   0.587
 9317TIP3    H227897   0.768   1.650   0.648
 9318TIP3   OH227898   5.287   5.457   2.197
 9318TIP3    H127899   5.293   5.363   2.181
 9318TIP3    H227900   5.330   5.470   2.282
 9319TIP3   OH227901   4.580   3.442   0.644
 9319TIP3    H127902   4.672   3.462   0.628
 9319TIP3    H227903   4.540   3.527   0.661
 9320TIP3   OH227904   7.098   6.881   2.265
 9320TIP3    H127905   7.114   6.873   2.171
 9320TIP3    H227906   7.021   6.937   2.272
 9321TIP3   OH227907   6.709   2.666   0.526
 9321TIP3    H127908   6.708   2.700   0.436
 9321TIP3    H227909   6.620   2.636   0.541
 9322TIP3   OH227910   0.479   5.667   3.845
 9322TIP3    H127911   0.445   5.660   3.934
 9322TIP3    H227912   0.555   5.724   3.852
 9323TIP3   OH227913   0.966   0.925   1.159
 9323TIP3    H127914   0.901   0.974   1.108
 9323TIP3    H227915   1.001   0.860   1.097
 9324TIP3   OH227916   7.761   4.729   3.663
 9324TIP3    H127917   7.839   4.724   3.608
 9324TIP3    H227918   7.690   4.699   3.606
 9325TIP3   OH227919   8.122   0.775   1.382
 9325TIP3    H127920   8.077   0.842   1.433
 9325TIP3    H227921   8.126   0.699   1.440
 9326TIP3   OH227922   4.333   1.024   2.303
 9326TIP3    H127923   4.331   1.064   2.390
 9326TIP3    H227924   4.423   1.039   2.272
 9327TIP3   OH227925   5.388   5.483   5.766
 9327TIP3    H127926   5.374   5.551   5.832
 9327TIP3    H227927   5.344   5.405   5.802
 9328TIP3   OH227928   6.749   7.204   3.591
 9328TIP3    H127929   6.781   7.286   3.628
 9328TIP3    H227930   6.797   7.195   3.508
 9329TIP3   OH227931   6.382   6.731   0.466
 9329TIP3    H127932   6.451   6.686   0.418
 9329TIP3    H227933   6.415   6.821   0.475
 9330TIP3   OH227934   2.428   2.485   2.237
 9330TIP3    H127935   2.498   2.466   2.174
 9330TIP3    H227936   2.347   2.465   2.190
 9331TIP3   OH227937   1.577   3.319   4.981
 9331TIP3    H127938   1.555   3.228   5.001
 9331TIP3    H227939   1.672   3.324   4.997
 9332TIP3   OH227940   2.363   6.990   5.169
 9332TIP3    H127941   2.306   7.026   5.238
 9332TIP3    H227942   2.302   6.961   5.101
 9333TIP3   OH227943   7.582   1.188   2.092
 9333TIP3    H127944   7.607   1.270   2.048
 9333TIP3    H227945   7.487   1.192   2.098
 9334TIP3   OH227946   3.080   7.761   3.122
 9334TIP3    H127947   3.090   7.677   3.078
 9334TIP3    H227948   3.051   7.821   3.052
 9335TIP3   OH227949   0.403   7.750   1.543
 9335TIP3    H127950   0.408   7.829   1.490
 9335TIP3    H227951   0.468   7.762   1.612
 9336TIP3   OH227952   5.112   6.637   6.484
 9336TIP3    H127953   5.121   6.584   6.563
 9336TIP3    H227954   5.130   6.576   6.412
 9337TIP3   OH227955   7.800   2.005   1.919
 9337TIP3    H127956   7.885   1.965   1.904
 9337TIP3    H227957   7.749   1.937   1.964
 9338TIP3   OH227958   3.249   7.729   2.799
 9338TIP3    H127959   3.185   7.680   2.850
 9338TIP3    H227960   3.253   7.684   2.714
 9339TIP3   OH227961   6.465   3.997   6.582
 9339TIP3    H127962   6.459   4.041   6.498
 9339TIP3    H227963   6.485   4.067   6.644
 9340TIP3   OH227964   8.189   2.086   4.380
 9340TIP3    H127965   8.264   2.057   4.329
 9340TIP3    H227966   8.117   2.089   4.318
 9341TIP3   OH227967   4.209   5.302   2.725
 9341TIP3    H127968   4.141   5.336   2.783
 9341TIP3    H227969   4.291   5.331   2.765
 9342TIP3   OH227970   7.304   2.752   4.574
 9342TIP3    H127971   7.270   2.749   4.485
 9342TIP3    H227972   7.389   2.796   4.566
 9343TIP3   OH227973   5.382   6.969   0.340
 9343TIP3    H127974   5.464   6.932   0.307
 9343TIP3    H227975   5.335   6.996   0.262
 9344TIP3   OH227976   0.455   7.398   5.412
 9344TIP3    H127977   0.512   7.368   5.482
 9344TIP3    H227978   0.443   7.322   5.355
 9345TIP3   OH227979   4.847   4.028  -0.008
 9345TIP3    H127980   4.761   3.989  -0.021
 9345TIP3    H227981   4.887   3.977   0.062
 9346TIP3   OH227982   4.455   0.818   4.817
 9346TIP3    H127983   4.422   0.731   4.797
 9346TIP3    H227984   4.444   0.868   4.736
 9347TIP3   OH227985   4.272   0.323   0.144
 9347TIP3    H127986   4.279   0.331   0.048
 9347TIP3    H227987   4.242   0.409   0.173
 9348TIP3   OH227988   7.463   0.067   6.695
 9348TIP3    H127989   7.462   0.115   6.778
 9348TIP3    H227990   7.554   0.036   6.686
 9349TIP3   OH227991   3.099   6.223   2.506
 9349TIP3    H127992   3.075   6.153   2.445
 9349TIP3    H227993   3.059   6.198   2.589
 9350TIP3   OH227994   7.827   1.930   4.720
 9350TIP3    H127995   7.770   1.989   4.769
 9350TIP3    H227996   7.915   1.948   4.754
 9351TIP3   OH227997   4.547   5.727   6.186
 9351TIP3    H127998   4.545   5.822   6.192
 9351TIP3    H227999   4.473   5.698   6.240
 9352TIP3   OH228000   5.976   1.455   5.207
 9352TIP3    H128001   5.931   1.373   5.187
 9352TIP3    H228002   5.971   1.505   5.126
 9353TIP3   OH228003   1.209   0.573   0.272
 9353TIP3    H128004   1.138   0.616   0.225
 9353TIP3    H228005   1.264   0.535   0.204
 9354TIP3   OH228006   4.826   5.510   5.658
 9354TIP3    H128007   4.735   5.532   5.678
 9354TIP3    H228008   4.837   5.535   5.566
 9355TIP3   OH228009   0.627   2.000   4.955
 9355TIP3    H128010   0.663   2.061   5.019
 9355TIP3    H228011   0.536   1.989   4.981
 9356TIP3   OH228012   7.633   0.980   0.193
 9356TIP3    H128013   7.611   1.067   0.158
 9356TIP3    H228014   7.727   0.984   0.210
 9357TIP3   OH228015   0.689   7.691   5.125
 9357TIP3    H128016   0.630   7.709   5.051
 9357TIP3    H228017   0.631   7.673   5.199
 9358TIP3   OH228018   2.825   4.513   1.742
 9358TIP3    H128019   2.853   4.593   1.787
 9358TIP3    H228020   2.773   4.467   1.808
 9359TIP3   OH228021   1.655   6.303   3.076
 9359TIP3    H128022   1.582   6.363   3.092
 9359TIP3    H228023   1.633   6.259   2.994
 9360TIP3   OH228024   2.336   1.075   1.929
 9360TIP3    H128025   2.417   1.059   1.977
 9360TIP3    H228026   2.355   1.151   1.874
 9361TIP3   OH228027   2.236   4.678   1.450
 9361TIP3    H128028   2.177   4.698   1.377
 9361TIP3    H228029   2.318   4.652   1.407
 9362TIP3   OH228030   4.082   1.460   3.351
 9362TIP3    H128031   4.114   1.540   3.308
 9362TIP3    H228032   4.120   1.389   3.300
 9363TIP3   OH228033   6.998   0.641   4.011
 9363TIP3    H128034   6.961   0.728   3.994
 9363TIP3    H228035   6.971   0.588   3.936
 9364TIP3   OH228036   0.235   6.805   0.696
 9364TIP3    H128037   0.265   6.816   0.606
 9364TIP3    H228038   0.162   6.744   0.690
 9365TIP3   OH228039   4.928   5.323   2.526
 9365TIP3    H128040   4.923   5.350   2.618
 9365TIP3    H228041   4.931   5.227   2.530
 9366TIP3   OH228042   5.089   5.592   1.396
 9366TIP3    H128043   5.114   5.666   1.340
 9366TIP3    H228044   5.108   5.515   1.342
 9367TIP3   OH228045   5.052   7.001   2.378
 9367TIP3    H128046   5.115   7.073   2.371
 9367TIP3    H228047   5.003   7.019   2.458
 9368TIP3   OH228048   3.629   3.613   0.275
 9368TIP3    H128049   3.712   3.602   0.228
 9368TIP3    H228050   3.583   3.681   0.227
 9369TIP3   OH228051   6.059   6.697   5.426
 9369TIP3    H128052   6.082   6.715   5.335
 9369TIP3    H228053   6.136   6.724   5.476
 9370TIP3   OH228054   5.606   3.795   1.748
 9370TIP3    H128055   5.542   3.724   1.753
 9370TIP3    H228056   5.579   3.857   1.816
 9371TIP3   OH228057   2.323   2.372   6.326
 9371TIP3    H128058   2.332   2.311   6.400
 9371TIP3    H228059   2.244   2.422   6.345
 9372TIP3   OH228060   8.134   6.724   1.243
 9372TIP3    H128061   8.097   6.811   1.258
 9372TIP3    H228062   8.226   6.733   1.270
 9373TIP3   OH228063   3.208   1.568   6.404
 9373TIP3    H128064   3.192   1.625   6.328
 9373TIP3    H228065   3.121   1.538   6.430
 9374TIP3   OH228066   1.347   1.357   3.595
 9374TIP3    H128067   1.275   1.359   3.658
 9374TIP3    H228068   1.338   1.439   3.547
 9375TIP3   OH228069   7.509   6.771   6.196
 9375TIP3    H128070   7.466   6.849   6.162
 9375TIP3    H228071   7.602   6.787   6.183
 9376TIP3   OH228072   6.201   0.957   5.651
 9376TIP3    H128073   6.154   1.022   5.598
 9376TIP3    H228074   6.154   0.875   5.635
 9377TIP3   OH228075   4.799   7.514   3.383
 9377TIP3    H128076   4.710   7.524   3.417
 9377TIP3    H228077   4.833   7.604   3.380
 9378TIP3   OH228078   0.526   5.147   1.926
 9378TIP3    H128079   0.526   5.066   1.976
 9378TIP3    H228080   0.597   5.136   1.862
 9379TIP3   OH228081   3.273   7.339   1.827
 9379TIP3    H128082   3.367   7.335   1.846
 9379TIP3    H228083   3.265   7.317   1.735
 9380TIP3   OH228084   6.053   5.973   0.829
 9380TIP3    H128085   6.108   6.016   0.894
 9380TIP3    H228086   6.110   5.911   0.785
 9381TIP3   OH228087   6.193   0.157   4.261
 9381TIP3    H128088   6.245   0.076   4.260
 9381TIP3    H228089   6.256   0.226   4.240
 9382TIP3   OH228090   4.630   3.771   6.052
 9382TIP3    H128091   4.568   3.822   5.999
 9382TIP3    H228092   4.642   3.824   6.131
 9383TIP3   OH228093   4.689   6.540   2.124
 9383TIP3    H128094   4.622   6.497   2.070
 9383TIP3    H228095   4.644   6.612   2.167
 9384TIP3   OH228096   3.889   5.487   3.907
 9384TIP3    H128097   3.903   5.477   3.813
 9384TIP3    H228098   3.931   5.409   3.945
 9385TIP3   OH228099   0.652   3.899   4.014
 9385TIP3    H128100   0.578   3.933   3.963
 9385TIP3    H228101   0.619   3.818   4.053
 9386TIP3   OH228102   3.343   5.096   3.520
 9386TIP3    H128103   3.253   5.078   3.492
 9386TIP3    H228104   3.392   5.019   3.491
 9387TIP3   OH228105   5.271   1.733   3.637
 9387TIP3    H128106   5.198   1.721   3.577
 9387TIP3    H228107   5.283   1.827   3.643
 9388TIP3   OH228108   5.414   0.855   4.854
 9388TIP3    H128109   5.452   0.767   4.855
 9388TIP3    H228110   5.370   0.863   4.938
 9389TIP3   OH228111   5.211   0.569   6.156
 9389TIP3    H128112   5.202   0.547   6.063
 9389TIP3    H228113   5.158   0.648   6.166
 9390TIP3   OH228114   5.943   0.873   1.137
 9390TIP3    H128115   6.027   0.839   1.107
 9390TIP3    H228116   5.951   0.968   1.131
 9391TIP3   OH228117   1.425   3.388   2.634
 9391TIP3    H128118   1.385   3.471   2.660
 9391TIP3    H228119   1.515   3.412   2.610
 9392TIP3   OH228120   7.065   3.357   4.943
 9392TIP3    H128121   7.057   3.425   5.010
 9392TIP3    H228122   7.144   3.380   4.895
 9393TIP3   OH228123   6.969   5.893   2.745
 9393TIP3    H128124   6.999   5.853   2.664
 9393TIP3    H228125   6.985   5.827   2.812
 9394TIP3   OH228126   3.640   1.953   3.285
 9394TIP3    H128127   3.591   1.956   3.367
 9394TIP3    H228128   3.606   2.027   3.234
 9395TIP3   OH228129   1.615   6.412   0.721
 9395TIP3    H128130   1.598   6.350   0.650
 9395TIP3    H228131   1.621   6.357   0.799
 9396TIP3   OH228132   3.077   6.744   0.130
 9396TIP3    H128133   3.133   6.668   0.148
 9396TIP3    H228134   3.130   6.801   0.074
 9397TIP3   OH228135   0.752   4.002   3.246
 9397TIP3    H128136   0.800   4.065   3.300
 9397TIP3    H228137   0.759   4.037   3.157
 9398TIP3   OH228138   1.253   0.421   0.520
 9398TIP3    H128139   1.321   0.355   0.515
 9398TIP3    H228140   1.230   0.440   0.429
 9399TIP3   OH228141   0.144   0.167   5.734
 9399TIP3    H128142   0.143   0.251   5.689
 9399TIP3    H228143   0.099   0.183   5.817
 9400TIP3   OH228144   1.038   1.601   1.071
 9400TIP3    H128145   0.981   1.537   1.113
 9400TIP3    H228146   1.126   1.566   1.083
 9401TIP3   OH228147   3.565   5.048   5.131
 9401TIP3    H128148   3.640   5.022   5.184
 9401TIP3    H228149   3.491   4.999   5.169
 9402TIP3   OH228150   0.035   3.404   4.707
 9402TIP3    H128151   0.031   3.394   4.612
 9402TIP3    H228152   0.128   3.398   4.729
 9403TIP3   OH228153   2.240   0.270  -0.007
 9403TIP3    H128154   2.266   0.294   0.082
 9403TIP3    H228155   2.319   0.231  -0.045
 9404TIP3   OH228156   1.397   5.938   3.886
 9404TIP3    H128157   1.322   5.988   3.852
 9404TIP3    H228158   1.461   6.004   3.911
 9405TIP3   OH228159   1.922   4.700   4.196
 9405TIP3    H128160   1.935   4.690   4.290
 9405TIP3    H228161   1.890   4.615   4.167
 9406TIP3   OH228162   5.454   5.559   3.299
 9406TIP3    H128163   5.403   5.481   3.320
 9406TIP3    H228164   5.438   5.619   3.372
 9407TIP3   OH228165   5.798   2.779   1.021
 9407TIP3    H128166   5.749   2.829   0.956
 9407TIP3    H228167   5.845   2.846   1.071
 9408TIP3   OH228168   1.339   4.482   5.355
 9408TIP3    H128169   1.360   4.393   5.328
 9408TIP3    H228170   1.422   4.518   5.385
 9409TIP3   OH228171   6.788   1.876   2.596
 9409TIP3    H128172   6.774   1.953   2.541
 9409TIP3    H228173   6.876   1.890   2.633
 9410TIP3   OH228174   7.667   7.585   4.652
 9410TIP3    H128175   7.670   7.579   4.556
 9410TIP3    H228176   7.592   7.643   4.670
 9411TIP3   OH228177   7.457   4.232   5.450
 9411TIP3    H128178   7.455   4.247   5.545
 9411TIP3    H228179   7.410   4.307   5.413
 9412TIP3   OH228180   7.707   3.890   2.542
 9412TIP3    H128181   7.768   3.836   2.492
 9412TIP3    H228182   7.698   3.845   2.626
 9413TIP3   OH228183   3.136   7.024   4.055
 9413TIP3    H128184   3.116   7.093   4.118
 9413TIP3    H228185   3.179   7.070   3.982
 9414TIP3   OH228186   1.835   1.670   0.973
 9414TIP3    H128187   1.882   1.613   0.912
 9414TIP3    H228188   1.784   1.611   1.028
 9415TIP3   OH228189   4.692   3.204   3.597
 9415TIP3    H128190   4.778   3.166   3.611
 9415TIP3    H228191   4.682   3.269   3.666
 9416TIP3   OH228192   6.550   4.716   3.073
 9416TIP3    H128193   6.584   4.699   2.985
 9416TIP3    H228194   6.488   4.645   3.088
 9417TIP3   OH228195   5.987   4.477   1.279
 9417TIP3    H128196   6.005   4.396   1.230
 9417TIP3    H228197   5.960   4.446   1.365
 9418TIP3   OH228198   0.833   5.008   0.462
 9418TIP3    H128199   0.902   4.998   0.396
 9418TIP3    H228200   0.843   5.098   0.494
 9419TIP3   OH228201   7.008   6.640   0.705
 9419TIP3    H128202   7.096   6.676   0.695
 9419TIP3    H228203   7.001   6.617   0.798
 9420TIP3   OH228204   6.585   7.556   3.881
 9420TIP3    H128205   6.586   7.463   3.859
 9420TIP3    H228206   6.657   7.567   3.945
 9421TIP3   OH228207   1.581   6.706   0.475
 9421TIP3    H128208   1.651   6.693   0.540
 9421TIP3    H228209   1.501   6.677   0.520
 9422TIP3   OH228210   5.705   3.258   5.448
 9422TIP3    H128211   5.634   3.194   5.456
 9422TIP3    H228212   5.745   3.239   5.363
 9423TIP3   OH228213   0.053   6.430   0.750
 9423TIP3    H128214  -0.021   6.375   0.724
 9423TIP3    H228215   0.097   6.451   0.668
 9424TIP3   OH228216   3.194   4.092   0.337
 9424TIP3    H128217   3.169   4.138   0.417
 9424TIP3    H228218   3.201   4.000   0.363
 9425TIP3   OH228219   1.199   5.153   5.317
 9425TIP3    H128220   1.267   5.167   5.251
 9425TIP3    H228221   1.188   5.238   5.358
 9426TIP3   OH228222   7.248   6.813   4.526
 9426TIP3    H128223   7.195   6.768   4.592
 9426TIP3    H228224   7.252   6.752   4.452
 9427TIP3   OH228225   5.132   5.918   4.687
 9427TIP3    H128226   5.104   5.884   4.772
 9427TIP3    H228227   5.117   5.846   4.626
 9428TIP3   OH228228   5.879   7.770   5.905
 9428TIP3    H128229   5.905   7.814   5.825
 9428TIP3    H228230   5.824   7.833   5.951
 9429TIP3   OH228231   0.982   1.453   2.126
 9429TIP3    H128232   1.021   1.434   2.041
 9429TIP3    H228233   1.048   1.504   2.172
 9430TIP3   OH228234   5.324   2.219   2.428
 9430TIP3    H128235   5.381   2.291   2.399
 9430TIP3    H228236   5.253   2.219   2.364
 9431TIP3   OH228237   8.143   0.968   5.044
 9431TIP3    H128238   8.112   1.028   5.112
 9431TIP3    H228239   8.151   1.022   4.966
 9432TIP3   OH228240   8.035   0.632   6.574
 9432TIP3    H128241   7.971   0.687   6.618
 9432TIP3    H228242   7.988   0.594   6.500
 9433TIP3   OH228243   6.116   1.416   6.250
 9433TIP3    H128244   6.154   1.473   6.183
 9433TIP3    H228245   6.094   1.336   6.203
 9434TIP3   OH228246   3.223   6.163   2.188
 9434TIP3    H128247   3.234   6.193   2.278
 9434TIP3    H228248   3.197   6.241   2.139
 9435TIP3   OH228249   1.329   7.185   4.763
 9435TIP3    H128250   1.261   7.179   4.696
 9435TIP3    H228251   1.298   7.128   4.834
 9436TIP3   OH228252   2.367   3.819   4.932
 9436TIP3    H128253   2.281   3.784   4.906
 9436TIP3    H228254   2.426   3.743   4.926
 9437TIP3   OH228255   4.397   1.877   3.826
 9437TIP3    H128256   4.355   1.815   3.766
 9437TIP3    H228257   4.365   1.963   3.798
 9438TIP3   OH228258   2.100   6.018   5.303
 9438TIP3    H128259   2.057   5.953   5.358
 9438TIP3    H228260   2.103   5.978   5.216
 9439TIP3   OH228261   7.434   3.533   4.945
 9439TIP3    H128262   7.522   3.566   4.925
 9439TIP3    H228263   7.433   3.523   5.040
 9440TIP3   OH228264   6.518   3.973   1.711
 9440TIP3    H128265   6.541   3.913   1.639
 9440TIP3    H228266   6.436   3.938   1.746
 9441TIP3   OH228267   1.512   2.153   0.644
 9441TIP3    H128268   1.514   2.072   0.594
 9441TIP3    H228269   1.502   2.125   0.735
 9442TIP3   OH228270   5.181   6.048   5.646
 9442TIP3    H128271   5.191   5.991   5.722
 9442TIP3    H228272   5.106   6.104   5.668
 9443TIP3   OH228273   5.957   6.396   4.431
 9443TIP3    H128274   5.950   6.491   4.437
 9443TIP3    H228275   5.881   6.364   4.479
 9444TIP3   OH228276   5.209   5.840   6.346
 9444TIP3    H128277   5.151   5.805   6.279
 9444TIP3    H228278   5.234   5.927   6.313
 9445TIP3   OH228279   0.947   1.404   3.491
 9445TIP3    H128280   1.038   1.432   3.496
 9445TIP3    H228281   0.950   1.319   3.446
 9446TIP3   OH228282   3.836   5.757   1.949
 9446TIP3    H128283   3.802   5.669   1.935
 9446TIP3    H228284   3.758   5.810   1.968
 9447TIP3   OH228285   1.382   1.751   4.448
 9447TIP3    H128286   1.312   1.687   4.460
 9447TIP3    H228287   1.411   1.772   4.537
 9448TIP3   OH228288   1.388   5.206   3.132
 9448TIP3    H128289   1.327   5.139   3.103
 9448TIP3    H228290   1.453   5.159   3.185
 9449TIP3   OH228291   2.290   6.995   2.626
 9449TIP3    H128292   2.220   6.947   2.670
 9449TIP3    H228293   2.370   6.966   2.669
 9450TIP3   OH228294   5.416   3.194   0.819
 9450TIP3    H128295   5.446   3.171   0.907
 9450TIP3    H228296   5.487   3.246   0.783
 9451TIP3   OH228297   1.798   1.553   0.587
 9451TIP3    H128298   1.724   1.556   0.526
 9451TIP3    H228299   1.759   1.560   0.674
 9452TIP3   OH228300   1.027   5.009   0.035
 9452TIP3    H128301   1.054   5.093   0.071
 9452TIP3    H228302   0.947   5.028  -0.014
 9453TIP3   OH228303   8.252   0.013   2.519
 9453TIP3    H128304   8.251   0.109   2.516
 9453TIP3    H228305   8.231  -0.007   2.610
 9454TIP3   OH228306   4.178   3.146   6.698
 9454TIP3    H128307   4.191   3.158   6.604
 9454TIP3    H228308   4.125   3.221   6.725
 9455TIP3   OH228309   3.917   7.340   2.769
 9455TIP3    H128310   3.822   7.346   2.773
 9455TIP3    H228311   3.947   7.430   2.783
 9456TIP3   OH228312   0.985   6.438   6.451
 9456TIP3    H128313   1.074   6.444   6.487
 9456TIP3    H228314   0.934   6.396   6.520
 9457TIP3   OH228315   2.468   0.835   4.518
 9457TIP3    H128316   2.488   0.928   4.529
 9457TIP3    H228317   2.507   0.794   4.596
 9458TIP3   OH228318   7.938   2.061   0.661
 9458TIP3    H128319   7.888   2.117   0.722
 9458TIP3    H228320   7.981   2.123   0.602
 9459TIP3   OH228321   1.573   2.804   4.148
 9459TIP3    H128322   1.529   2.814   4.064
 9459TIP3    H228323   1.583   2.893   4.182
 9460TIP3   OH228324   5.651   4.740   3.279
 9460TIP3    H128325   5.724   4.686   3.250
 9460TIP3    H228326   5.598   4.752   3.200
 9461TIP3   OH228327   6.206   2.060   3.732
 9461TIP3    H128328   6.240   2.137   3.777
 9461TIP3    H228329   6.264   1.989   3.760
 9462TIP3   OH228330   4.700   3.971   4.881
 9462TIP3    H128331   4.790   3.979   4.849
 9462TIP3    H228332   4.653   3.929   4.809
 9463TIP3   OH228333   7.283   6.623   0.261
 9463TIP3    H128334   7.247   6.583   0.182
 9463TIP3    H228335   7.378   6.616   0.250
 9464TIP3   OH228336   7.918   4.922   1.348
 9464TIP3    H128337   7.942   4.960   1.432
 9464TIP3    H228338   7.952   4.833   1.351
 9465TIP3   OH228339   3.174   4.524   4.549
 9465TIP3    H128340   3.159   4.463   4.477
 9465TIP3    H228341   3.239   4.586   4.514
 9466TIP3   OH228342   3.955   6.393   1.218
 9466TIP3    H128343   3.902   6.472   1.222
 9466TIP3    H228344   4.017   6.401   1.291
 9467TIP3   OH228345   4.033   5.476   1.502
 9467TIP3    H128346   4.003   5.497   1.591
 9467TIP3    H228347   4.044   5.561   1.460
 9468TIP3   OH228348   1.316   7.512   4.053
 9468TIP3    H128349   1.405   7.546   4.057
 9468TIP3    H228350   1.268   7.577   4.002
 9469TIP3   OH228351   1.138   4.601   3.426
 9469TIP3    H128352   1.128   4.682   3.476
 9469TIP3    H228353   1.231   4.578   3.437
 9470TIP3   OH228354   1.374   0.446   6.330
 9470TIP3    H128355   1.333   0.518   6.282
 9470TIP3    H228356   1.465   0.474   6.341
 9471TIP3   OH228357   1.661   0.510   6.353
 9471TIP3    H128358   1.696   0.591   6.315
 9471TIP3    H228359   1.737   0.468   6.395
 9472TIP3   OH228360   2.610   2.934   4.590
 9472TIP3    H128361   2.663   2.869   4.544
 9472TIP3    H228362   2.674   2.994   4.628
 9473TIP3   OH228363   0.393   4.252   2.095
 9473TIP3    H128364   0.389   4.258   2.190
 9473TIP3    H228365   0.380   4.342   2.065
 9474TIP3   OH228366   5.099   3.527   2.450
 9474TIP3    H128367   5.004   3.523   2.448
 9474TIP3    H228368   5.119   3.611   2.492
 9475TIP3   OH228369   7.480   1.815   3.134
 9475TIP3    H128370   7.481   1.898   3.181
 9475TIP3    H228371   7.477   1.749   3.204
 9476TIP3   OH228372   6.439   4.473   0.553
 9476TIP3    H128373   6.445   4.508   0.642
 9476TIP3    H228374   6.376   4.402   0.560
 9477TIP3   OH228375   4.018   7.222   3.440
 9477TIP3    H128376   3.976   7.308   3.438
 9477TIP3    H228377   3.984   7.176   3.363
 9478TIP3   OH228378   2.769   0.008   5.998
 9478TIP3    H128379   2.714   0.018   6.076
 9478TIP3    H228380   2.790   0.098   5.972
 9479TIP3   OH228381   5.201   1.324   3.385
 9479TIP3    H128382   5.122   1.366   3.421
 9479TIP3    H228383   5.260   1.396   3.365
 9480TIP3   OH228384   3.852   4.197   2.167
 9480TIP3    H128385   3.939   4.200   2.206
 9480TIP3    H228386   3.802   4.137   2.222
 9481TIP3   OH228387   2.581   4.282   3.109
 9481TIP3    H128388   2.505   4.339   3.095
 9481TIP3    H228389   2.618   4.269   3.021
 9482TIP3   OH228390   3.787   0.537   3.467
 9482TIP3    H128391   3.771   0.630   3.481
 9482TIP3    H228392   3.751   0.494   3.545
 9483TIP3   OH228393   2.637   1.197   3.317
 9483TIP3    H128394   2.568   1.164   3.375
 9483TIP3    H228395   2.591   1.256   3.256
 9484TIP3   OH228396   5.707   1.603   3.961
 9484TIP3    H128397   5.657   1.527   3.932
 9484TIP3    H228398   5.798   1.580   3.944
 9485TIP3   OH228399   5.427   7.581   0.775
 9485TIP3    H128400   5.521   7.601   0.771
 9485TIP3    H228401   5.409   7.538   0.691
 9486TIP3   OH228402   4.805   5.669   0.742
 9486TIP3    H128403   4.894   5.685   0.710
 9486TIP3    H228404   4.814   5.667   0.838
 9487TIP3   OH228405   0.745   3.180   2.756
 9487TIP3    H128406   0.823   3.131   2.733
 9487TIP3    H228407   0.756   3.199   2.849
 9488TIP3   OH228408   4.295   6.608   2.057
 9488TIP3    H128409   4.345   6.552   2.116
 9488TIP3    H228410   4.255   6.547   1.994
 9489TIP3   OH228411   4.286   7.495   5.740
 9489TIP3    H128412   4.379   7.489   5.717
 9489TIP3    H228413   4.260   7.405   5.759
 9490TIP3   OH228414   0.771   2.912   4.662
 9490TIP3    H128415   0.817   2.837   4.625
 9490TIP3    H228416   0.762   2.973   4.588
 9491TIP3   OH228417   7.555   7.255   0.862
 9491TIP3    H128418   7.472   7.300   0.846
 9491TIP3    H228419   7.530   7.167   0.890
 9492TIP3   OH228420   1.848   1.227   1.646
 9492TIP3    H128421   1.903   1.158   1.608
 9492TIP3    H228422   1.803   1.184   1.719
 9493TIP3   OH228423   0.842   1.703   3.001
 9493TIP3    H128424   0.747   1.707   2.986
 9493TIP3    H228425   0.851   1.671   3.091
 9494TIP3   OH228426   5.159   4.169   0.696
 9494TIP3    H128427   5.141   4.237   0.631
 9494TIP3    H228428   5.170   4.089   0.646
 9495TIP3   OH228429   5.064   4.999   3.887
 9495TIP3    H128430   5.000   4.947   3.936
 9495TIP3    H228431   5.058   4.966   3.798
 9496TIP3   OH228432   3.224   6.403   0.921
 9496TIP3    H128433   3.317   6.395   0.903
 9496TIP3    H228434   3.189   6.315   0.908
 9497TIP3   OH228435   5.125   7.470   5.137
 9497TIP3    H128436   5.176   7.397   5.101
 9497TIP3    H228437   5.181   7.546   5.123
 9498TIP3   OH228438   0.609   2.254   6.185
 9498TIP3    H128439   0.598   2.297   6.101
 9498TIP3    H228440   0.541   2.187   6.187
 9499TIP3   OH228441   0.338   0.843   3.614
 9499TIP3    H128442   0.364   0.933   3.592
 9499TIP3    H228443   0.376   0.827   3.700
 9500TIP3   OH228444   8.075   6.924   6.262
 9500TIP3    H128445   8.121   6.910   6.180
 9500TIP3    H228446   8.142   6.914   6.330
 9501TIP3   OH228447   7.214   6.544   3.330
 9501TIP3    H128448   7.278   6.478   3.355
 9501TIP3    H228449   7.130   6.497   3.331
 9502TIP3   OH228450   4.991   2.659   6.771
 9502TIP3    H128451   5.059   2.643   6.706
 9502TIP3    H228452   5.007   2.592   6.838
 9503TIP3   OH228453   3.767   3.361   3.634
 9503TIP3    H128454   3.784   3.455   3.642
 9503TIP3    H228455   3.673   3.355   3.620
 9504TIP3   OH228456   4.939   6.939   2.630
 9504TIP3    H128457   4.940   6.889   2.711
 9504TIP3    H228458   4.890   6.885   2.568
 9505TIP3   OH228459   1.861   3.204   4.820
 9505TIP3    H128460   1.865   3.115   4.785
 9505TIP3    H228461   1.795   3.248   4.767
 9506TIP3   OH228462   5.645   0.260   3.970
 9506TIP3    H128463   5.704   0.250   4.045
 9506TIP3    H228464   5.630   0.355   3.964
 9507TIP3   OH228465   3.859   1.987   0.207
 9507TIP3    H128466   3.818   2.072   0.222
 9507TIP3    H228467   3.948   1.997   0.241
 9508TIP3   OH228468   7.042   0.395   0.411
 9508TIP3    H128469   6.992   0.365   0.336
 9508TIP3    H228470   6.977   0.436   0.469
 9509TIP3   OH228471   3.422   0.979   5.540
 9509TIP3    H128472   3.352   0.925   5.578
 9509TIP3    H228473   3.377   1.057   5.507
 9510TIP3   OH228474   3.123   4.331   2.955
 9510TIP3    H128475   3.136   4.426   2.963
 9510TIP3    H228476   3.072   4.320   2.875
 9511TIP3   OH228477   5.587   6.209   2.579
 9511TIP3    H128478   5.527   6.159   2.524
 9511TIP3    H228479   5.650   6.144   2.612
 9512TIP3   OH228480   3.329   2.026   1.737
 9512TIP3    H128481   3.381   2.076   1.674
 9512TIP3    H228482   3.383   1.950   1.758
 9513TIP3   OH228483   6.294   5.222   5.406
 9513TIP3    H128484   6.333   5.309   5.402
 9513TIP3    H228485   6.277   5.206   5.499
 9514TIP3   OH228486   4.054   6.909   0.628
 9514TIP3    H128487   4.132   6.904   0.574
 9514TIP3    H228488   4.054   6.827   0.678
 9515TIP3   OH228489   1.532   1.674   2.687
 9515TIP3    H128490   1.515   1.768   2.694
 9515TIP3    H228491   1.623   1.664   2.717
 9516TIP3   OH228492   5.804   1.577   1.618
 9516TIP3    H128493   5.840   1.652   1.667
 9516TIP3    H228494   5.800   1.607   1.528
 9517TIP3   OH228495   3.729   3.284   0.435
 9517TIP3    H128496   3.736   3.188   0.434
 9517TIP3    H228497   3.634   3.300   0.441
 9518TIP3   OH228498   6.796   7.745   5.216
 9518TIP3    H128499   6.756   7.802   5.282
 9518TIP3    H228500   6.874   7.792   5.187
 9519TIP3   OH228501   0.741   4.402   4.154
 9519TIP3    H128502   0.727   4.317   4.113
 9519TIP3    H228503   0.782   4.456   4.086
 9520TIP3   OH228504   3.462   3.328   0.610
 9520TIP3    H128505   3.448   3.409   0.659
 9520TIP3    H228506   3.408   3.338   0.532
 9521TIP3   OH228507   7.132   3.906   3.450
 9521TIP3    H128508   7.090   3.986   3.482
 9521TIP3    H228509   7.162   3.862   3.530
 9522TIP3   OH228510   3.807   5.518   1.868
 9522TIP3    H128511   3.721   5.477   1.857
 9522TIP3    H228512   3.863   5.473   1.805
 9523TIP3   OH228513  -0.011   3.704   4.896
 9523TIP3    H128514   0.045   3.745   4.829
 9523TIP3    H228515   0.042   3.633   4.931
 9524TIP3   OH228516   2.095   5.929   3.343
 9524TIP3    H128517   2.086   5.993   3.272
 9524TIP3    H228518   2.055   5.849   3.309
 9525TIP3   OH228519   1.176   0.191   4.203
 9525TIP3    H128520   1.137   0.225   4.284
 9525TIP3    H228521   1.133   0.107   4.189
 9526TIP3   OH228522   7.380   4.180   2.820
 9526TIP3    H128523   7.352   4.102   2.869
 9526TIP3    H228524   7.302   4.205   2.770
 9527TIP3   OH228525   2.218   4.327   2.421
 9527TIP3    H128526   2.124   4.333   2.408
 9527TIP3    H228527   2.256   4.381   2.352
 9528TIP3   OH228528   6.011   6.811   0.220
 9528TIP3    H128529   6.066   6.745   0.263
 9528TIP3    H228530   5.953   6.761   0.162
 9529TIP3   OH228531   3.614   4.238   6.728
 9529TIP3    H128532   3.643   4.319   6.769
 9529TIP3    H228533   3.695   4.190   6.709
 9530TIP3   OH228534   1.050   1.339   6.267
 9530TIP3    H128535   1.130   1.351   6.318
 9530TIP3    H228536   1.051   1.410   6.204
 9531TIP3   OH228537   6.480   5.617   6.573
 9531TIP3    H128538   6.448   5.677   6.506
 9531TIP3    H228539   6.405   5.601   6.630
 9532TIP3   OH228540   1.856   4.249   0.025
 9532TIP3    H128541   1.876   4.337   0.056
 9532TIP3    H228542   1.873   4.192   0.100
 9533TIP3   OH228543   7.790   1.063   1.641
 9533TIP3    H128544   7.767   1.004   1.569
 9533TIP3    H228545   7.722   1.130   1.640
 9534TIP3   OH228546   6.235   0.173   2.570
 9534TIP3    H128547   6.169   0.157   2.503
 9534TIP3    H228548   6.232   0.096   2.627
 9535TIP3   OH228549   4.928   0.566   1.558
 9535TIP3    H128550   4.849   0.593   1.512
 9535TIP3    H228551   4.953   0.484   1.516
 9536TIP3   OH228552   4.460   6.543   5.198
 9536TIP3    H128553   4.370   6.529   5.171
 9536TIP3    H228554   4.460   6.630   5.239
 9537TIP3   OH228555   7.456   1.163   3.203
 9537TIP3    H128556   7.490   1.080   3.171
 9537TIP3    H228557   7.476   1.163   3.297
 9538TIP3   OH228558   5.859   5.743   0.533
 9538TIP3    H128559   5.781   5.687   0.536
 9538TIP3    H228560   5.932   5.682   0.547
 9539TIP3   OH228561   5.624   2.026   5.796
 9539TIP3    H128562   5.550   2.045   5.853
 9539TIP3    H228563   5.595   1.952   5.743
 9540TIP3   OH228564   7.171   1.799   3.983
 9540TIP3    H128565   7.089   1.820   4.029
 9540TIP3    H228566   7.230   1.870   4.006
 9541TIP3   OH228567   1.913   7.160   5.864
 9541TIP3    H128568   1.979   7.093   5.881
 9541TIP3    H228569   1.963   7.239   5.842
 9542TIP3   OH228570   4.298   2.692   6.511
 9542TIP3    H128571   4.369   2.628   6.515
 9542TIP3    H228572   4.273   2.705   6.603
 9543TIP3   OH228573   6.200   6.981   2.461
 9543TIP3    H128574   6.117   6.935   2.457
 9543TIP3    H228575   6.261   6.925   2.413
 9544TIP3   OH228576   8.111   2.570   0.060
 9544TIP3    H128577   8.110   2.580  -0.035
 9544TIP3    H228578   8.077   2.482   0.075
 9545TIP3   OH228579   4.740   4.260   1.416
 9545TIP3    H128580   4.728   4.302   1.330
 9545TIP3    H228581   4.740   4.333   1.478
 9546TIP3   OH228582   1.889   4.345   5.316
 9546TIP3    H128583   1.933   4.425   5.287
 9546TIP3    H228584   1.883   4.355   5.411
 9547TIP3   OH228585   0.466   4.863   3.899
 9547TIP3    H128586   0.472   4.936   3.837
 9547TIP3    H228587   0.511   4.895   3.977
 9548TIP3   OH228588   4.800   5.496   3.363
 9548TIP3    H128589   4.866   5.565   3.355
 9548TIP3    H228590   4.723   5.531   3.319
 9549TIP3   OH228591   6.995   4.292   0.370
 9549TIP3    H128592   6.924   4.238   0.336
 9549TIP3    H228593   6.959   4.331   0.450
 9550TIP3   OH228594   1.450   5.374   6.724
 9550TIP3    H128595   1.538   5.375   6.686
 9550TIP3    H228596   1.438   5.285   6.756
 9551TIP3   OH228597   0.065   2.232   3.597
 9551TIP3    H128598   0.011   2.256   3.522
 9551TIP3    H228599   0.094   2.316   3.633
 9552TIP3   OH228600   7.249   2.793   1.399
 9552TIP3    H128601   7.197   2.867   1.367
 9552TIP3    H228602   7.327   2.793   1.344
 9553TIP3   OH228603   3.925   3.448   5.905
 9553TIP3    H128604   3.970   3.530   5.927
 9553TIP3    H228605   3.953   3.428   5.816
 9554TIP3   OH228606   4.663   7.516   6.058
 9554TIP3    H128607   4.650   7.488   5.968
 9554TIP3    H228608   4.604   7.461   6.109
 9555TIP3   OH228609   2.844   0.057   0.267
 9555TIP3    H128610   2.903  -0.015   0.288
 9555TIP3    H228611   2.874   0.130   0.321
 9556TIP3   OH228612   2.713   5.046   6.074
 9556TIP3    H128613   2.744   5.051   5.984
 9556TIP3    H228614   2.625   5.008   6.067
 9557TIP3   OH228615   2.050   1.645   1.277
 9557TIP3    H128616   1.995   1.569   1.264
 9557TIP3    H228617   2.107   1.648   1.200
 9558TIP3   OH228618   6.293   6.298   1.901
 9558TIP3    H128619   6.382   6.277   1.871
 9558TIP3    H228620   6.306   6.369   1.964
 9559TIP3   OH228621   1.669   2.435   1.458
 9559TIP3    H128622   1.625   2.477   1.532
 9559TIP3    H228623   1.699   2.507   1.403
 9560TIP3   OH228624   4.074   0.729   2.348
 9560TIP3    H128625   4.113   0.750   2.263
 9560TIP3    H228626   4.060   0.634   2.346
 9561TIP3   OH228627   1.000   1.248   4.573
 9561TIP3    H128628   1.044   1.191   4.636
 9561TIP3    H228629   1.066   1.263   4.505
 9562TIP3   OH228630   3.619   2.261   3.126
 9562TIP3    H128631   3.544   2.294   3.176
 9562TIP3    H228632   3.588   2.180   3.087
 9563TIP3   OH228633   7.112   4.137   2.340
 9563TIP3    H128634   7.110   4.096   2.426
 9563TIP3    H228635   7.031   4.188   2.336
 9564TIP3   OH228636   2.089   7.192   1.094
 9564TIP3    H128637   2.041   7.125   1.142
 9564TIP3    H228638   2.022   7.239   1.044
 9565TIP3   OH228639   7.268   1.887   2.979
 9565TIP3    H128640   7.185   1.843   2.996
 9565TIP3    H228641   7.331   1.845   3.037
 9566TIP3   OH228642   1.440   1.807   4.696
 9566TIP3    H128643   1.395   1.823   4.779
 9566TIP3    H228644   1.519   1.861   4.701
 9567TIP3   OH228645   4.263   5.565   4.655
 9567TIP3    H128646   4.313   5.558   4.574
 9567TIP3    H228647   4.287   5.488   4.706
 9568TIP3   OH228648   1.480   7.462  -0.015
 9568TIP3    H128649   1.405   7.516  -0.036
 9568TIP3    H228650   1.498   7.480   0.077
 9569TIP3   OH228651   7.773   2.352   0.599
 9569TIP3    H128652   7.708   2.316   0.659
 9569TIP3    H228653   7.736   2.338   0.512
 9570TIP3   OH228654   1.255   3.920   3.355
 9570TIP3    H128655   1.180   3.958   3.401
 9570TIP3    H228656   1.268   3.835   3.397
 9571TIP3   OH228657   5.772   1.834   6.314
 9571TIP3    H128658   5.820   1.766   6.268
 9571TIP3    H228659   5.761   1.799   6.403
 9572TIP3   OH228660   4.788   1.933   0.674
 9572TIP3    H128661   4.718   1.868   0.663
 9572TIP3    H228662   4.811   1.958   0.585
 9573TIP3   OH228663   1.783   7.175   5.629
 9573TIP3    H128664   1.860   7.213   5.585
 9573TIP3    H228665   1.815   7.150   5.715
 9574TIP3   OH228666   5.366   7.471   1.605
 9574TIP3    H128667   5.381   7.392   1.553
 9574TIP3    H228668   5.433   7.470   1.673
 9575TIP3   OH228669   0.042   0.182   3.806
 9575TIP3    H128670   0.111   0.125   3.837
 9575TIP3    H228671   0.006   0.222   3.885
 9576TIP3   OH228672   6.269   6.449   3.283
 9576TIP3    H128673   6.287   6.471   3.374
 9576TIP3    H228674   6.315   6.366   3.268
 9577TIP3   OH228675   5.018   5.730   4.846
 9577TIP3    H128676   4.999   5.686   4.929
 9577TIP3    H228677   5.055   5.661   4.791
 9578TIP3   OH228678   3.274   4.287   3.330
 9578TIP3    H128679   3.200   4.264   3.385
 9578TIP3    H228680   3.299   4.375   3.358
 9579TIP3   OH228681   0.872   1.096   3.075
 9579TIP3    H128682   0.872   1.050   2.991
 9579TIP3    H228683   0.942   1.054   3.125
 9580TIP3   OH228684   1.756   4.947   0.738
 9580TIP3    H128685   1.837   4.944   0.789
 9580TIP3    H228686   1.721   4.858   0.742
 9581TIP3   OH228687   6.183   3.535   4.904
 9581TIP3    H128688   6.229   3.496   4.979
 9581TIP3    H228689   6.218   3.624   4.899
 9582TIP3   OH228690   4.904   0.518   4.062
 9582TIP3    H128691   4.907   0.609   4.091
 9582TIP3    H228692   4.811   0.495   4.067
 9583TIP3   OH228693   0.470   7.652   1.007
 9583TIP3    H128694   0.474   7.561   1.036
 9583TIP3    H228695   0.557   7.669   0.970
 9584TIP3   OH228696   2.688   6.329   0.329
 9584TIP3    H128697   2.618   6.316   0.266
 9584TIP3    H228698   2.751   6.386   0.284
 9585TIP3   OH228699   1.516   2.843   2.884
 9585TIP3    H128700   1.556   2.924   2.914
 9585TIP3    H228701   1.531   2.780   2.955
 9586TIP3   OH228702   8.270   2.218   0.376
 9586TIP3    H128703   8.188   2.169   0.373
 9586TIP3    H228704   8.264   2.279   0.302
 9587TIP3   OH228705   3.173   7.600   1.564
 9587TIP3    H128706   3.125   7.585   1.483
 9587TIP3    H228707   3.265   7.606   1.538
 9588TIP3   OH228708   7.168   0.560   5.315
 9588TIP3    H128709   7.116   0.639   5.301
 9588TIP3    H228710   7.115   0.489   5.278
 9589TIP3   OH228711   2.745   4.088   2.500
 9589TIP3    H128712   2.790   4.082   2.416
 9589TIP3    H228713   2.715   4.179   2.506
 9590TIP3   OH228714   6.686   3.852   3.929
 9590TIP3    H128715   6.656   3.826   4.016
 9590TIP3    H228716   6.669   3.946   3.924
 9591TIP3   OH228717   1.285   0.132   5.892
 9591TIP3    H128718   1.220   0.106   5.958
 9591TIP3    H228719   1.275   0.069   5.821
 9592TIP3   OH228720   7.326   2.346   2.796
 9592TIP3    H128721   7.328   2.383   2.708
 9592TIP3    H228722   7.233   2.329   2.813
 9593TIP3   OH228723   2.952   2.565   6.582
 9593TIP3    H128724   2.911   2.649   6.603
 9593TIP3    H228725   3.022   2.587   6.521
 9594TIP3   OH228726   0.587   5.001   5.838
 9594TIP3    H128727   0.579   4.986   5.932
 9594TIP3    H228728   0.672   4.964   5.815
 9595TIP3   OH228729   4.539   7.512   3.070
 9595TIP3    H128730   4.526   7.552   2.983
 9595TIP3    H228731   4.506   7.579   3.131
 9596TIP3   OH228732   1.701   2.127   3.573
 9596TIP3    H128733   1.624   2.074   3.555
 9596TIP3    H228734   1.734   2.096   3.657
 9597TIP3   OH228735   2.390   0.405   4.890
 9597TIP3    H128736   2.348   0.452   4.819
 9597TIP3    H228737   2.364   0.452   4.969
 9598TIP3   OH228738   7.851   6.886   4.401
 9598TIP3    H128739   7.769   6.933   4.383
 9598TIP3    H228740   7.895   6.883   4.317
 9599TIP3   OH228741   0.686   1.152   1.805
 9599TIP3    H128742   0.757   1.122   1.748
 9599TIP3    H228743   0.614   1.171   1.746
 9600TIP3   OH228744   3.015   5.456   0.180
 9600TIP3    H128745   3.053   5.445   0.267
 9600TIP3    H228746   2.921   5.458   0.195
 9601TIP3   OH228747   3.391   4.608   3.680
 9601TIP3    H128748   3.429   4.532   3.724
 9601TIP3    H228749   3.297   4.604   3.701
 9602TIP3   OH228750   3.803   7.316   0.114
 9602TIP3    H128751   3.890   7.305   0.153
 9602TIP3    H228752   3.815   7.296   0.021
 9603TIP3   OH228753   7.567   2.778   6.233
 9603TIP3    H128754   7.580   2.736   6.318
 9603TIP3    H228755   7.647   2.830   6.220
 9604TIP3   OH228756   2.433   4.312   0.613
 9604TIP3    H128757   2.397   4.300   0.525
 9604TIP3    H228758   2.473   4.399   0.611
 9605TIP3   OH228759   1.089   5.260   0.138
 9605TIP3    H128760   1.133   5.283   0.055
 9605TIP3    H228761   1.100   5.338   0.193
 9606TIP3   OH228762   1.676   0.516   6.661
 9606TIP3    H128763   1.665   0.539   6.753
 9606TIP3    H228764   1.593   0.539   6.620
 9607TIP3   OH228765   1.191   4.615   6.178
 9607TIP3    H128766   1.098   4.597   6.164
 9607TIP3    H228767   1.205   4.601   6.271
 9608TIP3   OH228768   5.493   0.659   6.764
 9608TIP3    H128769   5.541   0.737   6.736
 9608TIP3    H228770   5.517   0.592   6.701
 9609TIP3   OH228771   3.023   3.743   1.369
 9609TIP3    H128772   3.080   3.793   1.311
 9609TIP3    H228773   3.063   3.657   1.374
 9610TIP3   OH228774   5.743   1.839   1.855
 9610TIP3    H128775   5.659   1.877   1.831
 9610TIP3    H228776   5.720   1.755   1.896
 9611TIP3   OH228777   5.468   4.069   0.778
 9611TIP3    H128778   5.534   4.036   0.839
 9611TIP3    H228779   5.388   4.074   0.830
 9612TIP3   OH228780   6.789   1.520   0.914
 9612TIP3    H128781   6.707   1.473   0.903
 9612TIP3    H228782   6.763   1.608   0.942
 9613TIP3   OH228783   6.457   5.333   3.946
 9613TIP3    H128784   6.550   5.344   3.969
 9613TIP3    H228785   6.411   5.335   4.030
 9614TIP3   OH228786   4.412   2.691   3.136
 9614TIP3    H128787   4.477   2.754   3.106
 9614TIP3    H228788   4.378   2.728   3.218
 9615TIP3   OH228789   3.813   3.898   6.059
 9615TIP3    H128790   3.859   3.850   5.990
 9615TIP3    H228791   3.857   3.983   6.061
 9616TIP3   OH228792   8.068   5.883   6.227
 9616TIP3    H128793   8.146   5.895   6.173
 9616TIP3    H228794   7.995   5.902   6.168
 9617TIP3   OH228795   0.416   4.170   2.354
 9617TIP3    H128796   0.328   4.167   2.393
 9617TIP3    H228797   0.466   4.227   2.412
 9618TIP3   OH228798   7.729   1.364   2.440
 9618TIP3    H128799   7.811   1.339   2.399
 9618TIP3    H228800   7.670   1.291   2.423
 9619TIP3   OH228801   5.651   0.331   6.751
 9619TIP3    H128802   5.710   0.400   6.780
 9619TIP3    H228803   5.594   0.373   6.686
 9620TIP3   OH228804   4.080   0.449   3.864
 9620TIP3    H128805   4.102   0.489   3.948
 9620TIP3    H228806   4.099   0.356   3.876
 9621TIP3   OH228807   7.742   0.202   0.874
 9621TIP3    H128808   7.735   0.156   0.957
 9621TIP3    H228809   7.829   0.179   0.841
 9622TIP3   OH228810   2.561   0.935   3.044
 9622TIP3    H128811   2.506   0.882   2.986
 9622TIP3    H228812   2.606   0.996   2.985
 9623TIP3   OH228813   6.984   0.181   1.141
 9623TIP3    H128814   7.019   0.176   1.229
 9623TIP3    H228815   6.918   0.112   1.136
 9624TIP3   OH228816   1.090   0.445   4.374
 9624TIP3    H128817   1.056   0.507   4.439
 9624TIP3    H228818   1.147   0.498   4.318
 9625TIP3   OH228819   7.998   7.251   1.492
 9625TIP3    H128820   8.042   7.327   1.452
 9625TIP3    H228821   7.911   7.284   1.514
 9626TIP3   OH228822   1.448   2.031   1.335
 9626TIP3    H128823   1.380   2.070   1.279
 9626TIP3    H228824   1.530   2.053   1.290
 9627TIP3   OH228825   5.825   5.889   6.497
 9627TIP3    H128826   5.877   5.815   6.527
 9627TIP3    H228827   5.821   5.947   6.573
 9628TIP3   OH228828   5.302   3.511   5.888
 9628TIP3    H128829   5.386   3.478   5.921
 9628TIP3    H228830   5.326   3.577   5.823
 9629TIP3   OH228831   2.188   2.954   3.705
 9629TIP3    H128832   2.190   3.047   3.683
 9629TIP3    H228833   2.191   2.910   3.620
 9630TIP3   OH228834   7.916   3.476   0.748
 9630TIP3    H128835   7.830   3.512   0.723
 9630TIP3    H228836   7.912   3.470   0.844
 9631TIP3   OH228837   2.601   4.675   3.407
 9631TIP3    H128838   2.514   4.635   3.406
 9631TIP3    H228839   2.594   4.750   3.349
 9632TIP3   OH228840   3.295   4.658   0.524
 9632TIP3    H128841   3.274   4.718   0.595
 9632TIP3    H228842   3.320   4.576   0.567
 9633TIP3   OH228843   4.503   3.744   4.402
 9633TIP3    H128844   4.540   3.803   4.468
 9633TIP3    H228845   4.467   3.672   4.453
 9634TIP3   OH228846   1.632   3.184   5.765
 9634TIP3    H128847   1.654   3.276   5.779
 9634TIP3    H228848   1.538   3.184   5.748
 9635TIP3   OH228849   6.333   2.588   4.152
 9635TIP3    H128850   6.273   2.514   4.158
 9635TIP3    H228851   6.387   2.582   4.230
 9636TIP3   OH228852   7.538   1.041   0.929
 9636TIP3    H128853   7.448   1.030   0.962
 9636TIP3    H228854   7.540   1.130   0.894
 9637TIP3   OH228855   4.835   3.333   4.062
 9637TIP3    H128856   4.748   3.297   4.052
 9637TIP3    H228857   4.830   3.421   4.023
 9638TIP3   OH228858   5.742   5.487   2.776
 9638TIP3    H128859   5.700   5.562   2.733
 9638TIP3    H228860   5.777   5.435   2.703
 9639TIP3   OH228861   3.624   1.981   1.854
 9639TIP3    H128862   3.636   2.058   1.799
 9639TIP3    H228863   3.703   1.929   1.840
 9640TIP3   OH228864   5.192   7.002   1.459
 9640TIP3    H128865   5.135   6.928   1.438
 9640TIP3    H228866   5.272   6.986   1.409
 9641TIP3   OH228867   4.847   7.756   5.960
 9641TIP3    H128868   4.795   7.677   5.976
 9641TIP3    H228869   4.785   7.819   5.923
 9642TIP3   OH228870   7.836   0.185   1.609
 9642TIP3    H128871   7.859   0.099   1.575
 9642TIP3    H228872   7.757   0.210   1.560
 9643TIP3   OH228873   6.911   7.042   1.931
 9643TIP3    H128874   6.865   7.126   1.938
 9643TIP3    H228875   6.841   6.977   1.927
 9644TIP3   OH228876   8.138   1.593   1.042
 9644TIP3    H128877   8.135   1.516   0.986
 9644TIP3    H228878   8.054   1.594   1.086
 9645TIP3   OH228879   0.927   6.590   2.905
 9645TIP3    H128880   0.867   6.516   2.893
 9645TIP3    H228881   0.910   6.647   2.830
 9646TIP3   OH228882   2.823   2.754   4.523
 9646TIP3    H128883   2.918   2.743   4.527
 9646TIP3    H228884   2.789   2.689   4.583
 9647TIP3   OH228885   3.931   4.792   3.551
 9647TIP3    H128886   3.857   4.732   3.544
 9647TIP3    H228887   4.000   4.752   3.498
 9648TIP3   OH228888   6.467   4.305   0.246
 9648TIP3    H128889   6.445   4.304   0.153
 9648TIP3    H228890   6.383   4.293   0.290
 9649TIP3   OH228891   2.962   1.248   0.388
 9649TIP3    H128892   2.914   1.243   0.305
 9649TIP3    H228893   3.031   1.312   0.371
 9650TIP3   OH228894   1.111   1.849   2.547
 9650TIP3    H128895   1.175   1.788   2.584
 9650TIP3    H228896   1.148   1.936   2.562
 9651TIP3   OH228897   1.969   4.896   3.550
 9651TIP3    H128898   1.926   4.949   3.617
 9651TIP3    H228899   2.047   4.945   3.526
 9652TIP3   OH228900   5.979   4.532   0.577
 9652TIP3    H128901   5.940   4.593   0.640
 9652TIP3    H228902   6.048   4.488   0.626
 9653TIP3   OH228903   5.217   5.851   4.094
 9653TIP3    H128904   5.123   5.858   4.083
 9653TIP3    H228905   5.244   5.782   4.033
 9654TIP3   OH228906   6.833   5.016   1.047
 9654TIP3    H128907   6.791   5.082   0.993
 9654TIP3    H228908   6.890   5.065   1.106
 9655TIP3   OH228909   0.185   3.858   0.209
 9655TIP3    H128910   0.128   3.871   0.133
 9655TIP3    H228911   0.241   3.936   0.210
 9656TIP3   OH228912   4.512   5.307   0.623
 9656TIP3    H128913   4.479   5.379   0.568
 9656TIP3    H228914   4.535   5.238   0.561
 9657TIP3   OH228915   3.670   0.315   5.778
 9657TIP3    H128916   3.617   0.324   5.698
 9657TIP3    H228917   3.727   0.392   5.778
 9658TIP3   OH228918   5.183   1.900   6.033
 9658TIP3    H128919   5.194   1.815   6.077
 9658TIP3    H228920   5.090   1.921   6.044
 9659TIP3   OH228921   0.654   3.690   3.000
 9659TIP3    H128922   0.620   3.649   3.080
 9659TIP3    H228923   0.748   3.669   3.000
 9660TIP3   OH228924   0.094   1.968   4.212
 9660TIP3    H128925   0.021   1.908   4.196
 9660TIP3    H228926   0.172   1.918   4.186
 9661TIP3   OH228927   4.549   5.670   0.047
 9661TIP3    H128928   4.641   5.687   0.028
 9661TIP3    H228929   4.531   5.586   0.004
 9662TIP3   OH228930   0.468   7.353   6.118
 9662TIP3    H128931   0.454   7.323   6.028
 9662TIP3    H228932   0.464   7.448   6.112
 9663TIP3   OH228933   0.634   6.793   2.521
 9663TIP3    H128934   0.617   6.709   2.478
 9663TIP3    H228935   0.550   6.817   2.560
 9664TIP3   OH228936   8.205   6.916   4.248
 9664TIP3    H128937   8.205   6.968   4.168
 9664TIP3    H228938   8.115   6.884   4.257
 9665TIP3   OH228939   6.693   7.379   4.866
 9665TIP3    H128940   6.614   7.325   4.868
 9665TIP3    H228941   6.703   7.410   4.957
 9666TIP3   OH228942   0.399   1.349   4.653
 9666TIP3    H128943   0.439   1.400   4.724
 9666TIP3    H228944   0.347   1.413   4.604
 9667TIP3   OH228945   7.880   3.491   5.384
 9667TIP3    H128946   7.972   3.476   5.361
 9667TIP3    H228947   7.834   3.496   5.300
 9668TIP3   OH228948   2.601   4.406   6.557
 9668TIP3    H128949   2.627   4.479   6.500
 9668TIP3    H228950   2.524   4.438   6.604
 9669TIP3   OH228951   7.388   6.136   4.196
 9669TIP3    H128952   7.457   6.135   4.263
 9669TIP3    H228953   7.334   6.212   4.218
 9670TIP3   OH228954   4.941   1.680   3.120
 9670TIP3    H128955   5.014   1.686   3.182
 9670TIP3    H228956   4.959   1.601   3.069
 9671TIP3   OH228957   6.517   5.598   5.819
 9671TIP3    H128958   6.491   5.559   5.902
 9671TIP3    H228959   6.537   5.523   5.763
 9672TIP3   OH228960   7.023   7.758   0.614
 9672TIP3    H128961   6.995   7.666   0.614
 9672TIP3    H228962   6.994   7.791   0.699
 9673TIP3   OH228963   5.009   2.192   5.510
 9673TIP3    H128964   5.020   2.127   5.580
 9673TIP3    H228965   5.073   2.167   5.444
 9674TIP3   OH228966   5.117   7.483   3.290
 9674TIP3    H128967   5.090   7.439   3.371
 9674TIP3    H228968   5.146   7.570   3.318
 9675TIP3   OH228969   0.740   7.261   1.056
 9675TIP3    H128970   0.832   7.241   1.075
 9675TIP3    H228971   0.724   7.343   1.103
 9676TIP3   OH228972   3.740   5.502   1.213
 9676TIP3    H128973   3.682   5.494   1.137
 9676TIP3    H228974   3.787   5.418   1.216
 9677TIP3   OH228975   2.536   4.780   2.203
 9677TIP3    H128976   2.536   4.841   2.129
 9677TIP3    H228977   2.534   4.836   2.281
 9678TIP3   OH228978   0.011   1.591   1.262
 9678TIP3    H128979   0.040   1.500   1.271
 9678TIP3    H228980  -0.045   1.591   1.184
 9679TIP3   OH228981   2.931   4.349   0.879
 9679TIP3    H128982   2.837   4.333   0.871
 9679TIP3    H228983   2.952   4.406   0.805
 9680TIP3   OH228984   0.961   6.393   0.320
 9680TIP3    H128985   1.055   6.405   0.323
 9680TIP3    H228986   0.949   6.298   0.316
 9681TIP3   OH228987   7.267   7.019   6.500
 9681TIP3    H128988   7.304   7.040   6.414
 9681TIP3    H228989   7.286   6.926   6.513
 9682TIP3   OH228990   1.274   2.462   6.619
 9682TIP3    H128991   1.349   2.436   6.672
 9682TIP3    H228992   1.199   2.423   6.664
 9683TIP3   OH228993   1.581   6.750   5.008
 9683TIP3    H128994   1.525   6.778   5.080
 9683TIP3    H228995   1.549   6.799   4.932
 9684TIP3   OH228996   5.401   3.608   0.992
 9684TIP3    H128997   5.414   3.688   1.042
 9684TIP3    H228998   5.387   3.540   1.058
 9685TIP3   OH228999   6.870   3.919   3.159
 9685TIP3    H129000   6.871   4.015   3.160
 9685TIP3    H229001   6.836   3.895   3.245
 9686TIP3   OH229002   2.537   4.717   0.174
 9686TIP3    H129003   2.549   4.745   0.084
 9686TIP3    H229004   2.538   4.798   0.225
 9687TIP3   OH229005   7.112   6.119   3.675
 9687TIP3    H129006   7.141   6.039   3.719
 9687TIP3    H229007   7.171   6.129   3.600
 9688TIP3   OH229008   1.877   7.129   4.727
 9688TIP3    H129009   1.790   7.160   4.749
 9688TIP3    H229010   1.900   7.069   4.799
 9689TIP3   OH229011   2.277   1.650   0.586
 9689TIP3    H129012   2.347   1.617   0.530
 9689TIP3    H229013   2.209   1.583   0.581
 9690TIP3   OH229014   4.831   1.103   5.339
 9690TIP3    H129015   4.808   1.187   5.298
 9690TIP3    H229016   4.838   1.042   5.266
 9691TIP3   OH229017   4.982   0.039   3.000
 9691TIP3    H129018   5.051   0.090   3.043
 9691TIP3    H229019   4.985   0.067   2.908
 9692TIP3   OH229020   2.768   3.718   2.615
 9692TIP3    H129021   2.787   3.797   2.666
 9692TIP3    H229022   2.809   3.734   2.530
 9693TIP3   OH229023   8.275   3.284   3.633
 9693TIP3    H129024   8.190   3.278   3.591
 9693TIP3    H229025   8.331   3.327   3.569
 9694TIP3   OH229026   3.028   1.291   2.532
 9694TIP3    H129027   3.065   1.363   2.481
 9694TIP3    H229028   3.058   1.308   2.621
 9695TIP3   OH229029   7.010   2.690   0.330
 9695TIP3    H129030   6.998   2.656   0.242
 9695TIP3    H229031   7.086   2.642   0.364
 9696TIP3   OH229032   2.347   2.792   6.468
 9696TIP3    H129033   2.293   2.827   6.398
 9696TIP3    H229034   2.301   2.817   6.548
 9697TIP3   OH229035   3.436   3.689   4.606
 9697TIP3    H129036   3.474   3.664   4.691
 9697TIP3    H229037   3.493   3.758   4.573
 9698TIP3   OH229038   7.322   6.146   6.232
 9698TIP3    H129039   7.248   6.149   6.291
 9698TIP3    H229040   7.304   6.071   6.174
 9699TIP3   OH229041   0.341   1.946   5.478
 9699TIP3    H129042   0.402   1.908   5.416
 9699TIP3    H229043   0.367   2.037   5.485
 9700TIP3   OH229044   1.503   5.903   4.575
 9700TIP3    H129045   1.593   5.906   4.544
 9700TIP3    H229046   1.510   5.887   4.669
 9701TIP3   OH229047   0.741   5.394   0.044
 9701TIP3    H129048   0.775   5.305   0.031
 9701TIP3    H229049   0.708   5.394   0.133
 9702TIP3   OH229050   4.658   5.502   4.892
 9702TIP3    H129051   4.654   5.597   4.888
 9702TIP3    H229052   4.683   5.475   4.804
 9703TIP3   OH229053   3.727   6.226   4.382
 9703TIP3    H129054   3.774   6.302   4.347
 9703TIP3    H229055   3.734   6.236   4.477
 9704TIP3   OH229056   0.487   3.712   4.256
 9704TIP3    H129057   0.515   3.802   4.273
 9704TIP3    H229058   0.392   3.714   4.272
 9705TIP3   OH229059   2.488   3.650   6.723
 9705TIP3    H129060   2.402   3.611   6.735
 9705TIP3    H229061   2.524   3.656   6.812
 9706TIP3   OH229062   7.225   4.302   3.359
 9706TIP3    H129063   7.312   4.334   3.335
 9706TIP3    H229064   7.199   4.246   3.286
 9707TIP3   OH229065   3.494   6.745   1.618
 9707TIP3    H129066   3.530   6.821   1.572
 9707TIP3    H229067   3.535   6.748   1.705
 9708TIP3   OH229068   6.118   5.044   3.812
 9708TIP3    H129069   6.211   5.045   3.790
 9708TIP3    H229070   6.104   5.124   3.863
 9709TIP3   OH229071   7.800   2.855   1.381
 9709TIP3    H129072   7.713   2.892   1.371
 9709TIP3    H229073   7.839   2.861   1.293
 9710TIP3   OH229074   7.120   1.654   1.818
 9710TIP3    H129075   7.201   1.693   1.786
 9710TIP3    H229076   7.052   1.695   1.764
 9711TIP3   OH229077   7.502   2.255   3.489
 9711TIP3    H129078   7.593   2.232   3.503
 9711TIP3    H229079   7.505   2.338   3.441
 9712TIP3   OH229080   3.065   6.292   4.470
 9712TIP3    H129081   3.141   6.351   4.467
 9712TIP3    H229082   2.991   6.349   4.492
 9713TIP3   OH229083   3.650   2.719   6.657
 9713TIP3    H129084   3.575   2.779   6.660
 9713TIP3    H229085   3.613   2.637   6.623
 9714TIP3   OH229086   5.127   4.920   1.374
 9714TIP3    H129087   5.081   4.868   1.440
 9714TIP3    H229088   5.203   4.866   1.350
 9715TIP3   OH229089   2.023   3.566   3.535
 9715TIP3    H129090   2.050   3.482   3.497
 9715TIP3    H229091   1.928   3.559   3.544
 9716TIP3   OH229092   1.005   7.806   3.108
 9716TIP3    H129093   0.955   7.728   3.132
 9716TIP3    H229094   0.995   7.812   3.013
 9717TIP3   OH229095   5.151   6.845   5.658
 9717TIP3    H129096   5.062   6.839   5.693
 9717TIP3    H229097   5.180   6.754   5.651
 9718TIP3   OH229098   0.251   4.415   1.575
 9718TIP3    H129099   0.342   4.443   1.581
 9718TIP3    H229100   0.201   4.496   1.567
 9719TIP3   OH229101   7.961   1.726   0.301
 9719TIP3    H129102   8.028   1.787   0.331
 9719TIP3    H229103   7.887   1.782   0.277
 9720TIP3   OH229104   6.693   6.471   2.712
 9720TIP3    H129105   6.725   6.443   2.626
 9720TIP3    H229106   6.720   6.563   2.718
 9721TIP3   OH229107   5.857   6.645   5.627
 9721TIP3    H129108   5.927   6.671   5.567
 9721TIP3    H229109   5.793   6.601   5.571
 9722TIP3   OH229110   4.221   6.190   3.991
 9722TIP3    H129111   4.201   6.197   4.084
 9722TIP3    H229112   4.137   6.165   3.950
 9723TIP3   OH229113   0.883   3.360   0.441
 9723TIP3    H129114   0.882   3.340   0.348
 9723TIP3    H229115   0.836   3.287   0.482
 9724TIP3   OH229116   2.390   2.633   0.499
 9724TIP3    H129117   2.348   2.659   0.581
 9724TIP3    H229118   2.442   2.556   0.522
 9725TIP3   OH229119   4.715   2.838   4.351
 9725TIP3    H129120   4.786   2.893   4.384
 9725TIP3    H229121   4.657   2.899   4.304
 9726TIP3   OH229122   3.710   3.637   0.568
 9726TIP3    H129123   3.709   3.616   0.475
 9726TIP3    H229124   3.706   3.553   0.613
 9727TIP3   OH229125   5.078   5.481   4.362
 9727TIP3    H129126   5.036   5.525   4.287
 9727TIP3    H229127   5.089   5.390   4.333
 9728TIP3   OH229128   2.205   5.647   5.591
 9728TIP3    H129129   2.112   5.624   5.601
 9728TIP3    H229130   2.248   5.604   5.665
 9729TIP3   OH229131   1.007   6.696   2.482
 9729TIP3    H129132   1.036   6.609   2.453
 9729TIP3    H229133   0.927   6.712   2.433
 9730TIP3   OH229134   4.931   4.054   4.484
 9730TIP3    H129135   4.911   4.136   4.529
 9730TIP3    H229136   5.027   4.053   4.477
 9731TIP3   OH229137   0.276   0.082   3.983
 9731TIP3    H129138   0.258   0.010   4.043
 9731TIP3    H229139   0.362   0.063   3.947
 9732TIP3   OH229140   3.174   3.521   1.330
 9732TIP3    H129141   3.096   3.472   1.355
 9732TIP3    H229142   3.247   3.470   1.365
 9733TIP3   OH229143   7.869   0.836   5.004
 9733TIP3    H129144   7.934   0.818   5.072
 9733TIP3    H229145   7.785   0.825   5.047
 9734TIP3   OH229146   3.041   4.908   4.306
 9734TIP3    H129147   3.126   4.931   4.345
 9734TIP3    H229148   3.019   4.983   4.251
 9735TIP3   OH229149   4.616   6.641   0.736
 9735TIP3    H129150   4.527   6.605   0.739
 9735TIP3    H229151   4.672   6.563   0.731
 9736TIP3   OH229152   7.241   3.162   3.390
 9736TIP3    H129153   7.258   3.254   3.409
 9736TIP3    H229154   7.183   3.163   3.314
 9737TIP3   OH229155   0.696   7.327   3.707
 9737TIP3    H129156   0.736   7.262   3.765
 9737TIP3    H229157   0.746   7.320   3.625
 9738TIP3   OH229158   7.261   6.093   1.985
 9738TIP3    H129159   7.319   6.141   1.924
 9738TIP3    H229160   7.302   6.007   1.993
 9739TIP3   OH229161   5.224   5.435   2.586
 9739TIP3    H129162   5.143   5.386   2.588
 9739TIP3    H229163   5.278   5.397   2.655
 9740TIP3   OH229164   7.161   6.501   3.787
 9740TIP3    H129165   7.128   6.590   3.801
 9740TIP3    H229166   7.087   6.454   3.748
 9741TIP3   OH229167   2.352   4.073   1.355
 9741TIP3    H129168   2.371   4.102   1.266
 9741TIP3    H229169   2.301   4.144   1.393
 9742TIP3   OH229170   0.573   7.165   5.851
 9742TIP3    H129171   0.511   7.111   5.899
 9742TIP3    H229172   0.657   7.119   5.858
 9743TIP3   OH229173   6.649   1.215   2.235
 9743TIP3    H129174   6.717   1.278   2.210
 9743TIP3    H229175   6.621   1.243   2.322
 9744TIP3   OH229176   1.052   6.270   2.208
 9744TIP3    H129177   0.974   6.226   2.243
 9744TIP3    H229178   1.041   6.265   2.113
 9745TIP3   OH229179   7.499   2.898   5.122
 9745TIP3    H129180   7.504   2.945   5.205
 9745TIP3    H229181   7.484   2.966   5.056
 9746TIP3   OH229182   3.380   4.855   1.804
 9746TIP3    H129183   3.299   4.804   1.797
 9746TIP3    H229184   3.387   4.899   1.720
 9747TIP3   OH229185   1.638   4.046   5.362
 9747TIP3    H129186   1.644   3.952   5.346
 9747TIP3    H229187   1.729   4.075   5.368
 9748TIP3   OH229188   1.920   0.221   2.193
 9748TIP3    H129189   2.000   0.189   2.151
 9748TIP3    H229190   1.868   0.256   2.122
 9749TIP3   OH229191   7.358  -0.017   6.432
 9749TIP3    H129192   7.387   0.003   6.521
 9749TIP3    H229193   7.408   0.042   6.376
 9750TIP3   OH229194   4.293   7.007   5.431
 9750TIP3    H129195   4.300   7.012   5.336
 9750TIP3    H229196   4.233   7.078   5.454
 9751TIP3   OH229197   6.149   4.335   6.374
 9751TIP3    H129198   6.220   4.399   6.368
 9751TIP3    H229199   6.165   4.289   6.456
 9752TIP3   OH229200   5.687   3.888   4.331
 9752TIP3    H129201   5.652   3.968   4.292
 9752TIP3    H229202   5.769   3.871   4.285
 9753TIP3   OH229203   8.003   2.748   5.263
 9753TIP3    H129204   8.023   2.840   5.283
 9753TIP3    H229205   8.076   2.699   5.301
 9754TIP3   OH229206   1.151   5.980   1.743
 9754TIP3    H129207   1.068   6.018   1.714
 9754TIP3    H229208   1.218   6.031   1.698
 9755TIP3   OH229209   1.990   6.669   6.102
 9755TIP3    H129210   1.999   6.697   6.011
 9755TIP3    H229211   2.080   6.660   6.133
 9756TIP3   OH229212   1.747   2.796   1.857
 9756TIP3    H129213   1.705   2.710   1.850
 9756TIP3    H229214   1.840   2.778   1.851
 9757TIP3   OH229215   3.004   5.670   6.303
 9757TIP3    H129216   3.010   5.611   6.378
 9757TIP3    H229217   3.031   5.616   6.228
 9758TIP3   OH229218   6.682   3.622   0.379
 9758TIP3    H129219   6.705   3.712   0.403
 9758TIP3    H229220   6.669   3.624   0.284
 9759TIP3   OH229221   3.344   7.728   2.021
 9759TIP3    H129222   3.413   7.750   1.959
 9759TIP3    H229223   3.349   7.633   2.029
 9760TIP3   OH229224   2.247   6.270   3.220
 9760TIP3    H129225   2.322   6.240   3.169
 9760TIP3    H229226   2.280   6.275   3.310
 9761TIP3   OH229227   2.712   0.160   1.480
 9761TIP3    H129228   2.790   0.162   1.426
 9761TIP3    H229229   2.745   0.165   1.570
 9762TIP3   OH229230   0.030   6.552   2.434
 9762TIP3    H129231   0.002   6.566   2.524
 9762TIP3    H229232  -0.006   6.627   2.385
 9763TIP3   OH229233   6.078   1.125   2.168
 9763TIP3    H129234   6.156   1.179   2.179
 9763TIP3    H229235   6.053   1.100   2.257
 9764TIP3   OH229236   5.806   0.728   1.936
 9764TIP3    H129237   5.878   0.786   1.911
 9764TIP3    H229238   5.728   0.768   1.897
 9765TIP3   OH229239   7.481   3.315   4.570
 9765TIP3    H129240   7.430   3.276   4.499
 9765TIP3    H229241   7.571   3.286   4.553
 9766TIP3   OH229242   0.215   5.040   3.484
 9766TIP3    H129243   0.247   4.983   3.553
 9766TIP3    H229244   0.294   5.072   3.441
 9767TIP3   OH229245   1.715   7.417   3.614
 9767TIP3    H129246   1.797   7.410   3.566
 9767TIP3    H229247   1.655   7.460   3.554
 9768TIP3   OH229248   1.210   3.877   4.074
 9768TIP3    H129249   1.236   3.960   4.035
 9768TIP3    H229250   1.128   3.853   4.031
 9769TIP3   OH229251   7.263   4.943   1.208
 9769TIP3    H129252   7.225   5.007   1.148
 9769TIP3    H229253   7.334   4.990   1.251
 9770TIP3   OH229254   5.829   4.068   3.023
 9770TIP3    H129255   5.747   4.103   3.057
 9770TIP3    H229256   5.893   4.088   3.091
 9771TIP3   OH229257   6.546   2.338   4.768
 9771TIP3    H129258   6.562   2.432   4.758
 9771TIP3    H229259   6.455   2.334   4.800
 9772TIP3   OH229260   6.145   5.797   4.279
 9772TIP3    H129261   6.180   5.810   4.368
 9772TIP3    H229262   6.207   5.843   4.222
 9773TIP3   OH229263   7.104   1.551   6.521
 9773TIP3    H129264   7.131   1.460   6.533
 9773TIP3    H229265   7.009   1.546   6.508
 9774TIP3   OH229266   2.016   1.671   2.158
 9774TIP3    H129267   2.047   1.668   2.068
 9774TIP3    H229268   1.923   1.652   2.152
 9775TIP3   OH229269   0.969   6.504   6.154
 9775TIP3    H129270   0.911   6.578   6.170
 9775TIP3    H229271   0.999   6.478   6.241
 9776TIP3   OH229272   3.924   5.773   4.128
 9776TIP3    H129273   3.870   5.793   4.052
 9776TIP3    H229274   3.896   5.836   4.195
 9777TIP3   OH229275   8.211   2.550   5.380
 9777TIP3    H129276   8.217   2.455   5.373
 9777TIP3    H229277   8.297   2.577   5.413
 9778TIP3   OH229278   4.132   4.189   1.302
 9778TIP3    H129279   4.105   4.105   1.264
 9778TIP3    H229280   4.050   4.239   1.310
 9779TIP3   OH229281   1.131   6.614   0.117
 9779TIP3    H129282   1.131   6.606   0.212
 9779TIP3    H229283   1.223   6.626   0.093
 9780TIP3   OH229284   7.594   3.986   5.423
 9780TIP3    H129285   7.542   4.066   5.428
 9780TIP3    H229286   7.661   3.996   5.490
 9781TIP3   OH229287   4.213   4.666   6.221
 9781TIP3    H129288   4.282   4.599   6.215
 9781TIP3    H229289   4.164   4.643   6.299
 9782TIP3   OH229290   4.776   1.385   6.632
 9782TIP3    H129291   4.859   1.429   6.613
 9782TIP3    H229292   4.759   1.406   6.723
 9783TIP3   OH229293   3.093   5.830   4.609
 9783TIP3    H129294   3.015   5.777   4.596
 9783TIP3    H229295   3.093   5.851   4.702
 9784TIP3   OH229296   3.919   0.665   1.832
 9784TIP3    H129297   3.886   0.744   1.875
 9784TIP3    H229298   3.986   0.697   1.772
 9785TIP3   OH229299   2.040   4.156   6.708
 9785TIP3    H129300   2.084   4.100   6.770
 9785TIP3    H229301   2.090   4.147   6.627
 9786TIP3   OH229302   8.311   7.479   3.514
 9786TIP3    H129303   8.285   7.389   3.537
 9786TIP3    H229304   8.273   7.493   3.427
 9787TIP3   OH229305   6.722   0.375   4.375
 9787TIP3    H129306   6.720   0.465   4.342
 9787TIP3    H229307   6.770   0.326   4.308
 9788TIP3   OH229308   6.474   4.280   4.126
 9788TIP3    H129309   6.400   4.341   4.133
 9788TIP3    H229310   6.551   4.337   4.116
 9789TIP3   OH229311   6.207   4.592   3.347
 9789TIP3    H129312   6.266   4.638   3.407
 9789TIP3    H229313   6.225   4.632   3.262
 9790TIP3   OH229314   6.237   2.193   3.020
 9790TIP3    H129315   6.245   2.210   3.114
 9790TIP3    H229316   6.281   2.109   3.007
 9791TIP3   OH229317   1.587   4.358   0.980
 9791TIP3    H129318   1.584   4.449   1.011
 9791TIP3    H229319   1.659   4.357   0.917
 9792TIP3   OH229320   5.088   6.955   1.183
 9792TIP3    H129321   5.063   6.981   1.094
 9792TIP3    H229322   5.015   6.903   1.215
 9793TIP3   OH229323   1.245   2.935   0.625
 9793TIP3    H129324   1.167   2.952   0.572
 9793TIP3    H229325   1.212   2.923   0.714
 9794TIP3   OH229326   6.228   3.833   0.288
 9794TIP3    H129327   6.149   3.786   0.263
 9794TIP3    H229328   6.242   3.809   0.380
 9795TIP3   OH229329   5.822   0.763   4.183
 9795TIP3    H129330   5.731   0.754   4.153
 9795TIP3    H229331   5.850   0.674   4.203
 9796TIP3   OH229332   7.404   5.967   1.064
 9796TIP3    H129333   7.456   6.012   0.997
 9796TIP3    H229334   7.460   5.896   1.095
 9797TIP3   OH229335   7.443   6.961   4.858
 9797TIP3    H129336   7.356   6.953   4.898
 9797TIP3    H229337   7.443   7.049   4.819
 9798TIP3   OH229338   1.450   1.807   1.515
 9798TIP3    H129339   1.426   1.890   1.475
 9798TIP3    H229340   1.526   1.778   1.465
 9799TIP3   OH229341   3.852   0.223   2.359
 9799TIP3    H129342   3.813   0.215   2.271
 9799TIP3    H229343   3.824   0.144   2.405
 9800TIP3   OH229344   3.234   5.803   2.632
 9800TIP3    H129345   3.150   5.798   2.679
 9800TIP3    H229346   3.236   5.724   2.577
 9801TIP3   OH229347   5.748   4.605   2.811
 9801TIP3    H129348   5.716   4.515   2.806
 9801TIP3    H229349   5.807   4.613   2.736
 9802TIP3   OH229350   0.447   4.718   6.616
 9802TIP3    H129351   0.416   4.774   6.545
 9802TIP3    H229352   0.367   4.688   6.659
 9803TIP3   OH229353   4.910   7.030   6.690
 9803TIP3    H129354   4.972   7.051   6.620
 9803TIP3    H229355   4.943   6.948   6.727
 9804TIP3   OH229356   4.268   3.830   1.523
 9804TIP3    H129357   4.238   3.920   1.540
 9804TIP3    H229358   4.334   3.814   1.590
 9805TIP3   OH229359   5.500   3.705   4.115
 9805TIP3    H129360   5.420   3.661   4.087
 9805TIP3    H229361   5.476   3.798   4.117
 9806TIP3   OH229362   5.202   2.307   5.062
 9806TIP3    H129363   5.238   2.241   5.003
 9806TIP3    H229364   5.124   2.339   5.017
 9807TIP3   OH229365   5.405   4.119   4.727
 9807TIP3    H129366   5.425   4.091   4.638
 9807TIP3    H229367   5.460   4.197   4.741
 9808TIP3   OH229368   4.698   3.044   3.349
 9808TIP3    H129369   4.607   3.034   3.378
 9808TIP3    H229370   4.749   3.049   3.429
 9809TIP3   OH229371   6.539   2.123   6.175
 9809TIP3    H129372   6.611   2.075   6.134
 9809TIP3    H229373   6.462   2.067   6.164
 9810TIP3   OH229374   1.767   1.735   4.617
 9810TIP3    H129375   1.824   1.709   4.545
 9810TIP3    H229376   1.723   1.654   4.644
 9811TIP3   OH229377   6.917   0.032   0.201
 9811TIP3    H129378   6.982   0.036   0.271
 9811TIP3    H229379   6.881  -0.057   0.207
 9812TIP3   OH229380   5.754   1.725   0.263
 9812TIP3    H129381   5.795   1.811   0.254
 9812TIP3    H229382   5.660   1.743   0.255
 9813TIP3   OH229383   3.587   2.250   6.727
 9813TIP3    H129384   3.503   2.207   6.718
 9813TIP3    H229385   3.626   2.212   6.806
 9814TIP3   OH229386   3.874   2.268   5.601
 9814TIP3    H129387   3.929   2.346   5.592
 9814TIP3    H229388   3.794   2.289   5.552
 9815TIP3   OH229389   4.069   5.105   5.183
 9815TIP3    H129390   4.108   5.025   5.218
 9815TIP3    H229391   4.072   5.094   5.088
 9816TIP3   OH229392   4.132   2.532   5.407
 9816TIP3    H129393   4.131   2.448   5.361
 9816TIP3    H229394   4.046   2.569   5.391
 9817TIP3   OH229395   5.369   6.686   4.309
 9817TIP3    H129396   5.312   6.762   4.292
 9817TIP3    H229397   5.322   6.636   4.376
 9818TIP3   OH229398   5.689   2.988   3.703
 9818TIP3    H129399   5.656   2.903   3.675
 9818TIP3    H229400   5.743   3.018   3.630
 9819TIP3   OH229401   1.113   5.092   2.318
 9819TIP3    H129402   1.181   5.111   2.253
 9819TIP3    H229403   1.077   5.178   2.340
 9820TIP3   OH229404   3.457   3.864   2.395
 9820TIP3    H129405   3.452   3.806   2.318
 9820TIP3    H229406   3.546   3.851   2.428
 9821TIP3   OH229407   1.516   5.242   3.795
 9821TIP3    H129408   1.450   5.294   3.840
 9821TIP3    H229409   1.564   5.197   3.864
 9822TIP3   OH229410   4.999   6.446   0.029
 9822TIP3    H129411   5.049   6.528   0.031
 9822TIP3    H229412   5.065   6.377   0.038
 9823TIP3   OH229413   5.913   2.804   0.537
 9823TIP3    H129414   5.931   2.851   0.456
 9823TIP3    H229415   5.822   2.776   0.529
 9824TIP3   OH229416   6.580   1.422   6.008
 9824TIP3    H129417   6.643   1.351   5.997
 9824TIP3    H229418   6.513   1.387   6.066
 9825TIP3   OH229419   0.135   0.647   3.808
 9825TIP3    H129420   0.192   0.655   3.884
 9825TIP3    H229421   0.083   0.727   3.808
 9826TIP3   OH229422   5.814   4.645   5.755
 9826TIP3    H129423   5.846   4.734   5.741
 9826TIP3    H229424   5.881   4.604   5.809
 9827TIP3   OH229425   4.316   4.417   5.432
 9827TIP3    H129426   4.411   4.408   5.442
 9827TIP3    H229427   4.300   4.511   5.431
 9828TIP3   OH229428   3.330   5.831   1.584
 9828TIP3    H129429   3.323   5.890   1.509
 9828TIP3    H229430   3.302   5.885   1.659
 9829TIP3   OH229431   3.771   0.538   1.241
 9829TIP3    H129432   3.711   0.556   1.313
 9829TIP3    H229433   3.852   0.583   1.266
 9830TIP3   OH229434   0.295   2.779   0.834
 9830TIP3    H129435   0.221   2.823   0.877
 9830TIP3    H229436   0.305   2.698   0.883
 9831TIP3   OH229437   6.213   6.198   0.958
 9831TIP3    H129438   6.221   6.265   0.891
 9831TIP3    H229439   6.174   6.243   1.033
 9832TIP3   OH229440   6.287   7.299   0.999
 9832TIP3    H129441   6.364   7.262   1.041
 9832TIP3    H229442   6.321   7.374   0.949
 9833TIP3   OH229443   1.316   7.525   0.727
 9833TIP3    H129444   1.356   7.533   0.813
 9833TIP3    H229445   1.229   7.563   0.737
 9834TIP3   OH229446   6.855   0.273   2.896
 9834TIP3    H129447   6.771   0.272   2.850
 9834TIP3    H229448   6.920   0.262   2.827
 9835TIP3   OH229449   4.645   1.825   1.098
 9835TIP3    H129450   4.629   1.730   1.098
 9835TIP3    H229451   4.660   1.847   1.006
 9836TIP3   OH229452   1.272   6.935   0.161
 9836TIP3    H129453   1.307   7.016   0.126
 9836TIP3    H229454   1.178   6.937   0.140
 9837TIP3   OH229455   5.224   0.333   6.693
 9837TIP3    H129456   5.269   0.348   6.609
 9837TIP3    H229457   5.280   0.271   6.739
 9838TIP3   OH229458   6.044   6.187   0.284
 9838TIP3    H129459   5.963   6.159   0.241
 9838TIP3    H229460   6.058   6.123   0.354
 9839TIP3   OH229461  -0.021   6.153   0.377
 9839TIP3    H129462   0.061   6.142   0.424
 9839TIP3    H229463   0.000   6.129   0.286
 9840TIP3   OH229464   5.769   1.660   6.522
 9840TIP3    H129465   5.749   1.567   6.519
 9840TIP3    H229466   5.863   1.665   6.509
 9841TIP3   OH229467   1.858   4.789   1.784
 9841TIP3    H129468   1.887   4.771   1.695
 9841TIP3    H229469   1.939   4.802   1.833
 9842TIP3   OH229470   2.420   1.899   6.120
 9842TIP3    H129471   2.394   1.949   6.197
 9842TIP3    H229472   2.414   1.962   6.048
 9843TIP3   OH229473   0.179   5.531   0.134
 9843TIP3    H129474   0.193   5.465   0.202
 9843TIP3    H229475   0.195   5.485   0.051
 9844TIP3   OH229476   1.279   1.244   0.654
 9844TIP3    H129477   1.265   1.226   0.747
 9844TIP3    H229478   1.288   1.158   0.613
 9845TIP3   OH229479   0.645   0.127   6.744
 9845TIP3    H129480   0.687   0.041   6.737
 9845TIP3    H229481   0.714   0.183   6.780
 9846TIP3   OH229482   2.838   2.146   4.077
 9846TIP3    H129483   2.915   2.112   4.032
 9846TIP3    H229484   2.849   2.117   4.168
 9847TIP3   OH229485   3.595   3.342   5.346
 9847TIP3    H129486   3.577   3.413   5.407
 9847TIP3    H229487   3.620   3.268   5.402
 9848TIP3   OH229488   5.655   0.675   6.077
 9848TIP3    H129489   5.611   0.670   5.992
 9848TIP3    H229490   5.748   0.680   6.056
 9849TIP3   OH229491   5.643   6.665   5.415
 9849TIP3    H129492   5.607   6.626   5.334
 9849TIP3    H229493   5.678   6.749   5.387
 9850TIP3   OH229494   1.564   3.314   0.138
 9850TIP3    H129495   1.571   3.313   0.042
 9850TIP3    H229496   1.616   3.391   0.164
 9851TIP3   OH229497   6.407   4.466   4.347
 9851TIP3    H129498   6.333   4.430   4.297
 9851TIP3    H229499   6.477   4.402   4.336
 9852TIP3   OH229500   5.464   3.823   1.185
 9852TIP3    H129501   5.412   3.799   1.262
 9852TIP3    H229502   5.412   3.890   1.141
 9853TIP3   OH229503   3.108   4.194   1.007
 9853TIP3    H129504   3.051   4.258   0.965
 9853TIP3    H229505   3.059   4.165   1.084
 9854TIP3   OH229506   2.705   2.650   5.373
 9854TIP3    H129507   2.619   2.685   5.395
 9854TIP3    H229508   2.738   2.710   5.306
 9855TIP3   OH229509   5.618   2.762   3.583
 9855TIP3    H129510   5.677   2.761   3.507
 9855TIP3    H229511   5.589   2.672   3.592
 9856TIP3   OH229512   3.084   3.886   5.431
 9856TIP3    H129513   3.147   3.908   5.362
 9856TIP3    H229514   3.057   3.971   5.467
 9857TIP3   OH229515   0.223   5.465   5.147
 9857TIP3    H129516   0.152   5.528   5.137
 9857TIP3    H229517   0.195   5.389   5.096
 9858TIP3   OH229518   0.535   3.063   0.688
 9858TIP3    H129519   0.440   3.053   0.682
 9858TIP3    H229520   0.560   3.014   0.767
 9859TIP3   OH229521   2.206   4.988   1.458
 9859TIP3    H129522   2.283   4.973   1.513
 9859TIP3    H229523   2.163   4.903   1.453
 9860TIP3   OH229524   3.293   3.748   3.471
 9860TIP3    H129525   3.213   3.702   3.497
 9860TIP3    H229526   3.263   3.832   3.437
 9861TIP3   OH229527   3.326   5.759   0.676
 9861TIP3    H129528   3.245   5.746   0.724
 9861TIP3    H229529   3.368   5.673   0.674
 9862TIP3   OH229530   5.193   1.546   1.437
 9862TIP3    H129531   5.181   1.467   1.491
 9862TIP3    H229532   5.288   1.559   1.436
 9863TIP3   OH229533   2.833   2.402   1.219
 9863TIP3    H129534   2.859   2.373   1.306
 9863TIP3    H229535   2.829   2.323   1.167
 9864TIP3   OH229536   4.160   2.941   1.136
 9864TIP3    H129537   4.214   2.988   1.073
 9864TIP3    H229538   4.194   2.968   1.221
 9865TIP3   OH229539   2.339   5.933   5.674
 9865TIP3    H129540   2.359   6.013   5.625
 9865TIP3    H229541   2.359   5.862   5.613
 9866TIP3   OH229542   5.216   5.202   2.251
 9866TIP3    H129543   5.220   5.150   2.331
 9866TIP3    H229544   5.123   5.204   2.229
 9867TIP3   OH229545   5.139   4.052   3.085
 9867TIP3    H129546   5.082   3.996   3.138
 9867TIP3    H229547   5.131   4.017   2.996
 9868TIP3   OH229548   1.011   0.039   1.497
 9868TIP3    H129549   1.075   0.087   1.549
 9868TIP3    H229550   0.927   0.059   1.539
 9869TIP3   OH229551   1.207   1.686   3.299
 9869TIP3    H129552   1.113   1.687   3.286
 9869TIP3    H229553   1.233   1.595   3.282
 9870TIP3   OH229554   2.133   0.149   2.414
 9870TIP3    H129555   2.173   0.198   2.487
 9870TIP3    H229556   2.040   0.167   2.421
 9871TIP3   OH229557   2.489   1.590   5.702
 9871TIP3    H129558   2.471   1.497   5.717
 9871TIP3    H229559   2.527   1.620   5.785
 9872TIP3   OH229560   7.364   1.487   1.317
 9872TIP3    H129561   7.353   1.582   1.313
 9872TIP3    H229562   7.455   1.475   1.344
 9873TIP3   OH229563   3.352   0.097   2.942
 9873TIP3    H129564   3.288   0.056   2.884
 9873TIP3    H229565   3.327   0.066   3.030
 9874TIP3   OH229566   2.612   2.499   2.009
 9874TIP3    H129567   2.548   2.540   1.950
 9874TIP3    H229568   2.685   2.476   1.951
 9875TIP3   OH229569   5.430   4.386   3.122
 9875TIP3    H129570   5.402   4.432   3.043
 9875TIP3    H229571   5.523   4.406   3.130
 9876TIP3   OH229572   1.921   4.623   0.536
 9876TIP3    H129573   1.862   4.581   0.474
 9876TIP3    H229574   1.967   4.690   0.485
 9877TIP3   OH229575   7.658   2.727   3.184
 9877TIP3    H129576   7.667   2.796   3.249
 9877TIP3    H229577   7.601   2.764   3.117
 9878TIP3   OH229578   8.038   4.161   6.570
 9878TIP3    H129579   8.080   4.157   6.656
 9878TIP3    H229580   7.946   4.178   6.588
 9879TIP3   OH229581   0.418   1.379   5.035
 9879TIP3    H129582   0.402   1.370   5.129
 9879TIP3    H229583   0.456   1.295   5.008
 9880TIP3   OH229584   2.914   2.764   4.916
 9880TIP3    H129585   2.976   2.830   4.885
 9880TIP3    H229586   2.828   2.804   4.899
 9881TIP3   OH229587   4.575   4.901   5.034
 9881TIP3    H129588   4.562   4.831   5.098
 9881TIP3    H229589   4.607   4.856   4.956
 9882TIP3   OH229590   7.439   5.042   4.359
 9882TIP3    H129591   7.395   5.087   4.431
 9882TIP3    H229592   7.450   4.952   4.389
 9883TIP3   OH229593   7.535   3.973   3.204
 9883TIP3    H129594   7.523   3.883   3.173
 9883TIP3    H229595   7.584   4.016   3.133
 9884TIP3   OH229596   8.296   1.255   1.702
 9884TIP3    H129597   8.247   1.195   1.759
 9884TIP3    H229598   8.321   1.202   1.627
 9885TIP3   OH229599   1.642   2.832   0.892
 9885TIP3    H129600   1.708   2.898   0.911
 9885TIP3    H229601   1.561   2.866   0.931
 9886TIP3   OH229602   2.672   3.614   2.974
 9886TIP3    H129603   2.725   3.641   2.899
 9886TIP3    H229604   2.598   3.675   2.974
 9887TIP3   OH229605   0.805   1.931   4.442
 9887TIP3    H129606   0.748   1.884   4.382
 9887TIP3    H229607   0.876   1.964   4.387
 9888TIP3   OH229608   1.474   1.992   5.655
 9888TIP3    H129609   1.546   2.051   5.635
 9888TIP3    H229610   1.447   2.016   5.744
 9889TIP3   OH229611   0.575   5.263   5.438
 9889TIP3    H129612   0.668   5.244   5.433
 9889TIP3    H229613   0.544   5.210   5.512
 9890TIP3   OH229614   2.416   7.030   1.764
 9890TIP3    H129615   2.504   6.994   1.759
 9890TIP3    H229616   2.427   7.122   1.741
 9891TIP3   OH229617   7.042   3.569   1.797
 9891TIP3    H129618   7.078   3.641   1.745
 9891TIP3    H229619   7.069   3.589   1.887
 9892TIP3   OH229620   5.471   3.569   1.831
 9892TIP3    H129621   5.534   3.503   1.859
 9892TIP3    H229622   5.396   3.518   1.800
 9893TIP3   OH229623   5.016   5.011   1.152
 9893TIP3    H129624   5.040   4.959   1.229
 9893TIP3    H229625   5.022   5.102   1.182
 9894TIP3   OH229626   4.731   6.383   0.742
 9894TIP3    H129627   4.795   6.346   0.681
 9894TIP3    H229628   4.763   6.357   0.829
 9895TIP3   OH229629   3.917   0.165   3.475
 9895TIP3    H129630   3.964   0.246   3.496
 9895TIP3    H229631   3.942   0.104   3.545
 9896TIP3   OH229632   2.632   7.836   3.185
 9896TIP3    H129633   2.661   7.794   3.104
 9896TIP3    H229634   2.695   7.808   3.251
 9897TIP3   OH229635   0.082   1.748   5.181
 9897TIP3    H129636   0.111   1.761   5.091
 9897TIP3    H229637  -0.012   1.768   5.179
 9898TIP3   OH229638   7.420   3.267   5.936
 9898TIP3    H129639   7.370   3.278   6.017
 9898TIP3    H229640   7.458   3.179   5.944
 9899TIP3   OH229641   6.795   2.384   0.589
 9899TIP3    H129642   6.870   2.443   0.594
 9899TIP3    H229643   6.814   2.328   0.513
 9900TIP3   OH229644   1.787   2.866   6.677
 9900TIP3    H129645   1.750   2.806   6.742
 9900TIP3    H229646   1.778   2.819   6.594
 9901TIP3   OH229647   7.461   7.344   2.989
 9901TIP3    H129648   7.530   7.280   3.003
 9901TIP3    H229649   7.494   7.401   2.919
 9902TIP3   OH229650   6.891   7.539   3.017
 9902TIP3    H129651   6.797   7.548   3.031
 9902TIP3    H229652   6.915   7.460   3.064
 9903TIP3   OH229653   4.780   7.021   5.659
 9903TIP3    H129654   4.817   7.109   5.663
 9903TIP3    H229655   4.686   7.035   5.648
 9904TIP3   OH229656   7.189   3.121   3.800
 9904TIP3    H129657   7.244   3.168   3.737
 9904TIP3    H229658   7.137   3.190   3.842
 9905TIP3   OH229659   7.462   6.305   4.932
 9905TIP3    H129660   7.459   6.401   4.939
 9905TIP3    H229661   7.447   6.275   5.022
 9906TIP3   OH229662   7.935   7.022   3.353
 9906TIP3    H129663   7.884   7.073   3.416
 9906TIP3    H229664   7.872   7.001   3.284
 9907TIP3   OH229665   1.077   6.444   2.413
 9907TIP3    H129666   1.172   6.447   2.414
 9907TIP3    H229667   1.055   6.373   2.352
 9908TIP3   OH229668   3.553   7.432   5.537
 9908TIP3    H129669   3.513   7.517   5.515
 9908TIP3    H229670   3.604   7.449   5.616
 9909TIP3   OH229671   1.823   1.377   1.922
 9909TIP3    H129672   1.792   1.454   1.970
 9909TIP3    H229673   1.789   1.302   1.970
 9910TIP3   OH229674   3.119   5.405   3.673
 9910TIP3    H129675   3.212   5.414   3.655
 9910TIP3    H229676   3.098   5.477   3.732
 9911TIP3   OH229677   0.577   2.668   5.287
 9911TIP3    H129678   0.511   2.712   5.341
 9911TIP3    H229679   0.648   2.731   5.280
 9912TIP3   OH229680   4.056   4.902   5.405
 9912TIP3    H129681   4.112   4.838   5.449
 9912TIP3    H229682   3.981   4.912   5.463
 9913TIP3   OH229683   8.283   1.753   2.153
 9913TIP3    H129684   8.310   1.662   2.165
 9913TIP3    H229685   8.298   1.771   2.061
 9914TIP3   OH229686   6.881   0.915   4.004
 9914TIP3    H129687   6.889   0.974   3.929
 9914TIP3    H229688   6.909   0.967   4.079
 9915TIP3   OH229689   5.141   0.940   1.063
 9915TIP3    H129690   5.230   0.906   1.058
 9915TIP3    H229691   5.149   1.033   1.044
 9916TIP3   OH229692   3.521   1.202   3.567
 9916TIP3    H129693   3.450   1.238   3.620
 9916TIP3    H229694   3.568   1.144   3.626
 9917TIP3   OH229695   5.170   2.995   2.589
 9917TIP3    H129696   5.078   3.007   2.615
 9917TIP3    H229697   5.219   3.051   2.649
 9918TIP3   OH229698   7.586   4.455   1.818
 9918TIP3    H129699   7.598   4.418   1.905
 9918TIP3    H229700   7.548   4.384   1.766
 9919TIP3   OH229701   2.404   2.725   5.477
 9919TIP3    H129702   2.368   2.799   5.428
 9919TIP3    H229703   2.389   2.650   5.419
 9920TIP3   OH229704   6.083   7.451   3.885
 9920TIP3    H129705   6.129   7.370   3.908
 9920TIP3    H229706   6.148   7.520   3.900
 9921TIP3   OH229707   2.283   2.869   5.275
 9921TIP3    H129708   2.330   2.840   5.197
 9921TIP3    H229709   2.241   2.951   5.250
 9922TIP3   OH229710   7.559   6.039   2.133
 9922TIP3    H129711   7.476   6.076   2.164
 9922TIP3    H229712   7.624   6.106   2.153
 9923TIP3   OH229713   7.595   6.774   4.982
 9923TIP3    H129714   7.597   6.783   5.077
 9923TIP3    H229715   7.561   6.857   4.950
 9924TIP3   OH229716   3.456   2.776   5.680
 9924TIP3    H129717   3.409   2.822   5.749
 9924TIP3    H229718   3.548   2.803   5.691
 9925TIP3   OH229719   0.740   2.870   5.125
 9925TIP3    H129720   0.800   2.826   5.065
 9925TIP3    H229721   0.797   2.927   5.177
 9926TIP3   OH229722   3.278   0.815   5.798
 9926TIP3    H129723   3.360   0.768   5.814
 9926TIP3    H229724   3.240   0.828   5.885
 9927TIP3   OH229725   6.172   7.845   2.226
 9927TIP3    H129726   6.136   7.756   2.231
 9927TIP3    H229727   6.185   7.860   2.132
 9928TIP3   OH229728   3.197   5.737   3.682
 9928TIP3    H129729   3.121   5.692   3.645
 9928TIP3    H229730   3.271   5.702   3.633
 9929TIP3   OH229731   5.633   2.132   3.395
 9929TIP3    H129732   5.610   2.203   3.334
 9929TIP3    H229733   5.702   2.084   3.350
 9930TIP3   OH229734   0.193   5.994   2.965
 9930TIP3    H129735   0.270   6.011   2.911
 9930TIP3    H229736   0.182   6.074   3.017
 9931TIP3   OH229737   7.465   6.346   4.632
 9931TIP3    H129738   7.489   6.432   4.667
 9931TIP3    H229739   7.447   6.293   4.710
 9932TIP3   OH229740   4.703   6.804   0.957
 9932TIP3    H129741   4.697   6.726   0.902
 9932TIP3    H229742   4.639   6.865   0.919
 9933TIP3   OH229743   6.563   1.889   1.392
 9933TIP3    H129744   6.558   1.971   1.342
 9933TIP3    H229745   6.615   1.911   1.469
 9934TIP3   OH229746   3.816   0.539   5.815
 9934TIP3    H129747   3.751   0.583   5.870
 9934TIP3    H229748   3.882   0.606   5.798
 9935TIP3   OH229749   7.477   1.263   6.085
 9935TIP3    H129750   7.417   1.188   6.079
 9935TIP3    H229751   7.468   1.292   6.176
 9936TIP3   OH229752   0.042   7.051   4.432
 9936TIP3    H129753  -0.023   7.111   4.468
 9936TIP3    H229754  -0.009   6.994   4.374
 9937TIP3   OH229755   3.331   0.678   3.217
 9937TIP3    H129756   3.382   0.753   3.246
 9937TIP3    H229757   3.273   0.658   3.291
 9938TIP3   OH229758   3.245   2.170   3.037
 9938TIP3    H129759   3.185   2.237   3.002
 9938TIP3    H229760   3.293   2.216   3.106
 9939TIP3   OH229761   8.226   5.077   1.795
 9939TIP3    H129762   8.142   5.096   1.837
 9939TIP3    H229763   8.290   5.129   1.844
 9940TIP3   OH229764   4.998   1.568   2.257
 9940TIP3    H129765   5.023   1.605   2.341
 9940TIP3    H229766   5.079   1.534   2.219
 9941TIP3   OH229767   6.844   6.244   0.631
 9941TIP3    H129768   6.820   6.158   0.666
 9941TIP3    H229769   6.937   6.254   0.650
 9942TIP3   OH229770   6.271   6.627   2.599
 9942TIP3    H129771   6.227   6.661   2.677
 9942TIP3    H229772   6.319   6.703   2.564
 9943TIP3   OH229773   7.786   7.769   1.880
 9943TIP3    H129774   7.726   7.814   1.820
 9943TIP3    H229775   7.866   7.757   1.829
 9944TIP3   OH229776   4.777   5.408   0.593
 9944TIP3    H129777   4.694   5.367   0.617
 9944TIP3    H229778   4.783   5.485   0.651
 9945TIP3   OH229779   1.033   0.741   4.615
 9945TIP3    H129780   1.102   0.788   4.570
 9945TIP3    H229781   0.968   0.809   4.637
 9946TIP3   OH229782   6.779   1.050   2.895
 9946TIP3    H129783   6.708   1.097   2.851
 9946TIP3    H229784   6.735   0.997   2.961
 9947TIP3   OH229785   6.046   1.357   0.629
 9947TIP3    H129786   6.022   1.265   0.643
 9947TIP3    H229787   5.970   1.406   0.659
 9948TIP3   OH229788   0.310   3.613   0.256
 9948TIP3    H129789   0.226   3.569   0.240
 9948TIP3    H229790   0.290   3.706   0.251
 9949TIP3   OH229791   0.772   6.109   3.141
 9949TIP3    H129792   0.838   6.170   3.174
 9949TIP3    H229793   0.720   6.086   3.219
 9950TIP3   OH229794   7.284   2.908   2.740
 9950TIP3    H129795   7.247   2.929   2.654
 9950TIP3    H229796   7.349   2.841   2.721
 9951TIP3   OH229797   0.912   2.413   5.841
 9951TIP3    H129798   1.006   2.402   5.831
 9951TIP3    H229799   0.902   2.495   5.889
 9952TIP3   OH229800   3.910   2.754   4.216
 9952TIP3    H129801   3.897   2.843   4.248
 9952TIP3    H229802   3.846   2.702   4.263
 9953TIP3   OH229803   1.654   4.670   0.786
 9953TIP3    H129804   1.569   4.678   0.743
 9953TIP3    H229805   1.700   4.603   0.735
 9954TIP3   OH229806   8.057   1.827   0.733
 9954TIP3    H129807   8.006   1.898   0.694
 9954TIP3    H229808   7.996   1.754   0.739
 9955TIP3   OH229809   4.239   1.328   6.321
 9955TIP3    H129810   4.300   1.388   6.364
 9955TIP3    H229811   4.217   1.372   6.238
 9956TIP3   OH229812   0.117   3.493   3.536
 9956TIP3    H129813   0.160   3.556   3.477
 9956TIP3    H229814   0.032   3.533   3.556
 9957TIP3   OH229815   8.233   7.479   6.438
 9957TIP3    H129816   8.219   7.547   6.504
 9957TIP3    H229817   8.155   7.483   6.382
 9958TIP3   OH229818   6.139   3.236   4.850
 9958TIP3    H129819   6.223   3.226   4.896
 9958TIP3    H229820   6.129   3.330   4.839
 9959TIP3   OH229821   1.378   1.608   3.535
 9959TIP3    H129822   1.298   1.654   3.508
 9959TIP3    H229823   1.448   1.651   3.485
 9960TIP3   OH229824   5.690   6.194   4.745
 9960TIP3    H129825   5.618   6.136   4.771
 9960TIP3    H229826   5.764   6.135   4.734
 9961TIP3   OH229827   7.762   1.617   6.551
 9961TIP3    H129828   7.700   1.679   6.588
 9961TIP3    H229829   7.708   1.545   6.519
 9962TIP3   OH229830   7.426   2.039   1.612
 9962TIP3    H129831   7.479   2.096   1.556
 9962TIP3    H229832   7.376   2.099   1.668
 9963TIP3   OH229833   3.325   2.376   5.212
 9963TIP3    H129834   3.271   2.298   5.227
 9963TIP3    H229835   3.270   2.449   5.240
 9964TIP3   OH229836   5.234   0.996   1.866
 9964TIP3    H129837   5.199   1.073   1.912
 9964TIP3    H229838   5.243   0.930   1.934
 9965TIP3   OH229839   5.100   0.797   6.030
 9965TIP3    H129840   5.040   0.844   5.971
 9965TIP3    H229841   5.187   0.828   6.003
 9966TIP3   OH229842   5.313   4.694   1.634
 9966TIP3    H129843   5.243   4.700   1.699
 9966TIP3    H229844   5.386   4.652   1.680
 9967TIP3   OH229845   6.865   3.808   5.401
 9967TIP3    H129846   6.801   3.781   5.336
 9967TIP3    H229847   6.925   3.866   5.354
 9968TIP3   OH229848   0.183   7.271   1.721
 9968TIP3    H129849   0.223   7.196   1.766
 9968TIP3    H229850   0.100   7.237   1.688
 9969TIP3   OH229851   7.525   0.745   4.809
 9969TIP3    H129852   7.511   0.682   4.880
 9969TIP3    H229853   7.448   0.802   4.811
 9970TIP3   OH229854   2.935   0.611   4.016
 9970TIP3    H129855   2.966   0.648   3.933
 9970TIP3    H229856   3.014   0.604   4.069
 9971TIP3   OH229857   2.108   1.623   3.562
 9971TIP3    H129858   2.050   1.551   3.539
 9971TIP3    H229859   2.193   1.598   3.525
 9972TIP3   OH229860   0.024   3.265   2.579
 9972TIP3    H129861   0.039   3.333   2.514
 9972TIP3    H229862   0.058   3.302   2.661
 9973TIP3   OH229863   0.489   1.048   2.507
 9973TIP3    H129864   0.471   0.954   2.501
 9973TIP3    H229865   0.442   1.086   2.433
 9974TIP3   OH229866   8.256   0.137   4.685
 9974TIP3    H129867   8.249   0.113   4.778
 9974TIP3    H229868   8.318   0.073   4.648
 9975TIP3   OH229869   1.955   0.255   6.414
 9975TIP3    H129870   1.865   0.227   6.398
 9975TIP3    H229871   1.966   0.334   6.361
 9976TIP3   OH229872   7.903   5.597   2.661
 9976TIP3    H129873   7.836   5.664   2.649
 9976TIP3    H229874   7.858   5.526   2.706
 9977TIP3   OH229875   1.932   4.120   1.609
 9977TIP3    H129876   1.891   4.100   1.693
 9977TIP3    H229877   2.020   4.082   1.616
 9978TIP3   OH229878   7.541   4.449   1.209
 9978TIP3    H129879   7.618   4.485   1.165
 9978TIP3    H229880   7.510   4.380   1.150
 9979TIP3   OH229881   0.113   5.592   2.667
 9979TIP3    H129882   0.062   5.587   2.748
 9979TIP3    H229883   0.047   5.602   2.598
 9980TIP3   OH229884   1.016   6.754   4.707
 9980TIP3    H129885   1.000   6.666   4.674
 9980TIP3    H229886   1.111   6.765   4.702
 9981TIP3   OH229887   2.584   0.382   6.110
 9981TIP3    H129888   2.539   0.461   6.081
 9981TIP3    H229889   2.538   0.355   6.190
 9982TIP3   OH229890   4.824   1.232   2.934
 9982TIP3    H129891   4.918   1.214   2.929
 9982TIP3    H229892   4.785   1.148   2.958
 9983TIP3   OH229893   7.668   2.581   3.577
 9983TIP3    H129894   7.660   2.542   3.490
 9983TIP3    H229895   7.737   2.646   3.568
 9984TIP3   OH229896   1.562   7.628   4.083
 9984TIP3    H129897   1.602   7.705   4.123
 9984TIP3    H229898   1.588   7.555   4.140
 9985TIP3   OH229899   0.688   7.621   0.378
 9985TIP3    H129900   0.682   7.662   0.291
 9985TIP3    H229901   0.782   7.616   0.396
 9986TIP3   OH229902   4.527   4.627   6.122
 9986TIP3    H129903   4.517   4.709   6.073
 9986TIP3    H229904   4.505   4.559   6.059
 9987TIP3   OH229905   5.189   4.093   1.335
 9987TIP3    H129906   5.159   4.062   1.420
 9987TIP3    H229907   5.116   4.144   1.301
 9988TIP3   OH229908   0.646   0.008   6.172
 9988TIP3    H129909   0.636   0.030   6.264
 9988TIP3    H229910   0.657   0.092   6.128
 9989TIP3   OH229911   5.666   1.367   2.230
 9989TIP3    H129912   5.742   1.340   2.179
 9989TIP3    H229913   5.686   1.339   2.320
 9990TIP3   OH229914   2.390   7.354   5.288
 9990TIP3    H129915   2.485   7.364   5.289
 9990TIP3    H229916   2.368   7.328   5.378
 9991TIP3   OH229917   2.928   0.005   0.670
 9991TIP3    H129918   2.839  -0.015   0.642
 9991TIP3    H229919   2.920   0.087   0.719
 9992TIP3   OH229920   4.051   7.678   5.364
 9992TIP3    H129921   4.061   7.657   5.457
 9992TIP3    H229922   4.085   7.767   5.357
 9993TIP3   OH229923   6.875   2.883   5.262
 9993TIP3    H129924   6.903   2.911   5.175
 9993TIP3    H229925   6.884   2.788   5.261
 9994TIP3   OH229926   4.560   3.697   2.889
 9994TIP3    H129927   4.589   3.719   2.978
 9994TIP3    H229928   4.530   3.607   2.895
 9995TIP3   OH229929   5.293   7.131   0.832
 9995TIP3    H129930   5.289   7.221   0.863
 9995TIP3    H229931   5.380   7.123   0.793
 9996TIP3   OH229932   1.851   2.664   5.153
 9996TIP3    H129933   1.844   2.593   5.089
 9996TIP3    H229934   1.919   2.722   5.117
 9997TIP3   OH229935   5.611   4.359   2.784
 9997TIP3    H129936   5.669   4.297   2.830
 9997TIP3    H229937   5.611   4.328   2.693
 9998TIP3   OH229938   4.788   7.751   2.968
 9998TIP3    H129939   4.836   7.767   2.887
 9998TIP3    H229940   4.847   7.696   3.020
 9999TIP3   OH229941   4.653   4.915   5.918
 9999TIP3    H129942   4.615   4.939   5.834
 9999TIP3    H229943   4.602   4.966   5.982
10000TIP3   OH229944   5.682   3.807   0.685
10000TIP3    H129945   5.633   3.734   0.721
10000TIP3    H229946   5.763   3.810   0.736
10001TIP3   OH229947   3.692   0.133   2.848
10001TIP3    H129948   3.620   0.171   2.797
10001TIP3    H229949   3.682   0.038   2.837
10002TIP3   OH229950   4.856   6.703   0.588
10002TIP3    H129951   4.795   6.694   0.661
10002TIP3    H229952   4.831   6.784   0.545
10003TIP3   OH229953   3.498   1.719   3.694
10003TIP3    H129954   3.585   1.723   3.656
10003TIP3    H229955   3.499   1.785   3.764
10004TIP3   OH229956   1.456   0.141   4.696
10004TIP3    H129957   1.453   0.070   4.632
10004TIP3    H229958   1.437   0.220   4.645
10005TIP3   OH229959   5.844   1.548   1.935
10005TIP3    H129960   5.914   1.611   1.955
10005TIP3    H229961   5.863   1.473   1.991
10006TIP3   OH229962   1.868   4.365   5.584
10006TIP3    H129963   1.792   4.347   5.640
10006TIP3    H229964   1.923   4.287   5.592
10007TIP3   OH229965   4.867   5.020   6.149
10007TIP3    H129966   4.861   5.112   6.124
10007TIP3    H229967   4.788   5.004   6.201
10008TIP3   OH229968   4.787   4.839   2.473
10008TIP3    H129969   4.702   4.881   2.464
10008TIP3    H229970   4.847   4.910   2.497
10009TIP3   OH229971   4.543   3.246   5.103
10009TIP3    H129972   4.501   3.163   5.128
10009TIP3    H229973   4.553   3.240   5.008
10010TIP3   OH229974   4.163   0.495   6.351
10010TIP3    H129975   4.139   0.577   6.307
10010TIP3    H229976   4.235   0.518   6.408
10011TIP3   OH229977   5.582   0.044   0.178
10011TIP3    H129978   5.548  -0.003   0.254
10011TIP3    H229979   5.647  -0.015   0.140
10012TIP3   OH229980   4.848   4.412   1.805
10012TIP3    H129981   4.890   4.451   1.882
10012TIP3    H229982   4.921   4.391   1.747
10013TIP3   OH229983   0.006   7.243   2.100
10013TIP3    H129984  -0.033   7.329   2.083
10013TIP3    H229985   0.100   7.259   2.098
10014TIP3   OH229986   2.545   6.754   5.430
10014TIP3    H129987   2.513   6.757   5.340
10014TIP3    H229988   2.467   6.736   5.482
10015TIP3   OH229989   1.837   4.203   5.041
10015TIP3    H129990   1.837   4.281   4.985
10015TIP3    H229991   1.842   4.238   5.130
10016TIP3   OH229992   7.962   4.491   2.222
10016TIP3    H129993   7.974   4.413   2.276
10016TIP3    H229994   8.031   4.485   2.156
10017TIP3   OH229995   6.942   5.437   2.816
10017TIP3    H129996   6.880   5.423   2.887
10017TIP3    H229997   6.888   5.461   2.741
10018TIP3   OH229998   6.290   3.831   4.557
10018TIP3    H129999   6.332   3.794   4.635
10018TIP3    H230000   6.335   3.914   4.544
10019TIP3   OH230001   0.833   7.129   3.843
10019TIP3    H130002   0.922   7.142   3.811
10019TIP3    H230003   0.812   7.038   3.821
10020TIP3   OH230004   8.092   3.579   2.892
10020TIP3    H130005   8.180   3.555   2.863
10020TIP3    H230006   8.039   3.581   2.812
10021TIP3   OH230007   7.003   7.182   1.644
10021TIP3    H130008   6.919   7.181   1.691
10021TIP3    H230009   7.005   7.267   1.601
10022TIP3   OH230010   3.566   5.931   0.556
10022TIP3    H130011   3.494   5.949   0.617
10022TIP3    H230012   3.537   5.854   0.506
10023TIP3   OH230013   8.038   5.851   4.458
10023TIP3    H130014   8.001   5.770   4.492
10023TIP3    H230015   8.084   5.826   4.378
10024TIP3   OH230016   1.183   2.230   4.779
10024TIP3    H130017   1.278   2.221   4.775
10024TIP3    H230018   1.156   2.171   4.849
10025TIP3   OH230019   4.831   1.989   2.760
10025TIP3    H130020   4.776   2.062   2.731
10025TIP3    H230021   4.802   1.973   2.850
10026TIP3   OH230022   1.633   5.024   2.045
10026TIP3    H130023   1.640   4.929   2.045
10026TIP3    H230024   1.697   5.053   2.109
10027TIP3   OH230025   7.712   3.189   3.458
10027TIP3    H130026   7.805   3.189   3.435
10027TIP3    H230027   7.673   3.253   3.400
10028TIP3   OH230028   3.028   5.882   0.803
10028TIP3    H130029   3.089   5.880   0.877
10028TIP3    H230030   2.948   5.842   0.837
10029TIP3   OH230031   3.470   0.376   5.971
10029TIP3    H130032   3.480   0.302   6.032
10029TIP3    H230033   3.499   0.342   5.887
10030TIP3   OH230034   8.033   5.998   1.734
10030TIP3    H130035   8.051   6.078   1.784
10030TIP3    H230036   7.987   6.028   1.656
10031TIP3   OH230037   0.069   3.236   0.126
10031TIP3    H130038   0.073   3.226   0.031
10031TIP3    H230039   0.005   3.171   0.154
10032TIP3   OH230040   4.001   6.880   5.407
10032TIP3    H130041   4.048   6.962   5.400
10032TIP3    H230042   4.029   6.843   5.491
10033TIP3   OH230043   0.636   6.483   5.515
10033TIP3    H130044   0.695   6.500   5.442
10033TIP3    H230045   0.683   6.422   5.572
10034TIP3   OH230046   3.531   6.127   0.146
10034TIP3    H130047   3.448   6.081   0.160
10034TIP3    H230048   3.567   6.086   0.066
10035TIP3   OH230049   2.395   7.506   5.686
10035TIP3    H130050   2.360   7.442   5.748
10035TIP3    H230051   2.485   7.522   5.716
10036TIP3   OH230052   5.429   4.204   1.280
10036TIP3    H130053   5.340   4.172   1.296
10036TIP3    H230054   5.452   4.250   1.361
10037TIP3   OH230055   0.790   1.492   1.804
10037TIP3    H130056   0.728   1.453   1.743
10037TIP3    H230057   0.864   1.519   1.750
10038TIP3   OH230058   8.136   6.606   4.072
10038TIP3    H130059   8.178   6.682   4.033
10038TIP3    H230060   8.043   6.616   4.051
10039TIP3   OH230061   0.775   7.460   5.015
10039TIP3    H130062   0.700   7.400   5.010
10039TIP3    H230063   0.742   7.537   5.061
10040TIP3   OH230064   0.365   4.832   0.162
10040TIP3    H130065   0.401   4.744   0.174
10040TIP3    H230066   0.323   4.829   0.076
10041TIP3   OH230067   2.619   5.697   0.762
10041TIP3    H130068   2.690   5.716   0.824
10041TIP3    H230069   2.542   5.739   0.801
10042TIP3   OH230070   5.266   1.617   3.897
10042TIP3    H130071   5.273   1.654   3.809
10042TIP3    H230072   5.194   1.554   3.891
10043TIP3   OH230073   0.500   4.789   5.386
10043TIP3    H130074   0.430   4.842   5.347
10043TIP3    H230075   0.580   4.839   5.371
10044TIP3   OH230076   6.629   7.271   2.878
10044TIP3    H130077   6.664   7.188   2.908
10044TIP3    H230078   6.556   7.289   2.938
10045TIP3   OH230079   8.077   6.640   3.713
10045TIP3    H130080   8.051   6.699   3.642
10045TIP3    H230081   8.082   6.697   3.790
10046TIP3   OH230082   0.920   1.000   0.485
10046TIP3    H130083   0.985   0.954   0.433
10046TIP3    H230084   0.866   0.931   0.524
10047TIP3   OH230085   3.247   0.689   2.942
10047TIP3    H130086   3.291   0.707   3.024
10047TIP3    H230087   3.245   0.593   2.936
10048TIP3   OH230088   2.986   6.870   3.861
10048TIP3    H130089   2.952   6.830   3.942
10048TIP3    H230090   3.072   6.904   3.886
10049TIP3   OH230091   4.543   3.007   1.168
10049TIP3    H130092   4.619   3.057   1.137
10049TIP3    H230093   4.555   3.003   1.263
10050TIP3   OH230094   1.270   2.142   5.120
10050TIP3    H130095   1.247   2.231   5.094
10050TIP3    H230096   1.197   2.088   5.090
10051TIP3   OH230097   5.904   1.197   4.936
10051TIP3    H130098   5.864   1.211   5.022
10051TIP3    H230099   5.981   1.255   4.936
10052TIP3   OH230100   4.102   2.027   2.128
10052TIP3    H130101   4.077   2.098   2.069
10052TIP3    H230102   4.083   2.061   2.216
10053TIP3   OH230103   7.085   7.260   5.734
10053TIP3    H130104   7.111   7.344   5.698
10053TIP3    H230105   6.991   7.254   5.716
10054TIP3   OH230106   5.011   5.896   1.913
10054TIP3    H130107   4.995   5.924   1.823
10054TIP3    H230108   5.095   5.849   1.909
10055TIP3   OH230109   0.466   0.176   2.361
10055TIP3    H130110   0.405   0.207   2.294
10055TIP3    H230111   0.534   0.130   2.311
10056TIP3   OH230112   0.446   7.482   2.923
10056TIP3    H130113   0.536   7.481   2.889
10056TIP3    H230114   0.429   7.575   2.941
10057TIP3   OH230115   3.588   6.545   5.709
10057TIP3    H130116   3.603   6.473   5.648
10057TIP3    H230117   3.578   6.623   5.653
10058TIP3   OH230118   5.501   5.126   1.679
10058TIP3    H130119   5.417   5.090   1.653
10058TIP3    H230120   5.566   5.066   1.642
10059TIP3   OH230121   8.269   0.428   2.076
10059TIP3    H130122   8.284   0.340   2.042
10059TIP3    H230123   8.309   0.427   2.163
10060TIP3   OH230124   8.045   3.468   2.080
10060TIP3    H130125   8.034   3.393   2.022
10060TIP3    H230126   8.035   3.545   2.024
10061TIP3   OH230127   0.274   2.465   5.050
10061TIP3    H130128   0.345   2.401   5.053
10061TIP3    H230129   0.300   2.525   4.980
10062TIP3   OH230130   7.402   4.291   1.031
10062TIP3    H130131   7.398   4.218   0.969
10062TIP3    H230132   7.314   4.329   1.028
10063TIP3   OH230133   7.770   5.409   4.215
10063TIP3    H130134   7.738   5.320   4.229
10063TIP3    H230135   7.704   5.449   4.159
10064TIP3   OH230136   6.279   6.330   0.725
10064TIP3    H130137   6.242   6.367   0.644
10064TIP3    H230138   6.368   6.366   0.728
10065TIP3   OH230139   2.535   6.426   1.192
10065TIP3    H130140   2.539   6.346   1.245
10065TIP3    H230141   2.442   6.450   1.191
10066TIP3   OH230142   2.429   1.925   2.572
10066TIP3    H130143   2.418   1.865   2.646
10066TIP3    H230144   2.372   1.999   2.592
10067TIP3   OH230145   0.677   3.473   5.399
10067TIP3    H130146   0.759   3.432   5.373
10067TIP3    H230147   0.656   3.534   5.329
10068TIP3   OH230148   8.069   4.933   3.755
10068TIP3    H130149   8.112   4.947   3.671
10068TIP3    H230150   8.137   4.947   3.820
10069TIP3   OH230151   5.943   7.172   3.992
10069TIP3    H130152   5.949   7.152   3.899
10069TIP3    H230153   5.855   7.143   4.017
10070TIP3   OH230154   1.387   2.509   3.927
10070TIP3    H130155   1.397   2.483   3.835
10070TIP3    H230156   1.476   2.505   3.962
10071TIP3   OH230157   0.755   3.302   3.974
10071TIP3    H130158   0.816   3.346   4.033
10071TIP3    H230159   0.783   3.328   3.886
10072TIP3   OH230160   6.082   4.785   5.272
10072TIP3    H130161   6.161   4.837   5.284
10072TIP3    H230162   6.113   4.695   5.267
10073TIP3   OH230163   3.084   2.567   0.795
10073TIP3    H130164   3.109   2.613   0.875
10073TIP3    H230165   3.157   2.581   0.735
10074TIP3   OH230166   2.637   3.332   5.224
10074TIP3    H130167   2.672   3.313   5.310
10074TIP3    H230168   2.699   3.392   5.184
10075TIP3   OH230169   7.463   5.953   3.597
10075TIP3    H130170   7.532   6.005   3.638
10075TIP3    H230171   7.491   5.862   3.608
10076TIP3   OH230172   1.635   0.212   1.429
10076TIP3    H130173   1.561   0.271   1.421
10076TIP3    H230174   1.707   0.257   1.385
10077TIP3   OH230175   0.444   3.267   2.892
10077TIP3    H130176   0.517   3.258   2.953
10077TIP3    H230177   0.448   3.358   2.864
10078TIP3   OH230178   6.505   3.415   6.235
10078TIP3    H130179   6.589   3.377   6.209
10078TIP3    H230180   6.516   3.509   6.220
10079TIP3   OH230181   4.690   1.604   5.303
10079TIP3    H130182   4.660   1.619   5.392
10079TIP3    H230183   4.611   1.580   5.254
10080TIP3   OH230184   2.065   7.053   5.292
10080TIP3    H130185   1.970   7.064   5.295
10080TIP3    H230186   2.081   7.000   5.214
10081TIP3   OH230187   4.426   3.068   3.376
10081TIP3    H130188   4.358   3.056   3.310
10081TIP3    H230189   4.438   3.163   3.381
10082TIP3   OH230190   3.989   7.383   1.900
10082TIP3    H130191   3.950   7.351   1.981
10082TIP3    H230192   4.004   7.304   1.847
10083TIP3   OH230193   1.926   0.419   5.570
10083TIP3    H130194   1.955   0.337   5.611
10083TIP3    H230195   1.940   0.486   5.637
10084TIP3   OH230196   4.533   4.939   2.447
10084TIP3    H130197   4.494   5.026   2.458
10084TIP3    H230198   4.538   4.927   2.353
10085TIP3   OH230199   4.024   0.758   5.767
10085TIP3    H130200   4.094   0.744   5.831
10085TIP3    H230201   3.970   0.828   5.805
10086TIP3   OH230202   4.958   1.093   5.594
10086TIP3    H130203   4.940   1.101   5.501
10086TIP3    H230204   4.926   1.006   5.617
10087TIP3   OH230205   4.307   1.859   4.779
10087TIP3    H130206   4.339   1.788   4.835
10087TIP3    H230207   4.212   1.852   4.783
10088TIP3   OH230208   0.570   1.974   5.957
10088TIP3    H130209   0.612   2.045   5.909
10088TIP3    H230210   0.572   1.899   5.897
10089TIP3   OH230211   5.713   6.527   4.671
10089TIP3    H130212   5.651   6.580   4.622
10089TIP3    H230213   5.729   6.451   4.616
10090TIP3   OH230214   1.408   0.854   4.089
10090TIP3    H130215   1.320   0.869   4.055
10090TIP3    H230216   1.395   0.808   4.172
10091TIP3   OH230217   0.861   0.144   2.059
10091TIP3    H130218   0.929   0.145   1.992
10091TIP3    H230219   0.906   0.118   2.139
10092TIP3   OH230220   4.425   3.025   2.405
10092TIP3    H130221   4.391   2.936   2.414
10092TIP3    H230222   4.506   3.015   2.355
10093TIP3   OH230223   1.891   1.825   5.090
10093TIP3    H130224   1.844   1.880   5.153
10093TIP3    H230225   1.905   1.742   5.136
10094TIP3   OH230226   7.161   5.790   3.102
10094TIP3    H130227   7.247   5.757   3.078
10094TIP3    H230228   7.101   5.720   3.077
10095TIP3   OH230229   1.585   3.961   2.158
10095TIP3    H130230   1.596   4.037   2.102
10095TIP3    H230231   1.495   3.932   2.143
10096TIP3   OH230232   1.260   5.718   5.580
10096TIP3    H130233   1.204   5.795   5.567
10096TIP3    H230234   1.234   5.658   5.510
10097TIP3   OH230235   0.243   0.658   2.882
10097TIP3    H130236   0.337   0.640   2.873
10097TIP3    H230237   0.227   0.733   2.824
10098TIP3   OH230238   0.422   1.377   5.307
10098TIP3    H130239   0.369   1.448   5.342
10098TIP3    H230240   0.512   1.407   5.317
10099TIP3   OH230241   0.085   0.149   0.847
10099TIP3    H130242   0.071   0.174   0.756
10099TIP3    H230243  -0.003   0.142   0.884
10100TIP3   OH230244   1.770   5.306   5.822
10100TIP3    H130245   1.705   5.367   5.857
10100TIP3    H230246   1.852   5.333   5.863
10101TIP3   OH230247   5.591   6.051   1.506
10101TIP3    H130248   5.582   6.030   1.599
10101TIP3    H230249   5.612   5.967   1.464
10102TIP3   OH230250   2.233   7.164   4.440
10102TIP3    H130251   2.274   7.197   4.520
10102TIP3    H230252   2.280   7.083   4.421
10103TIP3   OH230253   7.671   4.673   4.179
10103TIP3    H130254   7.740   4.739   4.185
10103TIP3    H230255   7.710   4.594   4.216
10104TIP3   OH230256   4.271   5.532   3.628
10104TIP3    H130257   4.192   5.485   3.652
10104TIP3    H230258   4.272   5.532   3.532
10105TIP3   OH230259   4.878   6.811   1.938
10105TIP3    H130260   4.881   6.889   1.883
10105TIP3    H230261   4.950   6.757   1.907
10106TIP3   OH230262   6.841   1.797   6.679
10106TIP3    H130263   6.826   1.811   6.772
10106TIP3    H230264   6.902   1.724   6.675
10107TIP3   OH230265   2.830   6.775   0.588
10107TIP3    H130266   2.906   6.736   0.630
10107TIP3    H230267   2.855   6.784   0.496
10108TIP3   OH230268   5.439   6.719   3.872
10108TIP3    H130269   5.402   6.632   3.854
10108TIP3    H230270   5.509   6.703   3.935
10109TIP3   OH230271   1.356   4.855   5.185
10109TIP3    H130272   1.331   4.853   5.278
10109TIP3    H230273   1.385   4.945   5.171
10110TIP3   OH230274   4.975   0.405   0.242
10110TIP3    H130275   4.959   0.494   0.209
10110TIP3    H230276   4.987   0.417   0.336
10111TIP3   OH230277   5.107   7.207   1.641
10111TIP3    H130278   5.062   7.158   1.709
10111TIP3    H230279   5.099   7.152   1.563
10112TIP3   OH230280   7.260   4.769   5.894
10112TIP3    H130281   7.201   4.797   5.964
10112TIP3    H230282   7.206   4.773   5.815
10113TIP3   OH230283   0.322   1.753   5.988
10113TIP3    H130284   0.362   1.777   5.905
10113TIP3    H230285   0.238   1.715   5.965
10114TIP3   OH230286   0.548   5.687   6.259
10114TIP3    H130287   0.549   5.670   6.165
10114TIP3    H230288   0.547   5.600   6.299
10115TIP3   OH230289   6.374   5.650   5.610
10115TIP3    H130290   6.306   5.711   5.639
10115TIP3    H230291   6.423   5.630   5.690
10116TIP3   OH230292   3.010   4.849   2.900
10116TIP3    H130293   3.090   4.896   2.922
10116TIP3    H230294   3.023   4.821   2.809
10117TIP3   OH230295   1.130   0.826   1.713
10117TIP3    H130296   1.115   0.920   1.727
10117TIP3    H230297   1.165   0.794   1.796
10118TIP3   OH230298   3.125   6.074   3.510
10118TIP3    H130299   3.146   6.128   3.587
10118TIP3    H230300   3.080   6.134   3.451
10119TIP3   OH230301   4.733   4.061   0.666
10119TIP3    H130302   4.805   4.079   0.605
10119TIP3    H230303   4.775   4.019   0.741
10120TIP3   OH230304   0.239   7.753   5.788
10120TIP3    H130305   0.169   7.778   5.727
10120TIP3    H230306   0.199   7.688   5.845
10121TIP3   OH230307   6.900   6.250   1.111
10121TIP3    H130308   6.835   6.320   1.124
10121TIP3    H230309   6.984   6.296   1.110
10122TIP3   OH230310   6.848   7.346   0.236
10122TIP3    H130311   6.786   7.418   0.243
10122TIP3    H230312   6.862   7.337   0.141
10123TIP3   OH230313   4.448   4.956   0.262
10123TIP3    H130314   4.428   4.896   0.191
10123TIP3    H230315   4.467   4.899   0.337
10124TIP3   OH230316   1.243   7.686   0.078
10124TIP3    H130317   1.216   7.658  -0.009
10124TIP3    H230318   1.232   7.781   0.077
10125TIP3   OH230319   0.218   3.221   1.923
10125TIP3    H130320   0.283   3.203   1.990
10125TIP3    H230321   0.202   3.316   1.929
10126TIP3   OH230322   1.512   6.921   2.040
10126TIP3    H130323   1.434   6.971   2.062
10126TIP3    H230324   1.483   6.859   1.972
10127TIP3   OH230325   4.801   6.043   5.633
10127TIP3    H130326   4.848   5.974   5.681
10127TIP3    H230327   4.842   6.125   5.662
10128TIP3   OH230328   5.688   0.590   2.672
10128TIP3    H130329   5.663   0.623   2.586
10128TIP3    H230330   5.649   0.652   2.734
10129TIP3   OH230331   6.494   6.267   2.834
10129TIP3    H130332   6.547   6.324   2.891
10129TIP3    H230333   6.404   6.294   2.852
10130TIP3   OH230334   3.573   4.163   5.028
10130TIP3    H130335   3.563   4.138   4.937
10130TIP3    H230336   3.592   4.257   5.025
10131TIP3   OH230337   1.132   0.245   3.932
10131TIP3    H130338   1.203   0.309   3.924
10131TIP3    H230339   1.124   0.230   4.026
10132TIP3   OH230340   4.884   3.438   1.842
10132TIP3    H130341   4.930   3.363   1.878
10132TIP3    H230342   4.920   3.514   1.888
10133TIP3   OH230343   0.165   4.078   4.489
10133TIP3    H130344   0.206   4.164   4.490
10133TIP3    H230345   0.075   4.095   4.459
10134TIP3   OH230346   2.541   1.625   1.071
10134TIP3    H130347   2.463   1.571   1.086
10134TIP3    H230348   2.557   1.616   0.977
10135TIP3   OH230349   3.766   1.033   0.130
10135TIP3    H130350   3.720   0.987   0.060
10135TIP3    H230351   3.755   1.126   0.109
10136TIP3   OH230352   4.739   6.784   1.596
10136TIP3    H130353   4.758   6.714   1.659
10136TIP3    H230354   4.647   6.774   1.574
10137TIP3   OH230355   1.685   0.478   0.543
10137TIP3    H130356   1.760   0.418   0.551
10137TIP3    H230357   1.618   0.427   0.498
10138TIP3   OH230358   2.676   2.019   2.430
10138TIP3    H130359   2.591   2.015   2.473
10138TIP3    H230360   2.737   2.046   2.499
10139TIP3   OH230361   3.805   0.777   5.271
10139TIP3    H130362   3.788   0.778   5.365
10139TIP3    H230363   3.817   0.868   5.247
10140TIP3   OH230364   6.566   6.947   6.678
10140TIP3    H130365   6.506   7.004   6.629
10140TIP3    H230366   6.544   6.963   6.770
10141TIP3   OH230367   1.437   6.665   1.330
10141TIP3    H130368   1.473   6.582   1.360
10141TIP3    H230369   1.492   6.689   1.255
10142TIP3   OH230370   5.579   0.158   0.872
10142TIP3    H130371   5.586   0.114   0.787
10142TIP3    H230372   5.599   0.250   0.852
10143TIP3   OH230373   7.316   2.340   0.321
10143TIP3    H130374   7.351   2.309   0.404
10143TIP3    H230375   7.280   2.261   0.279
10144TIP3   OH230376   3.791   5.790   0.437
10144TIP3    H130377   3.775   5.876   0.476
10144TIP3    H230378   3.705   5.759   0.410
10145TIP3   OH230379   4.768   0.841   5.166
10145TIP3    H130380   4.758   0.887   5.083
10145TIP3    H230381   4.678   0.833   5.200
10146TIP3   OH230382   5.733   6.928   4.829
10146TIP3    H130383   5.706   7.020   4.831
10146TIP3    H230384   5.781   6.916   4.911
10147TIP3   OH230385   0.986   3.481   5.703
10147TIP3    H130386   1.026   3.566   5.724
10147TIP3    H230387   1.022   3.421   5.767
10148TIP3   OH230388   2.655   5.136   0.087
10148TIP3    H130389   2.608   5.218   0.102
10148TIP3    H230390   2.730   5.161   0.033
10149TIP3   OH230391   0.410   6.200   1.509
10149TIP3    H130392   0.321   6.220   1.480
10149TIP3    H230393   0.401   6.122   1.564
10150TIP3   OH230394   0.487   4.817   1.825
10150TIP3    H130395   0.422   4.881   1.796
10150TIP3    H230396   0.445   4.732   1.811
10151TIP3   OH230397   1.188   4.341   4.264
10151TIP3    H130398   1.194   4.315   4.356
10151TIP3    H230399   1.129   4.416   4.264
10152TIP3   OH230400   5.366   6.060   4.664
10152TIP3    H130401   5.296   5.995   4.667
10152TIP3    H230402   5.419   6.042   4.742
10153TIP3   OH230403   1.396   3.189   6.501
10153TIP3    H130404   1.385   3.190   6.596
10153TIP3    H230405   1.446   3.110   6.484
10154TIP3   OH230406   3.443   1.701   6.435
10154TIP3    H130407   3.352   1.678   6.413
10154TIP3    H230408   3.478   1.623   6.478
10155TIP3   OH230409   5.592   2.824   6.017
10155TIP3    H130410   5.507   2.791   5.987
10155TIP3    H230411   5.572   2.907   6.060
10156TIP3   OH230412   3.558   5.041   2.537
10156TIP3    H130413   3.489   4.990   2.579
10156TIP3    H230414   3.533   5.043   2.444
10157TIP3   OH230415   5.947   0.982   0.358
10157TIP3    H130416   5.967   0.917   0.290
10157TIP3    H230417   5.857   1.007   0.341
10158TIP3   OH230418   2.611   6.626   0.402
10158TIP3    H130419   2.676   6.555   0.401
10158TIP3    H230420   2.640   6.686   0.333
10159TIP3   OH230421   7.452   1.594   0.995
10159TIP3    H130422   7.487   1.564   0.911
10159TIP3    H230423   7.501   1.544   1.060
10160TIP3   OH230424   4.792   1.748   6.609
10160TIP3    H130425   4.800   1.729   6.703
10160TIP3    H230426   4.875   1.720   6.571
10161TIP3   OH230427   1.201   3.946   5.863
10161TIP3    H130428   1.290   3.948   5.898
10161TIP3    H230429   1.204   4.005   5.788
10162TIP3   OH230430   5.729   0.075   0.656
10162TIP3    H130431   5.777   0.041   0.732
10162TIP3    H230432   5.796   0.119   0.604
10163TIP3   OH230433   6.805   0.343   3.860
10163TIP3    H130434   6.780   0.255   3.833
10163TIP3    H230435   6.887   0.360   3.814
10164TIP3   OH230436   0.233   4.006   3.251
10164TIP3    H130437   0.245   4.047   3.336
10164TIP3    H230438   0.138   4.009   3.237
10165TIP3   OH230439   0.769   4.247   3.402
10165TIP3    H130440   0.746   4.326   3.353
10165TIP3    H230441   0.685   4.206   3.422
10166TIP3   OH230442   7.043   7.676   4.901
10166TIP3    H130443   7.074   7.766   4.908
10166TIP3    H230444   6.951   7.684   4.875
10167TIP3   OH230445   3.146   4.056   0.760
10167TIP3    H130446   3.113   4.136   0.719
10167TIP3    H230447   3.129   4.068   0.853
10168TIP3   OH230448   2.293   1.389   1.948
10168TIP3    H130449   2.352   1.345   1.887
10168TIP3    H230450   2.213   1.404   1.898
10169TIP3   OH230451   4.075   4.770   0.086
10169TIP3    H130452   4.077   4.760  -0.009
10169TIP3    H230453   4.084   4.682   0.121
10170TIP3   OH230454   5.045   4.383   0.591
10170TIP3    H130455   5.064   4.459   0.536
10170TIP3    H230456   4.951   4.371   0.585
10171TIP3   OH230457   0.823   3.343   1.061
10171TIP3    H130458   0.772   3.326   0.982
10171TIP3    H230459   0.860   3.258   1.085
10172TIP3   OH230460   4.166   6.557   2.850
10172TIP3    H130461   4.260   6.575   2.863
10172TIP3    H230462   4.140   6.618   2.781
10173TIP3   OH230463   7.413   1.771   2.376
10173TIP3    H130464   7.385   1.700   2.434
10173TIP3    H230465   7.461   1.831   2.434
10174TIP3   OH230466   1.074   6.367   5.660
10174TIP3    H130467   1.032   6.404   5.583
10174TIP3    H230468   1.027   6.407   5.734
10175TIP3   OH230469   5.060   5.831   2.902
10175TIP3    H130470   5.148   5.793   2.901
10175TIP3    H230471   5.010   5.779   2.839
10176TIP3   OH230472   0.800   2.159   1.004
10176TIP3    H130473   0.715   2.183   1.041
10176TIP3    H230474   0.781   2.133   0.914
10177TIP3   OH230475   7.888   1.319   3.928
10177TIP3    H130476   7.954   1.283   3.868
10177TIP3    H230477   7.834   1.376   3.873
10178TIP3   OH230478   6.078   3.369   5.780
10178TIP3    H130479   6.043   3.455   5.801
10178TIP3    H230480   6.003   3.320   5.745
10179TIP3   OH230481   6.475   5.488   4.682
10179TIP3    H130482   6.535   5.505   4.755
10179TIP3    H230483   6.456   5.574   4.646
10180TIP3   OH230484   3.500   4.376   4.717
10180TIP3    H130485   3.495   4.402   4.625
10180TIP3    H230486   3.499   4.458   4.765
10181TIP3   OH230487   4.444   1.613   1.664
10181TIP3    H130488   4.390   1.670   1.609
10181TIP3    H230489   4.522   1.597   1.612
10182TIP3   OH230490   4.272   7.402   2.830
10182TIP3    H130491   4.282   7.342   2.756
10182TIP3    H230492   4.209   7.359   2.887
10183TIP3   OH230493   1.688   4.530   0.141
10183TIP3    H130494   1.780   4.506   0.139
10183TIP3    H230495   1.673   4.561   0.231
10184TIP3   OH230496   3.416   7.609   2.331
10184TIP3    H130497   3.364   7.561   2.266
10184TIP3    H230498   3.507   7.590   2.307
10185TIP3   OH230499   7.310   1.245   2.106
10185TIP3    H130500   7.217   1.224   2.100
10185TIP3    H230501   7.313   1.340   2.109
10186TIP3   OH230502   4.995   3.157   0.631
10186TIP3    H130503   4.999   3.067   0.600
10186TIP3    H230504   4.985   3.149   0.726
10187TIP3   OH230505   0.227   0.777   3.376
10187TIP3    H130506   0.259   0.811   3.460
10187TIP3    H230507   0.229   0.682   3.385
10188TIP3   OH230508   6.243   5.271   2.675
10188TIP3    H130509   6.286   5.240   2.754
10188TIP3    H230510   6.294   5.348   2.648
10189TIP3   OH230511   5.758   3.013   1.499
10189TIP3    H130512   5.719   2.933   1.464
10189TIP3    H230513   5.686   3.076   1.501
10190TIP3   OH230514   5.178   6.621   0.120
10190TIP3    H130515   5.251   6.666   0.077
10190TIP3    H230516   5.208   6.605   0.209
10191TIP3   OH230517   2.668   2.360   3.934
10191TIP3    H130518   2.732   2.326   3.872
10191TIP3    H230519   2.708   2.343   4.020
10192TIP3   OH230520   4.401   0.997   4.540
10192TIP3    H130521   4.431   1.022   4.452
10192TIP3    H230522   4.306   0.985   4.530
10193TIP3   OH230523   2.348   0.897   0.353
10193TIP3    H130524   2.327   0.975   0.302
10193TIP3    H230525   2.270   0.880   0.405
10194TIP3   OH230526   3.932   5.969   1.566
10194TIP3    H130527   3.934   6.038   1.632
10194TIP3    H230528   3.921   5.888   1.617
10195TIP3   OH230529   3.319   7.582   4.157
10195TIP3    H130530   3.315   7.512   4.222
10195TIP3    H230531   3.323   7.537   4.073
10196TIP3   OH230532   1.022   5.988   3.052
10196TIP3    H130533   1.008   5.974   2.959
10196TIP3    H230534   0.934   5.989   3.090
10197TIP3   OH230535   0.435   6.844   0.156
10197TIP3    H130536   0.417   6.937   0.174
10197TIP3    H230537   0.508   6.822   0.214
10198TIP3   OH230538   3.188   3.479   5.500
10198TIP3    H130539   3.195   3.484   5.405
10198TIP3    H230540   3.212   3.388   5.521
10199TIP3   OH230541   0.853   3.782   1.793
10199TIP3    H130542   0.875   3.861   1.743
10199TIP3    H230543   0.851   3.810   1.884
10200TIP3   OH230544   3.331   6.831   0.270
10200TIP3    H130545   3.314   6.860   0.360
10200TIP3    H230546   3.385   6.753   0.279
10201TIP3   OH230547   0.360   1.620   4.169
10201TIP3    H130548   0.330   1.705   4.136
10201TIP3    H230549   0.326   1.556   4.106
10202TIP3   OH230550   2.964   4.870   1.018
10202TIP3    H130551   2.896   4.807   0.993
10202TIP3    H230552   3.036   4.855   0.957
10203TIP3   OH230553   7.380   2.242   6.243
10203TIP3    H130554   7.472   2.271   6.246
10203TIP3    H230555   7.353   2.257   6.153
10204TIP3   OH230556   3.713   0.594   6.411
10204TIP3    H130557   3.719   0.499   6.403
10204TIP3    H230558   3.785   0.618   6.470
10205TIP3   OH230559   0.599   6.407   0.391
10205TIP3    H130560   0.516   6.451   0.374
10205TIP3    H230561   0.632   6.448   0.472
10206TIP3   OH230562   5.262   6.361   4.592
10206TIP3    H130563   5.341   6.342   4.643
10206TIP3    H230564   5.239   6.451   4.615
10207TIP3   OH230565   1.625   1.527   4.743
10207TIP3    H130566   1.540   1.520   4.787
10207TIP3    H230567   1.630   1.450   4.687
10208TIP3   OH230568   2.610   6.674   0.872
10208TIP3    H130569   2.586   6.691   0.781
10208TIP3    H230570   2.618   6.762   0.911
10209TIP3   OH230571   0.850   4.940   6.159
10209TIP3    H130572   0.879   5.027   6.187
10209TIP3    H230573   0.863   4.884   6.235
10210TIP3   OH230574   5.338   2.187   0.040
10210TIP3    H130575   5.338   2.245   0.116
10210TIP3    H230576   5.330   2.246  -0.035
10211TIP3   OH230577   3.154   1.089   3.241
10211TIP3    H130578   3.085   1.143   3.204
10211TIP3    H230579   3.194   1.145   3.308
10212TIP3   OH230580   1.240   6.691   4.351
10212TIP3    H130581   1.181   6.678   4.277
10212TIP3    H230582   1.260   6.784   4.349
10213TIP3   OH230583   2.201   3.232   4.445
10213TIP3    H130584   2.165   3.241   4.533
10213TIP3    H230585   2.250   3.150   4.447
10214TIP3   OH230586   3.679   0.061   4.890
10214TIP3    H130587   3.751   0.025   4.838
10214TIP3    H230588   3.696   0.031   4.979
10215TIP3   OH230589   2.751   5.985   6.529
10215TIP3    H130590   2.671   6.003   6.479
10215TIP3    H230591   2.719   5.947   6.611
10216TIP3   OH230592   7.970   0.218   4.208
10216TIP3    H130593   7.966   0.311   4.228
10216TIP3    H230594   8.061   0.193   4.224
10217TIP3   OH230595   7.175   2.648   5.618
10217TIP3    H130596   7.122   2.613   5.547
10217TIP3    H230597   7.265   2.631   5.592
10218TIP3   OH230598   1.210   2.545   1.115
10218TIP3    H130599   1.190   2.636   1.094
10218TIP3    H230600   1.305   2.540   1.111
10219TIP3   OH230601   1.275   2.333   4.271
10219TIP3    H130602   1.313   2.283   4.198
10219TIP3    H230603   1.252   2.266   4.335
10220TIP3   OH230604   4.862   6.019   2.731
10220TIP3    H130605   4.947   6.059   2.714
10220TIP3    H230606   4.863   6.000   2.825
10221TIP3   OH230607   0.142   3.488   5.506
10221TIP3    H130608   0.215   3.504   5.566
10221TIP3    H230609   0.075   3.446   5.560
10222TIP3   OH230610   5.011   7.280   0.466
10222TIP3    H130611   5.019   7.278   0.371
10222TIP3    H230612   5.002   7.188   0.491
10223TIP3   OH230613   3.695   4.465   2.431
10223TIP3    H130614   3.785   4.465   2.463
10223TIP3    H230615   3.669   4.557   2.433
10224TIP3   OH230616   0.879   3.952   6.652
10224TIP3    H130617   0.861   3.869   6.608
10224TIP3    H230618   0.920   4.007   6.585
10225TIP3   OH230619   0.471   7.416   3.474
10225TIP3    H130620   0.530   7.373   3.411
10225TIP3    H230621   0.385   7.413   3.431
10226TIP3   OH230622   6.174   4.898   6.114
10226TIP3    H130623   6.234   4.958   6.069
10226TIP3    H230624   6.151   4.943   6.195
10227TIP3   OH230625   2.210   0.916   1.461
10227TIP3    H130626   2.172   0.839   1.420
10227TIP3    H230627   2.207   0.898   1.555
10228TIP3   OH230628   7.176   3.322   4.302
10228TIP3    H130629   7.162   3.238   4.260
10228TIP3    H230630   7.145   3.310   4.392
10229TIP3   OH230631   4.780   0.205   4.522
10229TIP3    H130632   4.792   0.119   4.483
10229TIP3    H230633   4.822   0.265   4.460
10230TIP3   OH230634   2.540   1.462   3.900
10230TIP3    H130635   2.572   1.496   3.984
10230TIP3    H230636   2.468   1.521   3.877
10231TIP3   OH230637   3.823   4.124   4.498
10231TIP3    H130638   3.825   4.074   4.579
10231TIP3    H230639   3.834   4.058   4.429
10232TIP3   OH230640   6.355   5.779   6.351
10232TIP3    H130641   6.362   5.871   6.376
10232TIP3    H230642   6.325   5.781   6.261
10233TIP3   OH230643   6.462   3.758   6.703
10233TIP3    H130644   6.471   3.794   6.792
10233TIP3    H230645   6.473   3.833   6.645
10234TIP3   OH230646   6.474   6.033   6.475
10234TIP3    H130647   6.516   6.083   6.545
10234TIP3    H230648   6.544   5.979   6.440
10235TIP3   OH230649   0.092   3.083   1.132
10235TIP3    H130650   0.100   3.016   1.064
10235TIP3    H230651   0.137   3.160   1.096
10236TIP3   OH230652   6.123   6.256   2.636
10236TIP3    H130653   6.157   6.322   2.696
10236TIP3    H230654   6.168   6.175   2.661
10237TIP3   OH230655   3.700   1.693   1.611
10237TIP3    H130656   3.730   1.676   1.522
10237TIP3    H230657   3.710   1.610   1.657
10238TIP3   OH230658   5.115   6.279   3.653
10238TIP3    H130659   5.177   6.351   3.662
10238TIP3    H230660   5.029   6.320   3.667
10239TIP3   OH230661   6.730   3.277   0.872
10239TIP3    H130662   6.807   3.262   0.817
10239TIP3    H230663   6.723   3.197   0.924
10240TIP3   OH230664   5.855   5.957   5.252
10240TIP3    H130665   5.818   6.021   5.313
10240TIP3    H230666   5.948   5.980   5.246
10241TIP3   OH230667   0.865   3.275   2.984
10241TIP3    H130668   0.787   3.289   3.038
10241TIP3    H230669   0.918   3.213   3.035
10242TIP3   OH230670   5.192   1.807   1.009
10242TIP3    H130671   5.141   1.862   0.950
10242TIP3    H230672   5.272   1.856   1.026
10243TIP3   OH230673   0.863   2.429   5.041
10243TIP3    H130674   0.865   2.458   5.132
10243TIP3    H230675   0.789   2.475   5.002
10244TIP3   OH230676   3.142   2.847   6.035
10244TIP3    H130677   3.215   2.872   5.978
10244TIP3    H230678   3.139   2.751   6.029
10245TIP3   OH230679   4.448   7.296   6.132
10245TIP3    H130680   4.402   7.357   6.190
10245TIP3    H230681   4.474   7.223   6.189
10246TIP3   OH230682   8.150   1.582   3.380
10246TIP3    H130683   8.066   1.625   3.398
10246TIP3    H230684   8.197   1.644   3.324
10247TIP3   OH230685   2.515   1.493   3.458
10247TIP3    H130686   2.559   1.578   3.456
10247TIP3    H230687   2.533   1.458   3.545
10248TIP3   OH230688   8.250   5.960   2.726
10248TIP3    H130689   8.197   5.881   2.719
10248TIP3    H230690   8.338   5.932   2.700
10249TIP3   OH230691   3.555   2.044   4.649
10249TIP3    H130692   3.477   2.017   4.601
10249TIP3    H230693   3.541   2.014   4.738
10250TIP3   OH230694   2.995   0.765   6.235
10250TIP3    H130695   2.934   0.835   6.212
10250TIP3    H230696   2.973   0.742   6.325
10251TIP3   OH230697   0.986   3.027   2.283
10251TIP3    H130698   0.907   2.974   2.279
10251TIP3    H230699   0.970   3.099   2.223
10252TIP3   OH230700   6.118   0.834   3.210
10252TIP3    H130701   6.060   0.798   3.277
10252TIP3    H230702   6.091   0.791   3.129
10253TIP3   OH230703   3.025   4.432   2.724
10253TIP3    H130704   2.991   4.486   2.652
10253TIP3    H230705   3.103   4.391   2.688
10254TIP3   OH230706   1.473   0.796   0.942
10254TIP3    H130707   1.409   0.868   0.941
10254TIP3    H230708   1.555   0.838   0.918
10255TIP3   OH230709   3.627   2.257   3.681
10255TIP3    H130710   3.564   2.256   3.753
10255TIP3    H230711   3.663   2.346   3.682
10256TIP3   OH230712   0.675   4.261   6.273
10256TIP3    H130713   0.622   4.182   6.289
10256TIP3    H230714   0.760   4.227   6.245
10257TIP3   OH230715   0.768   0.772   0.343
10257TIP3    H130716   0.762   0.682   0.375
10257TIP3    H230717   0.827   0.766   0.268
10258TIP3   OH230718   7.781   6.522   5.408
10258TIP3    H130719   7.748   6.434   5.389
10258TIP3    H230720   7.794   6.561   5.321
10259TIP3   OH230721   8.239   6.084   0.774
10259TIP3    H130722   8.276   6.072   0.687
10259TIP3    H230723   8.309   6.127   0.824
10260TIP3   OH230724   6.417   7.343   3.021
10260TIP3    H130725   6.414   7.307   3.110
10260TIP3    H230726   6.392   7.435   3.032
10261TIP3   OH230727   1.990   4.600   5.384
10261TIP3    H130728   2.004   4.695   5.378
10261TIP3    H230729   2.068   4.568   5.429
10262TIP3   OH230730   4.413   4.298   3.758
10262TIP3    H130731   4.349   4.259   3.817
10262TIP3    H230732   4.496   4.257   3.781
10263TIP3   OH230733   7.763   3.588   4.329
10263TIP3    H130734   7.726   3.596   4.417
10263TIP3    H230735   7.843   3.538   4.342
10264TIP3   OH230736   3.807   5.127   0.503
10264TIP3    H130737   3.796   5.152   0.411
10264TIP3    H230738   3.879   5.064   0.502
10265TIP3   OH230739   7.064   1.815   0.649
10265TIP3    H130740   7.064   1.820   0.553
10265TIP3    H230741   6.973   1.802   0.672
10266TIP3   OH230742   5.579   5.032   3.128
10266TIP3    H130743   5.642   4.973   3.087
10266TIP3    H230744   5.511   4.974   3.163
10267TIP3   OH230745   4.552   2.993   4.212
10267TIP3    H130746   4.585   3.083   4.209
10267TIP3    H230747   4.515   2.978   4.125
10268TIP3   OH230748   0.200   2.919   5.705
10268TIP3    H130749   0.108   2.937   5.727
10268TIP3    H230750   0.201   2.914   5.610
10269TIP3   OH230751   5.846   5.443   3.792
10269TIP3    H130752   5.913   5.452   3.724
10269TIP3    H230753   5.851   5.525   3.842
10270TIP3   OH230754   6.100   1.359   6.517
10270TIP3    H130755   6.125   1.379   6.427
10270TIP3    H230756   6.177   1.383   6.569
10271TIP3   OH230757   7.511   5.080   1.685
10271TIP3    H130758   7.508   5.172   1.710
10271TIP3    H230759   7.576   5.040   1.742
10272TIP3   OH230760   0.909   3.816   4.664
10272TIP3    H130761   0.967   3.740   4.659
10272TIP3    H230762   0.968   3.891   4.670
10273TIP3   OH230763   6.469   1.716   4.257
10273TIP3    H130764   6.508   1.736   4.171
10273TIP3    H230765   6.488   1.623   4.270
10274TIP3   OH230766   6.366   3.493   0.419
10274TIP3    H130767   6.424   3.437   0.471
10274TIP3    H230768   6.309   3.534   0.484
10275TIP3   OH230769   2.932   7.005   3.318
10275TIP3    H130770   2.878   6.966   3.387
10275TIP3    H230771   2.916   6.949   3.241
10276TIP3   OH230772   3.753   7.437   4.815
10276TIP3    H130773   3.711   7.513   4.774
10276TIP3    H230774   3.699   7.420   4.893
10277TIP3   OH230775   6.681   6.266   3.074
10277TIP3    H130776   6.767   6.297   3.045
10277TIP3    H230777   6.692   6.172   3.087
10278TIP3   OH230778   5.605   1.910   4.407
10278TIP3    H130779   5.615   1.846   4.336
10278TIP3    H230780   5.680   1.969   4.396
10279TIP3   OH230781   3.220   0.111   3.780
10279TIP3    H130782   3.193   0.043   3.842
10279TIP3    H230783   3.313   0.096   3.767
10280TIP3   OH230784   3.389   3.157   2.048
10280TIP3    H130785   3.403   3.067   2.018
10280TIP3    H230786   3.453   3.168   2.119
10281TIP3   OH230787   7.104   6.191   0.660
10281TIP3    H130788   7.107   6.199   0.564
10281TIP3    H230789   7.160   6.116   0.679
10282TIP3   OH230790   8.270   0.920   0.951
10282TIP3    H130791   8.276   0.874   0.867
10282TIP3    H230792   8.294   1.011   0.931
10283TIP3   OH230793   6.693   5.147   2.566
10283TIP3    H130794   6.782   5.153   2.532
10283TIP3    H230795   6.650   5.226   2.532
10284TIP3   OH230796   5.327   3.362   3.036
10284TIP3    H130797   5.418   3.341   3.012
10284TIP3    H230798   5.293   3.411   2.961
10285TIP3   OH230799   0.105   0.529   3.129
10285TIP3    H130800   0.156   0.557   3.205
10285TIP3    H230801   0.128   0.592   3.060
10286TIP3   OH230802   0.413   1.753   2.101
10286TIP3    H130803   0.500   1.789   2.119
10286TIP3    H230804   0.429   1.676   2.047
10287TIP3   OH230805   6.437   6.440   1.070
10287TIP3    H130806   6.372   6.426   1.139
10287TIP3    H230807   6.404   6.515   1.021
10288TIP3   OH230808   8.327   6.228   2.708
10288TIP3    H130809   8.252   6.280   2.737
10288TIP3    H230810   8.305   6.138   2.730
10289TIP3   OH230811   2.734   2.000   5.894
10289TIP3    H130812   2.736   1.960   5.981
10289TIP3    H230813   2.825   2.022   5.875
10290TIP3   OH230814   5.776   6.223   1.599
10290TIP3    H130815   5.855   6.207   1.547
10290TIP3    H230816   5.712   6.161   1.562
10291TIP3   OH230817   7.797   0.462   4.319
10291TIP3    H130818   7.821   0.492   4.406
10291TIP3    H230819   7.718   0.410   4.332
10292TIP3   OH230820   4.876   5.234   3.919
10292TIP3    H130821   4.903   5.146   3.945
10292TIP3    H230822   4.870   5.229   3.824
10293TIP3   OH230823   2.015   6.387   4.348
10293TIP3    H130824   1.959   6.365   4.422
10293TIP3    H230825   2.036   6.303   4.308
10294TIP3   OH230826   7.181   1.518   1.061
10294TIP3    H130827   7.254   1.570   1.028
10294TIP3    H230828   7.143   1.478   0.983
10295TIP3   OH230829   3.981   1.120   6.212
10295TIP3    H130830   3.959   1.053   6.277
10295TIP3    H230831   3.992   1.200   6.263
10296TIP3   OH230832   2.435   6.629   1.409
10296TIP3    H130833   2.498   6.572   1.453
10296TIP3    H230834   2.349   6.599   1.440
10297TIP3   OH230835   5.446   3.384   5.457
10297TIP3    H130836   5.493   3.323   5.514
10297TIP3    H230837   5.497   3.465   5.463
10298TIP3   OH230838   0.069   2.130   3.083
10298TIP3    H130839   0.092   2.054   3.031
10298TIP3    H230840   0.135   2.196   3.059
10299TIP3   OH230841   5.899   0.831   0.825
10299TIP3    H130842   5.939   0.796   0.745
10299TIP3    H230843   5.965   0.892   0.859
10300TIP3   OH230844   4.073   7.379   0.912
10300TIP3    H130845   4.066   7.354   1.004
10300TIP3    H230846   4.139   7.447   0.911
10301TIP3   OH230847   2.429   4.794   5.167
10301TIP3    H130848   2.421   4.700   5.148
10301TIP3    H230849   2.468   4.799   5.254
10302TIP3   OH230850   2.880   3.516   6.184
10302TIP3    H130851   2.835   3.536   6.266
10302TIP3    H230852   2.899   3.422   6.189
10303TIP3   OH230853   6.329   1.945   3.061
10303TIP3    H130854   6.406   1.908   3.105
10303TIP3    H230855   6.267   1.964   3.132
10304TIP3   OH230856   2.744   4.447   3.256
10304TIP3    H130857   2.673   4.497   3.296
10304TIP3    H230858   2.700   4.393   3.190
10305TIP3   OH230859   5.548   7.337   4.403
10305TIP3    H130860   5.588   7.401   4.345
10305TIP3    H230861   5.551   7.255   4.355
10306TIP3   OH230862   0.608   2.426   1.738
10306TIP3    H130863   0.595   2.354   1.800
10306TIP3    H230864   0.698   2.417   1.709
10307TIP3   OH230865   5.501   1.576   4.353
10307TIP3    H130866   5.596   1.588   4.350
10307TIP3    H230867   5.468   1.632   4.282
10308TIP3   OH230868   6.477   5.005   6.145
10308TIP3    H130869   6.448   5.046   6.227
10308TIP3    H230870   6.411   5.029   6.081
10309TIP3   OH230871   5.535   0.869   0.083
10309TIP3    H130872   5.489   0.789   0.110
10309TIP3    H230873   5.592   0.841   0.011
10310TIP3   OH230874   6.563   4.351   0.855
10310TIP3    H130875   6.596   4.340   0.944
10310TIP3    H230876   6.615   4.422   0.819
10311TIP3   OH230877   3.184   0.346   4.520
10311TIP3    H130878   3.225   0.398   4.589
10311TIP3    H230879   3.239   0.361   4.443
10312TIP3   OH230880   5.461   0.821   3.802
10312TIP3    H130881   5.495   0.867   3.880
10312TIP3    H230882   5.374   0.792   3.827
10313TIP3   OH230883   1.410   2.420   4.570
10313TIP3    H130884   1.394   2.487   4.503
10313TIP3    H230885   1.455   2.350   4.524
10314TIP3   OH230886   0.634   3.297   3.113
10314TIP3    H130887   0.596   3.213   3.139
10314TIP3    H230888   0.578   3.363   3.153
10315TIP3   OH230889   8.086   5.021   0.901
10315TIP3    H130890   8.135   5.104   0.893
10315TIP3    H230891   8.030   5.034   0.977
10316TIP3   OH230892   7.946   6.405   2.112
10316TIP3    H130893   7.925   6.497   2.096
10316TIP3    H230894   8.042   6.402   2.115
10317TIP3   OH230895   0.384   5.959   1.644
10317TIP3    H130896   0.405   5.884   1.588
10317TIP3    H230897   0.310   5.930   1.696
10318TIP3   OH230898   2.963   4.919   0.415
10318TIP3    H130899   3.051   4.943   0.446
10318TIP3    H230900   2.944   4.983   0.347
10319TIP3   OH230901   5.643   2.292   1.132
10319TIP3    H130902   5.660   2.385   1.141
10319TIP3    H230903   5.587   2.285   1.055
10320TIP3   OH230904   3.731   0.742   5.011
10320TIP3    H130905   3.651   0.791   5.029
10320TIP3    H230906   3.778   0.741   5.094
10321TIP3   OH230907   8.014   0.684   2.561
10321TIP3    H130908   7.929   0.640   2.554
10321TIP3    H230909   8.010   0.729   2.645
10322TIP3   OH230910   6.793   4.389   2.811
10322TIP3    H130911   6.887   4.372   2.798
10322TIP3    H230912   6.759   4.308   2.849
10323TIP3   OH230913   4.098   0.309   3.610
10323TIP3    H130914   4.093   0.335   3.702
10323TIP3    H230915   4.119   0.216   3.613
10324TIP3   OH230916   6.806   7.677   4.810
10324TIP3    H130917   6.802   7.589   4.774
10324TIP3    H230918   6.733   7.723   4.769
10325TIP3   OH230919   3.815   4.985   5.286
10325TIP3    H130920   3.863   5.052   5.335
10325TIP3    H230921   3.876   4.912   5.278
10326TIP3   OH230922   3.460   2.618   1.094
10326TIP3    H130923   3.444   2.537   1.143
10326TIP3    H230924   3.501   2.676   1.158
10327TIP3   OH230925   7.875   1.519   0.489
10327TIP3    H130926   7.911   1.601   0.454
10327TIP3    H230927   7.901   1.452   0.426
10328TIP3   OH230928   7.682   1.479   5.093
10328TIP3    H130929   7.645   1.403   5.137
10328TIP3    H230930   7.760   1.501   5.144
10329TIP3   OH230931   1.010   1.377   3.113
10329TIP3    H130932   0.970   1.291   3.099
10329TIP3    H230933   1.007   1.419   3.027
10330TIP3   OH230934   4.108   6.522   0.272
10330TIP3    H130935   4.165   6.501   0.346
10330TIP3    H230936   4.090   6.438   0.231
10331TIP3   OH230937   4.461   7.241   4.711
10331TIP3    H130938   4.435   7.221   4.621
10331TIP3    H230939   4.556   7.229   4.712
10332TIP3   OH230940   5.084   2.651   3.866
10332TIP3    H130941   5.038   2.643   3.782
10332TIP3    H230942   5.177   2.653   3.843
10333TIP3   OH230943   3.738   5.516   4.428
10333TIP3    H130944   3.747   5.608   4.453
10333TIP3    H230945   3.793   5.468   4.489
10334TIP3   OH230946   0.755   4.704   4.494
10334TIP3    H130947   0.677   4.724   4.547
10334TIP3    H230948   0.747   4.610   4.474
10335TIP3   OH230949   1.168   5.415   2.617
10335TIP3    H130950   1.220   5.373   2.685
10335TIP3    H230951   1.127   5.489   2.661
10336TIP3   OH230952   0.216   6.643   4.005
10336TIP3    H130953   0.182   6.605   3.924
10336TIP3    H230954   0.158   6.609   4.074
10337TIP3   OH230955   8.136   3.441   5.228
10337TIP3    H130956   8.114   3.417   5.138
10337TIP3    H230957   8.232   3.445   5.229
10338TIP3   OH230958   2.206   4.563   0.572
10338TIP3    H130959   2.111   4.552   0.562
10338TIP3    H230960   2.239   4.568   0.482
10339TIP3   OH230961   7.845   1.428   3.670
10339TIP3    H130962   7.826   1.432   3.577
10339TIP3    H230963   7.759   1.438   3.712
10340TIP3   OH230964   0.474   2.589   3.608
10340TIP3    H130965   0.531   2.512   3.615
10340TIP3    H230966   0.389   2.553   3.583
10341TIP3   OH230967   2.774   6.481   3.448
10341TIP3    H130968   2.765   6.544   3.376
10341TIP3    H230969   2.725   6.405   3.420
10342TIP3   OH230970   5.714   5.797   5.082
10342TIP3    H130971   5.660   5.777   5.159
10342TIP3    H230972   5.794   5.835   5.119
10343TIP3   OH230973   0.032   6.853   6.354
10343TIP3    H130974   0.071   6.805   6.280
10343TIP3    H230975   0.083   6.933   6.360
10344TIP3   OH230976   1.057   6.379   4.353
10344TIP3    H130977   1.063   6.460   4.302
10344TIP3    H230978   1.067   6.408   4.444
10345TIP3   OH230979   3.863   1.073   3.127
10345TIP3    H130980   3.829   0.986   3.105
10345TIP3    H230981   3.862   1.075   3.223
10346TIP3   OH230982   8.061   6.872   4.638
10346TIP3    H130983   8.121   6.821   4.585
10346TIP3    H230984   7.978   6.869   4.590
10347TIP3   OH230985   4.597   3.010   0.091
10347TIP3    H130986   4.625   2.952   0.161
10347TIP3    H230987   4.548   2.954   0.031
10348TIP3   OH230988   7.625   6.508   2.517
10348TIP3    H130989   7.596   6.418   2.504
10348TIP3    H230990   7.675   6.528   2.438
10349TIP3   OH230991   4.822   5.624   1.601
10349TIP3    H130992   4.886   5.594   1.536
10349TIP3    H230993   4.859   5.597   1.685
10350TIP3   OH230994   3.122   6.044   4.193
10350TIP3    H130995   3.159   5.974   4.139
10350TIP3    H230996   3.175   6.042   4.273
10351TIP3   OH230997   2.007   4.798   0.070
10351TIP3    H130998   1.915   4.811   0.093
10351TIP3    H230999   2.048   4.883   0.086
10352TIP3   OH231000   7.216   7.185   0.611
10352TIP3    H131001   7.208   7.280   0.604
10352TIP3    H231002   7.129   7.151   0.590
10353TIP3   OH231003   2.943   3.309   3.329
10353TIP3    H131004   2.906   3.374   3.269
10353TIP3    H231005   2.991   3.249   3.272
10354TIP3   OH231006   6.743   3.426   1.265
10354TIP3    H131007   6.672   3.465   1.214
10354TIP3    H231008   6.720   3.445   1.356
10355TIP3   OH231009   1.099   0.445   1.820
10355TIP3    H131010   1.157   0.408   1.886
10355TIP3    H231011   1.019   0.468   1.868
10356TIP3   OH231012   1.120   1.698   3.582
10356TIP3    H131013   1.089   1.788   3.598
10356TIP3    H231014   1.044   1.643   3.599
10357TIP3   OH231015   4.003   2.680   3.677
10357TIP3    H131016   4.092   2.699   3.648
10357TIP3    H231017   3.998   2.716   3.765
10358TIP3   OH231018   4.674   6.447   1.177
10358TIP3    H131019   4.746   6.432   1.238
10358TIP3    H231020   4.662   6.363   1.133
10359TIP3   OH231021   1.719   4.240   2.367
10359TIP3    H131022   1.737   4.148   2.347
10359TIP3    H231023   1.804   4.283   2.358
10360TIP3   OH231024   5.162   0.676   5.500
10360TIP3    H131025   5.239   0.619   5.490
10360TIP3    H231026   5.097   0.640   5.440
10361TIP3   OH231027   3.591   0.611   1.788
10361TIP3    H131028   3.624   0.664   1.860
10361TIP3    H231029   3.529   0.551   1.829
10362TIP3   OH231030   4.004   0.290   5.611
10362TIP3    H131031   3.962   0.364   5.567
10362TIP3    H231032   4.009   0.316   5.703
10363TIP3   OH231033   4.974   6.859   3.944
10363TIP3    H131034   5.016   6.805   3.877
10363TIP3    H231035   5.044   6.880   4.006
10364TIP3   OH231036   1.576   4.516   4.222
10364TIP3    H131037   1.655   4.529   4.170
10364TIP3    H231038   1.515   4.470   4.163
10365TIP3   OH231039   1.429   4.425   4.626
10365TIP3    H131040   1.465   4.499   4.576
10365TIP3    H231041   1.490   4.413   4.699
10366TIP3   OH231042   8.122   5.480   1.578
10366TIP3    H131043   8.168   5.470   1.661
10366TIP3    H231044   8.034   5.509   1.602
10367TIP3   OH231045   1.779   2.893   5.337
10367TIP3    H131046   1.797   2.833   5.264
10367TIP3    H231047   1.692   2.927   5.319
10368TIP3   OH231048   6.952   7.839   3.279
10368TIP3    H131049   6.961   7.763   3.337
10368TIP3    H231050   7.015   7.824   3.209
10369TIP3   OH231051   1.037   6.179   6.054
10369TIP3    H131052   0.991   6.118   6.111
10369TIP3    H231053   1.056   6.254   6.111
10370TIP3   OH231054   0.216   6.554   3.669
10370TIP3    H131055   0.149   6.520   3.728
10370TIP3    H231056   0.291   6.496   3.683
10371TIP3   OH231057   3.517   5.354   1.398
10371TIP3    H131058   3.595   5.409   1.386
10371TIP3    H231059   3.446   5.417   1.410
10372TIP3   OH231060   4.670   6.071   0.916
10372TIP3    H131061   4.757   6.052   0.950
10372TIP3    H231062   4.636   5.986   0.888
10373TIP3   OH231063   2.231   6.115   0.919
10373TIP3    H131064   2.188   6.113   1.005
10373TIP3    H231065   2.310   6.168   0.934
10374TIP3   OH231066   6.610   6.374   0.207
10374TIP3    H131067   6.627   6.357   0.300
10374TIP3    H231068   6.549   6.447   0.207
10375TIP3   OH231069   5.654   1.175   2.993
10375TIP3    H131070   5.650   1.080   2.992
10375TIP3    H231071   5.602   1.201   3.070
10376TIP3   OH231072   1.433   5.817   1.072
10376TIP3    H131073   1.398   5.844   0.987
10376TIP3    H231074   1.395   5.731   1.088
10377TIP3   OH231075   0.399   2.710   4.271
10377TIP3    H131076   0.430   2.780   4.214
10377TIP3    H231077   0.467   2.702   4.338
10378TIP3   OH231078   2.942   7.569   5.666
10378TIP3    H131079   2.891   7.502   5.711
10378TIP3    H231080   2.992   7.612   5.736
10379TIP3   OH231081   4.234   6.365   5.844
10379TIP3    H131082   4.297   6.304   5.882
10379TIP3    H231083   4.214   6.329   5.758
10380TIP3   OH231084   1.664   3.831   5.602
10380TIP3    H131085   1.570   3.816   5.612
10380TIP3    H231086   1.695   3.755   5.552
10381TIP3   OH231087   4.866   6.603   5.300
10381TIP3    H131088   4.779   6.573   5.326
10381TIP3    H231089   4.893   6.662   5.371
10382TIP3   OH231090   8.220   5.697   1.940
10382TIP3    H131091   8.201   5.730   1.852
10382TIP3    H231092   8.315   5.686   1.941
10383TIP3   OH231093   3.805   3.232   3.317
10383TIP3    H131094   3.859   3.236   3.237
10383TIP3    H231095   3.868   3.210   3.386
10384TIP3   OH231096   8.100   4.482   0.181
10384TIP3    H131097   8.159   4.510   0.111
10384TIP3    H231098   8.021   4.453   0.136
10385TIP3   OH231099   1.499   5.944   0.051
10385TIP3    H131100   1.483   5.881   0.122
10385TIP3    H231101   1.581   5.915   0.011
10386TIP3   OH231102   2.328   1.468   6.066
10386TIP3    H131103   2.409   1.509   6.036
10386TIP3    H231104   2.276   1.455   5.987
10387TIP3   OH231105   2.380   1.710   2.779
10387TIP3    H131106   2.429   1.733   2.858
10387TIP3    H231107   2.444   1.668   2.722
10388TIP3   OH231108   1.830   1.244   2.196
10388TIP3    H131109   1.925   1.247   2.186
10388TIP3    H231110   1.815   1.269   2.287
10389TIP3   OH231111   3.482   6.838   2.111
10389TIP3    H131112   3.439   6.923   2.119
10389TIP3    H231113   3.432   6.791   2.044
10390TIP3   OH231114   5.532   1.476   4.983
10390TIP3    H131115   5.535   1.473   4.887
10390TIP3    H231116   5.558   1.566   5.005
10391TIP3   OH231117   3.077   0.040   0.032
10391TIP3    H131118   3.155   0.089   0.008
10391TIP3    H231119   3.096   0.004   0.119
10392TIP3   OH231120   3.915   0.647   6.603
10392TIP3    H131121   3.990   0.699   6.575
10392TIP3    H231122   3.953   0.567   6.641
10393TIP3   OH231123   4.459   5.870   5.145
10393TIP3    H131124   4.483   5.791   5.097
10393TIP3    H231125   4.542   5.917   5.158
10394TIP3   OH231126   3.316   4.443   5.593
10394TIP3    H131127   3.314   4.539   5.598
10394TIP3    H231128   3.386   4.424   5.531
10395TIP3   OH231129   3.743   1.013   0.554
10395TIP3    H131130   3.698   1.091   0.588
10395TIP3    H231131   3.679   0.972   0.495
10396TIP3   OH231132   0.306   7.706   0.266
10396TIP3    H131133   0.280   7.649   0.338
10396TIP3    H231134   0.360   7.651   0.209
10397TIP3   OH231135   6.888   4.324   5.155
10397TIP3    H131136   6.809   4.358   5.199
10397TIP3    H231137   6.936   4.403   5.130
10398TIP3   OH231138   0.194   5.188   5.959
10398TIP3    H131139   0.220   5.275   5.930
10398TIP3    H231140   0.204   5.133   5.881
10399TIP3   OH231141   0.643   5.793   4.652
10399TIP3    H131142   0.668   5.885   4.658
10399TIP3    H231143   0.726   5.746   4.649
10400TIP3   OH231144   5.865   5.488   0.141
10400TIP3    H131145   5.902   5.424   0.202
10400TIP3    H231146   5.803   5.538   0.193
10401TIP3   OH231147   1.551   0.484   4.672
10401TIP3    H131148   1.460   0.481   4.640
10401TIP3    H231149   1.603   0.460   4.595
10402TIP3   OH231150   6.710   2.996   0.925
10402TIP3    H131151   6.771   2.923   0.918
10402TIP3    H231152   6.652   2.987   0.850
10403TIP3   OH231153   6.671   2.535   3.575
10403TIP3    H131154   6.684   2.480   3.498
10403TIP3    H231155   6.576   2.543   3.584
10404TIP3   OH231156   3.770   1.955   4.457
10404TIP3    H131157   3.847   1.978   4.509
10404TIP3    H231158   3.700   2.010   4.492
10405TIP3   OH231159   2.712   3.969   1.041
10405TIP3    H131160   2.659   3.948   0.963
10405TIP3    H231161   2.789   3.914   1.032
10406TIP3   OH231162   2.701   6.993   3.985
10406TIP3    H131163   2.610   6.968   3.968
10406TIP3    H231164   2.739   6.918   4.031
10407TIP3   OH231165   2.211   6.899   1.940
10407TIP3    H131166   2.178   6.836   2.003
10407TIP3    H231167   2.211   6.983   1.987
10408TIP3   OH231168   3.629   7.096   4.587
10408TIP3    H131169   3.550   7.147   4.609
10408TIP3    H231170   3.693   7.162   4.560
10409TIP3   OH231171   4.130   5.154   3.764
10409TIP3    H131172   4.102   5.176   3.853
10409TIP3    H231173   4.091   5.069   3.746
10410TIP3   OH231174   6.637   6.604   4.863
10410TIP3    H131175   6.653   6.556   4.782
10410TIP3    H231176   6.545   6.588   4.883
10411TIP3   OH231177   4.042   1.659   0.110
10411TIP3    H131178   4.006   1.582   0.155
10411TIP3    H231179   4.117   1.685   0.164
10412TIP3   OH231180   8.093   7.762   2.058
10412TIP3    H131181   8.170   7.771   2.003
10412TIP3    H231182   8.019   7.783   2.001
10413TIP3   OH231183   1.924   5.058   0.218
10413TIP3    H131184   1.876   4.977   0.204
10413TIP3    H231185   1.857   5.123   0.238
10414TIP3   OH231186   1.263   4.538   0.835
10414TIP3    H131187   1.270   4.549   0.930
10414TIP3    H231188   1.228   4.450   0.823
10415TIP3   OH231189   5.570   3.850   6.430
10415TIP3    H131190   5.595   3.876   6.342
10415TIP3    H231191   5.485   3.893   6.444
10416TIP3   OH231192   6.222   4.384   3.497
10416TIP3    H131193   6.181   4.312   3.449
10416TIP3    H231194   6.215   4.459   3.437
10417TIP3   OH231195   2.399   4.226   0.340
10417TIP3    H131196   2.428   4.135   0.342
10417TIP3    H231197   2.440   4.262   0.261
10418TIP3   OH231198   3.522   0.293   3.194
10418TIP3    H131199   3.512   0.215   3.140
10418TIP3    H231200   3.529   0.261   3.283
10419TIP3   OH231201   5.380   4.866   3.275
10419TIP3    H131202   5.428   4.821   3.345
10419TIP3    H231203   5.314   4.803   3.246
10420TIP3   OH231204   1.444   5.366   1.676
10420TIP3    H131205   1.513   5.300   1.671
10420TIP3    H231206   1.462   5.426   1.604
10421TIP3   OH231207   6.557   7.336   2.302
10421TIP3    H131208   6.498   7.397   2.259
10421TIP3    H231209   6.627   7.390   2.338
10422TIP3   OH231210   2.072   6.276   1.535
10422TIP3    H131211   2.060   6.255   1.627
10422TIP3    H231212   2.167   6.280   1.524
10423TIP3   OH231213   2.856   4.213   3.388
10423TIP3    H131214   2.825   4.293   3.345
10423TIP3    H231215   2.920   4.176   3.327
10424TIP3   OH231216   7.017   5.553   0.338
10424TIP3    H131217   6.959   5.627   0.322
10424TIP3    H231218   7.077   5.553   0.264
10425TIP3   OH231219   2.319   6.469   4.559
10425TIP3    H131220   2.362   6.511   4.633
10425TIP3    H231221   2.290   6.384   4.593
10426TIP3   OH231222   2.885   3.442   6.602
10426TIP3    H131223   2.961   3.410   6.553
10426TIP3    H231224   2.827   3.477   6.534
10427TIP3   OH231225   7.007   4.455   4.789
10427TIP3    H131226   6.958   4.423   4.714
10427TIP3    H231227   6.998   4.386   4.855
10428TIP3   OH231228   6.598   4.913   1.153
10428TIP3    H131229   6.630   4.875   1.235
10428TIP3    H231230   6.676   4.953   1.114
10429TIP3   OH231231   1.647   6.491   2.620
10429TIP3    H131232   1.577   6.469   2.681
10429TIP3    H231233   1.705   6.549   2.670
10430TIP3   OH231234   0.258   1.643   2.741
10430TIP3    H131235   0.286   1.585   2.670
10430TIP3    H231236   0.336   1.655   2.794
10431TIP3   OH231237   3.638   1.081   6.385
10431TIP3    H131238   3.699   1.020   6.343
10431TIP3    H231239   3.619   1.041   6.470
10432TIP3   OH231240   6.487   1.352   5.034
10432TIP3    H131241   6.463   1.335   4.943
10432TIP3    H231242   6.426   1.420   5.063
10433TIP3   OH231243   4.738   1.433   3.141
10433TIP3    H131244   4.798   1.375   3.094
10433TIP3    H231245   4.767   1.521   3.115
10434TIP3   OH231246   7.116   2.384   1.585
10434TIP3    H131247   7.055   2.417   1.650
10434TIP3    H231248   7.143   2.298   1.618
10435TIP3   OH231249   4.949   7.624   3.149
10435TIP3    H131250   4.997   7.572   3.212
10435TIP3    H231251   4.922   7.702   3.197
10436TIP3   OH231252   1.417   1.644   0.127
10436TIP3    H131253   1.336   1.660   0.175
10436TIP3    H231254   1.456   1.568   0.171
10437TIP3   OH231255   0.674   1.464   3.379
10437TIP3    H131256   0.624   1.540   3.348
10437TIP3    H231257   0.687   1.411   3.301
10438TIP3   OH231258   3.405   4.200   1.568
10438TIP3    H131259   3.367   4.233   1.487
10438TIP3    H231260   3.458   4.125   1.541
10439TIP3   OH231261   1.238   0.379   3.179
10439TIP3    H131262   1.222   0.455   3.234
10439TIP3    H231263   1.251   0.415   3.091
10440TIP3   OH231264   0.317   5.353   2.363
10440TIP3    H131265   0.226   5.336   2.389
10440TIP3    H231266   0.345   5.424   2.421
10441TIP3   OH231267   7.956   3.957   0.256
10441TIP3    H131268   7.987   4.019   0.322
10441TIP3    H231269   7.967   3.871   0.295
10442TIP3   OH231270   0.161   3.794   5.558
10442TIP3    H131271   0.237   3.844   5.529
10442TIP3    H231272   0.148   3.729   5.489
10443TIP3   OH231273   0.558   5.917   3.613
10443TIP3    H131274   0.606   5.980   3.667
10443TIP3    H231275   0.586   5.831   3.646
10444TIP3   OH231276   0.679   4.940   1.560
10444TIP3    H131277   0.613   4.890   1.512
10444TIP3    H231278   0.678   4.903   1.648
10445TIP3   OH231279   2.811   5.777   0.936
10445TIP3    H131280   2.836   5.716   1.006
10445TIP3    H231281   2.750   5.838   0.978
10446TIP3   OH231282   7.438   3.646   2.799
10446TIP3    H131283   7.514   3.703   2.812
10446TIP3    H231284   7.419   3.651   2.706
10447TIP3   OH231285   6.807   4.255   5.629
10447TIP3    H131286   6.866   4.281   5.558
10447TIP3    H231287   6.765   4.175   5.598
10448TIP3   OH231288   3.397   5.796   6.421
10448TIP3    H131289   3.313   5.751   6.416
10448TIP3    H231290   3.433   5.788   6.332
10449TIP3   OH231291   6.077   6.264   6.516
10449TIP3    H131292   6.054   6.357   6.512
10449TIP3    H231293   6.165   6.263   6.554
10450TIP3   OH231294   6.100   0.685   2.992
10450TIP3    H131295   6.080   0.679   2.899
10450TIP3    H231296   6.142   0.602   3.014
10451TIP3   OH231297   7.020   6.068   6.101
10451TIP3    H131298   7.064   6.144   6.064
10451TIP3    H231299   6.982   6.023   6.025
10452TIP3   OH231300   3.839   6.914   4.717
10452TIP3    H131301   3.842   6.868   4.801
10452TIP3    H231302   3.747   6.940   4.707
10453TIP3   OH231303   5.730   4.684  -0.006
10453TIP3    H131304   5.646   4.705   0.036
10453TIP3    H231305   5.752   4.597   0.028
10454TIP3   OH231306   3.980   4.900   0.511
10454TIP3    H131307   4.069   4.873   0.486
10454TIP3    H231308   3.923   4.841   0.462
10455TIP3   OH231309   1.415   3.230   6.018
10455TIP3    H131310   1.428   3.139   6.043
10455TIP3    H231311   1.336   3.230   5.964
10456TIP3   OH231312   3.558   6.365   4.770
10456TIP3    H131313   3.558   6.452   4.730
10456TIP3    H231314   3.637   6.323   4.737
10457TIP3   OH231315   2.373   4.393   6.741
10457TIP3    H131316   2.332   4.364   6.822
10457TIP3    H231317   2.383   4.487   6.752
10458TIP3   OH231318   3.005   5.763   2.824
10458TIP3    H131319   2.986   5.738   2.914
10458TIP3    H231320   2.920   5.759   2.780
10459TIP3   OH231321   3.105   2.768   2.479
10459TIP3    H131322   3.118   2.675   2.498
10459TIP3    H231323   3.142   2.780   2.392
10460TIP3   OH231324   4.399   4.292   4.414
10460TIP3    H131325   4.447   4.252   4.486
10460TIP3    H231326   4.307   4.270   4.430
10461TIP3   OH231327   5.150   6.410   2.406
10461TIP3    H131328   5.098   6.340   2.444
10461TIP3    H231329   5.229   6.413   2.460
10462TIP3   OH231330   6.803   3.721   0.124
10462TIP3    H131331   6.730   3.781   0.108
10462TIP3    H231332   6.833   3.696   0.036
10463TIP3   OH231333   5.283   4.701   5.474
10463TIP3    H131334   5.244   4.680   5.389
10463TIP3    H231335   5.209   4.716   5.532
10464TIP3   OH231336   0.284   7.027   1.835
10464TIP3    H131337   0.344   6.975   1.780
10464TIP3    H231338   0.316   7.014   1.924
10465TIP3   OH231339   2.141   3.942   4.588
10465TIP3    H131340   2.235   3.947   4.570
10465TIP3    H231341   2.100   3.986   4.514
10466TIP3   OH231342   7.234   4.294   1.980
10466TIP3    H131343   7.201   4.376   1.943
10466TIP3    H231344   7.181   4.226   1.939
10467TIP3   OH231345   2.924   0.931   2.257
10467TIP3    H131346   2.977   0.995   2.209
10467TIP3    H231347   2.866   0.985   2.312
10468TIP3   OH231348   1.266   2.748   3.846
10468TIP3    H131349   1.232   2.717   3.762
10468TIP3    H231350   1.318   2.674   3.880
10469TIP3   OH231351   7.821   5.301   5.362
10469TIP3    H131352   7.775   5.231   5.407
10469TIP3    H231353   7.880   5.337   5.428
10470TIP3   OH231354   0.961   2.835   0.024
10470TIP3    H131355   0.949   2.762  -0.036
10470TIP3    H231356   0.944   2.798   0.111
10471TIP3   OH231357   5.444   2.076   5.215
10471TIP3    H131358   5.529   2.086   5.258
10471TIP3    H231359   5.384   2.055   5.286
10472TIP3   OH231360   3.946   5.082   6.308
10472TIP3    H131361   4.003   5.139   6.256
10472TIP3    H231362   3.939   5.002   6.256
10473TIP3   OH231363   6.429   2.278   1.894
10473TIP3    H131364   6.494   2.295   1.962
10473TIP3    H231365   6.394   2.364   1.872
10474TIP3   OH231366   4.991   5.917   3.761
10474TIP3    H131367   4.954   5.875   3.683
10474TIP3    H231368   5.036   5.995   3.727
10475TIP3   OH231369   4.442   2.135   0.981
10475TIP3    H131370   4.369   2.186   1.015
10475TIP3    H231371   4.401   2.059   0.940
10476TIP3   OH231372   2.024   1.153   1.342
10476TIP3    H131373   2.069   1.081   1.387
10476TIP3    H231374   1.934   1.122   1.334
10477TIP3   OH231375   5.949   0.104   4.363
10477TIP3    H131376   6.035   0.117   4.324
10477TIP3    H231377   5.958   0.139   4.452
10478TIP3   OH231378   1.323   4.307   1.760
10478TIP3    H131379   1.245   4.335   1.808
10478TIP3    H231380   1.370   4.388   1.742
10479TIP3   OH231381   2.907   6.886   4.764
10479TIP3    H131382   2.962   6.843   4.698
10479TIP3    H231383   2.842   6.820   4.788
10480TIP3   OH231384   7.842   4.898   4.977
10480TIP3    H131385   7.884   4.826   5.024
10480TIP3    H231386   7.804   4.952   5.047
10481TIP3   OH231387   1.943   1.417   3.516
10481TIP3    H131388   1.920   1.369   3.596
10481TIP3    H231389   1.910   1.362   3.445
10482TIP3   OH231390   6.553   7.071   2.462
10482TIP3    H131391   6.573   6.993   2.410
10482TIP3    H231392   6.522   7.134   2.398
10483TIP3   OH231393   0.947   0.699   6.210
10483TIP3    H131394   0.885   0.676   6.140
10483TIP3    H231395   1.033   0.681   6.173
10484TIP3   OH231396   1.847   0.165   2.456
10484TIP3    H131397   1.822   0.073   2.463
10484TIP3    H231398   1.849   0.182   2.362
10485TIP3   OH231399   6.027   2.352   6.676
10485TIP3    H131400   6.079   2.432   6.677
10485TIP3    H231401   6.014   2.331   6.768
10486TIP3   OH231402   5.349   0.747   3.058
10486TIP3    H131403   5.335   0.840   3.038
10486TIP3    H231404   5.394   0.747   3.143
10487TIP3   OH231405   1.463   0.627   3.751
10487TIP3    H131406   1.476   0.704   3.805
10487TIP3    H231407   1.383   0.646   3.701
10488TIP3   OH231408   3.943   6.214   0.059
10488TIP3    H131409   4.011   6.164   0.105
10488TIP3    H231410   3.907   6.272   0.126
10489TIP3   OH231411   0.174   5.594   1.886
10489TIP3    H131412   0.162   5.531   1.957
10489TIP3    H231413   0.265   5.583   1.860
10490TIP3   OH231414   5.408   5.573   6.110
10490TIP3    H131415   5.409   5.646   6.048
10490TIP3    H231416   5.324   5.531   6.096
10491TIP3   OH231417   0.080   2.725   6.694
10491TIP3    H131418   0.158   2.687   6.653
10491TIP3    H231419   0.103   2.817   6.708
10492TIP3   OH231420   7.256   5.887   1.285
10492TIP3    H131421   7.286   5.939   1.211
10492TIP3    H231422   7.332   5.880   1.342
10493TIP3   OH231423   2.491   2.248   1.164
10493TIP3    H131424   2.501   2.154   1.182
10493TIP3    H231425   2.461   2.252   1.073
10494TIP3   OH231426   4.579   7.678   1.982
10494TIP3    H131427   4.526   7.684   1.902
10494TIP3    H231428   4.608   7.768   1.997
10495TIP3   OH231429   0.016   0.509   2.827
10495TIP3    H131430  -0.003   0.538   2.738
10495TIP3    H231431   0.094   0.560   2.852
10496TIP3   OH231432   7.389   1.122   1.437
10496TIP3    H131433   7.344   1.113   1.521
10496TIP3    H231434   7.453   1.192   1.452
10497TIP3   OH231435   4.279   3.230   1.724
10497TIP3    H131436   4.323   3.248   1.641
10497TIP3    H231437   4.291   3.309   1.776
10498TIP3   OH231438   1.351   7.665   5.493
10498TIP3    H131439   1.317   7.611   5.421
10498TIP3    H231440   1.401   7.603   5.547
10499TIP3   OH231441   0.006   1.775   6.386
10499TIP3    H131442  -0.016   1.700   6.331
10499TIP3    H231443   0.080   1.817   6.343
10500TIP3   OH231444   4.191   1.980   3.211
10500TIP3    H131445   4.244   2.010   3.138
10500TIP3    H231446   4.204   2.047   3.279
10501TIP3   OH231447   1.723   4.852   3.458
10501TIP3    H131448   1.717   4.764   3.496
10501TIP3    H231449   1.806   4.887   3.491
10502TIP3   OH231450   1.115   7.390   0.555
10502TIP3    H131451   1.144   7.323   0.493
10502TIP3    H231452   1.191   7.448   0.564
10503TIP3   OH231453   0.019   1.476   2.174
10503TIP3    H131454  -0.043   1.480   2.247
10503TIP3    H231455   0.049   1.385   2.173
10504TIP3   OH231456   1.144   6.887   5.627
10504TIP3    H131457   1.223   6.833   5.618
10504TIP3    H231458   1.080   6.830   5.667
10505TIP3   OH231459   3.980   0.094   5.011
10505TIP3    H131460   3.900   0.142   5.035
10505TIP3    H231461   3.960   0.003   5.034
10506TIP3   OH231462   6.622   4.328   2.492
10506TIP3    H131463   6.647   4.355   2.580
10506TIP3    H231464   6.578   4.244   2.504
10507TIP3   OH231465   5.478   3.127   3.822
10507TIP3    H131466   5.551   3.081   3.782
10507TIP3    H231467   5.516   3.207   3.857
10508TIP3   OH231468   7.189   5.302   0.145
10508TIP3    H131469   7.193   5.395   0.124
10508TIP3    H231470   7.138   5.298   0.226
10509TIP3   OH231471   2.526   0.371   3.093
10509TIP3    H131472   2.563   0.370   3.181
10509TIP3    H231473   2.603   0.376   3.035
10510TIP3   OH231474   4.940   1.757   1.827
10510TIP3    H131475   4.890   1.773   1.908
10510TIP3    H231476   4.879   1.780   1.757
10511TIP3   OH231477   6.995   1.538   3.413
10511TIP3    H131478   7.019   1.462   3.466
10511TIP3    H231479   7.071   1.553   3.357
10512TIP3   OH231480   6.886   4.800   6.669
10512TIP3    H131481   6.859   4.739   6.600
10512TIP3    H231482   6.824   4.872   6.663
10513TIP3   OH231483   0.607   3.386   2.593
10513TIP3    H131484   0.644   3.320   2.652
10513TIP3    H231485   0.572   3.453   2.652
10514TIP3   OH231486   3.314   2.765   2.814
10514TIP3    H131487   3.304   2.710   2.892
10514TIP3    H231488   3.339   2.851   2.848
10515TIP3   OH231489   8.154   1.279   3.024
10515TIP3    H131490   8.135   1.216   2.954
10515TIP3    H231491   8.247   1.266   3.044
10516TIP3   OH231492   6.082   5.424   3.682
10516TIP3    H131493   6.078   5.355   3.616
10516TIP3    H231494   6.159   5.476   3.659
10517TIP3   OH231495   7.613   1.456   1.184
10517TIP3    H131496   7.657   1.371   1.182
10517TIP3    H231497   7.662   1.508   1.248
10518TIP3   OH231498   2.089   6.145   5.724
10518TIP3    H131499   2.139   6.221   5.756
10518TIP3    H231500   2.134   6.069   5.761
10519TIP3   OH231501   1.734   3.692   2.744
10519TIP3    H131502   1.803   3.642   2.700
10519TIP3    H231503   1.746   3.782   2.713
10520TIP3   OH231504   1.715   5.228   0.294
10520TIP3    H131505   1.622   5.247   0.307
10520TIP3    H231506   1.755   5.244   0.380
10521TIP3   OH231507   1.545   7.246   5.508
10521TIP3    H131508   1.482   7.194   5.558
10521TIP3    H231509   1.630   7.226   5.548
10522TIP3   OH231510   1.131   0.025   3.310
10522TIP3    H131511   1.218   0.055   3.337
10522TIP3    H231512   1.140  -0.070   3.301
10523TIP3   OH231513   2.276   5.192   5.626
10523TIP3    H131514   2.207   5.237   5.576
10523TIP3    H231515   2.343   5.171   5.562
10524TIP3   OH231516   1.678   0.377   4.898
10524TIP3    H131517   1.624   0.430   4.840
10524TIP3    H231518   1.767   0.387   4.864
10525TIP3   OH231519   8.097   1.304   3.334
10525TIP3    H131520   8.096   1.332   3.242
10525TIP3    H231521   8.143   1.375   3.380
10526TIP3   OH231522   4.364   4.530   2.970
10526TIP3    H131523   4.360   4.624   2.952
10526TIP3    H231524   4.349   4.523   3.064
10527TIP3   OH231525   0.544   0.395   4.754
10527TIP3    H131526   0.479   0.332   4.723
10527TIP3    H231527   0.603   0.344   4.808
10528TIP3   OH231528   4.639   0.404   4.015
10528TIP3    H131529   4.547   0.378   4.010
10528TIP3    H231530   4.686   0.334   3.971
10529TIP3   OH231531   6.389   5.465   2.287
10529TIP3    H131532   6.322   5.529   2.309
10529TIP3    H231533   6.345   5.404   2.227
10530TIP3   OH231534   2.374   0.496   6.610
10530TIP3    H131535   2.304   0.430   6.615
10530TIP3    H231536   2.419   0.477   6.528
10531TIP3   OH231537   3.709   3.246   5.628
10531TIP3    H131538   3.782   3.279   5.681
10531TIP3    H231539   3.631   3.268   5.679
10532TIP3   OH231540   1.836   0.061   5.404
10532TIP3    H131541   1.918   0.051   5.452
10532TIP3    H231542   1.841   0.149   5.367
10533TIP3   OH231543   5.485   0.113   4.520
10533TIP3    H131544   5.538   0.070   4.587
10533TIP3    H231545   5.399   0.071   4.527
10534TIP3   OH231546   5.929   7.504   4.133
10534TIP3    H131547   5.996   7.460   4.184
10534TIP3    H231548   5.964   7.505   4.043
10535TIP3   OH231549   1.955   6.445   5.806
10535TIP3    H131550   1.965   6.455   5.901
10535TIP3    H231551   1.892   6.375   5.796
10536TIP3   OH231552   7.045   5.062   6.676
10536TIP3    H131553   7.081   5.018   6.598
10536TIP3    H231554   7.059   4.999   6.747
10537TIP3   OH231555   2.181   2.896   5.760
10537TIP3    H131556   2.236   2.887   5.838
10537TIP3    H231557   2.221   2.968   5.711
10538TIP3   OH231558   4.180   4.082   0.145
10538TIP3    H131559   4.168   4.034   0.227
10538TIP3    H231560   4.275   4.085   0.133
10539TIP3   OH231561   6.850   4.545   5.736
10539TIP3    H131562   6.867   4.498   5.654
10539TIP3    H231563   6.819   4.631   5.708
10540TIP3   OH231564   6.276   3.470   0.874
10540TIP3    H131565   6.192   3.511   0.894
10540TIP3    H231566   6.287   3.484   0.780
10541TIP3   OH231567   1.926   3.121   2.388
10541TIP3    H131568   1.882   3.046   2.429
10541TIP3    H231569   1.975   3.083   2.314
10542TIP3   OH231570   6.289   2.023   6.168
10542TIP3    H131571   6.302   2.085   6.239
10542TIP3    H231572   6.201   1.988   6.183
10543TIP3   OH231573   5.771   4.441   1.773
10543TIP3    H131574   5.756   4.347   1.781
10543TIP3    H231575   5.826   4.462   1.848
10544TIP3   OH231576   5.260   6.039   1.337
10544TIP3    H131577   5.197   5.969   1.325
10544TIP3    H231578   5.209   6.119   1.325
10545TIP3   OH231579   4.697   3.653   2.648
10545TIP3    H131580   4.658   3.725   2.598
10545TIP3    H231581   4.651   3.654   2.732
10546TIP3   OH231582   0.746   6.599   5.272
10546TIP3    H131583   0.819   6.599   5.210
10546TIP3    H231584   0.740   6.690   5.302
10547TIP3   OH231585   5.470   7.813   1.420
10547TIP3    H131586   5.411   7.747   1.385
10547TIP3    H231587   5.548   7.765   1.446
10548TIP3   OH231588   4.339   6.281   6.240
10548TIP3    H131589   4.316   6.210   6.180
10548TIP3    H231590   4.298   6.257   6.323
10549TIP3   OH231591   8.260   5.461   2.844
10549TIP3    H131592   8.206   5.462   2.764
10549TIP3    H231593   8.218   5.396   2.900
10550TIP3   OH231594   6.217   0.185   3.236
10550TIP3    H131595   6.305   0.165   3.204
10550TIP3    H231596   6.218   0.279   3.251
10551TIP3   OH231597   3.655   0.866   2.362
10551TIP3    H131598   3.588   0.842   2.297
10551TIP3    H231599   3.606   0.908   2.432
10552TIP3   OH231600   7.212   0.286   6.175
10552TIP3    H131601   7.264   0.225   6.124
10552TIP3    H231602   7.271   0.360   6.190
10553TIP3   OH231603   7.071   4.257   0.051
10553TIP3    H131604   7.059   4.205  -0.028
10553TIP3    H231605   7.165   4.255   0.067
10554TIP3   OH231606   6.201   5.230   3.461
10554TIP3    H131607   6.264   5.232   3.533
10554TIP3    H231608   6.142   5.157   3.483
10555TIP3   OH231609   2.143   7.730   4.551
10555TIP3    H131610   2.211   7.696   4.493
10555TIP3    H231611   2.061   7.715   4.504
10556TIP3   OH231612   0.089   0.576   0.870
10556TIP3    H131613   0.162   0.554   0.812
10556TIP3    H231614   0.060   0.662   0.841
10557TIP3   OH231615   5.542   5.703   4.257
10557TIP3    H131616   5.544   5.754   4.176
10557TIP3    H231617   5.599   5.628   4.240
10558TIP3   OH231618   3.523   2.681   0.821
10558TIP3    H131619   3.611   2.645   0.813
10558TIP3    H231620   3.512   2.698   0.915
10559TIP3   OH231621   3.208   3.078   3.869
10559TIP3    H131622   3.217   2.997   3.819
10559TIP3    H231623   3.139   3.127   3.824
10560TIP3   OH231624   0.420   5.677   1.567
10560TIP3    H131625   0.328   5.659   1.545
10560TIP3    H231626   0.429   5.648   1.658
10561TIP3   OH231627   1.327   0.661   3.310
10561TIP3    H131628   1.245   0.619   3.337
10561TIP3    H231629   1.396   0.603   3.344
10562TIP3   OH231630   2.129   4.058   2.806
10562TIP3    H131631   2.166   3.978   2.844
10562TIP3    H231632   2.146   4.126   2.871
10563TIP3   OH231633   3.596   0.407   3.638
10563TIP3    H131634   3.513   0.432   3.598
10563TIP3    H231635   3.587   0.430   3.730
10564TIP3   OH231636   6.192   3.570   1.126
10564TIP3    H131637   6.255   3.641   1.117
10564TIP3    H231638   6.234   3.495   1.086
10565TIP3   OH231639   2.536   2.003   3.725
10565TIP3    H131640   2.485   1.936   3.679
10565TIP3    H231641   2.560   2.067   3.658
10566TIP3   OH231642   6.316   2.452   2.263
10566TIP3    H131643   6.411   2.458   2.258
10566TIP3    H231644   6.299   2.375   2.317
10567TIP3   OH231645   4.678   7.218   5.411
10567TIP3    H131646   4.638   7.143   5.456
10567TIP3    H231647   4.604   7.271   5.381
10568TIP3   OH231648   1.043   5.924   3.975
10568TIP3    H131649   1.084   5.978   3.907
10568TIP3    H231650   1.076   5.836   3.959
10569TIP3   OH231651   3.626   4.212   2.628
10569TIP3    H131652   3.706   4.263   2.620
10569TIP3    H231653   3.563   4.258   2.572
10570TIP3   OH231654   6.137   5.213   0.174
10570TIP3    H131655   6.176   5.132   0.142
10570TIP3    H231656   6.148   5.275   0.102
10571TIP3   OH231657   0.952   2.683   2.124
10571TIP3    H131658   0.918   2.618   2.186
10571TIP3    H231659   1.036   2.711   2.163
10572TIP3   OH231660   0.004   4.640   3.884
10572TIP3    H131661   0.065   4.610   3.951
10572TIP3    H231662  -0.030   4.723   3.917
10573TIP3   OH231663   6.585   0.112   1.383
10573TIP3    H131664   6.607   0.147   1.296
10573TIP3    H231665   6.489   0.117   1.387
10574TIP3   OH231666   4.695   0.373   3.022
10574TIP3    H131667   4.742   0.349   3.102
10574TIP3    H231668   4.655   0.457   3.042
10575TIP3   OH231669   6.878   3.834   6.189
10575TIP3    H131670   6.849   3.834   6.280
10575TIP3    H231671   6.880   3.741   6.165
10576TIP3   OH231672   3.511   0.712   4.604
10576TIP3    H131673   3.434   0.761   4.574
10576TIP3    H231674   3.584   0.773   4.592
10577TIP3   OH231675   7.021   0.604   4.932
10577TIP3    H131676   7.086   0.670   4.907
10577TIP3    H231677   7.003   0.622   5.024
10578TIP3   OH231678   5.583   1.563   1.870
10578TIP3    H131679   5.675   1.539   1.860
10578TIP3    H231680   5.553   1.582   1.781
10579TIP3   OH231681   5.488   1.520   6.196
10579TIP3    H131682   5.475   1.486   6.108
10579TIP3    H231683   5.452   1.609   6.194
10580TIP3   OH231684   0.183   1.692   3.152
10580TIP3    H131685   0.191   1.598   3.137
10580TIP3    H231686   0.199   1.702   3.246
10581TIP3   OH231687   2.261   6.620   0.718
10581TIP3    H131688   2.275   6.713   0.703
10581TIP3    H231689   2.203   6.593   0.647
10582TIP3   OH231690   6.150   2.297   5.679
10582TIP3    H131691   6.055   2.294   5.692
10582TIP3    H231692   6.161   2.298   5.584
10583TIP3   OH231693   6.152   4.697   0.445
10583TIP3    H131694   6.093   4.736   0.380
10583TIP3    H231695   6.096   4.638   0.495
10584TIP3   OH231696   4.112   7.672   5.639
10584TIP3    H131697   4.153   7.594   5.675
10584TIP3    H231698   4.039   7.690   5.698
10585TIP3   OH231699   8.055   5.428   3.253
10585TIP3    H131700   8.027   5.338   3.233
10585TIP3    H231701   8.106   5.455   3.177
10586TIP3   OH231702   0.292   4.282   0.871
10586TIP3    H131703   0.379   4.317   0.891
10586TIP3    H231704   0.274   4.219   0.941
10587TIP3   OH231705   1.288   5.937   5.833
10587TIP3    H131706   1.250   5.871   5.891
10587TIP3    H231707   1.226   5.943   5.760
10588TIP3   OH231708   2.502   1.018   1.505
10588TIP3    H131709   2.428   1.010   1.445
10588TIP3    H231710   2.563   0.949   1.478
10589TIP3   OH231711   0.287   3.971   5.921
10589TIP3    H131712   0.309   3.955   6.013
10589TIP3    H231713   0.295   3.885   5.880
10590TIP3   OH231714   7.184   5.245   1.957
10590TIP3    H131715   7.145   5.157   1.960
10590TIP3    H231716   7.185   5.266   1.863
10591TIP3   OH231717   2.386   3.709   0.365
10591TIP3    H131718   2.321   3.672   0.306
10591TIP3    H231719   2.440   3.634   0.391
10592TIP3   OH231720   0.487   5.078   0.108
10592TIP3    H131721   0.456   5.001   0.155
10592TIP3    H231722   0.481   5.053   0.016
10593TIP3   OH231723   6.351   4.942   3.323
10593TIP3    H131724   6.268   4.966   3.363
10593TIP3    H231725   6.327   4.886   3.249
10594TIP3   OH231726   6.333   6.975   1.884
10594TIP3    H131727   6.240   6.971   1.860
10594TIP3    H231728   6.358   6.883   1.897
10595TIP3   OH231729   7.249   3.988   2.126
10595TIP3    H131730   7.219   4.057   2.185
10595TIP3    H231731   7.272   3.915   2.185
10596TIP3   OH231732   3.795   4.543   5.271
10596TIP3    H131733   3.712   4.584   5.245
10596TIP3    H231734   3.775   4.449   5.271
10597TIP3   OH231735   0.069   6.829   0.941
10597TIP3    H131736   0.112   6.858   0.860
10597TIP3    H231737  -0.006   6.887   0.950
10598TIP3   OH231738   2.369   5.798   2.293
10598TIP3    H131739   2.346   5.770   2.382
10598TIP3    H231740   2.430   5.731   2.262
10599TIP3   OH231741   2.567   4.543   4.081
10599TIP3    H131742   2.529   4.626   4.053
10599TIP3    H231743   2.533   4.479   4.019
10600TIP3   OH231744   5.450   1.420   2.084
10600TIP3    H131745   5.516   1.379   2.141
10600TIP3    H231746   5.499   1.481   2.030
10601TIP3   OH231747   1.312   4.650   1.469
10601TIP3    H131748   1.351   4.728   1.430
10601TIP3    H231749   1.319   4.583   1.401
10602TIP3   OH231750   0.754   4.086   4.187
10602TIP3    H131751   0.721   4.034   4.113
10602TIP3    H231752   0.834   4.127   4.154
10603TIP3   OH231753   2.759   2.063   1.063
10603TIP3    H131754   2.730   2.014   0.986
10603TIP3    H231755   2.788   2.147   1.027
10604TIP3   OH231756   4.199   5.291   0.116
10604TIP3    H131757   4.163   5.228   0.178
10604TIP3    H231758   4.247   5.238   0.052
10605TIP3   OH231759   7.404   1.774   4.473
10605TIP3    H131760   7.364   1.861   4.480
10605TIP3    H231761   7.336   1.714   4.504
10606TIP3   OH231762   7.377   6.797   3.889
10606TIP3    H131763   7.401   6.706   3.900
10606TIP3    H231764   7.283   6.800   3.909
10607TIP3   OH231765   4.482   4.269   3.090
10607TIP3    H131766   4.525   4.200   3.140
10607TIP3    H231767   4.448   4.329   3.157
10608TIP3   OH231768   0.603   6.830   4.567
10608TIP3    H131769   0.571   6.893   4.502
10608TIP3    H231770   0.565   6.746   4.539
10609TIP3   OH231771   3.440   2.402   2.461
10609TIP3    H131772   3.406   2.314   2.475
10609TIP3    H231773   3.501   2.393   2.388
10610TIP3   OH231774   4.851   1.402   0.039
10610TIP3    H131775   4.940   1.388   0.070
10610TIP3    H231776   4.837   1.335  -0.028
10611TIP3   OH231777   4.061   5.019   0.928
10611TIP3    H131778   3.994   5.086   0.940
10611TIP3    H231779   4.016   4.947   0.884
10612TIP3   OH231780   5.521   2.897   0.067
10612TIP3    H131781   5.547   2.908  -0.025
10612TIP3    H231782   5.443   2.841   0.064
10613TIP3   OH231783   8.012   5.712   0.042
10613TIP3    H131784   8.063   5.643   0.085
10613TIP3    H231785   7.951   5.742   0.110
10614TIP3   OH231786   6.370   6.712   1.837
10614TIP3    H131787   6.349   6.637   1.892
10614TIP3    H231788   6.446   6.684   1.786
10615TIP3   OH231789   5.173   5.902  -0.028
10615TIP3    H131790   5.112   5.927   0.042
10615TIP3    H231791   5.203   5.814  -0.003
10616TIP3   OH231792   4.530   7.743   2.832
10616TIP3    H131793   4.510   7.833   2.805
10616TIP3    H231794   4.595   7.752   2.902
10617TIP3   OH231795   8.229   4.039   5.437
10617TIP3    H131796   8.179   3.957   5.430
10617TIP3    H231797   8.199   4.092   5.363
10618TIP3   OH231798   7.822   3.881   1.308
10618TIP3    H131799   7.918   3.881   1.318
10618TIP3    H231800   7.801   3.971   1.285
10619TIP3   OH231801   1.443   1.744   5.498
10619TIP3    H131802   1.401   1.761   5.414
10619TIP3    H231803   1.447   1.829   5.541
10620TIP3   OH231804   6.774   4.820   1.368
10620TIP3    H131805   6.762   4.864   1.452
10620TIP3    H231806   6.869   4.808   1.361
10621TIP3   OH231807   4.100   5.501   0.474
10621TIP3    H131808   4.058   5.558   0.411
10621TIP3    H231809   4.154   5.442   0.422
10622TIP3   OH231810   3.153   5.670   4.392
10622TIP3    H131811   3.158   5.604   4.460
10622TIP3    H231812   3.149   5.753   4.439
10623TIP3   OH231813   2.118   4.273   3.078
10623TIP3    H131814   2.023   4.268   3.091
10623TIP3    H231815   2.140   4.364   3.096
10624TIP3   OH231816   5.842   2.219   6.501
10624TIP3    H131817   5.899   2.286   6.537
10624TIP3    H231818   5.771   2.211   6.564
10625TIP3   OH231819   0.844   2.736   3.761
10625TIP3    H131820   0.835   2.669   3.693
10625TIP3    H231821   0.863   2.686   3.840
10626TIP3   OH231822   5.018   3.636   1.477
10626TIP3    H131823   5.014   3.694   1.401
10626TIP3    H231824   5.077   3.681   1.538
10627TIP3   OH231825   6.708   6.756   0.670
10627TIP3    H131826   6.692   6.736   0.578
10627TIP3    H231827   6.776   6.695   0.696
10628TIP3   OH231828   7.961   5.733   4.835
10628TIP3    H131829   8.018   5.810   4.846
10628TIP3    H231830   7.975   5.707   4.744
10629TIP3   OH231831   6.734   6.697   4.165
10629TIP3    H131832   6.701   6.660   4.084
10629TIP3    H231833   6.719   6.791   4.157
10630TIP3   OH231834   8.268   2.019   4.804
10630TIP3    H131835   8.209   1.959   4.850
10630TIP3    H231836   8.262   2.101   4.854
10631TIP3   OH231837   4.946   0.377   0.526
10631TIP3    H131838   4.949   0.285   0.500
10631TIP3    H231839   4.986   0.378   0.613
10632TIP3   OH231840   1.420   2.987   4.390
10632TIP3    H131841   1.447   2.947   4.473
10632TIP3    H231842   1.502   3.015   4.349
10633TIP3   OH231843   0.561   5.857   4.391
10633TIP3    H131844   0.497   5.928   4.389
10633TIP3    H231845   0.580   5.845   4.484
10634TIP3   OH231846   0.706   6.929   4.334
10634TIP3    H131847   0.777   6.992   4.343
10634TIP3    H231848   0.744   6.846   4.362
10635TIP3   OH231849   5.878   3.762   5.968
10635TIP3    H131850   5.870   3.856   5.982
10635TIP3    H231851   5.789   3.729   5.975
10636TIP3   OH231852   6.620   6.164   6.644
10636TIP3    H131853   6.682   6.105   6.686
10636TIP3    H231854   6.675   6.231   6.603
10637TIP3   OH231855   5.119   0.781   4.659
10637TIP3    H131856   5.077   0.867   4.659
10637TIP3    H231857   5.183   0.786   4.587
10638TIP3   OH231858   7.679   0.593   4.628
10638TIP3    H131859   7.646   0.657   4.690
10638TIP3    H231860   7.775   0.603   4.632
10639TIP3   OH231861   0.370   4.926   2.516
10639TIP3    H131862   0.452   4.931   2.566
10639TIP3    H231863   0.390   4.972   2.434
10640TIP3   OH231864   4.914   0.909   3.271
10640TIP3    H131865   4.872   0.994   3.288
10640TIP3    H231866   4.846   0.844   3.291
10641TIP3   OH231867   7.517   2.724   0.621
10641TIP3    H131868   7.503   2.661   0.551
10641TIP3    H231869   7.612   2.734   0.627
10642TIP3   OH231870   1.564   7.319   6.259
10642TIP3    H131871   1.596   7.233   6.285
10642TIP3    H231872   1.525   7.305   6.173
10643TIP3   OH231873   5.266   2.130   1.451
10643TIP3    H131874   5.268   2.047   1.498
10643TIP3    H231875   5.322   2.116   1.374
10644TIP3   OH231876   7.431   0.808   0.301
10644TIP3    H131877   7.509   0.848   0.262
10644TIP3    H231878   7.422   0.854   0.385
10645TIP3   OH231879   0.827   1.665   6.380
10645TIP3    H131880   0.857   1.752   6.356
10645TIP3    H231881   0.906   1.619   6.407
10646TIP3   OH231882   4.357   7.640   4.580
10646TIP3    H131883   4.423   7.710   4.584
10646TIP3    H231884   4.280   7.677   4.621
10647TIP3   OH231885   4.418   3.522   2.230
10647TIP3    H131886   4.475   3.501   2.304
10647TIP3    H231887   4.376   3.438   2.208
10648TIP3   OH231888   7.545   1.080   3.459
10648TIP3    H131889   7.496   1.123   3.529
10648TIP3    H231890   7.636   1.106   3.474
10649TIP3   OH231891   3.030   4.139   5.052
10649TIP3    H131892   3.063   4.217   5.008
10649TIP3    H231893   3.099   4.115   5.114
10650TIP3   OH231894   7.950   3.272   5.930
10650TIP3    H131895   7.911   3.301   5.848
10650TIP3    H231896   7.925   3.339   5.994
10651TIP3   OH231897   7.933   3.285   3.314
10651TIP3    H131898   7.969   3.344   3.247
10651TIP3    H231899   7.978   3.202   3.301
10652TIP3   OH231900   1.484   5.421   5.180
10652TIP3    H131901   1.476   5.494   5.119
10652TIP3    H231902   1.401   5.375   5.174
10653TIP3   OH231903   7.125   3.868   0.687
10653TIP3    H131904   7.108   3.774   0.699
10653TIP3    H231905   7.219   3.873   0.673
10654TIP3   OH231906   0.674   0.241   0.224
10654TIP3    H131907   0.722   0.249   0.142
10654TIP3    H231908   0.702   0.316   0.276
10655TIP3   OH231909   0.465   0.613   0.924
10655TIP3    H131910   0.470   0.523   0.956
10655TIP3    H231911   0.551   0.650   0.946
10656TIP3   OH231912   0.652   0.305   2.006
10656TIP3    H131913   0.720   0.245   2.035
10656TIP3    H231914   0.581   0.249   1.976
10657TIP3   OH231915   5.828   7.421   1.191
10657TIP3    H131916   5.785   7.503   1.166
10657TIP3    H231917   5.882   7.398   1.116
10658TIP3   OH231918   2.089   3.636   5.535
10658TIP3    H131919   2.180   3.625   5.508
10658TIP3    H231920   2.081   3.730   5.555
10659TIP3   OH231921   1.598   5.813   4.192
10659TIP3    H131922   1.673   5.787   4.247
10659TIP3    H231923   1.623   5.899   4.158
10660TIP3   OH231924   5.617   6.523   1.936
10660TIP3    H131925   5.675   6.514   1.860
10660TIP3    H231926   5.541   6.570   1.903
10661TIP3   OH231927   1.338   1.342   4.736
10661TIP3    H131928   1.417   1.299   4.770
10661TIP3    H231929   1.276   1.340   4.808
10662TIP3   OH231930   4.907   2.930   1.831
10662TIP3    H131931   4.945   2.842   1.818
10662TIP3    H231932   4.823   2.914   1.873
10663TIP3   OH231933   7.141   7.653   0.936
10663TIP3    H131934   7.140   7.577   0.994
10663TIP3    H231935   7.133   7.728   0.995
10664TIP3   OH231936   2.226   3.423   3.785
10664TIP3    H131937   2.310   3.406   3.742
10664TIP3    H231938   2.214   3.518   3.778
10665TIP3   OH231939   5.689   4.834   2.253
10665TIP3    H131940   5.746   4.764   2.221
10665TIP3    H231941   5.746   4.911   2.258
10666TIP3   OH231942   6.532   1.132   1.141
10666TIP3    H131943   6.607   1.188   1.121
10666TIP3    H231944   6.550   1.098   1.228
10667TIP3   OH231945   4.210   2.799   3.305
10667TIP3    H131946   4.203   2.882   3.258
10667TIP3    H231947   4.126   2.756   3.290
10668TIP3   OH231948   4.335   3.871   2.384
10668TIP3    H131949   4.348   3.963   2.360
10668TIP3    H231950   4.240   3.860   2.383
10669TIP3   OH231951   6.568   7.645   5.026
10669TIP3    H131952   6.579   7.726   4.975
10669TIP3    H231953   6.640   7.647   5.089
10670TIP3   OH231954   2.127   6.445   4.089
10670TIP3    H131955   2.092   6.446   4.178
10670TIP3    H231956   2.142   6.352   4.070
10671TIP3   OH231957   8.122   7.585   0.742
10671TIP3    H131958   8.185   7.542   0.800
10671TIP3    H231959   8.100   7.666   0.787
10672TIP3   OH231960   6.447   0.446   0.854
10672TIP3    H131961   6.383   0.507   0.818
10672TIP3    H231962   6.520   0.502   0.883
10673TIP3   OH231963   8.283   5.291   4.548
10673TIP3    H131964   8.221   5.303   4.476
10673TIP3    H231965   8.364   5.332   4.518
10674TIP3   OH231966   6.238   0.285   3.566
10674TIP3    H131967   6.157   0.322   3.531
10674TIP3    H231968   6.308   0.325   3.515
10675TIP3   OH231969   0.659   6.128   3.742
10675TIP3    H131970   0.581   6.184   3.742
10675TIP3    H231971   0.724   6.178   3.791
10676TIP3   OH231972   4.385   7.745   3.553
10676TIP3    H131973   4.353   7.713   3.637
10676TIP3    H231974   4.310   7.790   3.514
10677TIP3   OH231975   0.761   0.030   1.028
10677TIP3    H131976   0.690   0.023   1.091
10677TIP3    H231977   0.841   0.029   1.082
10678TIP3   OH231978   4.484   3.622   0.108
10678TIP3    H131979   4.414   3.630   0.173
10678TIP3    H231980   4.447   3.567   0.039
10679TIP3   OH231981   5.361   3.573   2.597
10679TIP3    H131982   5.310   3.653   2.583
10679TIP3    H231983   5.398   3.583   2.685
10680TIP3   OH231984   8.132   3.933   4.845
10680TIP3    H131985   8.156   3.957   4.756
10680TIP3    H231986   8.194   3.864   4.869
10681TIP3   OH231987   3.490   5.181   0.991
10681TIP3    H131988   3.485   5.095   0.950
10681TIP3    H231989   3.432   5.174   1.067
10682TIP3   OH231990   2.254   7.178   5.477
10682TIP3    H131991   2.219   7.128   5.403
10682TIP3    H231992   2.177   7.204   5.527
10683TIP3   OH231993   4.170   5.084   2.549
10683TIP3    H131994   4.122   5.013   2.591
10683TIP3    H231995   4.143   5.162   2.596
10684TIP3   OH231996   5.842   1.853   5.836
10684TIP3    H131997   5.801   1.773   5.871
10684TIP3    H231998   5.769   1.915   5.829
10685TIP3   OH231999   3.586   3.487   6.716
10685TIP3    H132000   3.659   3.534   6.755
10685TIP3    H232001   3.558   3.425   6.785
10686TIP3   OH232002   6.613   1.686   2.922
10686TIP3    H132003   6.607   1.738   3.002
10686TIP3    H232004   6.663   1.608   2.948
10687TIP3   OH232005   7.900   4.649   1.341
10687TIP3    H132006   7.809   4.678   1.352
10687TIP3    H232007   7.894   4.555   1.329
10688TIP3   OH232008   5.148   1.465   5.149
10688TIP3    H132009   5.153   1.375   5.182
10688TIP3    H232010   5.058   1.492   5.167
10689TIP3   OH232011   7.784   0.837   0.919
10689TIP3    H132012   7.807   0.880   1.002
10689TIP3    H232013   7.692   0.860   0.905
10690TIP3   OH232014   2.828   0.934   5.016
10690TIP3    H132015   2.851   0.877   4.942
10690TIP3    H232016   2.890   1.006   5.012
10691TIP3   OH232017   5.028   3.823   1.050
10691TIP3    H132018   5.105   3.878   1.067
10691TIP3    H232019   5.064   3.736   1.034
10692TIP3   OH232020   4.938   6.673   2.732
10692TIP3    H132021   4.973   6.713   2.811
10692TIP3    H232022   4.910   6.586   2.759
10693TIP3   OH232023   4.272   1.953   0.083
10693TIP3    H132024   4.219   1.902   0.144
10693TIP3    H232025   4.362   1.932   0.108
10694TIP3   OH232026   2.733   5.638   0.277
10694TIP3    H132027   2.827   5.648   0.264
10694TIP3    H232028   2.708   5.567   0.218
10695TIP3   OH232029   2.437   7.674   4.694
10695TIP3    H132030   2.457   7.749   4.637
10695TIP3    H232031   2.388   7.614   4.638
10696TIP3   OH232032   5.950   2.950   0.308
10696TIP3    H132033   5.981   2.934   0.219
10696TIP3    H232034   5.859   2.976   0.298
10697TIP3   OH232035   7.817   7.762   2.326
10697TIP3    H132036   7.771   7.694   2.276
10697TIP3    H232037   7.762   7.840   2.318
10698TIP3   OH232038   1.509   5.928   3.242
10698TIP3    H132039   1.447   5.938   3.169
10698TIP3    H232040   1.537   6.017   3.262
10699TIP3   OH232041   1.707   0.441   4.455
10699TIP3    H132042   1.801   0.428   4.456
10699TIP3    H232043   1.685   0.457   4.363
10700TIP3   OH232044   3.121   7.114   0.972
10700TIP3    H132045   3.187   7.180   0.948
10700TIP3    H232046   3.050   7.127   0.909
10701TIP3   OH232047   3.080   1.397   5.405
10701TIP3    H132048   3.077   1.418   5.311
10701TIP3    H232049   3.001   1.436   5.441
10702TIP3   OH232050   7.644   2.432   5.507
10702TIP3    H132051   7.664   2.477   5.589
10702TIP3    H232052   7.721   2.448   5.452
10703TIP3   OH232053   3.390   6.111   4.021
10703TIP3    H132054   3.350   6.025   4.031
10703TIP3    H232055   3.355   6.145   3.939
10704TIP3   OH232056   7.439   3.870   0.707
10704TIP3    H132057   7.505   3.873   0.638
10704TIP3    H232058   7.413   3.778   0.711
10705TIP3   OH232059   3.244   3.927   2.597
10705TIP3    H132060   3.299   3.964   2.528
10705TIP3    H232061   3.189   3.863   2.551
10706TIP3   OH232062   6.202   2.639   3.201
10706TIP3    H132063   6.154   2.709   3.156
10706TIP3    H232064   6.162   2.558   3.169
10707TIP3   OH232065   4.407   4.344   2.763
10707TIP3    H132066   4.492   4.298   2.766
10707TIP3    H232067   4.410   4.403   2.838
10708TIP3   OH232068   7.938   7.558   5.636
10708TIP3    H132069   7.999   7.611   5.688
10708TIP3    H232070   7.870   7.619   5.608
10709TIP3   OH232071   0.697   6.828   3.434
10709TIP3    H132072   0.678   6.887   3.361
10709TIP3    H232073   0.613   6.812   3.475
10710TIP3   OH232074   8.263   5.585   5.057
10710TIP3    H132075   8.311   5.608   4.978
10710TIP3    H232076   8.199   5.519   5.029
10711TIP3   OH232077   3.058   1.728   0.854
10711TIP3    H132078   3.122   1.718   0.923
10711TIP3    H232079   3.064   1.820   0.828
10712TIP3   OH232080   5.336   7.398   2.663
10712TIP3    H132081   5.273   7.326   2.660
10712TIP3    H232082   5.405   7.372   2.602
10713TIP3   OH232083   6.843   4.832   1.846
10713TIP3    H132084   6.751   4.846   1.867
10713TIP3    H232085   6.843   4.763   1.780
10714TIP3   OH232086   6.775   1.744   4.307
10714TIP3    H132087   6.830   1.799   4.250
10714TIP3    H232088   6.702   1.718   4.251
10715TIP3   OH232089   0.891   3.444   2.765
10715TIP3    H132090   0.935   3.400   2.693
10715TIP3    H232091   0.883   3.377   2.833
10716TIP3   OH232092   0.706   0.699   6.698
10716TIP3    H132093   0.659   0.678   6.618
10716TIP3    H232094   0.641   0.688   6.768
10717TIP3   OH232095   6.137   4.211   5.661
10717TIP3    H132096   6.126   4.276   5.591
10717TIP3    H232097   6.049   4.179   5.677
10718TIP3   OH232098   3.174   1.115   0.963
10718TIP3    H132099   3.240   1.145   0.901
10718TIP3    H232100   3.099   1.173   0.949
10719TIP3   OH232101   5.200   3.469   1.812
10719TIP3    H132102   5.147   3.507   1.882
10719TIP3    H232103   5.209   3.377   1.835
10720TIP3   OH232104   1.265   4.789   1.208
10720TIP3    H132105   1.268   4.837   1.125
10720TIP3    H232106   1.217   4.708   1.187
10721TIP3   OH232107   3.376   7.830   6.648
10721TIP3    H132108   3.435   7.767   6.689
10721TIP3    H232109   3.366   7.798   6.558
10722TIP3   OH232110   6.553   6.640   2.279
10722TIP3    H132111   6.593   6.602   2.357
10722TIP3    H232112   6.623   6.640   2.214
10723TIP3   OH232113   8.184   2.765   1.924
10723TIP3    H132114   8.117   2.698   1.914
10723TIP3    H232115   8.267   2.717   1.920
10724TIP3   OH232116   6.285   2.790   2.479
10724TIP3    H132117   6.235   2.768   2.400
10724TIP3    H232118   6.278   2.712   2.534
10725TIP3   OH232119   5.109   1.525   6.088
10725TIP3    H132120   5.040   1.557   6.147
10725TIP3    H232121   5.066   1.458   6.035
10726TIP3   OH232122   5.475   6.200   1.124
10726TIP3    H132123   5.554   6.155   1.093
10726TIP3    H232124   5.411   6.130   1.134
10727TIP3   OH232125   0.271   0.626   4.050
10727TIP3    H132126   0.308   0.537   4.050
10727TIP3    H232127   0.194   0.620   4.107
10728TIP3   OH232128   3.048   2.543   5.780
10728TIP3    H132129   2.986   2.597   5.732
10728TIP3    H232130   3.079   2.479   5.716
10729TIP3   OH232131   3.071   1.940   1.711
10729TIP3    H132132   3.150   1.978   1.748
10729TIP3    H232133   3.094   1.916   1.622
10730TIP3   OH232134   5.261   3.236   4.826
10730TIP3    H132135   5.252   3.174   4.899
10730TIP3    H232136   5.240   3.321   4.864
10731TIP3   OH232137   3.589   7.246   5.790
10731TIP3    H132138   3.613   7.336   5.811
10731TIP3    H232139   3.495   7.249   5.774
10732TIP3   OH232140   1.992   2.698   3.111
10732TIP3    H132141   2.037   2.655   3.183
10732TIP3    H232142   1.915   2.644   3.095
10733TIP3   OH232143   4.128   0.139   3.929
10733TIP3    H132144   4.137   0.119   4.022
10733TIP3    H232145   4.110   0.054   3.888
10734TIP3   OH232146   5.910   6.023   4.741
10734TIP3    H132147   5.978   5.988   4.799
10734TIP3    H232148   5.906   5.960   4.668
10735TIP3   OH232149   4.282   6.653   3.968
10735TIP3    H132150   4.295   6.607   3.884
10735TIP3    H232151   4.275   6.745   3.944
10736TIP3   OH232152   2.912   7.103   4.571
10736TIP3    H132153   2.944   7.051   4.497
10736TIP3    H232154   2.923   7.045   4.647
10737TIP3   OH232155   7.475   4.067   4.465
10737TIP3    H132156   7.420   4.137   4.430
10737TIP3    H232157   7.505   4.019   4.388
10738TIP3   OH232158   4.779   6.791   2.451
10738TIP3    H132159   4.783   6.830   2.363
10738TIP3    H232160   4.789   6.697   2.436
10739TIP3   OH232161   6.840   3.988   2.180
10739TIP3    H132162   6.755   3.972   2.138
10739TIP3    H232163   6.901   3.933   2.132
10740TIP3   OH232164   6.244   6.463   2.372
10740TIP3    H132165   6.153   6.437   2.379
10740TIP3    H232166   6.260   6.518   2.449
10741TIP3   OH232167   2.833   2.115   2.672
10741TIP3    H132168   2.854   2.034   2.719
10741TIP3    H232169   2.795   2.171   2.740
10742TIP3   OH232170   1.029   5.425   3.411
10742TIP3    H132171   1.039   5.377   3.328
10742TIP3    H232172   1.069   5.510   3.394
10743TIP3   OH232173   0.926   6.469  -0.005
10743TIP3    H132174   0.884   6.400  -0.057
10743TIP3    H232175   0.934   6.431   0.083
10744TIP3   OH232176   2.034   5.223   5.058
10744TIP3    H132177   2.074   5.303   5.092
10744TIP3    H232178   1.943   5.228   5.086
10745TIP3   OH232179   4.575   7.839   0.475
10745TIP3    H132180   4.649   7.857   0.533
10745TIP3    H232181   4.559   7.745   0.484
10746TIP3   OH232182   4.280   5.951   3.065
10746TIP3    H132183   4.335   5.930   2.989
10746TIP3    H232184   4.293   5.877   3.124
10747TIP3   OH232185   3.044   0.719   5.613
10747TIP3    H132186   3.116   0.729   5.675
10747TIP3    H232187   3.051   0.628   5.583
10748TIP3   OH232188   7.492   4.370   3.237
10748TIP3    H132189   7.471   4.368   3.143
10748TIP3    H232190   7.586   4.385   3.239
10749TIP3   OH232191   4.391   1.752   3.502
10749TIP3    H132192   4.372   1.845   3.507
10749TIP3    H232193   4.311   1.712   3.469
10750TIP3   OH232194   0.144   5.288   1.875
10750TIP3    H132195   0.206   5.279   1.802
10750TIP3    H232196   0.200   5.300   1.952
10751TIP3   OH232197   0.912   3.628   0.507
10751TIP3    H132198   0.915   3.677   0.425
10751TIP3    H232199   0.926   3.537   0.482
10752TIP3   OH232200   6.501   6.068   2.129
10752TIP3    H132201   6.445   6.120   2.187
10752TIP3    H232202   6.440   6.022   2.072
10753TIP3   OH232203   8.127   4.030   3.790
10753TIP3    H132204   8.056   3.999   3.847
10753TIP3    H232205   8.083   4.080   3.722
10754TIP3   OH232206   3.241   3.467   3.824
10754TIP3    H132207   3.267   3.395   3.767
10754TIP3    H232208   3.147   3.457   3.833
10755TIP3   OH232209   7.602   3.650   0.450
10755TIP3    H132210   7.643   3.718   0.503
10755TIP3    H232211   7.675   3.609   0.403
10756TIP3   OH232212   7.402   3.367   1.971
10756TIP3    H132213   7.375   3.435   1.909
10756TIP3    H232214   7.428   3.294   1.917
10757TIP3   OH232215   0.626   4.420   1.420
10757TIP3    H132216   0.606   4.345   1.363
10757TIP3    H232217   0.644   4.492   1.359
10758TIP3   OH232218   3.424   6.655   0.488
10758TIP3    H132219   3.405   6.595   0.415
10758TIP3    H232220   3.386   6.612   0.564
10759TIP3   OH232221   3.949   5.326  -0.006
10759TIP3    H132222   3.911   5.414  -0.011
10759TIP3    H232223   4.039   5.341   0.022
10760TIP3   OH232224   3.124   7.760   2.155
10760TIP3    H132225   3.072   7.734   2.079
10760TIP3    H232226   3.215   7.744   2.129
10761TIP3   OH232227   1.200   0.476   2.639
10761TIP3    H132228   1.183   0.570   2.629
10761TIP3    H232229   1.141   0.434   2.577
10762TIP3   OH232230   8.178   2.956   2.345
10762TIP3    H132231   8.115   2.920   2.283
10762TIP3    H232232   8.257   2.904   2.330
10763TIP3   OH232233   0.045   0.987   0.037
10763TIP3    H132234   0.086   0.970   0.123
10763TIP3    H232235   0.013   0.901   0.009
10764TIP3   OH232236   2.732   5.970   3.084
10764TIP3    H132237   2.797   5.901   3.072
10764TIP3    H232238   2.663   5.929   3.137
10765TIP3   OH232239   7.456   7.509   5.472
10765TIP3    H132240   7.445   7.414   5.461
10765TIP3    H232241   7.449   7.544   5.383
10766TIP3   OH232242   2.274   6.345   6.571
10766TIP3    H132243   2.301   6.426   6.527
10766TIP3    H232244   2.204   6.372   6.630
10767TIP3   OH232245   4.693   5.402   5.203
10767TIP3    H132246   4.779   5.419   5.164
10767TIP3    H232247   4.677   5.479   5.258
10768TIP3   OH232248   3.421   5.528   3.862
10768TIP3    H132249   3.329   5.518   3.888
10768TIP3    H232250   3.462   5.446   3.886
10769TIP3   OH232251   0.136   4.465   3.339
10769TIP3    H132252   0.049   4.438   3.371
10769TIP3    H232253   0.160   4.539   3.395
10770TIP3   OH232254   5.648   6.623   4.010
10770TIP3    H132255   5.727   6.577   3.982
10770TIP3    H232256   5.642   6.606   4.104
10771TIP3   OH232257   7.533   4.750   6.360
10771TIP3    H132258   7.449   4.764   6.317
10771TIP3    H232259   7.597   4.754   6.289
10772TIP3   OH232260   4.488   5.515   3.790
10772TIP3    H132261   4.433   5.538   3.715
10772TIP3    H232262   4.570   5.562   3.775
10773TIP3   OH232263   5.566   2.058   2.262
10773TIP3    H132264   5.595   2.144   2.232
10773TIP3    H232265   5.642   2.020   2.305
10774TIP3   OH232266   6.988   3.593   0.261
10774TIP3    H132267   6.937   3.641   0.197
10774TIP3    H232268   7.062   3.650   0.281
10775TIP3   OH232269   1.935   3.284   6.531
10775TIP3    H132270   1.965   3.372   6.554
10775TIP3    H232271   1.851   3.299   6.487
10776TIP3   OH232272   5.495   7.016   0.082
10776TIP3    H132273   5.513   7.110   0.084
10776TIP3    H232274   5.566   6.977   0.132
10777TIP3   OH232275   1.556   2.867   5.687
10777TIP3    H132276   1.472   2.908   5.666
10777TIP3    H232277   1.557   2.861   5.782
10778TIP3   OH232278   2.279   2.659   0.776
10778TIP3    H132279   2.299   2.568   0.801
10778TIP3    H232280   2.328   2.712   0.839
10779TIP3   OH232281   3.896   6.674   3.509
10779TIP3    H132282   3.947   6.609   3.558
10779TIP3    H232283   3.911   6.651   3.417
10780TIP3   OH232284   1.736   7.528   5.596
10780TIP3    H132285   1.799   7.568   5.536
10780TIP3    H232286   1.785   7.515   5.677
10781TIP3   OH232287   5.333   7.751   3.640
10781TIP3    H132288   5.334   7.838   3.600
10781TIP3    H232289   5.424   7.732   3.660
10782TIP3   OH232290   3.737   3.907   0.797
10782TIP3    H132291   3.739   3.893   0.891
10782TIP3    H232292   3.822   3.878   0.766
10783TIP3   OH232293   8.256   3.202   1.333
10783TIP3    H132294   8.309   3.165   1.263
10783TIP3    H232295   8.192   3.134   1.353
10784TIP3   OH232296   1.646   1.981   5.974
10784TIP3    H132297   1.595   2.063   5.974
10784TIP3    H232298   1.597   1.923   6.031
10785TIP3   OH232299   3.902   7.015   5.681
10785TIP3    H132300   3.929   6.930   5.715
10785TIP3    H232301   3.820   6.998   5.635
10786TIP3   OH232302   3.907   3.726   1.860
10786TIP3    H132303   3.878   3.740   1.770
10786TIP3    H232304   3.996   3.762   1.863
10787TIP3   OH232305   7.711   0.170   4.086
10787TIP3    H132306   7.689   0.078   4.074
10787TIP3    H232307   7.802   0.170   4.114
10788TIP3   OH232308   4.226   7.782   2.626
10788TIP3    H132309   4.192   7.794   2.537
10788TIP3    H232310   4.252   7.690   2.629
10789TIP3   OH232311   5.267   1.452   2.296
10789TIP3    H132312   5.222   1.370   2.316
10789TIP3    H232313   5.329   1.430   2.227
10790TIP3   OH232314   3.424   2.631   3.316
10790TIP3    H132315   3.443   2.724   3.327
10790TIP3    H232316   3.510   2.589   3.313
10791TIP3   OH232317   5.332   4.972   1.546
10791TIP3    H132318   5.361   4.884   1.572
10791TIP3    H232319   5.257   4.957   1.488
10792TIP3   OH232320   0.987   1.245   0.603
10792TIP3    H132321   1.075   1.283   0.598
10792TIP3    H232322   0.990   1.169   0.545
10793TIP3   OH232323   8.167   5.723   3.794
10793TIP3    H132324   8.188   5.728   3.887
10793TIP3    H232325   8.213   5.796   3.754
10794TIP3   OH232326   6.843   3.965   1.667
10794TIP3    H132327   6.886   3.928   1.744
10794TIP3    H232328   6.883   3.919   1.593
10795TIP3   OH232329   4.748   6.292   6.526
10795TIP3    H132330   4.812   6.227   6.499
10795TIP3    H232331   4.670   6.242   6.548
10796TIP3   OH232332   4.365   3.480   1.825
10796TIP3    H132333   4.459   3.485   1.811
10796TIP3    H232334   4.334   3.570   1.815
10797TIP3   OH232335   0.227   3.130   4.149
10797TIP3    H132336   0.269   3.189   4.087
10797TIP3    H232337   0.191   3.060   4.095
10798TIP3   OH232338   3.730   3.218   5.001
10798TIP3    H132339   3.802   3.265   5.043
10798TIP3    H232340   3.738   3.128   5.033
10799TIP3   OH232341   8.144   6.556   0.983
10799TIP3    H132342   8.139   6.625   0.916
10799TIP3    H232343   8.135   6.603   1.066
10800TIP3   OH232344   1.151   5.775   6.023
10800TIP3    H132345   1.119   5.805   6.108
10800TIP3    H232346   1.149   5.679   6.029
10801TIP3   OH232347   3.633   5.744   5.594
10801TIP3    H132348   3.596   5.662   5.627
10801TIP3    H232349   3.693   5.717   5.525
10802TIP3   OH232350   7.120   3.069   0.409
10802TIP3    H132351   7.122   3.158   0.374
10802TIP3    H232352   7.029   3.040   0.395
10803TIP3   OH232353   5.259   0.813   4.155
10803TIP3    H132354   5.194   0.881   4.135
10803TIP3    H232355   5.274   0.770   4.071
10804TIP3   OH232356   3.486   6.348   0.486
10804TIP3    H132357   3.539   6.274   0.457
10804TIP3    H232358   3.466   6.397   0.406
10805TIP3   OH232359   7.284   3.682   5.945
10805TIP3    H132360   7.268   3.632   5.864
10805TIP3    H232361   7.277   3.774   5.918
10806TIP3   OH232362   0.359   6.084   1.240
10806TIP3    H132363   0.296   6.156   1.247
10806TIP3    H232364   0.332   6.022   1.307
10807TIP3   OH232365   1.453   7.127   3.991
10807TIP3    H132366   1.497   7.185   3.928
10807TIP3    H232367   1.472   7.039   3.960
10808TIP3   OH232368   6.482   0.046   2.405
10808TIP3    H132369   6.423   0.088   2.467
10808TIP3    H232370   6.437   0.053   2.320
10809TIP3   OH232371   1.016   7.525   3.173
10809TIP3    H132372   0.938   7.478   3.146
10809TIP3    H232373   1.089   7.469   3.146
10810TIP3   OH232374   4.732   7.435   1.838
10810TIP3    H132375   4.785   7.503   1.797
10810TIP3    H232376   4.716   7.467   1.927
10811TIP3   OH232377   4.455   6.504   2.779
10811TIP3    H132378   4.502   6.461   2.850
10811TIP3    H232379   4.517   6.504   2.705
10812TIP3   OH232380   7.848   2.806   1.660
10812TIP3    H132381   7.846   2.805   1.564
10812TIP3    H232382   7.938   2.832   1.681
10813TIP3   OH232383   1.655   5.190   4.861
10813TIP3    H132384   1.598   5.267   4.864
10813TIP3    H232385   1.706   5.201   4.781
10814TIP3   OH232386   3.159   1.607   2.549
10814TIP3    H132387   3.232   1.664   2.573
10814TIP3    H232388   3.197   1.542   2.490
10815TIP3   OH232389   8.212   6.610   5.695
10815TIP3    H132390   8.141   6.611   5.630
10815TIP3    H232391   8.285   6.569   5.649
10816TIP3   OH232392   4.363   2.721   2.385
10816TIP3    H132393   4.288   2.741   2.441
10816TIP3    H232394   4.433   2.701   2.446
10817TIP3   OH232395   3.671   2.909   6.177
10817TIP3    H132396   3.725   2.830   6.170
10817TIP3    H232397   3.638   2.906   6.267
10818TIP3   OH232398   5.980   7.144   3.709
10818TIP3    H132399   5.903   7.190   3.675
10818TIP3    H232400   6.023   7.108   3.631
10819TIP3   OH232401   7.878   0.646   1.887
10819TIP3    H132402   7.953   0.673   1.938
10819TIP3    H232403   7.822   0.723   1.883
10820TIP3   OH232404   6.599   5.223   1.159
10820TIP3    H132405   6.590   5.150   1.097
10820TIP3    H232406   6.524   5.213   1.218
10821TIP3   OH232407   4.183   5.124   1.159
10821TIP3    H132408   4.233   5.186   1.106
10821TIP3    H232409   4.142   5.065   1.096
10822TIP3   OH232410   3.341   6.992   5.924
10822TIP3    H132411   3.273   6.999   5.991
10822TIP3    H232412   3.351   7.082   5.892
10823TIP3   OH232413   6.041   3.197   2.551
10823TIP3    H132414   6.060   3.278   2.598
10823TIP3    H232415   5.976   3.153   2.605
10824TIP3   OH232416   6.842   3.412   3.087
10824TIP3    H132417   6.803   3.405   3.174
10824TIP3    H232418   6.849   3.506   3.072
10825TIP3   OH232419   5.049   4.902   2.269
10825TIP3    H132420   4.980   4.904   2.336
10825TIP3    H232421   5.032   4.823   2.218
10826TIP3   OH232422   0.728   2.237   5.562
10826TIP3    H132423   0.822   2.248   5.549
10826TIP3    H232424   0.700   2.184   5.488
10827TIP3   OH232425   2.857   0.857   1.581
10827TIP3    H132426   2.784   0.840   1.522
10827TIP3    H232427   2.934   0.862   1.524
10828TIP3   OH232428   4.269   5.477   6.224
10828TIP3    H132429   4.267   5.573   6.222
10828TIP3    H232430   4.186   5.453   6.266
10829TIP3   OH232431   7.748   4.889   3.407
10829TIP3    H132432   7.669   4.902   3.460
10829TIP3    H232433   7.740   4.952   3.336
10830TIP3   OH232434   7.347   2.608   6.287
10830TIP3    H132435   7.331   2.543   6.219
10830TIP3    H232436   7.422   2.657   6.256
10831TIP3   OH232437   7.018   6.666   4.137
10831TIP3    H132438   7.005   6.582   4.093
10831TIP3    H232439   6.939   6.680   4.188
10832TIP3   OH232440   1.089   2.864   5.624
10832TIP3    H132441   1.055   2.797   5.564
10832TIP3    H232442   1.062   2.835   5.711
10833TIP3   OH232443   4.747   7.700   5.073
10833TIP3    H132444   4.764   7.782   5.025
10833TIP3    H232445   4.656   7.679   5.052
10834TIP3   OH232446   6.649   1.140   3.964
10834TIP3    H132447   6.653   1.200   4.038
10834TIP3    H232448   6.739   1.134   3.933
10835TIP3   OH232449   2.987   6.322   5.873
10835TIP3    H132450   3.079   6.294   5.873
10835TIP3    H232451   2.978   6.371   5.791
10836TIP3   OH232452   2.794   4.645   3.804
10836TIP3    H132453   2.715   4.591   3.799
10836TIP3    H232454   2.858   4.591   3.850
10837TIP3   OH232455   0.290   0.181   2.165
10837TIP3    H132456   0.288   0.090   2.135
10837TIP3    H232457   0.289   0.232   2.085
10838TIP3   OH232458   2.927   6.372   2.750
10838TIP3    H132459   2.935   6.446   2.690
10838TIP3    H232460   2.880   6.306   2.699
10839TIP3   OH232461   2.289   6.589   5.209
10839TIP3    H132462   2.299   6.518   5.145
10839TIP3    H232463   2.353   6.655   5.182
10840TIP3   OH232464   2.841   0.970   5.631
10840TIP3    H132465   2.920   0.968   5.685
10840TIP3    H232466   2.817   1.062   5.625
10841TIP3   OH232467   1.075   2.765   5.876
10841TIP3    H132468   0.996   2.730   5.916
10841TIP3    H232469   1.146   2.711   5.913
10842TIP3   OH232470   3.859   5.721   6.785
10842TIP3    H132471   3.850   5.756   6.696
10842TIP3    H232472   3.792   5.652   6.790
10843TIP3   OH232473   4.939   4.580   2.773
10843TIP3    H132474   4.843   4.576   2.773
10843TIP3    H232475   4.960   4.627   2.854
10844TIP3   OH232476   4.655   0.986   5.890
10844TIP3    H132477   4.599   0.908   5.898
10844TIP3    H232478   4.596   1.059   5.907
10845TIP3   OH232479   1.796   2.952   0.055
10845TIP3    H132480   1.744   3.002   0.118
10845TIP3    H232481   1.830   2.878   0.105
10846TIP3   OH232482   6.780   3.198   6.677
10846TIP3    H132483   6.803   3.110   6.645
10846TIP3    H232484   6.783   3.253   6.599
10847TIP3   OH232485   4.166   2.372   4.487
10847TIP3    H132486   4.238   2.339   4.433
10847TIP3    H232487   4.141   2.454   4.444
10848TIP3   OH232488   5.990   6.593   0.494
10848TIP3    H132489   5.934   6.564   0.422
10848TIP3    H232490   6.053   6.522   0.506
10849TIP3   OH232491   0.670   5.040   2.921
10849TIP3    H132492   0.666   4.945   2.929
10849TIP3    H232493   0.605   5.072   2.984
10850TIP3   OH232494   6.498   7.158   0.050
10850TIP3    H132495   6.508   7.172   0.145
10850TIP3    H232496   6.422   7.101   0.043
10851TIP3   OH232497   5.863   7.289   5.471
10851TIP3    H132498   5.926   7.361   5.463
10851TIP3    H232499   5.779   7.330   5.452
10852TIP3   OH232500   3.499   3.075   0.711
10852TIP3    H132501   3.503   3.169   0.695
10852TIP3    H232502   3.500   3.066   0.806
10853TIP3   OH232503   2.451   4.902   6.022
10853TIP3    H132504   2.386   4.935   6.084
10853TIP3    H232505   2.412   4.823   5.985
10854TIP3   OH232506   0.564   4.346   5.220
10854TIP3    H132507   0.549   4.440   5.220
10854TIP3    H232508   0.651   4.335   5.258
10855TIP3   OH232509   7.196   0.069   0.769
10855TIP3    H132510   7.103   0.047   0.758
10855TIP3    H232511   7.206   0.079   0.864
10856TIP3   OH232512   7.436   0.812   4.269
10856TIP3    H132513   7.361   0.871   4.282
10856TIP3    H232514   7.416   0.766   4.188
10857TIP3   OH232515   7.302   4.955   5.146
10857TIP3    H132516   7.374   5.018   5.155
10857TIP3    H232517   7.224   5.010   5.137
10858TIP3   OH232518   2.668   3.813   5.011
10858TIP3    H132519   2.632   3.892   5.052
10858TIP3    H232520   2.703   3.844   4.927
10859TIP3   OH232521   0.143   1.643   1.516
10859TIP3    H132522   0.114   1.665   1.428
10859TIP3    H232523   0.129   1.723   1.567
10860TIP3   OH232524   0.925   3.903   3.626
10860TIP3    H132525   0.968   3.943   3.550
10860TIP3    H232526   0.961   3.950   3.701
10861TIP3   OH232527   5.768   6.380   3.457
10861TIP3    H132528   5.744   6.348   3.370
10861TIP3    H232529   5.690   6.365   3.510
10862TIP3   OH232530   7.395   3.139   2.588
10862TIP3    H132531   7.359   3.069   2.535
10862TIP3    H232532   7.410   3.211   2.527
10863TIP3   OH232533   5.107   2.220   0.944
10863TIP3    H132534   5.058   2.212   0.862
10863TIP3    H232535   5.049   2.184   1.010
10864TIP3   OH232536   5.668   6.394   5.613
10864TIP3    H132537   5.615   6.470   5.638
10864TIP3    H232538   5.609   6.320   5.624
10865TIP3   OH232539   2.208   0.564   5.693
10865TIP3    H132540   2.238   0.620   5.765
10865TIP3    H232541   2.187   0.626   5.623
10866TIP3   OH232542   6.046   3.410   5.168
10866TIP3    H132543   6.107   3.343   5.200
10866TIP3    H232544   5.962   3.364   5.159
10867TIP3   OH232545   2.096   3.612   4.645
10867TIP3    H132546   2.177   3.653   4.615
10867TIP3    H232547   2.053   3.582   4.565
10868TIP3   OH232548   7.528   5.775   1.707
10868TIP3    H132549   7.456   5.772   1.771
10868TIP3    H232550   7.575   5.856   1.727
10869TIP3   OH232551   2.761   0.583   4.900
10869TIP3    H132552   2.714   0.506   4.869
10869TIP3    H232553   2.846   0.549   4.930
10870TIP3   OH232554   4.557   6.893   5.859
10870TIP3    H132555   4.520   6.875   5.946
10870TIP3    H232556   4.524   6.979   5.836
10871TIP3   OH232557   2.794   3.595   0.785
10871TIP3    H132558   2.851   3.607   0.861
10871TIP3    H232559   2.708   3.576   0.823
10872TIP3   OH232560   6.771   7.807   2.381
10872TIP3    H132561   6.833   7.735   2.368
10872TIP3    H232562   6.756   7.808   2.475
10873TIP3   OH232563   6.851   5.084   4.123
10873TIP3    H132564   6.799   5.163   4.109
10873TIP3    H232565   6.937   5.104   4.087
10874TIP3   OH232566   3.048   7.347   5.049
10874TIP3    H132567   3.015   7.259   5.030
10874TIP3    H232568   3.126   7.355   4.994
10875TIP3   OH232569   3.487   4.140   0.557
10875TIP3    H132570   3.519   4.060   0.514
10875TIP3    H232571   3.530   4.140   0.642
10876TIP3   OH232572   4.234   3.558   2.774
10876TIP3    H132573   4.280   3.583   2.694
10876TIP3    H232574   4.300   3.514   2.827
10877TIP3   OH232575   3.693   5.145   1.319
10877TIP3    H132576   3.786   5.159   1.340
10877TIP3    H232577   3.648   5.221   1.356
10878TIP3   OH232578   6.037   4.535   2.657
10878TIP3    H132579   6.033   4.627   2.684
10878TIP3    H232580   6.069   4.489   2.735
10879TIP3   OH232581   1.691   2.379   4.388
10879TIP3    H132582   1.632   2.318   4.432
10879TIP3    H232583   1.708   2.337   4.303
10880TIP3   OH232584   8.137   6.652   4.795
10880TIP3    H132585   8.149   6.601   4.715
10880TIP3    H232586   8.069   6.716   4.772
10881TIP3   OH232587   2.389   3.679   3.571
10881TIP3    H132588   2.382   3.609   3.505
10881TIP3    H232589   2.421   3.755   3.522
10882TIP3   OH232590   4.333   4.987   1.839
10882TIP3    H132591   4.365   5.009   1.752
10882TIP3    H232592   4.357   5.062   1.893
10883TIP3   OH232593   3.194   5.105   6.256
10883TIP3    H132594   3.283   5.114   6.290
10883TIP3    H232595   3.155   5.035   6.308
10884TIP3   OH232596   4.853   2.648   4.996
10884TIP3    H132597   4.945   2.650   4.970
10884TIP3    H232598   4.850   2.589   5.071
10885TIP3   OH232599   4.534   6.181   2.757
10885TIP3    H132600   4.479   6.245   2.802
10885TIP3    H232601   4.612   6.174   2.812
10886TIP3   OH232602   2.814   1.181   6.307
10886TIP3    H132603   2.770   1.266   6.308
10886TIP3    H232604   2.893   1.194   6.359
10887TIP3   OH232605   3.428   0.493   3.036
10887TIP3    H132606   3.397   0.542   3.111
10887TIP3    H232607   3.487   0.427   3.073
10888TIP3   OH232608   2.701   1.691   2.001
10888TIP3    H132609   2.718   1.609   1.954
10888TIP3    H232610   2.636   1.667   2.067
10889TIP3   OH232611   6.078   2.471   1.273
10889TIP3    H132612   6.068   2.496   1.181
10889TIP3    H232613   6.172   2.456   1.283
10890TIP3   OH232614   7.741   2.956   3.322
10890TIP3    H132615   7.712   3.015   3.391
10890TIP3    H232616   7.698   2.989   3.243
10891TIP3   OH232617   6.582   1.212   0.308
10891TIP3    H132618   6.623   1.293   0.339
10891TIP3    H232619   6.531   1.239   0.231
10892TIP3   OH232620   1.713   0.989   5.653
10892TIP3    H132621   1.647   0.926   5.681
10892TIP3    H232622   1.749   0.952   5.572
10893TIP3   OH232623   0.815   3.840   6.264
10893TIP3    H132624   0.755   3.838   6.189
10893TIP3    H232625   0.851   3.928   6.264
10894TIP3   OH232626   6.609   5.113   2.844
10894TIP3    H132627   6.554   5.172   2.895
10894TIP3    H232628   6.594   5.138   2.753
10895TIP3   OH232629   1.655   2.336   4.957
10895TIP3    H132630   1.702   2.256   4.935
10895TIP3    H232631   1.568   2.324   4.921
10896TIP3   OH232632   6.463   2.513   3.859
10896TIP3    H132633   6.425   2.558   3.935
10896TIP3    H232634   6.510   2.581   3.811
10897TIP3   OH232635   6.979   0.842   2.123
10897TIP3    H132636   6.884   0.851   2.124
10897TIP3    H232637   7.006   0.877   2.038
10898TIP3   OH232638   6.850   3.046   4.179
10898TIP3    H132639   6.803   2.998   4.247
10898TIP3    H232640   6.783   3.074   4.118
10899TIP3   OH232641   8.275   2.801   0.683
10899TIP3    H132642   8.260   2.853   0.604
10899TIP3    H232643   8.296   2.713   0.651
10900TIP3   OH232644   7.385   6.853   1.875
10900TIP3    H132645   7.310   6.831   1.930
10900TIP3    H232646   7.348   6.900   1.800
10901TIP3   OH232647   2.416   0.670   1.345
10901TIP3    H132648   2.353   0.732   1.310
10901TIP3    H232649   2.386   0.652   1.434
10902TIP3   OH232650   1.542   2.367   6.695
10902TIP3    H132651   1.595   2.352   6.773
10902TIP3    H232652   1.606   2.384   6.625
10903TIP3   OH232653   1.910   0.725   6.524
10903TIP3    H132654   1.976   0.696   6.461
10903TIP3    H232655   1.905   0.655   6.588
10904TIP3   OH232656   3.420   2.621   3.035
10904TIP3    H132657   3.469   2.701   3.016
10904TIP3    H232658   3.375   2.640   3.117
10905TIP3   OH232659   0.374   2.358   3.990
10905TIP3    H132660   0.342   2.448   3.999
10905TIP3    H232661   0.389   2.348   3.896
10906TIP3   OH232662   2.027   2.356   3.609
10906TIP3    H132663   1.989   2.278   3.570
10906TIP3    H232664   1.983   2.429   3.565
10907TIP3   OH232665   2.304   5.843   1.858
10907TIP3    H132666   2.350   5.787   1.921
10907TIP3    H232667   2.331   5.809   1.773
10908TIP3   OH232668   3.338   6.476   5.798
10908TIP3    H132669   3.266   6.535   5.774
10908TIP3    H232670   3.417   6.526   5.780
10909TIP3   OH232671   5.313   5.674   3.888
10909TIP3    H132672   5.226   5.654   3.853
10909TIP3    H232673   5.371   5.611   3.846
10910TIP3   OH232674   4.652   4.730   4.078
10910TIP3    H132675   4.597   4.652   4.083
10910TIP3    H232676   4.604   4.790   4.021
10911TIP3   OH232677   3.455   6.915   0.854
10911TIP3    H132678   3.480   7.000   0.889
10911TIP3    H232679   3.459   6.925   0.759
10912TIP3   OH232680   4.385   3.154   0.240
10912TIP3    H132681   4.447   3.082   0.252
10912TIP3    H232682   4.395   3.180   0.149
10913TIP3   OH232683   8.093   1.401   5.812
10913TIP3    H132684   8.093   1.496   5.800
10913TIP3    H232685   8.004   1.374   5.789
10914TIP3   OH232686   1.895   2.353   2.032
10914TIP3    H132687   1.894   2.399   1.948
10914TIP3    H232688   1.804   2.329   2.046
10915TIP3   OH232689   7.588   5.932   3.237
10915TIP3    H132690   7.639   6.001   3.279
10915TIP3    H232691   7.548   5.975   3.161
10916TIP3   OH232692   2.086   5.158   4.459
10916TIP3    H132693   2.072   5.168   4.365
10916TIP3    H232694   2.052   5.071   4.480
10917TIP3   OH232695   1.057   6.901   3.928
10917TIP3    H132696   1.122   6.886   3.859
10917TIP3    H232697   1.012   6.817   3.936
10918TIP3   OH232698   7.812   3.182   1.436
10918TIP3    H132699   7.805   3.206   1.343
10918TIP3    H232700   7.760   3.247   1.482
10919TIP3   OH232701   0.316   1.923   1.107
10919TIP3    H132702   0.251   1.960   1.047
10919TIP3    H232703   0.294   1.960   1.193
10920TIP3   OH232704   3.745   3.325   0.986
10920TIP3    H132705   3.817   3.264   1.003
10920TIP3    H232706   3.782   3.388   0.924
10921TIP3   OH232707   7.468   1.786   1.948
10921TIP3    H132708   7.419   1.834   2.014
10921TIP3    H232709   7.554   1.772   1.987
10922TIP3   OH232710   2.814   2.711   0.435
10922TIP3    H132711   2.747   2.768   0.472
10922TIP3    H232712   2.897   2.748   0.465
10923TIP3   OH232713   0.657   7.172   6.466
10923TIP3    H132714   0.626   7.219   6.543
10923TIP3    H232715   0.639   7.080   6.486
10924TIP3   OH232716   1.619   1.686   6.326
10924TIP3    H132717   1.623   1.756   6.392
10924TIP3    H232718   1.711   1.673   6.301
10925TIP3   OH232719   0.481   5.296   3.045
10925TIP3    H132720   0.412   5.300   3.112
10925TIP3    H232721   0.445   5.346   2.972
10926TIP3   OH232722   4.978   7.820   1.949
10926TIP3    H132723   5.069   7.847   1.940
10926TIP3    H232724   4.979   7.753   2.017
10927TIP3   OH232725   0.718   1.201   5.453
10927TIP3    H132726   0.677   1.287   5.455
10927TIP3    H232727   0.701   1.168   5.364
10928TIP3   OH232728   7.557   1.432   0.138
10928TIP3    H132729   7.462   1.433   0.153
10928TIP3    H232730   7.582   1.524   0.144
10929TIP3   OH232731   7.270   4.791   6.282
10929TIP3    H132732   7.191   4.812   6.332
10929TIP3    H232733   7.248   4.815   6.192
10930TIP3   OH232734   6.229   7.235   0.155
10930TIP3    H132735   6.205   7.154   0.200
10930TIP3    H232736   6.240   7.299   0.225
10931TIP3   OH232737   2.771   3.416   3.629
10931TIP3    H132738   2.785   3.511   3.635
10931TIP3    H232739   2.836   3.379   3.689
10932TIP3   OH232740   7.607   6.999   4.393
10932TIP3    H132741   7.597   7.072   4.453
10932TIP3    H232742   7.571   7.031   4.310
10933TIP3   OH232743   0.519   2.749   2.819
10933TIP3    H132744   0.443   2.709   2.776
10933TIP3    H232745   0.587   2.748   2.751
10934TIP3   OH232746   3.710   5.216   6.387
10934TIP3    H132747   3.795   5.174   6.382
10934TIP3    H232748   3.707   5.276   6.313
10935TIP3   OH232749   3.708   0.235   2.132
10935TIP3    H132750   3.703   0.273   2.044
10935TIP3    H232751   3.631   0.269   2.178
10936TIP3   OH232752   1.204   1.806   0.753
10936TIP3    H132753   1.203   1.797   0.849
10936TIP3    H232754   1.250   1.888   0.738
10937TIP3   OH232755   8.134   1.695   1.822
10937TIP3    H132756   8.191   1.620   1.835
10937TIP3    H232757   8.188   1.758   1.775
10938TIP3   OH232758   7.176   4.724   6.656
10938TIP3    H132759   7.164   4.657   6.589
10938TIP3    H232760   7.096   4.776   6.653
10939TIP3   OH232761   6.824   3.485   2.006
10939TIP3    H132762   6.900   3.542   1.996
10939TIP3    H232763   6.781   3.487   1.920
10940TIP3   OH232764   6.204   4.951   0.966
10940TIP3    H132765   6.193   4.925   0.874
10940TIP3    H232766   6.118   4.984   0.992
10941TIP3   OH232767   0.560   2.840   6.447
10941TIP3    H132768   0.580   2.921   6.493
10941TIP3    H232769   0.620   2.839   6.373
10942TIP3   OH232770   1.076   5.377   1.233
10942TIP3    H132771   1.035   5.293   1.211
10942TIP3    H232772   1.168   5.356   1.245
10943TIP3   OH232773   4.710   2.138   6.429
10943TIP3    H132774   4.756   2.096   6.356
10943TIP3    H232775   4.646   2.195   6.388
10944TIP3   OH232776   2.057   2.511   5.318
10944TIP3    H132777   1.997   2.550   5.255
10944TIP3    H232778   2.123   2.578   5.333
10945TIP3   OH232779   2.915   0.808   0.140
10945TIP3    H132780   2.937   0.855   0.221
10945TIP3    H232781   2.838   0.756   0.164
10946TIP3   OH232782   7.232   0.871   3.995
10946TIP3    H132783   7.199   0.921   3.921
10946TIP3    H232784   7.300   0.815   3.958
10947TIP3   OH232785   3.972   2.432   6.425
10947TIP3    H132786   3.890   2.397   6.389
10947TIP3    H232787   3.947   2.516   6.464
10948TIP3   OH232788   2.936   5.826   0.102
10948TIP3    H132789   3.007   5.788   0.154
10948TIP3    H232790   2.956   5.919   0.098
10949TIP3   OH232791   5.647   4.908   1.581
10949TIP3    H132792   5.729   4.913   1.628
10949TIP3    H232793   5.672   4.907   1.488
10950TIP3   OH232794   0.835   0.891   6.412
10950TIP3    H132795   0.858   0.837   6.337
10950TIP3    H232796   0.917   0.904   6.459
10951TIP3   OH232797   1.324   7.128   5.617
10951TIP3    H132798   1.344   7.140   5.710
10951TIP3    H232799   1.301   7.035   5.610
10952TIP3   OH232800   3.332   4.110   2.414
10952TIP3    H132801   3.384   4.044   2.369
10952TIP3    H232802   3.386   4.188   2.415
10953TIP3   OH232803   4.314   5.301   4.737
10953TIP3    H132804   4.257   5.248   4.683
10953TIP3    H232805   4.389   5.245   4.756
10954TIP3   OH232806   5.351   5.207   5.788
10954TIP3    H132807   5.256   5.208   5.800
10954TIP3    H232808   5.380   5.129   5.835
10955TIP3   OH232809   3.726   0.773   3.864
10955TIP3    H132810   3.812   0.736   3.845
10955TIP3    H232811   3.731   0.800   3.956
10956TIP3   OH232812   1.615   5.538   1.188
10956TIP3    H132813   1.628   5.458   1.137
10956TIP3    H232814   1.694   5.590   1.172
10957TIP3   OH232815   1.420   5.013   0.326
10957TIP3    H132816   1.329   4.988   0.343
10957TIP3    H232817   1.419   5.108   0.320
10958TIP3   OH232818   1.891   3.507   2.026
10958TIP3    H132819   1.926   3.592   2.052
10958TIP3    H232820   1.964   3.446   2.040
10959TIP3   OH232821   3.483   7.426   6.121
10959TIP3    H132822   3.406   7.411   6.175
10959TIP3    H232823   3.479   7.358   6.054
10960TIP3   OH232824   3.118   2.872   6.345
10960TIP3    H132825   3.124   2.888   6.250
10960TIP3    H232826   3.182   2.803   6.362
10961TIP3   OH232827   4.141   5.247   3.439
10961TIP3    H132828   4.051   5.216   3.440
10961TIP3    H232829   4.193   5.172   3.410
10962TIP3   OH232830   0.599   6.493   5.833
10962TIP3    H132831   0.558   6.444   5.904
10962TIP3    H232832   0.631   6.426   5.773
10963TIP3   OH232833   5.718   1.669   0.586
10963TIP3    H132834   5.663   1.748   0.587
10963TIP3    H232835   5.702   1.628   0.671
10964TIP3   OH232836   7.775   1.017   6.027
10964TIP3    H132837   7.687   0.982   6.039
10964TIP3    H232838   7.809   0.972   5.950
10965TIP3   OH232839   1.286   3.279   6.733
10965TIP3    H132840   1.259   3.350   6.675
10965TIP3    H232841   1.304   3.322   6.817
10966TIP3   OH232842   4.118   0.311   1.761
10966TIP3    H132843   4.091   0.335   1.849
10966TIP3    H232844   4.138   0.394   1.718
10967TIP3   OH232845   3.975   5.145   2.159
10967TIP3    H132846   3.930   5.127   2.077
10967TIP3    H232847   4.062   5.107   2.148
10968TIP3   OH232848   4.729   3.273   0.809
10968TIP3    H132849   4.670   3.322   0.753
10968TIP3    H232850   4.790   3.338   0.843
10969TIP3   OH232851   5.454   6.385   3.690
10969TIP3    H132852   5.469   6.291   3.675
10969TIP3    H232853   5.432   6.391   3.783
10970TIP3   OH232854   1.184   1.407   4.961
10970TIP3    H132855   1.187   1.463   5.039
10970TIP3    H232856   1.110   1.349   4.977
10971TIP3   OH232857   0.448   0.436   3.084
10971TIP3    H132858   0.480   0.460   3.171
10971TIP3    H232859   0.462   0.514   3.031
10972TIP3   OH232860   6.612   2.921   5.634
10972TIP3    H132861   6.604   2.902   5.727
10972TIP3    H232862   6.528   2.961   5.610
10973TIP3   OH232863   3.909   5.237   2.408
10973TIP3    H132864   3.910   5.330   2.383
10973TIP3    H232865   3.896   5.191   2.325
10974TIP3   OH232866   2.936   5.786   2.216
10974TIP3    H132867   2.953   5.720   2.284
10974TIP3    H232868   2.890   5.737   2.147
10975TIP3   OH232869   6.554   1.485   2.438
10975TIP3    H132870   6.609   1.410   2.459
10975TIP3    H232871   6.469   1.447   2.417
10976TIP3   OH232872   0.277   2.714   2.700
10976TIP3    H132873   0.247   2.706   2.609
10976TIP3    H232874   0.262   2.806   2.721
10977TIP3   OH232875   0.011   6.153   3.623
10977TIP3    H132876   0.038   6.064   3.643
10977TIP3    H232877  -0.029   6.186   3.704
10978TIP3   OH232878   6.219   2.139   3.303
10978TIP3    H132879   6.126   2.150   3.320
10978TIP3    H232880   6.229   2.045   3.287
10979TIP3   OH232881   2.202   3.870   2.330
10979TIP3    H132882   2.279   3.856   2.275
10979TIP3    H232883   2.217   3.815   2.407
10980TIP3   OH232884   2.281   4.017   3.072
10980TIP3    H132885   2.323   4.090   3.027
10980TIP3    H232886   2.242   4.056   3.150
10981TIP3   OH232887   4.254   3.200   2.828
10981TIP3    H132888   4.161   3.221   2.815
10981TIP3    H232889   4.292   3.211   2.741
10982TIP3   OH232890   6.421   6.464   1.591
10982TIP3    H132891   6.461   6.547   1.565
10982TIP3    H232892   6.371   6.436   1.514
10983TIP3   OH232893   3.921   7.141   0.720
10983TIP3    H132894   3.930   7.159   0.814
10983TIP3    H232895   3.972   7.061   0.707
10984TIP3   OH232896   2.764   2.459   4.198
10984TIP3    H132897   2.738   2.551   4.199
10984TIP3    H232898   2.708   2.417   4.263
10985TIP3   OH232899   1.865   2.626   3.562
10985TIP3    H132900   1.809   2.548   3.558
10985TIP3    H232901   1.817   2.687   3.618
10986TIP3   OH232902   7.445   0.733   0.577
10986TIP3    H132903   7.481   0.704   0.661
10986TIP3    H232904   7.393   0.810   0.599
10987TIP3   OH232905   3.027   2.969   4.522
10987TIP3    H132906   2.960   3.036   4.537
10987TIP3    H232907   3.020   2.911   4.598
10988TIP3   OH232908   3.665   1.823   0.655
10988TIP3    H132909   3.643   1.746   0.707
10988TIP3    H232910   3.754   1.805   0.624
10989TIP3   OH232911   0.679   7.744   1.702
10989TIP3    H132912   0.761   7.739   1.653
10989TIP3    H232913   0.691   7.684   1.776
10990TIP3   OH232914   6.091   2.912   3.084
10990TIP3    H132915   6.010   2.960   3.101
10990TIP3    H232916   6.161   2.970   3.114
10991TIP3   OH232917   5.013   3.633   2.017
10991TIP3    H132918   5.022   3.593   2.104
10991TIP3    H232919   5.066   3.713   2.021
10992TIP3   OH232920   2.435   4.718   4.672
10992TIP3    H132921   2.366   4.679   4.725
10992TIP3    H232922   2.465   4.793   4.722
10993TIP3   OH232923   6.187   3.884   6.671
10993TIP3    H132924   6.190   3.975   6.641
10993TIP3    H232925   6.265   3.844   6.632
10994TIP3   OH232926   0.509   0.607   2.866
10994TIP3    H132927   0.561   0.686   2.880
10994TIP3    H232928   0.574   0.539   2.847
10995TIP3   OH232929   6.881   3.210   3.737
10995TIP3    H132930   6.936   3.245   3.808
10995TIP3    H232931   6.809   3.166   3.782
10996TIP3   OH232932   4.969   4.180   5.560
10996TIP3    H132933   4.921   4.263   5.556
10996TIP3    H232934   4.901   4.114   5.576
10997TIP3   OH232935   3.794   1.231   0.361
10997TIP3    H132936   3.722   1.175   0.331
10997TIP3    H232937   3.790   1.226   0.456
10998TIP3   OH232938   5.233   6.954   4.577
10998TIP3    H132939   5.267   6.997   4.656
10998TIP3    H232940   5.165   6.895   4.610
10999TIP3   OH232941   5.288   2.779   4.862
10999TIP3    H132942   5.283   2.708   4.927
10999TIP3    H232943   5.365   2.757   4.809
11000TIP3   OH232944   3.886   0.408   0.172
11000TIP3    H132945   3.865   0.467   0.243
11000TIP3    H232946   3.900   0.465   0.096
11001TIP3   OH232947   8.104   5.098   5.288
11001TIP3    H132948   8.138   5.116   5.375
11001TIP3    H232949   8.170   5.133   5.228
11002TIP3   OH232950   4.856   7.617   6.293
11002TIP3    H132951   4.911   7.541   6.309
11002TIP3    H232952   4.801   7.593   6.219
11003TIP3   OH232953   0.679   6.773   4.044
11003TIP3    H132954   0.598   6.736   4.009
11003TIP3    H232955   0.650   6.833   4.113
11004TIP3   OH232956   6.852   6.577   3.084
11004TIP3    H132957   6.890   6.529   3.010
11004TIP3    H232958   6.758   6.576   3.069
11005TIP3   OH232959   0.523   6.143   0.402
11005TIP3    H132960   0.477   6.158   0.320
11005TIP3    H232961   0.568   6.226   0.419
11006TIP3   OH232962   7.046   7.412   4.158
11006TIP3    H132963   7.036   7.492   4.107
11006TIP3    H232964   7.040   7.440   4.249
11007TIP3   OH232965   5.808   3.344   0.480
11007TIP3    H132966   5.885   3.290   0.497
11007TIP3    H232967   5.835   3.404   0.411
11008TIP3   OH232968   6.198   5.133   4.800
11008TIP3    H132969   6.265   5.071   4.772
11008TIP3    H232970   6.244   5.216   4.808
11009TIP3   OH232971   5.196   2.390   3.061
11009TIP3    H132972   5.116   2.341   3.043
11009TIP3    H232973   5.267   2.331   3.036
11010TIP3   OH232974   1.437   4.705   3.939
11010TIP3    H132975   1.476   4.721   4.025
11010TIP3    H232976   1.343   4.696   3.958
11011TIP3   OH232977   7.300   5.984   0.489
11011TIP3    H132978   7.293   5.989   0.584
11011TIP3    H232979   7.388   6.016   0.469
11012TIP3   OH232980   4.618   3.293   3.919
11012TIP3    H132981   4.539   3.305   3.971
11012TIP3    H232982   4.612   3.360   3.851
11013TIP3   OH232983   1.659   1.970   4.741
11013TIP3    H132984   1.705   1.908   4.684
11013TIP3    H232985   1.726   2.035   4.765
11014TIP3   OH232986   0.149   6.774   0.123
11014TIP3    H132987   0.082   6.842   0.118
11014TIP3    H232988   0.229   6.821   0.149
11015TIP3   OH232989   1.415   6.808   5.247
11015TIP3    H132990   1.454   6.759   5.320
11015TIP3    H232991   1.360   6.874   5.290
11016TIP3   OH232992   6.449   3.412   1.127
11016TIP3    H132993   6.485   3.449   1.046
11016TIP3    H232994   6.478   3.471   1.196
11017TIP3   OH232995   1.543   6.813   0.751
11017TIP3    H132996   1.590   6.756   0.811
11017TIP3    H232997   1.611   6.864   0.708
11018TIP3   OH232998   4.764   1.441   2.098
11018TIP3    H132999   4.846   1.425   2.146
11018TIP3    H233000   4.728   1.520   2.139
11019TIP3   OH233001   2.641   5.192   6.316
11019TIP3    H133002   2.654   5.130   6.388
11019TIP3    H233003   2.699   5.161   6.247
11020TIP3   OH233004   8.034   7.713   1.741
11020TIP3    H133005   8.083   7.637   1.773
11020TIP3    H233006   8.043   7.708   1.646
11021TIP3   OH233007   4.210   2.851   2.554
11021TIP3    H133008   4.170   2.932   2.523
11021TIP3    H233009   4.207   2.857   2.649
11022TIP3   OH233010   1.314   5.405   0.550
11022TIP3    H133011   1.352   5.388   0.636
11022TIP3    H233012   1.233   5.453   0.568
11023TIP3   OH233013   1.932   7.638   2.537
11023TIP3    H133014   1.974   7.554   2.523
11023TIP3    H233015   1.899   7.634   2.627
11024TIP3   OH233016   8.220   5.188   5.969
11024TIP3    H133017   8.310   5.189   5.936
11024TIP3    H233018   8.200   5.096   5.982
11025TIP3   OH233019   7.434   2.326   3.767
11025TIP3    H133020   7.415   2.348   3.676
11025TIP3    H233021   7.365   2.371   3.817
11026TIP3   OH233022   6.837   2.601   4.323
11026TIP3    H133023   6.789   2.681   4.342
11026TIP3    H233024   6.864   2.610   4.231
11027TIP3   OH233025   7.033   3.229   2.342
11027TIP3    H133026   7.086   3.227   2.262
11027TIP3    H233027   7.096   3.214   2.413
11028TIP3   OH233028   2.955   0.030   4.967
11028TIP3    H133029   2.879   0.030   5.025
11028TIP3    H233030   2.950  -0.053   4.921
11029TIP3   OH233031   3.527   6.668   2.303
11029TIP3    H133032   3.516   6.750   2.254
11029TIP3    H233033   3.441   6.626   2.298
11030TIP3   OH233034   2.335   2.739   2.813
11030TIP3    H133035   2.365   2.797   2.743
11030TIP3    H233036   2.406   2.676   2.825
11031TIP3   OH233037   1.661   3.371   4.439
11031TIP3    H133038   1.657   3.276   4.451
11031TIP3    H233039   1.620   3.386   4.354
11032TIP3   OH233040   2.518   0.233   5.682
11032TIP3    H133041   2.542   0.227   5.589
11032TIP3    H233042   2.602   0.230   5.728
11033TIP3   OH233043   2.672   7.163   1.692
11033TIP3    H133044   2.596   7.219   1.680
11033TIP3    H233045   2.744   7.212   1.652
11034TIP3   OH233046   2.841   0.468   1.188
11034TIP3    H133047   2.865   0.377   1.169
11034TIP3    H233048   2.852   0.475   1.283
11035TIP3   OH233049   3.895   7.759   3.208
11035TIP3    H133050   3.863   7.733   3.122
11035TIP3    H233051   3.851   7.699   3.269
11036TIP3   OH233052   5.162   0.082   5.108
11036TIP3    H133053   5.102   0.076   5.182
11036TIP3    H233054   5.109   0.060   5.032
11037TIP3   OH233055   0.583   5.314   4.254
11037TIP3    H133056   0.594   5.405   4.283
11037TIP3    H233057   0.488   5.301   4.254
11038TIP3   OH233058   1.270   6.325   4.882
11038TIP3    H133059   1.213   6.289   4.814
11038TIP3    H233060   1.224   6.307   4.964
11039TIP3   OH233061   3.346   1.758   3.429
11039TIP3    H133062   3.312   1.846   3.412
11039TIP3    H233063   3.405   1.769   3.503
11040TIP3   OH233064   7.580   7.415   6.122
11040TIP3    H133065   7.619   7.356   6.058
11040TIP3    H233066   7.559   7.494   6.073
11041TIP3   OH233067   2.771   7.513   6.774
11041TIP3    H133068   2.689   7.464   6.779
11041TIP3    H233069   2.831   7.454   6.728
11042TIP3   OH233070   1.903   6.593   0.025
11042TIP3    H133071   1.924   6.502   0.002
11042TIP3    H233072   1.821   6.586   0.075
11043TIP3   OH233073   1.816   1.014   2.593
11043TIP3    H133074   1.870   1.009   2.514
11043TIP3    H233075   1.738   1.063   2.566
11044TIP3   OH233076   6.271   7.249   2.169
11044TIP3    H133077   6.272   7.247   2.264
11044TIP3    H233078   6.207   7.182   2.144
11045TIP3   OH233079   5.000   5.894   1.620
11045TIP3    H133080   4.976   5.801   1.618
11045TIP3    H233081   5.021   5.916   1.530
11046TIP3   OH233082   5.123   0.611   0.381
11046TIP3    H133083   5.191   0.547   0.360
11046TIP3    H233084   5.124   0.672   0.307
11047TIP3   OH233085   2.539   7.470   4.260
11047TIP3    H133086   2.487   7.393   4.239
11047TIP3    H233087   2.514   7.492   4.350
11048TIP3   OH233088   2.189   1.123   3.550
11048TIP3    H133089   2.143   1.084   3.476
11048TIP3    H233090   2.214   1.210   3.519
11049TIP3   OH233091   1.003   4.963   3.931
11049TIP3    H133092   1.081   4.923   3.893
11049TIP3    H233093   1.023   4.971   4.024
11050TIP3   OH233094   2.260   2.400   2.762
11050TIP3    H133095   2.278   2.459   2.689
11050TIP3    H233096   2.209   2.451   2.824
11051TIP3   OH233097   4.574   0.978   2.177
11051TIP3    H133098   4.525   0.916   2.123
11051TIP3    H233099   4.613   1.039   2.114
11052TIP3   OH233100   1.395   1.755   2.952
11052TIP3    H133101   1.420   1.773   2.861
11052TIP3    H233102   1.414   1.836   2.999
11053TIP3   OH233103   0.178   2.584   5.726
11053TIP3    H133104   0.162   2.664   5.776
11053TIP3    H233105   0.105   2.527   5.747
11054TIP3   OH233106   0.915   7.749   1.540
11054TIP3    H133107   0.882   7.763   1.451
11054TIP3    H233108   0.955   7.662   1.538
11055TIP3   OH233109   0.040   7.346   0.656
11055TIP3    H133110   0.089   7.324   0.577
11055TIP3    H233111   0.107   7.374   0.719
11056TIP3   OH233112   7.960   1.783   3.097
11056TIP3    H133113   7.964   1.815   3.007
11056TIP3    H233114   7.978   1.689   3.090
11057TIP3   OH233115   4.754   7.696   2.280
11057TIP3    H133116   4.724   7.723   2.193
11057TIP3    H233117   4.848   7.683   2.270
11058TIP3   OH233118   0.164   1.532   0.130
11058TIP3    H133119   0.232   1.497   0.187
11058TIP3    H233120   0.207   1.603   0.082
11059TIP3   OH233121   2.328   4.373   4.293
11059TIP3    H133122   2.364   4.301   4.345
11059TIP3    H233123   2.254   4.406   4.346
11060TIP3   OH233124   5.127   1.488   4.832
11060TIP3    H133125   5.184   1.557   4.797
11060TIP3    H233126   5.141   1.491   4.927
11061TIP3   OH233127   8.121   5.118   0.349
11061TIP3    H133128   8.151   5.175   0.278
11061TIP3    H233129   8.040   5.080   0.316
11062TIP3   OH233130   5.467   3.017   2.556
11062TIP3    H133131   5.415   3.084   2.510
11062TIP3    H233132   5.430   2.934   2.526
11063TIP3   OH233133   3.449   0.314   0.988
11063TIP3    H133134   3.461   0.250   0.918
11063TIP3    H233135   3.504   0.388   0.961
11064TIP3   OH233136   2.057   5.865   2.097
11064TIP3    H133137   2.105   5.908   2.026
11064TIP3    H233138   1.965   5.868   2.069
11065TIP3   OH233139   5.643   5.878   4.464
11065TIP3    H133140   5.629   5.813   4.394
11065TIP3    H233141   5.607   5.959   4.428
11066TIP3   OH233142   0.399   6.144   0.138
11066TIP3    H133143   0.374   6.054   0.116
11066TIP3    H233144   0.317   6.193   0.138
11067TIP3   OH233145   1.698   5.443   6.577
11067TIP3    H133146   1.779   5.399   6.602
11067TIP3    H233147   1.647   5.376   6.532
11068TIP3   OH233148   2.706   6.789   0.211
11068TIP3    H133149   2.647   6.862   0.226
11068TIP3    H233150   2.785   6.829   0.173
11069TIP3   OH233151   3.517   6.638   4.744
11069TIP3    H133152   3.470   6.719   4.722
11069TIP3    H233153   3.597   6.668   4.787
11070TIP3   OH233154   6.675   6.441   5.808
11070TIP3    H133155   6.678   6.486   5.893
11070TIP3    H233156   6.662   6.349   5.830
11071TIP3   OH233157   0.044   1.536   3.857
11071TIP3    H133158  -0.020   1.503   3.920
11071TIP3    H233159   0.129   1.524   3.899
11072TIP3   OH233160   7.858   0.230   3.055
11072TIP3    H133161   7.843   0.273   2.971
11072TIP3    H233162   7.781   0.254   3.108
11073TIP3   OH233163   2.589   4.339   2.491
11073TIP3    H133164   2.538   4.325   2.572
11073TIP3    H233165   2.550   4.417   2.452
11074TIP3   OH233166   0.448   7.239   6.673
11074TIP3    H133167   0.446   7.171   6.740
11074TIP3    H233168   0.488   7.315   6.716
11075TIP3   OH233169   0.809   7.285   3.043
11075TIP3    H133170   0.860   7.278   2.963
11075TIP3    H233171   0.719   7.263   3.016
11076TIP3   OH233172   7.413   3.563   0.080
11076TIP3    H133173   7.391   3.494   0.016
11076TIP3    H233174   7.361   3.541   0.157
11077TIP3   OH233175   3.570   5.964   6.559
11077TIP3    H133176   3.495   5.904   6.552
11077TIP3    H233177   3.574   6.006   6.473
11078TIP3   OH233178   7.287   4.708   4.559
11078TIP3    H133179   7.263   4.628   4.511
11078TIP3    H233180   7.375   4.728   4.529
11079TIP3   OH233181   3.232   2.542   1.413
11079TIP3    H133182   3.239   2.479   1.341
11079TIP3    H233183   3.285   2.504   1.483
11080TIP3   OH233184   2.042   3.710   2.160
11080TIP3    H133185   2.092   3.769   2.216
11080TIP3    H233186   1.958   3.754   2.147
11081TIP3   OH233187   8.320   1.750   3.604
11081TIP3    H133188   8.298   1.758   3.697
11081TIP3    H233189   8.242   1.782   3.558
11082TIP3   OH233190   7.762   5.055   6.587
11082TIP3    H133191   7.727   5.007   6.662
11082TIP3    H233192   7.816   4.992   6.541
11083TIP3   OH233193   4.136   1.114   5.354
11083TIP3    H133194   4.114   1.185   5.415
11083TIP3    H233195   4.211   1.071   5.394
11084TIP3   OH233196   2.482   6.348   5.544
11084TIP3    H133197   2.488   6.257   5.517
11084TIP3    H233198   2.406   6.382   5.495
11085TIP3   OH233199   1.453   1.239   6.536
11085TIP3    H133200   1.515   1.206   6.602
11085TIP3    H233201   1.478   1.193   6.455
11086TIP3   OH233202   4.332   0.985   5.905
11086TIP3    H133203   4.304   0.893   5.911
11086TIP3    H233204   4.326   1.018   5.994
11087TIP3   OH233205   3.748   5.542   4.868
11087TIP3    H133206   3.704   5.474   4.816
11087TIP3    H233207   3.841   5.530   4.850
11088TIP3   OH233208   1.159   5.026   3.180
11088TIP3    H133209   1.089   5.090   3.166
11088TIP3    H233210   1.115   4.941   3.182
11089TIP3   OH233211   6.900   5.187   1.243
11089TIP3    H133212   6.818   5.235   1.239
11089TIP3    H233213   6.961   5.246   1.287
11090TIP3   OH233214   6.327   4.969   1.866
11090TIP3    H133215   6.323   5.006   1.778
11090TIP3    H233216   6.418   4.980   1.893
11091TIP3   OH233217   1.014   1.533   2.871
11091TIP3    H133218   1.081   1.558   2.807
11091TIP3    H233219   0.952   1.606   2.869
11092TIP3   OH233220   4.456   6.538   1.690
11092TIP3    H133221   4.544   6.530   1.727
11092TIP3    H233222   4.465   6.608   1.625
11093TIP3   OH233223   2.290   5.639   2.998
11093TIP3    H133224   2.241   5.566   3.037
11093TIP3    H233225   2.379   5.627   3.031
11094TIP3   OH233226   5.674   5.558   4.681
11094TIP3    H133227   5.711   5.562   4.593
11094TIP3    H233228   5.646   5.648   4.699
11095TIP3   OH233229   6.361   1.599   5.111
11095TIP3    H133230   6.349   1.601   5.206
11095TIP3    H233231   6.382   1.689   5.087
11096TIP3   OH233232   3.443   2.344   4.396
11096TIP3    H133233   3.353   2.375   4.389
11096TIP3    H233234   3.473   2.375   4.482
11097TIP3   OH233235   3.325   1.039   4.860
11097TIP3    H133236   3.268   0.968   4.830
11097TIP3    H233237   3.405   0.996   4.887
11098TIP3   OH233238   7.087   2.733   4.128
11098TIP3    H133239   7.156   2.711   4.190
11098TIP3    H233240   7.112   2.818   4.094
11099TIP3   OH233241   2.669   0.386   5.120
11099TIP3    H133242   2.665   0.378   5.025
11099TIP3    H233243   2.739   0.448   5.136
11100TIP3   OH233244   4.417   4.870   2.671
11100TIP3    H133245   4.474   4.842   2.600
11100TIP3    H233246   4.354   4.798   2.681
11101TIP3   OH233247   4.747   6.937   0.505
11101TIP3    H133248   4.758   6.955   0.598
11101TIP3    H233249   4.717   7.020   0.468
11102TIP3   OH233250   2.101   5.431   5.220
11102TIP3    H133251   2.119   5.505   5.161
11102TIP3    H233252   2.041   5.467   5.285
11103TIP3   OH233253   6.482   1.472   1.842
11103TIP3    H133254   6.539   1.520   1.903
11103TIP3    H233255   6.470   1.532   1.769
11104TIP3   OH233256   7.797   6.116   3.355
11104TIP3    H133257   7.844   6.194   3.384
11104TIP3    H233258   7.863   6.063   3.311
11105TIP3   OH233259   7.417   1.040   0.505
11105TIP3    H133260   7.378   1.058   0.591
11105TIP3    H233261   7.507   1.071   0.513
11106TIP3   OH233262   4.786   3.918   2.740
11106TIP3    H133263   4.729   3.988   2.771
11106TIP3    H233264   4.738   3.838   2.759
11107TIP3   OH233265   0.126   1.277   6.726
11107TIP3    H133266   0.204   1.238   6.685
11107TIP3    H233267   0.101   1.348   6.667
11108TIP3   OH233268   1.711   2.616   5.969
11108TIP3    H133269   1.771   2.602   6.042
11108TIP3    H233270   1.768   2.636   5.894
11109TIP3   OH233271   1.696   5.331   1.033
11109TIP3    H133272   1.787   5.350   1.008
11109TIP3    H233273   1.667   5.267   0.968
11110TIP3   OH233274   7.268   0.547   0.398
11110TIP3    H133275   7.196   0.489   0.371
11110TIP3    H233276   7.233   0.593   0.475
11111TIP3   OH233277   4.955   5.387   0.991
11111TIP3    H133278   5.001   5.376   1.075
11111TIP3    H233279   4.907   5.305   0.979
11112TIP3   OH233280   3.794   3.727   2.754
11112TIP3    H133281   3.783   3.632   2.747
11112TIP3    H233282   3.879   3.739   2.796
11113TIP3   OH233283   4.968   5.261   5.997
11113TIP3    H133284   5.013   5.227   5.920
11113TIP3    H233285   4.940   5.349   5.972
11114TIP3   OH233286   0.128   0.659   6.241
11114TIP3    H133287   0.070   0.720   6.195
11114TIP3    H233288   0.211   0.664   6.193
11115TIP3   OH233289   3.520   6.560   6.521
11115TIP3    H133290   3.459   6.628   6.548
11115TIP3    H233291   3.477   6.478   6.544
11116TIP3   OH233292   4.060   0.693   5.492
11116TIP3    H133293   4.068   0.719   5.584
11116TIP3    H233294   4.004   0.615   5.494
11117TIP3   OH233295   0.455   0.824   4.138
11117TIP3    H133296   0.407   0.873   4.205
11117TIP3    H233297   0.403   0.744   4.126
11118TIP3   OH233298   3.296   7.725   1.197
11118TIP3    H133299   3.235   7.789   1.232
11118TIP3    H233300   3.348   7.775   1.133
11119TIP3   OH233301   4.063   5.248   6.126
11119TIP3    H133302   4.033   5.313   6.190
11119TIP3    H233303   4.143   5.286   6.089
11120TIP3   OH233304   6.489   4.110   6.314
11120TIP3    H133305   6.530   4.153   6.388
11120TIP3    H233306   6.497   4.172   6.242
11121TIP3   OH233307   2.195   0.134   1.231
11121TIP3    H133308   2.200   0.217   1.279
11121TIP3    H233309   2.154   0.157   1.147
11122TIP3   OH233310   1.914   5.481   1.261
11122TIP3    H133311   1.882   5.529   1.338
11122TIP3    H233312   1.991   5.433   1.293
11123TIP3   OH233313   3.720   2.642   2.364
11123TIP3    H133314   3.709   2.557   2.408
11123TIP3    H233315   3.814   2.660   2.372
11124TIP3   OH233316   3.231   6.222   5.765
11124TIP3    H133317   3.198   6.224   5.676
11124TIP3    H233318   3.284   6.302   5.773
11125TIP3   OH233319   0.956   2.153   0.174
11125TIP3    H133320   0.986   2.167   0.084
11125TIP3    H233321   0.909   2.069   0.171
11126TIP3   OH233322   7.775   0.395   1.991
11126TIP3    H133323   7.727   0.416   2.071
11126TIP3    H233324   7.811   0.479   1.962
11127TIP3   OH233325   5.513   7.274   3.796
11127TIP3    H133326   5.510   7.179   3.790
11127TIP3    H233327   5.537   7.292   3.887
11128TIP3   OH233328   2.504   1.607   5.433
11128TIP3    H133329   2.511   1.597   5.528
11128TIP3    H233330   2.544   1.693   5.415
11129TIP3   OH233331   3.330   5.872   4.179
11129TIP3    H133332   3.408   5.831   4.141
11129TIP3    H233333   3.347   5.872   4.273
11130TIP3   OH233334   3.202   7.744   5.274
11130TIP3    H133335   3.132   7.695   5.317
11130TIP3    H233336   3.165   7.831   5.258
11131TIP3   OH233337   4.460   0.763   0.143
11131TIP3    H133338   4.412   0.766   0.060
11131TIP3    H233339   4.529   0.828   0.133
11132TIP3   OH233340   6.996   0.326   6.341
11132TIP3    H133341   7.078   0.304   6.296
11132TIP3    H233342   6.976   0.249   6.394
11133TIP3   OH233343   5.201   6.617   3.112
11133TIP3    H133344   5.286   6.586   3.144
11133TIP3    H233345   5.170   6.547   3.054
11134TIP3   OH233346   3.360   1.238   0.769
11134TIP3    H133347   3.444   1.237   0.815
11134TIP3    H233348   3.376   1.190   0.688
11135TIP3   OH233349   6.996   2.200   2.547
11135TIP3    H133350   7.054   2.134   2.512
11135TIP3    H233351   7.037   2.228   2.629
11136TIP3   OH233352   1.555   6.043   0.699
11136TIP3    H133353   1.565   6.094   0.618
11136TIP3    H233354   1.615   5.969   0.688
11137TIP3   OH233355   1.950   6.400   1.302
11137TIP3    H133356   1.941   6.361   1.215
11137TIP3    H233357   1.982   6.329   1.357
11138TIP3   OH233358   1.218   2.402   2.276
11138TIP3    H133359   1.277   2.408   2.201
11138TIP3    H233360   1.252   2.466   2.339
11139TIP3   OH233361   1.325   3.077   1.280
11139TIP3    H133362   1.413   3.115   1.270
11139TIP3    H233363   1.271   3.127   1.219
11140TIP3   OH233364   7.416   6.958   0.042
11140TIP3    H133365   7.463   6.875   0.036
11140TIP3    H233366   7.406   6.973   0.136
11141TIP3   OH233367   1.600   4.184   1.962
11141TIP3    H133368   1.529   4.227   2.008
11141TIP3    H233369   1.668   4.251   1.954
11142TIP3   OH233370   5.000   7.816   6.683
11142TIP3    H133371   5.038   7.731   6.702
11142TIP3    H233372   5.015   7.829   6.589
11143TIP3   OH233373   0.218   2.448   3.677
11143TIP3    H133374   0.172   2.521   3.718
11143TIP3    H233375   0.218   2.468   3.583
11144TIP3   OH233376   4.457   2.149   1.802
11144TIP3    H133377   4.425   2.081   1.861
11144TIP3    H233378   4.390   2.156   1.734
11145TIP3   OH233379   3.598   2.116   5.468
11145TIP3    H133380   3.612   2.211   5.475
11145TIP3    H233381   3.503   2.106   5.462
11146TIP3   OH233382   0.141   1.973   0.158
11146TIP3    H133383   0.177   1.944   0.074
11146TIP3    H233384   0.147   2.069   0.155
11147TIP3   OH233385   3.371   7.347   4.303
11147TIP3    H133386   3.386   7.397   4.383
11147TIP3    H233387   3.456   7.347   4.259
11148TIP3   OH233388   7.076   0.568   1.153
11148TIP3    H133389   7.142   0.500   1.170
11148TIP3    H233390   7.114   0.621   1.083
11149TIP3   OH233391   3.767   6.300   3.845
11149TIP3    H133392   3.814   6.335   3.769
11149TIP3    H233393   3.676   6.293   3.815
11150TIP3   OH233394   5.646   4.504   2.127
11150TIP3    H133395   5.691   4.588   2.139
11150TIP3    H233396   5.688   4.465   2.051
11151TIP3   OH233397   7.157   6.023   2.931
11151TIP3    H133398   7.089   6.013   2.863
11151TIP3    H233399   7.149   5.944   2.984
11152TIP3   OH233400   0.644   4.976   0.859
11152TIP3    H133401   0.568   5.026   0.889
11152TIP3    H233402   0.706   5.043   0.830
11153TIP3   OH233403   2.401   2.866   0.310
11153TIP3    H133404   2.377   2.784   0.353
11153TIP3    H233405   2.497   2.860   0.301
11154TIP3   OH233406   6.941   1.889   2.959
11154TIP3    H133407   6.916   1.929   2.876
11154TIP3    H233408   6.907   1.949   3.025
11155TIP3   OH233409   3.467   6.370   4.116
11155TIP3    H133410   3.552   6.408   4.092
11155TIP3    H233411   3.475   6.278   4.092
11156TIP3   OH233412   4.886   4.798   1.532
11156TIP3    H133413   4.902   4.844   1.614
11156TIP3    H233414   4.963   4.741   1.522
11157TIP3   OH233415   2.053   7.143   2.301
11157TIP3    H133416   1.960   7.164   2.307
11157TIP3    H233417   2.076   7.164   2.211
11158TIP3   OH233418   3.523   2.243   0.502
11158TIP3    H133419   3.502   2.181   0.433
11158TIP3    H233420   3.614   2.224   0.526
11159TIP3   OH233421   1.718   0.640   1.495
11159TIP3    H133422   1.676   0.576   1.437
11159TIP3    H233423   1.651   0.660   1.561
11160TIP3   OH233424   2.703   4.255   5.199
11160TIP3    H133425   2.790   4.289   5.183
11160TIP3    H233426   2.652   4.282   5.123
11161TIP3   OH233427   2.055   2.317   3.913
11161TIP3    H133428   2.005   2.397   3.896
11161TIP3    H233429   2.100   2.334   3.996
11162TIP3   OH233430   6.168   0.629   3.606
11162TIP3    H133431   6.235   0.692   3.633
11162TIP3    H233432   6.156   0.574   3.684
11163TIP3   OH233433   5.310   0.337   6.319
11163TIP3    H133434   5.271   0.379   6.242
11163TIP3    H233435   5.237   0.295   6.364
11164TIP3   OH233436   4.137   6.808   0.236
11164TIP3    H133437   4.116   6.877   0.299
11164TIP3    H233438   4.092   6.731   0.270
11165TIP3   OH233439   5.590   4.717   2.999
11165TIP3    H133440   5.647   4.700   2.924
11165TIP3    H233441   5.510   4.753   2.961
11166TIP3   OH233442   0.546   4.145   3.072
11166TIP3    H133443   0.511   4.085   3.007
11166TIP3    H233444   0.486   4.220   3.071
11167TIP3   OH233445   4.412   4.102   1.406
11167TIP3    H133446   4.415   4.087   1.500
11167TIP3    H233447   4.364   4.184   1.396
11168TIP3   OH233448   1.004   1.994   5.813
11168TIP3    H133449   1.051   1.966   5.892
11168TIP3    H233450   0.944   1.922   5.794
11169TIP3   OH233451   0.338   6.005   4.357
11169TIP3    H133452   0.270   5.941   4.375
11169TIP3    H233453   0.292   6.088   4.347
11170TIP3   OH233454   4.796   7.780   4.720
11170TIP3    H133455   4.803   7.865   4.763
11170TIP3    H233456   4.707   7.778   4.685
11171TIP3   OH233457   1.668   7.196   2.596
11171TIP3    H133458   1.621   7.276   2.573
11171TIP3    H233459   1.732   7.184   2.526
11172TIP3   OH233460   7.620   3.387   6.563
11172TIP3    H133461   7.705   3.430   6.559
11172TIP3    H233462   7.590   3.402   6.653
11173TIP3   OH233463   7.571   1.758   3.433
11173TIP3    H133464   7.589   1.664   3.435
11173TIP3    H233465   7.477   1.765   3.454
11174TIP3   OH233466   1.826   6.903   5.562
11174TIP3    H133467   1.779   6.859   5.491
11174TIP3    H233468   1.790   6.991   5.563
11175TIP3   OH233469   2.871   0.256   0.776
11175TIP3    H133470   2.788   0.284   0.815
11175TIP3    H233471   2.913   0.338   0.749
11176TIP3   OH233472   3.979   4.143   1.029
11176TIP3    H133473   3.963   4.086   1.104
11176TIP3    H233474   4.050   4.100   0.981
11177TIP3   OH233475   6.756   1.935   3.798
11177TIP3    H133476   6.680   1.970   3.751
11177TIP3    H233477   6.722   1.860   3.847
11178TIP3   OH233478   3.269   3.650   2.950
11178TIP3    H133479   3.338   3.694   2.900
11178TIP3    H233480   3.316   3.585   3.002
11179TIP3   OH233481   0.838   0.260   3.649
11179TIP3    H133482   0.833   0.177   3.601
11179TIP3    H233483   0.796   0.241   3.733
11180TIP3   OH233484   4.940   7.087   1.855
11180TIP3    H133485   4.854   7.128   1.848
11180TIP3    H233486   4.985   7.138   1.923
11181TIP3   OH233487   3.906   2.873   5.929
11181TIP3    H133488   3.912   2.966   5.904
11181TIP3    H233489   3.956   2.867   6.010
11182TIP3   OH233490   1.998   6.876   4.553
11182TIP3    H133491   2.077   6.867   4.605
11182TIP3    H233492   1.950   6.948   4.594
11183TIP3   OH233493   4.239   0.601   2.897
11183TIP3    H133494   4.283   0.521   2.927
11183TIP3    H233495   4.249   0.662   2.971
11184TIP3   OH233496   7.826   4.452   4.198
11184TIP3    H133497   7.851   4.395   4.126
11184TIP3    H233498   7.904   4.454   4.255
11185TIP3   OH233499   7.457   5.333   1.694
11185TIP3    H133500   7.364   5.354   1.702
11185TIP3    H233501   7.488   5.391   1.625
11186TIP3   OH233502   6.782   4.521   1.669
11186TIP3    H133503   6.789   4.537   1.575
11186TIP3    H233504   6.703   4.569   1.696
11187TIP3   OH233505   1.443   5.153   5.134
11187TIP3    H133506   1.501   5.106   5.193
11187TIP3    H233507   1.491   5.233   5.111
11188TIP3   OH233508   0.743   0.457   3.986
11188TIP3    H133509   0.753   0.453   4.081
11188TIP3    H233510   0.763   0.368   3.957
11189TIP3   OH233511   6.626   6.850   0.178
11189TIP3    H133512   6.656   6.854   0.087
11189TIP3    H233513   6.539   6.890   0.176
11190TIP3   OH233514   1.860   3.738   1.021
11190TIP3    H133515   1.857   3.698   0.934
11190TIP3    H233516   1.860   3.832   1.004
11191TIP3   OH233517   6.134   4.334   2.860
11191TIP3    H133518   6.206   4.347   2.798
11191TIP3    H233519   6.137   4.241   2.880
11192TIP3   OH233520   3.926   1.884   2.358
11192TIP3    H133521   3.836   1.913   2.344
11192TIP3    H233522   3.969   1.898   2.273
11193TIP3   OH233523   7.230   3.804   3.710
11193TIP3    H133524   7.161   3.792   3.775
11193TIP3    H233525   7.311   3.794   3.759
11194TIP3   OH233526   1.152   5.742   3.564
11194TIP3    H133527   1.184   5.661   3.603
11194TIP3    H233528   1.227   5.778   3.517
11195TIP3   OH233529   5.867   2.125   1.103
11195TIP3    H133530   5.773   2.141   1.098
11195TIP3    H233531   5.893   2.162   1.187
11196TIP3   OH233532   6.644   5.510   2.176
11196TIP3    H133533   6.569   5.476   2.225
11196TIP3    H233534   6.619   5.600   2.154
11197TIP3   OH233535   3.571   4.510   1.492
11197TIP3    H133536   3.601   4.529   1.403
11197TIP3    H233537   3.484   4.471   1.481
11198TIP3   OH233538   3.661   4.599   0.936
11198TIP3    H133539   3.700   4.516   0.911
11198TIP3    H233540   3.646   4.645   0.854
11199TIP3   OH233541   6.852   2.002   5.112
11199TIP3    H133542   6.801   2.067   5.161
11199TIP3    H233543   6.941   2.011   5.147
11200TIP3   OH233544   5.410   3.977   4.091
11200TIP3    H133545   5.380   3.978   4.000
11200TIP3    H233546   5.477   4.045   4.095
11201TIP3   OH233547   5.174   6.039   5.346
11201TIP3    H133548   5.201   5.951   5.322
11201TIP3    H233549   5.213   6.053   5.433
11202TIP3   OH233550   5.040   0.392   3.162
11202TIP3    H133551   4.961   0.356   3.200
11202TIP3    H233552   5.090   0.315   3.133
11203TIP3   OH233553   2.833   5.706   1.522
11203TIP3    H133554   2.820   5.767   1.450
11203TIP3    H233555   2.784   5.743   1.595
11204TIP3   OH233556   6.392   1.512   5.708
11204TIP3    H133557   6.403   1.582   5.773
11204TIP3    H233558   6.298   1.510   5.691
11205TIP3   OH233559   3.866   3.538   1.128
11205TIP3    H133560   3.925   3.544   1.204
11205TIP3    H233561   3.892   3.458   1.084
11206TIP3   OH233562   4.029   6.372   2.150
11206TIP3    H133563   3.968   6.307   2.186
11206TIP3    H233564   3.973   6.434   2.104
11207TIP3   OH233565   4.536   6.385   1.983
11207TIP3    H133566   4.446   6.360   2.004
11207TIP3    H233567   4.564   6.320   1.919
11208TIP3   OH233568   7.565   2.447   2.332
11208TIP3    H133569   7.636   2.401   2.378
11208TIP3    H233570   7.525   2.380   2.276
11209TIP3   OH233571   0.071   1.560   0.480
11209TIP3    H133572   0.145   1.543   0.537
11209TIP3    H233573   0.000   1.583   0.540
11210TIP3   OH233574   7.646   6.045   6.607
11210TIP3    H133575   7.603   6.097   6.539
11210TIP3    H233576   7.702   5.984   6.558
11211TIP3   OH233577   1.164   2.307   0.254
11211TIP3    H133578   1.223   2.322   0.179
11211TIP3    H233579   1.106   2.237   0.224
11212TIP3   OH233580   5.888   0.515   4.286
11212TIP3    H133581   5.970   0.478   4.254
11212TIP3    H233582   5.895   0.510   4.381
11213TIP3   OH233583   1.872   6.757   2.028
11213TIP3    H133584   1.820   6.736   1.951
11213TIP3    H233585   1.899   6.848   2.015
11214TIP3   OH233586   0.918   2.221   1.261
11214TIP3    H133587   0.925   2.314   1.238
11214TIP3    H233588   0.898   2.177   1.179
11215TIP3   OH233589   5.084   7.487   6.052
11215TIP3    H133590   5.095   7.577   6.083
11215TIP3    H233591   5.101   7.491   5.958
11216TIP3   OH233592   7.867   1.754   1.774
11216TIP3    H133593   7.962   1.749   1.785
11216TIP3    H233594   7.838   1.663   1.770
11217TIP3   OH233595   0.933   5.928   0.514
11217TIP3    H133596   0.839   5.940   0.526
11217TIP3    H233597   0.941   5.884   0.429
11218TIP3   OH233598   4.762   4.481   5.041
11218TIP3    H133599   4.720   4.568   5.039
11218TIP3    H233600   4.818   4.484   5.118
11219TIP3   OH233601   6.679   6.801   2.930
11219TIP3    H133602   6.705   6.812   2.839
11219TIP3    H233603   6.750   6.751   2.969
11220TIP3   OH233604   3.660   2.240   1.191
11220TIP3    H133605   3.664   2.322   1.241
11220TIP3    H233606   3.568   2.217   1.191
11221TIP3   OH233607   3.497   2.831   0.423
11221TIP3    H133608   3.545   2.888   0.363
11221TIP3    H233609   3.420   2.881   0.448
11222TIP3   OH233610   6.758   2.805   3.558
11222TIP3    H133611   6.746   2.860   3.480
11222TIP3    H233612   6.746   2.716   3.526
11223TIP3   OH233613   1.032   5.630   6.575
11223TIP3    H133614   1.026   5.724   6.594
11223TIP3    H233615   0.978   5.618   6.497
11224TIP3   OH233616   5.145   4.658   4.004
11224TIP3    H133617   5.198   4.674   4.083
11224TIP3    H233618   5.069   4.610   4.037
11225TIP3   OH233619   1.380   6.237   3.990
11225TIP3    H133620   1.375   6.230   3.895
11225TIP3    H233621   1.338   6.320   4.010
11226TIP3   OH233622   6.136   2.916   2.693
11226TIP3    H133623   6.202   2.896   2.626
11226TIP3    H233624   6.177   2.984   2.747
11227TIP3   OH233625   1.531   6.217   2.566
11227TIP3    H133626   1.484   6.287   2.519
11227TIP3    H233627   1.545   6.150   2.499
11228TIP3   OH233628   6.865   2.778   1.580
11228TIP3    H133629   6.776   2.797   1.610
11228TIP3    H233630   6.921   2.828   1.639
11229TIP3   OH233631   5.000   5.066   3.284
11229TIP3    H133632   5.022   5.039   3.373
11229TIP3    H233633   4.908   5.043   3.273
11230TIP3   OH233634   2.422   5.249   6.163
11230TIP3    H133635   2.493   5.205   6.210
11230TIP3    H233636   2.449   5.245   6.071
11231TIP3   OH233637   2.141   7.558   4.742
11231TIP3    H133638   2.068   7.590   4.795
11231TIP3    H233639   2.145   7.618   4.668
11232TIP3   OH233640   5.364   5.122   0.295
11232TIP3    H133641   5.384   5.183   0.224
11232TIP3    H233642   5.294   5.166   0.345
11233TIP3   OH233643   0.442   5.947   0.730
11233TIP3    H133644   0.397   5.981   0.808
11233TIP3    H233645   0.416   5.855   0.725
11234TIP3   OH233646   1.712   0.989   1.791
11234TIP3    H133647   1.760   0.937   1.855
11234TIP3    H233648   1.624   0.951   1.790
11235TIP3   OH233649   3.810   0.153   3.973
11235TIP3    H133650   3.810   0.083   4.039
11235TIP3    H233651   3.885   0.134   3.917
11236TIP3   OH233652   3.032   3.111   3.166
11236TIP3    H133653   2.950   3.063   3.150
11236TIP3    H233654   3.100   3.044   3.162
11237TIP3   OH233655   2.120   0.672   6.297
11237TIP3    H133656   2.096   0.707   6.211
11237TIP3    H233657   2.115   0.577   6.287
11238TIP3   OH233658   1.005   5.128   1.592
11238TIP3    H133659   0.951   5.055   1.622
11238TIP3    H233660   1.047   5.096   1.512
11239TIP3   OH233661   4.969   7.807   5.187
11239TIP3    H133662   4.973   7.773   5.276
11239TIP3    H233663   4.900   7.757   5.145
11240TIP3   OH233664   3.971   6.522   5.483
11240TIP3    H133665   3.895   6.502   5.428
11240TIP3    H233666   3.937   6.518   5.572
11241TIP3   OH233667   7.876   0.719   5.346
11241TIP3    H133668   7.851   0.648   5.286
11241TIP3    H233669   7.902   0.674   5.427
11242TIP3   OH233670   0.225   3.534   0.651
11242TIP3    H133671   0.191   3.491   0.730
11242TIP3    H233672   0.153   3.590   0.621
11243TIP3   OH233673   3.052   6.476   2.320
11243TIP3    H133674   2.961   6.484   2.289
11243TIP3    H233675   3.050   6.402   2.380
11244TIP3   OH233676   3.789   3.461   2.694
11244TIP3    H133677   3.769   3.460   2.600
11244TIP3    H233678   3.718   3.412   2.734
11245TIP3   OH233679   5.165   3.324   0.876
11245TIP3    H133680   5.104   3.251   0.866
11245TIP3    H233681   5.252   3.284   0.865
11246TIP3   OH233682   0.714   6.744   5.910
11246TIP3    H133683   0.672   6.775   5.990
11246TIP3    H233684   0.701   6.649   5.911
11247TIP3   OH233685   0.652   0.008   0.787
11247TIP3    H133686   0.689   0.009   0.875
11247TIP3    H233687   0.615   0.095   0.775
11248TIP3   OH233688   4.066   5.732   3.086
11248TIP3    H133689   4.008   5.693   3.151
11248TIP3    H233690   4.028   5.818   3.067
11249TIP3   OH233691   7.043   1.565   0.830
11249TIP3    H133692   7.051   1.659   0.811
11249TIP3    H233693   6.949   1.547   0.824
11250TIP3   OH233694   6.420   6.987   1.531
11250TIP3    H133695   6.365   6.910   1.520
11250TIP3    H233696   6.374   7.041   1.595
11251TIP3   OH233697   5.701   6.127   5.835
11251TIP3    H133698   5.693   6.041   5.795
11251TIP3    H233699   5.618   6.170   5.815
11252TIP3   OH233700   4.209   3.331   3.656
11252TIP3    H133701   4.132   3.365   3.702
11252TIP3    H233702   4.209   3.238   3.676
11253TIP3   OH233703   4.154   1.378   0.111
11253TIP3    H133704   4.232   1.388   0.165
11253TIP3    H233705   4.108   1.303   0.149
11254TIP3   OH233706   2.577   1.668   1.663
11254TIP3    H133707   2.531   1.675   1.747
11254TIP3    H233708   2.658   1.717   1.676
11255TIP3   OH233709   1.385   5.142   0.973
11255TIP3    H133710   1.364   5.235   0.983
11255TIP3    H233711   1.449   5.140   0.901
11256TIP3   OH233712   2.142   1.880   4.916
11256TIP3    H133713   2.230   1.905   4.946
11256TIP3    H233714   2.100   1.842   4.993
11257TIP3   OH233715   7.693   1.541   3.290
11257TIP3    H133716   7.684   1.607   3.221
11257TIP3    H233717   7.719   1.462   3.244
11258TIP3   OH233718   5.368   5.000   3.776
11258TIP3    H133719   5.388   5.024   3.867
11258TIP3    H233720   5.341   4.909   3.781
11259TIP3   OH233721   1.922   4.698   3.812
11259TIP3    H133722   1.980   4.768   3.841
11259TIP3    H233723   1.843   4.742   3.782
11260TIP3   OH233724   1.144   6.776   3.546
11260TIP3    H133725   1.067   6.780   3.603
11260TIP3    H233726   1.115   6.820   3.466
11261TIP3   OH233727   0.788   1.276   6.796
11261TIP3    H133728   0.709   1.330   6.790
11261TIP3    H233729   0.840   1.300   6.719
11262TIP3   OH233730   2.326   6.443   4.979
11262TIP3    H133731   2.364   6.435   4.892
11262TIP3    H233732   2.258   6.509   4.970
11263TIP3   OH233733   1.875   7.324   0.992
11263TIP3    H133734   1.850   7.415   1.009
11263TIP3    H233735   1.794   7.274   1.002
11264TIP3   OH233736   5.375   1.017   3.024
11264TIP3    H133737   5.341   1.096   3.065
11264TIP3    H233738   5.468   1.017   3.046
11265TIP3   OH233739   7.671   7.126   6.206
11265TIP3    H133740   7.660   7.143   6.112
11265TIP3    H233741   7.732   7.052   6.210
11266TIP3   OH233742   6.195   4.728   6.354
11266TIP3    H133743   6.102   4.731   6.377
11266TIP3    H233744   6.204   4.789   6.281
11267TIP3   OH233745   7.349   4.401   5.975
11267TIP3    H133746   7.434   4.422   6.014
11267TIP3    H233747   7.325   4.480   5.926
11268TIP3   OH233748   8.160   0.631   3.238
11268TIP3    H133749   8.084   0.574   3.245
11268TIP3    H233750   8.228   0.576   3.198
11269TIP3   OH233751   0.665   7.189   0.786
11269TIP3    H133752   0.753   7.175   0.751
11269TIP3    H233753   0.679   7.216   0.876
11270TIP3   OH233754   2.644   2.059   1.738
11270TIP3    H133755   2.591   2.139   1.735
11270TIP3    H233756   2.622   2.019   1.821
11271TIP3   OH233757   4.886   5.478   1.838
11271TIP3    H133758   4.843   5.515   1.914
11271TIP3    H233759   4.850   5.389   1.831
11272TIP3   OH233760   2.732   6.224   1.601
11272TIP3    H133761   2.776   6.200   1.682
11272TIP3    H233762   2.741   6.147   1.544
11273TIP3   OH233763   2.890   0.322   2.284
11273TIP3    H133764   2.804   0.364   2.285
11273TIP3    H233765   2.941   0.375   2.223
11274TIP3   OH233766   4.371   0.278   3.874
11274TIP3    H133767   4.362   0.288   3.969
11274TIP3    H233768   4.297   0.224   3.848
11275TIP3   OH233769   2.598   0.207   3.335
11275TIP3    H133770   2.511   0.202   3.376
11275TIP3    H233771   2.624   0.116   3.323
11276TIP3   OH233772   6.970   3.974   1.242
11276TIP3    H133773   6.965   4.068   1.260
11276TIP3    H233774   7.032   3.967   1.169
11277TIP3   OH233775   7.732   5.760   4.275
11277TIP3    H133776   7.771   5.694   4.333
11277TIP3    H233777   7.709   5.832   4.334
11278TIP3   OH233778   1.170   7.641   5.062
11278TIP3    H133779   1.130   7.579   5.001
11278TIP3    H233780   1.126   7.625   5.145
11279TIP3   OH233781   3.006   3.674   2.202
11279TIP3    H133782   3.070   3.607   2.176
11279TIP3    H233783   3.000   3.732   2.126
11280TIP3   OH233784   1.477   3.381   3.344
11280TIP3    H133785   1.566   3.413   3.360
11280TIP3    H233786   1.479   3.349   3.254
11281TIP3   OH233787   0.501   6.986   0.478
11281TIP3    H133788   0.527   7.065   0.526
11281TIP3    H233789   0.574   6.970   0.418
11282TIP3   OH233790   5.305   6.935   3.822
11282TIP3    H133791   5.345   6.853   3.850
11282TIP3    H233792   5.294   6.985   3.902
11283TIP3   OH233793   4.035   0.106   0.706
11283TIP3    H133794   4.103   0.126   0.771
11283TIP3    H233795   3.961   0.161   0.731
11284TIP3   OH233796   0.389   7.568   4.321
11284TIP3    H133797   0.452   7.512   4.366
11284TIP3    H233798   0.419   7.657   4.341
11285TIP3   OH233799   4.744   2.930   4.977
11285TIP3    H133800   4.778   2.902   4.892
11285TIP3    H233801   4.741   2.850   5.029
11286TIP3   OH233802   3.948   5.594   5.129
11286TIP3    H133803   3.951   5.678   5.084
11286TIP3    H233804   4.040   5.569   5.141
11287TIP3   OH233805   7.263   5.470   2.150
11287TIP3    H133806   7.325   5.443   2.082
11287TIP3    H233807   7.177   5.454   2.112
11288TIP3   OH233808   6.770   4.237   2.079
11288TIP3    H133809   6.834   4.193   2.135
11288TIP3    H233810   6.686   4.196   2.103
11289TIP3   OH233811   4.333   7.706   4.046
11289TIP3    H133812   4.379   7.633   4.005
11289TIP3    H233813   4.316   7.676   4.136
11290TIP3   OH233814   5.191   0.992   0.446
11290TIP3    H133815   5.283   0.991   0.470
11290TIP3    H233816   5.152   1.060   0.501
11291TIP3   OH233817   4.709   0.671   5.533
11291TIP3    H133818   4.686   0.578   5.539
11291TIP3    H233819   4.656   0.713   5.601
11292TIP3   OH233820   2.865   2.419   1.941
11292TIP3    H133821   2.920   2.373   2.004
11292TIP3    H233822   2.884   2.378   1.857
11293TIP3   OH233823   7.964   3.139   1.683
11293TIP3    H133824   7.916   3.120   1.602
11293TIP3    H233825   7.969   3.054   1.728
11294TIP3   OH233826   0.203   7.441   2.789
11294TIP3    H133827   0.164   7.527   2.807
11294TIP3    H233828   0.279   7.435   2.847
11295TIP3   OH233829   4.841   6.316   1.788
11295TIP3    H133830   4.896   6.256   1.738
11295TIP3    H233831   4.898   6.347   1.859
11296TIP3   OH233832   6.987   4.516   2.500
11296TIP3    H133833   7.051   4.564   2.447
11296TIP3    H233834   7.039   4.466   2.562
11297TIP3   OH233835   4.823   2.461   2.180
11297TIP3    H133836   4.900   2.405   2.167
11297TIP3    H233837   4.760   2.405   2.225
11298TIP3   OH233838   6.240   5.766   0.731
11298TIP3    H133839   6.286   5.733   0.654
11298TIP3    H233840   6.308   5.813   0.781
11299TIP3   OH233841   0.564   3.701   3.734
11299TIP3    H133842   0.647   3.697   3.687
11299TIP3    H233843   0.497   3.695   3.666
11300TIP3   OH233844   6.894   6.375   2.879
11300TIP3    H133845   6.974   6.389   2.830
11300TIP3    H233846   6.824   6.379   2.814
11301TIP3   OH233847   8.183   6.938   3.489
11301TIP3    H133848   8.244   6.865   3.481
11301TIP3    H233849   8.184   6.980   3.403
11302TIP3   OH233850   7.746   3.521   1.864
11302TIP3    H133851   7.697   3.522   1.946
11302TIP3    H233852   7.727   3.607   1.824
11303TIP3   OH233853   5.065   4.000   3.701
11303TIP3    H133854   5.078   4.093   3.679
11303TIP3    H233855   4.984   3.999   3.752
11304TIP3   OH233856   6.440   7.582   2.191
11304TIP3    H133857   6.347   7.562   2.204
11304TIP3    H233858   6.464   7.634   2.268
11305TIP3   OH233859   6.722   0.850   4.430
11305TIP3    H133860   6.683   0.866   4.516
11305TIP3    H233861   6.751   0.936   4.400
11306TIP3   OH233862   5.413   0.223   0.002
11306TIP3    H133863   5.448   0.302  -0.040
11306TIP3    H233864   5.489   0.185   0.047
11307TIP3   OH233865   6.881   4.273   2.343
11307TIP3    H133866   6.790   4.250   2.362
11307TIP3    H233867   6.889   4.363   2.373
11308TIP3   OH233868   3.117   2.192   5.268
11308TIP3    H133869   3.060   2.262   5.301
11308TIP3    H233870   3.063   2.143   5.207
11309TIP3   OH233871   7.555   5.694   3.608
11309TIP3    H133872   7.619   5.627   3.630
11309TIP3    H233873   7.480   5.646   3.573
11310TIP3   OH233874   1.886   4.636   4.490
11310TIP3    H133875   1.956   4.611   4.550
11310TIP3    H233876   1.812   4.658   4.546
11311TIP3   OH233877   0.160   0.439   0.173
11311TIP3    H133878   0.094   0.483   0.227
11311TIP3    H233879   0.212   0.511   0.137
11312TIP3   OH233880   0.642   4.087   0.667
11312TIP3    H133881   0.678   4.014   0.617
11312TIP3    H233882   0.549   4.088   0.643
11313TIP3   OH233883   0.912   4.727   2.200
11313TIP3    H133884   0.868   4.699   2.280
11313TIP3    H233885   0.951   4.647   2.165
11314TIP3   OH233886   7.172   3.965   1.064
11314TIP3    H133887   7.174   3.870   1.073
11314TIP3    H233888   7.243   3.986   1.004
11315TIP3   OH233889   8.309   6.455   6.038
11315TIP3    H133890   8.231   6.479   5.989
11315TIP3    H233891   8.298   6.497   6.123
11316TIP3   OH233892   4.781   7.314   4.422
11316TIP3    H133893   4.800   7.233   4.468
11316TIP3    H233894   4.688   7.308   4.400
11317TIP3   OH233895   0.590   2.108   0.205
11317TIP3    H133896   0.609   2.096   0.298
11317TIP3    H233897   0.498   2.132   0.202
11318TIP3   OH233898   5.231   0.185   5.378
11318TIP3    H133899   5.249   0.179   5.285
11318TIP3    H233900   5.296   0.127   5.419
11319TIP3   OH233901   0.951   2.087   6.126
11319TIP3    H133902   0.865   2.124   6.107
11319TIP3    H233903   1.007   2.118   6.055
11320TIP3   OH233904   3.259   0.111   5.478
11320TIP3    H133905   3.191   0.113   5.412
11320TIP3    H233906   3.216   0.140   5.558
11321TIP3   OH233907   5.635   4.620   6.163
11321TIP3    H133908   5.678   4.539   6.135
11321TIP3    H233909   5.633   4.675   6.085
11322TIP3   OH233910   3.403   3.683   1.644
11322TIP3    H133911   3.337   3.613   1.637
11322TIP3    H233912   3.356   3.763   1.620
11323TIP3   OH233913   3.303   5.288   1.853
11323TIP3    H133914   3.230   5.287   1.914
11323TIP3    H233915   3.265   5.322   1.771
11324TIP3   OH233916   2.623   1.403   1.597
11324TIP3    H133917   2.597   1.491   1.624
11324TIP3    H233918   2.623   1.405   1.502
11325TIP3   OH233919   5.527   4.571   4.873
11325TIP3    H133920   5.621   4.563   4.889
11325TIP3    H233921   5.493   4.616   4.951
11326TIP3   OH233922   7.180   2.011   2.443
11326TIP3    H133923   7.269   2.002   2.476
11326TIP3    H233924   7.153   1.921   2.422
11327TIP3   OH233925   5.734   3.553   5.040
11327TIP3    H133926   5.798   3.603   5.092
11327TIP3    H233927   5.670   3.617   5.012
11328TIP3   OH233928   1.179   4.716   1.715
11328TIP3    H133929   1.233   4.718   1.636
11328TIP3    H233930   1.230   4.664   1.778
11329TIP3   OH233931   4.022   3.062   0.615
11329TIP3    H133932   3.945   3.039   0.563
11329TIP3    H233933   4.088   2.997   0.590
11330TIP3   OH233934   5.945   0.331   3.531
11330TIP3    H133935   5.886   0.386   3.479
11330TIP3    H233936   5.936   0.244   3.493
11331TIP3   OH233937   3.103   0.708   2.328
11331TIP3    H133938   3.042   0.773   2.294
11331TIP3    H233939   3.089   0.631   2.273
11332TIP3   OH233940   5.909   0.711   5.919
11332TIP3    H133941   5.995   0.674   5.939
11332TIP3    H233942   5.928   0.802   5.895
11333TIP3   OH233943   5.956   5.615   4.677
11333TIP3    H133944   5.973   5.618   4.771
11333TIP3    H233945   5.882   5.554   4.669
11334TIP3   OH233946   8.078   5.058   2.042
11334TIP3    H133947   8.031   5.004   2.104
11334TIP3    H233948   8.010   5.102   1.991
11335TIP3   OH233949   8.069   5.519   0.269
11335TIP3    H133950   8.003   5.470   0.318
11335TIP3    H233951   8.100   5.456   0.204
11336TIP3   OH233952   1.279   4.148   0.156
11336TIP3    H133953   1.232   4.065   0.145
11336TIP3    H233954   1.211   4.215   0.155
11337TIP3   OH233955   3.614   7.443   3.428
11337TIP3    H133956   3.567   7.394   3.360
11337TIP3    H233957   3.546   7.470   3.489
11338TIP3   OH233958   1.227   6.480   6.556
11338TIP3    H133959   1.298   6.441   6.505
11338TIP3    H233960   1.271   6.540   6.616
11339TIP3   OH233961   2.397   2.410   3.931
11339TIP3    H133962   2.492   2.419   3.927
11339TIP3    H233963   2.377   2.336   3.873
11340TIP3   OH233964   6.425   1.262   3.413
11340TIP3    H133965   6.424   1.168   3.395
11340TIP3    H233966   6.498   1.274   3.474
11341TIP3   OH233967   0.747   5.343   3.128
11341TIP3    H133968   0.661   5.316   3.097
11341TIP3    H233969   0.742   5.335   3.223
11342TIP3   OH233970   5.937   0.009   0.848
11342TIP3    H133971   5.984   0.066   0.909
11342TIP3    H233972   6.004  -0.048   0.812
11343TIP3   OH233973   6.742   6.748   2.653
11343TIP3    H133974   6.754   6.755   2.558
11343TIP3    H233975   6.648   6.762   2.666
11344TIP3   OH233976   1.369   1.612   4.094
11344TIP3    H133977   1.326   1.597   4.179
11344TIP3    H233978   1.413   1.696   4.103
11345TIP3   OH233979   6.923   1.552   4.515
11345TIP3    H133980   6.965   1.467   4.526
11345TIP3    H233981   6.945   1.578   4.425
11346TIP3   OH233982   3.712   2.452   0.205
11346TIP3    H133983   3.706   2.525   0.143
11346TIP3    H233984   3.653   2.476   0.276
11347TIP3   OH233985   3.208   4.705   2.104
11347TIP3    H133986   3.179   4.776   2.163
11347TIP3    H233987   3.291   4.735   2.069
11348TIP3   OH233988   2.380   6.465   6.084
11348TIP3    H133989   2.474   6.460   6.065
11348TIP3    H233990   2.375   6.473   6.179
11349TIP3   OH233991   0.835   0.487   1.932
11349TIP3    H133992   0.777   0.420   1.969
11349TIP3    H233993   0.780   0.565   1.924
11350TIP3   OH233994   2.272   6.346   5.834
11350TIP3    H133995   2.279   6.383   5.922
11350TIP3    H233996   2.360   6.314   5.813
11351TIP3   OH233997   7.531   0.573   3.450
11351TIP3    H133998   7.539   0.659   3.409
11351TIP3    H233999   7.611   0.564   3.503
11352TIP3   OH234000   2.692   4.005   4.655
11352TIP3    H134001   2.725   4.044   4.574
11352TIP3    H234002   2.767   4.008   4.715
11353TIP3   OH234003   1.297   0.750   2.241
11353TIP3    H134004   1.342   0.696   2.307
11353TIP3    H234005   1.350   0.829   2.236
11354TIP3   OH234006   1.338   3.223   2.042
11354TIP3    H134007   1.381   3.181   1.968
11354TIP3    H234008   1.359   3.316   2.032
11355TIP3   OH234009   1.669   0.695   3.551
11355TIP3    H134010   1.604   0.661   3.612
11355TIP3    H234011   1.649   0.789   3.544
11356TIP3   OH234012   5.050   7.322   0.174
11356TIP3    H134013   5.128   7.286   0.131
11356TIP3    H234014   5.016   7.387   0.111
11357TIP3   OH234015   4.284   6.558   2.492
11357TIP3    H134016   4.282   6.467   2.522
11357TIP3    H234017   4.196   6.590   2.508
11358TIP3   OH234018   0.930   1.301   6.537
11358TIP3    H134019   0.968   1.388   6.519
11358TIP3    H234020   1.004   1.241   6.530
11359TIP3   OH234021   5.116   5.397   4.013
11359TIP3    H134022   5.046   5.334   4.026
11359TIP3    H234023   5.173   5.386   4.089
11360TIP3   OH234024   6.234   7.375   1.278
11360TIP3    H134025   6.188   7.296   1.251
11360TIP3    H234026   6.196   7.445   1.225
11361TIP3   OH234027   5.137   1.530   0.937
11361TIP3    H134028   5.162   1.481   0.859
11361TIP3    H234029   5.168   1.619   0.921
11362TIP3   OH234030   3.603   2.922   0.153
11362TIP3    H134031   3.573   2.839   0.116
11362TIP3    H234032   3.561   2.989   0.099
11363TIP3   OH234033   1.065   0.320   4.877
11363TIP3    H134034   1.153   0.282   4.887
11363TIP3    H234035   1.081   0.413   4.860
11364TIP3   OH234036   1.165   1.557   0.477
11364TIP3    H134037   1.078   1.570   0.514
11364TIP3    H234038   1.182   1.636   0.426
11365TIP3   OH234039   5.530   3.488   0.062
11365TIP3    H134040   5.532   3.402   0.022
11365TIP3    H234041   5.470   3.479   0.136
11366TIP3   OH234042   4.887   2.646   1.909
11366TIP3    H134043   4.851   2.618   1.993
11366TIP3    H234044   4.974   2.606   1.905
11367TIP3   OH234045   1.786   7.770   6.356
11367TIP3    H134046   1.858   7.767   6.293
11367TIP3    H234047   1.816   7.831   6.424
11368TIP3   OH234048   7.997   6.480   1.334
11368TIP3    H134049   7.902   6.496   1.334
11368TIP3    H234050   8.035   6.559   1.296
11369TIP3   OH234051   2.157   5.274   4.151
11369TIP3    H134052   2.129   5.352   4.200
11369TIP3    H234053   2.230   5.239   4.201
11370TIP3   OH234054   0.981   4.160   5.577
11370TIP3    H134055   0.994   4.138   5.669
11370TIP3    H234056   1.027   4.243   5.566
11371TIP3   OH234057   1.828   2.932   4.793
11371TIP3    H134058   1.769   2.883   4.850
11371TIP3    H234059   1.808   2.900   4.705
11372TIP3   OH234060   3.775   7.842   6.661
11372TIP3    H134061   3.807   7.752   6.674
11372TIP3    H234062   3.703   7.834   6.599
11373TIP3   OH234063   4.578   6.934   3.518
11373TIP3    H134064   4.595   7.027   3.500
11373TIP3    H234065   4.566   6.930   3.613
11374TIP3   OH234066   5.354   4.842   2.666
11374TIP3    H134067   5.303   4.761   2.672
11374TIP3    H234068   5.340   4.884   2.751
11375TIP3   OH234069   6.523   4.264   5.578
11375TIP3    H134070   6.514   4.243   5.671
11375TIP3    H234071   6.606   4.312   5.572
11376TIP3   OH234072   0.954   3.396   0.090
11376TIP3    H134073   0.988   3.486   0.087
11376TIP3    H234074   1.031   3.342   0.103
11377TIP3   OH234075   2.838   1.854   2.815
11377TIP3    H134076   2.832   1.915   2.888
11377TIP3    H234077   2.857   1.770   2.855
11378TIP3   OH234078   0.141   7.564   4.466
11378TIP3    H134079   0.231   7.567   4.432
11378TIP3    H234080   0.087   7.549   4.388
11379TIP3   OH234081   5.250   7.590   2.334
11379TIP3    H134082   5.208   7.605   2.419
11379TIP3    H234083   5.243   7.673   2.288
11380TIP3   OH234084   6.280   4.636   2.771
11380TIP3    H134085   6.245   4.632   2.682
11380TIP3    H234086   6.305   4.728   2.783
11381TIP3   OH234087   7.480   5.449   1.953
11381TIP3    H134088   7.573   5.466   1.961
11381TIP3    H234089   7.472   5.397   1.873
11382TIP3   OH234090   4.464   2.540   1.543
11382TIP3    H134091   4.455   2.451   1.577
11382TIP3    H234092   4.402   2.544   1.470
11383TIP3   OH234093   1.249   0.110   0.429
11383TIP3    H134094   1.339   0.137   0.443
11383TIP3    H234095   1.236   0.117   0.334
11384TIP3   OH234096   2.667   7.044   4.466
11384TIP3    H134097   2.659   7.102   4.390
11384TIP3    H234098   2.737   7.083   4.518
11385TIP3   OH234099   1.318  -0.003   1.822
11385TIP3    H134100   1.382  -0.046   1.880
11385TIP3    H234101   1.359   0.081   1.801
11386TIP3   OH234102   6.545   2.855   5.929
11386TIP3    H134103   6.456   2.870   5.963
11386TIP3    H234104   6.602   2.866   6.005
11387TIP3   OH234105   7.980   6.809   0.261
11387TIP3    H134106   7.997   6.874   0.330
11387TIP3    H234107   7.933   6.739   0.306
11388TIP3   OH234108   1.659   7.825   2.929
11388TIP3    H134109   1.753   7.835   2.947
11388TIP3    H234110   1.625   7.778   3.005
11389TIP3   OH234111   6.607   6.672   3.928
11389TIP3    H134112   6.512   6.686   3.931
11389TIP3    H234113   6.618   6.597   3.869
11390TIP3   OH234114   8.196   2.310   4.567
11390TIP3    H134115   8.107   2.333   4.593
11390TIP3    H234116   8.184   2.239   4.503
11391TIP3   OH234117   6.169   1.025   4.418
11391TIP3    H134118   6.113   1.000   4.492
11391TIP3    H234119   6.160   0.952   4.356
11392TIP3   OH234120   0.235   3.700   1.044
11392TIP3    H134121   0.165   3.644   1.012
11392TIP3    H234122   0.291   3.714   0.967
11393TIP3   OH234123   7.111   3.117   4.151
11393TIP3    H134124   7.018   3.102   4.168
11393TIP3    H234125   7.129   3.069   4.070
11394TIP3   OH234126   8.267   3.935   3.394
11394TIP3    H134127   8.188   3.890   3.424
11394TIP3    H234128   8.246   3.964   3.305
11395TIP3   OH234129   0.303   6.907   4.051
11395TIP3    H134130   0.340   6.897   4.139
11395TIP3    H234131   0.286   6.818   4.022
11396TIP3   OH234132   6.505   6.614   0.139
11396TIP3    H134133   6.474   6.630   0.050
11396TIP3    H234134   6.546   6.696   0.165
11397TIP3   OH234135   5.923   3.673   0.483
11397TIP3    H134136   5.952   3.592   0.525
11397TIP3    H234137   5.828   3.674   0.496
11398TIP3   OH234138   7.327   4.738   1.522
11398TIP3    H134139   7.253   4.677   1.528
11398TIP3    H234140   7.288   4.825   1.530
11399TIP3   OH234141   4.655   5.347   6.057
11399TIP3    H134142   4.687   5.426   6.101
11399TIP3    H234143   4.709   5.340   5.978
11400TIP3   OH234144   2.618   6.440   3.683
11400TIP3    H134145   2.631   6.373   3.750
11400TIP3    H234146   2.673   6.412   3.610
11401TIP3   OH234147   1.411   3.938   1.170
11401TIP3    H134148   1.384   3.967   1.257
11401TIP3    H234149   1.492   3.986   1.153
11402TIP3   OH234150   5.845   7.233   0.771
11402TIP3    H134151   5.753   7.246   0.746
11402TIP3    H234152   5.849   7.143   0.802
11403TIP3   OH234153   5.107   5.553   3.781
11403TIP3    H134154   5.086   5.494   3.854
11403TIP3    H234155   5.024   5.570   3.739
11404TIP3   OH234156   6.744   0.247   6.644
11404TIP3    H134157   6.777   0.276   6.729
11404TIP3    H234158   6.658   0.289   6.636
11405TIP3   OH234159   6.326   6.459   3.557
11405TIP3    H134160   6.320   6.412   3.640
11405TIP3    H234161   6.373   6.540   3.578
11406TIP3   OH234162   5.258   1.061   1.335
11406TIP3    H134163   5.187   1.025   1.282
11406TIP3    H234164   5.246   1.022   1.421
11407TIP3   OH234165   5.433   6.602   2.765
11407TIP3    H134166   5.343   6.580   2.745
11407TIP3    H234167   5.440   6.696   2.744
11408TIP3   OH234168   3.864   4.673   2.265
11408TIP3    H134169   3.917   4.752   2.259
11408TIP3    H234170   3.808   4.675   2.187
11409TIP3   OH234171   7.387   6.670   2.232
11409TIP3    H134172   7.422   6.754   2.264
11409TIP3    H234173   7.444   6.604   2.271
11410TIP3   OH234174   1.755   3.209   5.311
11410TIP3    H134175   1.829   3.152   5.333
11410TIP3    H234176   1.790   3.270   5.246
11411TIP3   OH234177   3.726   7.094   4.973
11411TIP3    H134178   3.815   7.071   4.998
11411TIP3    H234179   3.728   7.189   4.963
11412TIP3   OH234180   1.442   4.533   2.553
11412TIP3    H134181   1.367   4.489   2.592
11412TIP3    H234182   1.426   4.626   2.566
11413TIP3   OH234183   3.123   1.961   2.100
11413TIP3    H134184   3.108   1.972   2.194
11413TIP3    H234185   3.074   1.883   2.076
11414TIP3   OH234186   3.673   4.550   0.254
11414TIP3    H134187   3.668   4.457   0.275
11414TIP3    H234188   3.600   4.590   0.301
11415TIP3   OH234189   3.416   0.140   2.305
11415TIP3    H134190   3.437   0.233   2.307
11415TIP3    H234191   3.321   0.136   2.311
11416TIP3   OH234192   7.210   2.950   0.163
11416TIP3    H134193   7.179   2.973   0.251
11416TIP3    H234194   7.266   3.023   0.137
11417TIP3   OH234195   6.645   4.424   5.235
11417TIP3    H134196   6.606   4.386   5.156
11417TIP3    H234197   6.581   4.408   5.304
11418TIP3   OH234198   3.960   5.318   4.267
11418TIP3    H134199   3.932   5.286   4.352
11418TIP3    H234200   4.001   5.403   4.285
11419TIP3   OH234201   7.367   6.283   5.224
11419TIP3    H134202   7.304   6.331   5.278
11419TIP3    H234203   7.315   6.218   5.177
11420TIP3   OH234204   0.719   6.928   0.348
11420TIP3    H134205   0.777   6.969   0.283
11420TIP3    H234206   0.767   6.850   0.377
11421TIP3   OH234207   4.328   3.749   4.836
11421TIP3    H134208   4.397   3.810   4.862
11421TIP3    H234209   4.364   3.663   4.855
11422TIP3   OH234210   8.030   4.556   6.595
11422TIP3    H134211   7.971   4.587   6.665
11422TIP3    H234212   8.006   4.465   6.582
11423TIP3   OH234213   3.042   2.773   0.131
11423TIP3    H134214   3.060   2.827   0.208
11423TIP3    H234215   3.125   2.773   0.082
11424TIP3   OH234216   5.873   5.053   1.902
11424TIP3    H134217   5.936   5.037   1.972
11424TIP3    H234218   5.913   5.014   1.824
11425TIP3   OH234219   5.533   3.613   6.164
11425TIP3    H134220   5.567   3.656   6.085
11425TIP3    H234221   5.445   3.650   6.174
11426TIP3   OH234222   7.907   5.485   5.545
11426TIP3    H134223   8.001   5.477   5.559
11426TIP3    H234224   7.867   5.447   5.623
11427TIP3   OH234225   1.033   5.400   6.739
11427TIP3    H134226   1.031   5.483   6.690
11427TIP3    H234227   0.942   5.375   6.748
11428TIP3   OH234228   0.592   1.187   1.374
11428TIP3    H134229   0.575   1.179   1.280
11428TIP3    H234230   0.511   1.156   1.416
11429TIP3   OH234231   5.048   7.729   0.415
11429TIP3    H134232   5.032   7.788   0.489
11429TIP3    H234233   5.139   7.744   0.391
11430TIP3   OH234234   5.500   1.328   0.788
11430TIP3    H134235   5.538   1.286   0.711
11430TIP3    H234236   5.408   1.340   0.766
11431TIP3   OH234237   0.431   1.647   5.611
11431TIP3    H134238   0.370   1.616   5.544
11431TIP3    H234239   0.380   1.710   5.662
11432TIP3   OH234240   7.551   7.716   3.033
11432TIP3    H134241   7.479   7.730   2.972
11432TIP3    H234242   7.561   7.800   3.078
11433TIP3   OH234243   1.287   5.617   1.161
11433TIP3    H134244   1.198   5.631   1.131
11433TIP3    H234245   1.280   5.612   1.256
11434TIP3   OH234246   5.966   3.677   5.134
11434TIP3    H134247   5.975   3.582   5.140
11434TIP3    H234248   6.055   3.710   5.148
11435TIP3   OH234249   4.852   0.249   6.789
11435TIP3    H134250   4.835   0.236   6.695
11435TIP3    H234251   4.873   0.161   6.821
11436TIP3   OH234252   8.299   0.790   0.718
11436TIP3    H134253   8.212   0.814   0.686
11436TIP3    H234254   8.344   0.752   0.642
11437TIP3   OH234255   1.624   4.197   0.347
11437TIP3    H134256   1.593   4.203   0.257
11437TIP3    H234257   1.545   4.186   0.400
11438TIP3   OH234258   3.027   4.384   6.171
11438TIP3    H134259   3.058   4.444   6.103
11438TIP3    H234260   3.047   4.297   6.138
11439TIP3   OH234261   3.501   5.728   0.142
11439TIP3    H134262   3.543   5.667   0.202
11439TIP3    H234263   3.522   5.693   0.055
11440TIP3   OH234264   6.847   5.988   3.145
11440TIP3    H134265   6.868   5.903   3.105
11440TIP3    H234266   6.925   6.041   3.130
11441TIP3   OH234267   1.789   2.036   6.236
11441TIP3    H134268   1.733   2.024   6.159
11441TIP3    H234269   1.727   2.043   6.309
11442TIP3   OH234270   5.864   4.353   5.369
11442TIP3    H134271   5.899   4.267   5.347
11442TIP3    H234272   5.938   4.401   5.407
11443TIP3   OH234273   8.129   4.081   4.602
11443TIP3    H134274   8.060   4.093   4.538
11443TIP3    H234275   8.204   4.129   4.567
11444TIP3   OH234276   5.268   0.829   4.428
11444TIP3    H134277   5.290   0.819   4.335
11444TIP3    H234278   5.263   0.923   4.441
11445TIP3   OH234279   7.332   0.215   3.989
11445TIP3    H134280   7.264   0.150   3.969
11445TIP3    H234281   7.284   0.295   4.008
11446TIP3   OH234282   6.869   1.745   1.309
11446TIP3    H134283   6.854   1.832   1.346
11446TIP3    H234284   6.951   1.753   1.261
11447TIP3   OH234285   2.955   0.223   4.594
11447TIP3    H134286   3.030   0.269   4.554
11447TIP3    H234287   2.879   0.271   4.562
11448TIP3   OH234288   7.908   3.731   6.359
11448TIP3    H134289   7.819   3.698   6.347
11448TIP3    H234290   7.961   3.652   6.369
11449TIP3   OH234291   3.874   1.055   3.405
11449TIP3    H134292   3.960   1.022   3.382
11449TIP3    H234293   3.861   1.027   3.496
11450TIP3   OH234294   0.231   0.109   6.097
11450TIP3    H134295   0.280   0.115   6.179
11450TIP3    H234296   0.188   0.194   6.089
11451TIP3   OH234297   0.803   2.842   3.039
11451TIP3    H134298   0.743   2.784   2.993
11451TIP3    H234299   0.778   2.834   3.131
11452TIP3   OH234300   5.044   6.363   3.968
11452TIP3    H134301   5.074   6.448   4.001
11452TIP3    H234302   5.076   6.300   4.033
11453TIP3   OH234303   1.562   0.527   5.897
11453TIP3    H134304   1.550   0.501   5.805
11453TIP3    H234305   1.611   0.454   5.936
11454TIP3   OH234306   3.086   7.332   2.839
11454TIP3    H134307   3.133   7.350   2.757
11454TIP3    H234308   3.014   7.275   2.813
11455TIP3   OH234309   8.194   1.781   4.193
11455TIP3    H134310   8.250   1.705   4.212
11455TIP3    H234311   8.105   1.746   4.192
11456TIP3   OH234312   5.508   7.559   1.264
11456TIP3    H134313   5.552   7.573   1.348
11456TIP3    H234314   5.580   7.546   1.201
11457TIP3   OH234315   1.361   6.866   0.463
11457TIP3    H134316   1.322   6.916   0.392
11457TIP3    H234317   1.456   6.872   0.448
11458TIP3   OH234318   8.046   7.221   4.835
11458TIP3    H134319   7.980   7.272   4.789
11458TIP3    H234320   8.100   7.287   4.879
11459TIP3   OH234321   2.212   4.158   2.079
11459TIP3    H134322   2.292   4.211   2.082
11459TIP3    H234323   2.198   4.133   2.171
11460TIP3   OH234324   2.772   5.534   1.123
11460TIP3    H134325   2.681   5.510   1.105
11460TIP3    H234326   2.813   5.452   1.152
11461TIP3   OH234327   1.633   3.822   0.240
11461TIP3    H134328   1.705   3.789   0.187
11461TIP3    H234329   1.676   3.871   0.310
11462TIP3   OH234330   7.848   1.126   4.298
11462TIP3    H134331   7.754   1.139   4.284
11462TIP3    H234332   7.866   1.166   4.382
11463TIP3   OH234333   6.032   2.320   0.644
11463TIP3    H134334   6.105   2.353   0.592
11463TIP3    H234335   6.070   2.250   0.697
11464TIP3   OH234336   8.083   2.975   5.890
11464TIP3    H134337   7.994   3.005   5.908
11464TIP3    H234338   8.135   3.011   5.963
11465TIP3   OH234339   7.450   3.193   1.286
11465TIP3    H134340   7.368   3.166   1.243
11465TIP3    H234341   7.422   3.233   1.368
11466TIP3   OH234342   7.645   2.014   6.740
11466TIP3    H134343   7.741   2.014   6.739
11466TIP3    H234344   7.622   2.077   6.807
11467TIP3   OH234345   5.413   6.621   1.632
11467TIP3    H134346   5.414   6.526   1.638
11467TIP3    H234347   5.347   6.640   1.565
11468TIP3   OH234348   0.785   6.688   1.730
11468TIP3    H134349   0.751   6.600   1.742
11468TIP3    H234350   0.712   6.746   1.752
11469TIP3   OH234351   2.400   0.720   2.468
11469TIP3    H134352   2.406   0.696   2.560
11469TIP3    H234353   2.490   0.740   2.442
11470TIP3   OH234354   5.122   5.922   6.600
11470TIP3    H134355   5.153   5.890   6.515
11470TIP3    H234356   5.170   5.870   6.664
11471TIP3   OH234357   6.275   1.704   3.781
11471TIP3    H134358   6.314   1.785   3.815
11471TIP3    H234359   6.326   1.635   3.823
11472TIP3   OH234360   3.089   3.175   1.289
11472TIP3    H134361   3.047   3.250   1.331
11472TIP3    H234362   3.148   3.213   1.224
11473TIP3   OH234363   1.347   6.151   2.056
11473TIP3    H134364   1.254   6.171   2.056
11473TIP3    H234365   1.356   6.080   2.120
11474TIP3   OH234366   0.561   2.841   4.814
11474TIP3    H134367   0.533   2.931   4.832
11474TIP3    H234368   0.654   2.848   4.795
11475TIP3   OH234369   0.773   7.503   1.848
11475TIP3    H134370   0.770   7.410   1.870
11475TIP3    H234371   0.782   7.547   1.933
11476TIP3   OH234372   2.191   6.435   0.896
11476TIP3    H134373   2.209   6.494   0.823
11476TIP3    H234374   2.230   6.351   0.870
11477TIP3   OH234375   4.358   0.678   3.120
11477TIP3    H134376   4.451   0.675   3.100
11477TIP3    H234377   4.348   0.617   3.193
11478TIP3   OH234378   2.103   4.955   1.095
11478TIP3    H134379   2.061   5.016   1.157
11478TIP3    H234380   2.083   4.991   1.009
11479TIP3   OH234381   7.935   7.358   3.874
11479TIP3    H134382   7.904   7.381   3.786
11479TIP3    H234383   8.027   7.336   3.861
11480TIP3   OH234384   1.819   0.027   2.883
11480TIP3    H134385   1.778   0.022   2.797
11480TIP3    H234386   1.748   0.056   2.941
11481TIP3   OH234387   3.124   4.870   3.792
11481TIP3    H134388   3.068   4.879   3.869
11481TIP3    H234389   3.129   4.959   3.757
11482TIP3   OH234390   3.833   1.035   5.633
11482TIP3    H134391   3.811   0.952   5.590
11482TIP3    H234392   3.763   1.050   5.696
11483TIP3   OH234393   4.760   1.087   4.674
11483TIP3    H134394   4.766   1.182   4.664
11483TIP3    H234395   4.851   1.057   4.675
11484TIP3   OH234396   3.517   3.078   2.353
11484TIP3    H134397   3.502   3.008   2.290
11484TIP3    H234398   3.441   3.073   2.412
11485TIP3   OH234399   7.614   6.892   1.538
11485TIP3    H134400   7.547   6.832   1.571
11485TIP3    H234401   7.582   6.979   1.563
11486TIP3   OH234402   3.781   0.282   5.094
11486TIP3    H134403   3.686   0.296   5.089
11486TIP3    H234404   3.819   0.367   5.073
11487TIP3   OH234405   4.712   6.610   4.613
11487TIP3    H134406   4.709   6.521   4.580
11487TIP3    H234407   4.779   6.609   4.681
11488TIP3   OH234408   4.007   1.242   5.690
11488TIP3    H134409   4.072   1.175   5.711
11488TIP3    H234410   3.938   1.194   5.643
11489TIP3   OH234411   0.818   2.700   3.376
11489TIP3    H134412   0.843   2.787   3.407
11489TIP3    H234413   0.896   2.647   3.388
11490TIP3   OH234414   7.592   6.248   3.208
11490TIP3    H134415   7.661   6.220   3.269
11490TIP3    H234416   7.633   6.314   3.154
11491TIP3   OH234417   4.761   2.098   3.889
11491TIP3    H134418   4.773   2.008   3.859
11491TIP3    H234419   4.667   2.113   3.880
11492TIP3   OH234420   5.150   3.727   3.106
11492TIP3    H134421   5.217   3.755   3.168
11492TIP3    H234422   5.185   3.648   3.066
11493TIP3   OH234423   3.237   5.061   6.681
11493TIP3    H134424   3.181   5.129   6.644
11493TIP3    H234425   3.177   4.992   6.708
11494TIP3   OH234426   3.726   6.508   1.417
11494TIP3    H134427   3.774   6.536   1.339
11494TIP3    H234428   3.655   6.572   1.425
11495TIP3   OH234429   1.792   1.503   6.712
11495TIP3    H134430   1.875   1.530   6.672
11495TIP3    H234431   1.765   1.426   6.663
11496TIP3   OH234432   3.155   3.643   0.072
11496TIP3    H134433   3.116   3.561   0.104
11496TIP3    H234434   3.115   3.712   0.125
11497TIP3   OH234435   4.117   2.180   6.219
11497TIP3    H134436   4.126   2.181   6.315
11497TIP3    H234437   4.147   2.266   6.191
11498TIP3   OH234438   0.332   0.640   0.102
11498TIP3    H134439   0.274   0.705   0.143
11498TIP3    H234440   0.403   0.629   0.165
11499TIP3   OH234441   8.167   7.477   0.212
11499TIP3    H134442   8.117   7.517   0.283
11499TIP3    H234443   8.236   7.540   0.192
11500TIP3   OH234444   2.171   6.552   1.444
11500TIP3    H134445   2.093   6.542   1.391
11500TIP3    H234446   2.219   6.471   1.432
11501TIP3   OH234447   7.021   2.874   1.847
11501TIP3    H134448   6.981   2.797   1.888
11501TIP3    H234449   6.949   2.915   1.798
11502TIP3   OH234450   3.622   0.473   4.250
11502TIP3    H134451   3.708   0.458   4.210
11502TIP3    H234452   3.579   0.535   4.192
11503TIP3   OH234453   1.313   2.998   5.683
11503TIP3    H134454   1.240   2.946   5.651
11503TIP3    H234455   1.340   3.050   5.607
11504TIP3   OH234456   3.915   4.284   5.815
11504TIP3    H134457   3.880   4.356   5.763
11504TIP3    H234458   3.843   4.257   5.871
11505TIP3   OH234459   0.770   6.516   1.364
11505TIP3    H134460   0.801   6.477   1.282
11505TIP3    H234461   0.736   6.602   1.339
11506TIP3   OH234462   6.547   2.257   2.513
11506TIP3    H134463   6.515   2.219   2.431
11506TIP3    H234464   6.471   2.256   2.571
11507TIP3   OH234465   3.105   5.266   2.048
11507TIP3    H134466   3.147   5.212   2.115
11507TIP3    H234467   3.017   5.281   2.081
11508TIP3   OH234468   7.621   3.031   5.717
11508TIP3    H134469   7.624   3.124   5.696
11508TIP3    H234470   7.621   3.028   5.812
11509TIP3   OH234471   7.074   2.325   6.426
11509TIP3    H134472   7.149   2.274   6.458
11509TIP3    H234473   7.007   2.314   6.494
11510TIP3   OH234474   4.057   4.485   0.503
11510TIP3    H134475   4.123   4.505   0.437
11510TIP3    H234476   4.105   4.478   0.585
11511TIP3   OH234477   1.343   7.218   2.708
11511TIP3    H134478   1.437   7.206   2.725
11511TIP3    H234479   1.317   7.139   2.661
11512TIP3   OH234480   4.930   5.545   5.910
11512TIP3    H134481   4.916   5.507   5.824
11512TIP3    H234482   4.845   5.580   5.936
11513TIP3   OH234483   0.682   6.256   5.689
11513TIP3    H134484   0.718   6.220   5.608
11513TIP3    H234485   0.737   6.220   5.758
11514TIP3   OH234486   0.149   2.864   1.301
11514TIP3    H134487   0.243   2.852   1.309
11514TIP3    H234488   0.139   2.937   1.240
11515TIP3   OH234489   3.783   5.791   0.959
11515TIP3    H134490   3.785   5.882   0.929
11515TIP3    H234491   3.777   5.740   0.879
11516TIP3   OH234492   1.952   6.764   3.764
11516TIP3    H134493   2.012   6.708   3.813
11516TIP3    H234494   1.984   6.758   3.674
11517TIP3   OH234495   1.685   1.765   5.770
11517TIP3    H134496   1.692   1.831   5.839
11517TIP3    H234497   1.596   1.775   5.737
11518TIP3   OH234498   4.109   2.460   5.115
11518TIP3    H134499   4.074   2.547   5.130
11518TIP3    H234500   4.202   2.467   5.140
11519TIP3   OH234501   5.068   2.721   3.272
11519TIP3    H134502   5.142   2.717   3.212
11519TIP3    H234503   4.993   2.691   3.220
11520TIP3   OH234504   6.586   7.098   4.519
11520TIP3    H134505   6.520   7.167   4.516
11520TIP3    H234506   6.538   7.018   4.539
11521TIP3   OH234507   2.665   0.162   4.338
11521TIP3    H134508   2.612   0.091   4.373
11521TIP3    H234509   2.756   0.133   4.352
11522TIP3   OH234510   6.372   7.645   6.102
11522TIP3    H134511   6.333   7.575   6.050
11522TIP3    H234512   6.305   7.713   6.105
11523TIP3   OH234513   5.237   0.568   1.012
11523TIP3    H134514   5.193   0.640   0.965
11523TIP3    H234515   5.328   0.575   0.986
11524TIP3   OH234516   5.137   1.333   1.591
11524TIP3    H134517   5.174   1.341   1.679
11524TIP3    H234518   5.145   1.240   1.570
11525TIP3   OH234519   7.574   0.908   5.214
11525TIP3    H134520   7.480   0.916   5.196
11525TIP3    H234521   7.586   0.817   5.240
11526TIP3   OH234522   1.032   4.436   1.667
11526TIP3    H134523   1.047   4.376   1.594
11526TIP3    H234524   1.076   4.394   1.741
11527TIP3   OH234525   3.077   3.429   0.189
11527TIP3    H134526   3.007   3.394   0.135
11527TIP3    H234527   3.033   3.462   0.267
11528TIP3   OH234528   0.341   6.604   2.222
11528TIP3    H134529   0.266   6.615   2.163
11528TIP3    H234530   0.396   6.680   2.205
11529TIP3   OH234531   5.171   2.528   2.669
11529TIP3    H134532   5.101   2.478   2.712
11529TIP3    H234533   5.134   2.553   2.585
11530TIP3   OH234534   4.702   5.086   4.234
11530TIP3    H134535   4.797   5.072   4.238
11530TIP3    H234536   4.684   5.146   4.306
11531TIP3   OH234537   1.079   2.464   2.589
11531TIP3    H134538   1.168   2.499   2.585
11531TIP3    H234539   1.027   2.525   2.537
11532TIP3   OH234540   6.219   3.374   1.581
11532TIP3    H134541   6.174   3.307   1.530
11532TIP3    H234542   6.187   3.457   1.546
11533TIP3   OH234543   2.050   6.635   2.459
11533TIP3    H134544   2.030   6.729   2.463
11533TIP3    H234545   2.018   6.608   2.373
11534TIP3   OH234546   5.544   2.394   2.378
11534TIP3    H134547   5.538   2.469   2.437
11534TIP3    H234548   5.622   2.413   2.325
11535TIP3   OH234549   4.221   6.545   5.409
11535TIP3    H134550   4.135   6.543   5.451
11535TIP3    H234551   4.241   6.453   5.391
11536TIP3   OH234552   8.250   1.416   3.584
11536TIP3    H134553   8.213   1.473   3.516
11536TIP3    H234554   8.288   1.476   3.648
11537TIP3   OH234555   6.984   4.194   1.886
11537TIP3    H134556   6.954   4.225   1.800
11537TIP3    H234557   6.908   4.203   1.943
11538TIP3   OH234558   6.841   7.096   3.868
11538TIP3    H134559   6.778   7.132   3.804
11538TIP3    H234560   6.813   7.131   3.952
11539TIP3   OH234561   7.271   2.581   0.529
11539TIP3    H134562   7.318   2.500   0.547
11539TIP3    H234563   7.297   2.605   0.440
11540TIP3   OH234564   4.665   4.051   4.270
11540TIP3    H134565   4.697   4.110   4.338
11540TIP3    H234566   4.743   4.007   4.237
11541TIP3   OH234567   1.194   7.119   4.066
11541TIP3    H134568   1.282   7.114   4.029
11541TIP3    H234569   1.148   7.045   4.026
11542TIP3   OH234570   2.217   0.669   0.492
11542TIP3    H134571   2.186   0.760   0.492
11542TIP3    H234572   2.146   0.620   0.449
11543TIP3   OH234573   1.998   7.753   1.652
11543TIP3    H134574   1.940   7.827   1.635
11543TIP3    H234575   1.946   7.676   1.627
11544TIP3   OH234576   2.094   3.856   6.254
11544TIP3    H134577   2.045   3.790   6.206
11544TIP3    H234578   2.139   3.907   6.186
11545TIP3   OH234579   6.048   0.393   6.384
11545TIP3    H134580   6.016   0.446   6.311
11545TIP3    H234581   6.060   0.305   6.348
11546TIP3   OH234582   2.683   6.827   1.909
11546TIP3    H134583   2.604   6.845   1.959
11546TIP3    H234584   2.706   6.737   1.932
11547TIP3   OH234585   6.544   3.317   2.010
11547TIP3    H134586   6.469   3.278   1.966
11547TIP3    H234587   6.619   3.266   1.981
11548TIP3   OH234588   2.866   0.233   0.018
11548TIP3    H134589   2.929   0.162   0.007
11548TIP3    H234590   2.861   0.246   0.113
11549TIP3   OH234591   5.808   2.580   1.619
11549TIP3    H134592   5.741   2.522   1.658
11549TIP3    H234593   5.847   2.625   1.694
11550TIP3   OH234594   0.520   5.068   4.168
11550TIP3    H134595   0.546   5.153   4.202
11550TIP3    H234596   0.538   5.006   4.239
11551TIP3   OH234597   1.309   3.451   1.452
11551TIP3    H134598   1.237   3.497   1.494
11551TIP3    H234599   1.268   3.399   1.383
11552TIP3   OH234600   1.801   0.980   1.508
11552TIP3    H134601   1.761   1.015   1.588
11552TIP3    H234602   1.727   0.961   1.451
11553TIP3   OH234603   2.181   5.988   0.677
11553TIP3    H134604   2.252   5.926   0.694
11553TIP3    H234605   2.188   6.052   0.747
11554TIP3   OH234606   7.190   1.169   0.415
11554TIP3    H134607   7.199   1.262   0.437
11554TIP3    H234608   7.276   1.131   0.435
11555TIP3   OH234609   6.528   4.922   4.407
11555TIP3    H134610   6.575   4.918   4.324
11555TIP3    H234611   6.539   5.012   4.436
11556TIP3   OH234612   8.223   0.433   6.596
11556TIP3    H134613   8.162   0.505   6.581
11556TIP3    H234614   8.269   0.423   6.513
11557TIP3   OH234615   5.802   2.688   1.888
11557TIP3    H134616   5.826   2.772   1.849
11557TIP3    H234617   5.782   2.707   1.979
11558TIP3   OH234618   8.109   6.765   2.975
11558TIP3    H134619   8.155   6.746   2.893
11558TIP3    H234620   8.177   6.761   3.042
11559TIP3   OH234621   0.839   1.950   5.437
11559TIP3    H134622   0.895   1.887   5.392
11559TIP3    H234623   0.884   1.968   5.519
11560TIP3   OH234624   2.003   0.150   1.020
11560TIP3    H134625   2.015   0.104   0.937
11560TIP3    H234626   1.932   0.103   1.063
11561TIP3   OH234627   2.671   0.210   1.855
11561TIP3    H134628   2.734   0.228   1.785
11561TIP3    H234629   2.725   0.181   1.928
11562TIP3   OH234630   0.590   6.322   6.580
11562TIP3    H134631   0.572   6.229   6.575
11562TIP3    H234632   0.679   6.328   6.615
11563TIP3   OH234633   8.268   6.256   1.645
11563TIP3    H134634   8.302   6.189   1.585
11563TIP3    H234635   8.215   6.313   1.589
11564TIP3   OH234636   5.660   5.270   0.515
11564TIP3    H134637   5.643   5.181   0.547
11564TIP3    H234638   5.574   5.311   0.511
11565TIP3   OH234639   6.038   0.528   5.722
11565TIP3    H134640   6.133   0.525   5.713
11565TIP3    H234641   6.016   0.621   5.721
11566TIP3   OH234642   0.045   2.850   4.696
11566TIP3    H134643   0.015   2.794   4.623
11566TIP3    H234644   0.118   2.900   4.659
11567TIP3   OH234645   6.907   7.193   4.923
11567TIP3    H134646   6.812   7.199   4.931
11567TIP3    H234647   6.921   7.161   4.834
11568TIP3   OH234648   6.675   5.085   5.525
11568TIP3    H134649   6.707   5.028   5.456
11568TIP3    H234650   6.715   5.170   5.507
11569TIP3   OH234651   0.023   6.006   2.460
11569TIP3    H134652   0.078   5.986   2.536
11569TIP3    H234653   0.053   6.092   2.431
11570TIP3   OH234654   5.327   3.954   3.834
11570TIP3    H134655   5.245   3.984   3.795
11570TIP3    H234656   5.390   3.958   3.762
11571TIP3   OH234657   2.278   7.699   5.879
11571TIP3    H134658   2.368   7.670   5.890
11571TIP3    H234659   2.236   7.630   5.828
11572TIP3   OH234660   1.684   7.595   2.404
11572TIP3    H134661   1.759   7.654   2.417
11572TIP3    H234662   1.662   7.605   2.311
11573TIP3   OH234663   6.083   0.364   2.293
11573TIP3    H134664   6.059   0.345   2.202
11573TIP3    H234665   6.072   0.281   2.339
11574TIP3   OH234666   6.462   1.219   1.745
11574TIP3    H134667   6.489   1.295   1.798
11574TIP3    H234668   6.366   1.222   1.748
11575TIP3   OH234669   0.466   7.511   1.822
11575TIP3    H134670   0.499   7.476   1.905
11575TIP3    H234671   0.529   7.481   1.756
11576TIP3   OH234672   0.302   6.286   2.577
11576TIP3    H134673   0.207   6.272   2.578
11576TIP3    H234674   0.337   6.210   2.623
11577TIP3   OH234675   7.299   2.075   3.756
11577TIP3    H134676   7.372   2.137   3.754
11577TIP3    H234677   7.224   2.126   3.727
11578TIP3   OH234678   2.194   5.706   1.341
11578TIP3    H134679   2.268   5.678   1.287
11578TIP3    H234680   2.125   5.726   1.278
11579TIP3   OH234681   1.887   0.288   4.704
11579TIP3    H134682   1.831   0.245   4.639
11579TIP3    H234683   1.968   0.308   4.657
11580TIP3   OH234684   6.970   2.079   0.459
11580TIP3    H134685   6.890   2.053   0.505
11580TIP3    H234686   7.024   2.120   0.526
11581TIP3   OH234687   4.543   0.697   0.398
11581TIP3    H134688   4.547   0.714   0.303
11581TIP3    H234689   4.483   0.764   0.431
11582TIP3   OH234690   3.515   4.951   0.823
11582TIP3    H134691   3.424   4.927   0.807
11582TIP3    H234692   3.566   4.881   0.780
11583TIP3   OH234693   7.735   3.546   3.759
11583TIP3    H134694   7.726   3.598   3.839
11583TIP3    H234695   7.671   3.476   3.767
11584TIP3   OH234696   0.564   7.670   2.652
11584TIP3    H134697   0.512   7.727   2.710
11584TIP3    H234698   0.499   7.625   2.598
11585TIP3   OH234699   0.283   5.001   5.418
11585TIP3    H134700   0.306   5.044   5.335
11585TIP3    H234701   0.348   5.033   5.480
11586TIP3   OH234702   6.144   7.571   2.669
11586TIP3    H134703   6.081   7.502   2.647
11586TIP3    H234704   6.215   7.525   2.715
11587TIP3   OH234705   5.464   0.097   5.478
11587TIP3    H134706   5.515   0.032   5.431
11587TIP3    H234707   5.521   0.175   5.480
11588TIP3   OH234708   2.258   5.585   4.681
11588TIP3    H134709   2.323   5.551   4.619
11588TIP3    H234710   2.178   5.595   4.629
11589TIP3   OH234711   0.408   5.789   4.865
11589TIP3    H134712   0.447   5.796   4.952
11589TIP3    H234713   0.468   5.837   4.808
11590TIP3   OH234714   3.817   6.609   1.696
11590TIP3    H134715   3.785   6.699   1.683
11590TIP3    H234716   3.825   6.574   1.608
11591TIP3   OH234717   5.741   3.563   4.008
11591TIP3    H134718   5.789   3.576   3.926
11591TIP3    H234719   5.656   3.604   3.992
11592TIP3   OH234720   2.963   5.066   2.536
11592TIP3    H134721   2.982   5.160   2.534
11592TIP3    H234722   2.869   5.060   2.522
11593TIP3   OH234723   5.491   2.239   0.896
11593TIP3    H134724   5.456   2.236   0.807
11593TIP3    H234725   5.483   2.150   0.928
11594TIP3   OH234726   0.895   0.071   2.997
11594TIP3    H134727   0.858   0.153   3.029
11594TIP3    H234728   0.989   0.084   3.000
11595TIP3   OH234729   7.982   7.220   1.809
11595TIP3    H134730   7.902   7.169   1.798
11595TIP3    H234731   8.023   7.219   1.722
11596TIP3   OH234732   5.760   2.932   3.198
11596TIP3    H134733   5.832   2.986   3.230
11596TIP3    H234734   5.681   2.977   3.227
11597TIP3   OH234735   4.888   3.126   5.100
11597TIP3    H134736   4.849   3.054   5.049
11597TIP3    H234737   4.813   3.170   5.139
11598TIP3   OH234738   3.320   2.374   1.185
11598TIP3    H134739   3.364   2.289   1.185
11598TIP3    H234740   3.252   2.365   1.118
11599TIP3   OH234741   7.167   3.437   0.602
11599TIP3    H134742   7.123   3.361   0.640
11599TIP3    H234743   7.196   3.409   0.516
11600TIP3   OH234744   0.918   4.777   0.918
11600TIP3    H134745   1.002   4.793   0.960
11600TIP3    H234746   0.904   4.853   0.862
11601TIP3   OH234747   0.361   5.329   2.011
11601TIP3    H134748   0.430   5.263   2.006
11601TIP3    H234749   0.397   5.397   2.067
11602TIP3   OH234750   7.369   3.259   3.641
11602TIP3    H134751   7.371   3.179   3.588
11602TIP3    H234752   7.411   3.325   3.587
11603TIP3   OH234753   5.716   6.160   5.340
11603TIP3    H134754   5.650   6.101   5.375
11603TIP3    H234755   5.666   6.230   5.299
11604TIP3   OH234756   7.372   0.039   4.236
11604TIP3    H134757   7.334   0.092   4.166
11604TIP3    H234758   7.366   0.094   4.314
11605TIP3   OH234759   6.490   2.786   5.409
11605TIP3    H134760   6.514   2.812   5.498
11605TIP3    H234761   6.486   2.690   5.412
11606TIP3   OH234762   4.027   4.160   3.399
11606TIP3    H134763   4.099   4.151   3.462
11606TIP3    H234764   3.950   4.173   3.454
11607TIP3   OH234765   7.933   5.718   1.491
11607TIP3    H134766   8.019   5.698   1.455
11607TIP3    H234767   7.945   5.717   1.586
11608TIP3   OH234768   2.007   0.195   4.942
11608TIP3    H134769   1.955   0.211   4.864
11608TIP3    H234770   2.097   0.188   4.909
11609TIP3   OH234771   3.322   2.137   1.458
11609TIP3    H134772   3.272   2.068   1.502
11609TIP3    H234773   3.261   2.211   1.455
11610TIP3   OH234774   2.565   2.790   6.190
11610TIP3    H134775   2.641   2.823   6.141
11610TIP3    H234776   2.580   2.821   6.280
11611TIP3   OH234777   1.111   7.050   1.827
11611TIP3    H134778   1.118   6.958   1.855
11611TIP3    H234779   1.166   7.098   1.888
11612TIP3   OH234780   3.140   1.956   2.696
11612TIP3    H134781   3.109   1.930   2.783
11612TIP3    H234782   3.219   2.008   2.714
11613TIP3   OH234783   5.465   2.021   4.144
11613TIP3    H134784   5.537   2.003   4.084
11613TIP3    H234785   5.507   2.046   4.226
11614TIP3   OH234786   2.788   6.448   4.192
11614TIP3    H134787   2.725   6.434   4.262
11614TIP3    H234788   2.735   6.465   4.114
11615TIP3   OH234789   6.422   4.922   2.966
11615TIP3    H134790   6.489   4.974   2.922
11615TIP3    H234791   6.471   4.864   3.025
11616TIP3   OH234792   4.774   2.727   1.361
11616TIP3    H134793   4.782   2.813   1.403
11616TIP3    H234794   4.844   2.725   1.296
11617TIP3   OH234795   1.295   7.545   3.724
11617TIP3    H134796   1.234   7.482   3.763
11617TIP3    H234797   1.291   7.527   3.630
11618TIP3   OH234798   2.138   0.280   5.693
11618TIP3    H134799   2.219   0.242   5.727
11618TIP3    H234800   2.147   0.374   5.709
11619TIP3   OH234801   4.188   0.793   3.535
11619TIP3    H134802   4.144   0.708   3.542
11619TIP3    H234803   4.175   0.820   3.444
11620TIP3   OH234804   4.921   1.524   0.274
11620TIP3    H134805   4.983   1.522   0.200
11620TIP3    H234806   4.891   1.615   0.277
11621TIP3   OH234807   0.019   7.154   6.724
11621TIP3    H134808   0.089   7.089   6.716
11621TIP3    H234809  -0.030   7.147   6.643
11622TIP3   OH234810   1.450   1.126   6.262
11622TIP3    H134811   1.417   1.073   6.189
11622TIP3    H234812   1.498   1.197   6.220
11623TIP3   OH234813   4.522   5.347   5.639
11623TIP3    H134814   4.569   5.326   5.558
11623TIP3    H234815   4.528   5.267   5.692
11624TIP3   OH234816   7.808   4.487   6.360
11624TIP3    H134817   7.857   4.494   6.278
11624TIP3    H234818   7.774   4.397   6.360
11625TIP3   OH234819   0.369   7.071   4.964
11625TIP3    H134820   0.401   7.028   4.884
11625TIP3    H234821   0.274   7.060   4.961
11626TIP3   OH234822   4.059   6.380   3.204
11626TIP3    H134823   4.052   6.286   3.218
11626TIP3    H234824   4.148   6.393   3.171
11627TIP3   OH234825   2.500   4.067   2.882
11627TIP3    H134826   2.566   4.123   2.843
11627TIP3    H234827   2.516   3.981   2.844
11628TIP3   OH234828   0.260   0.906   1.044
11628TIP3    H134829   0.180   0.878   1.088
11628TIP3    H234830   0.234   0.923   0.953
11629TIP3   OH234831   8.277   3.204   5.782
11629TIP3    H134832   8.224   3.224   5.705
11629TIP3    H234833   8.215   3.166   5.845
11630TIP3   OH234834   7.971   3.824   1.010
11630TIP3    H134835   7.876   3.814   1.001
11630TIP3    H234836   7.995   3.761   1.077
11631TIP3   OH234837   5.597   4.626   4.158
11631TIP3    H134838   5.610   4.629   4.252
11631TIP3    H234839   5.654   4.694   4.123
11632TIP3   OH234840   6.461   2.751   1.031
11632TIP3    H134841   6.556   2.764   1.020
11632TIP3    H234842   6.453   2.703   1.113
11633TIP3   OH234843   1.040   0.091   6.094
11633TIP3    H134844   1.049  -0.005   6.092
11633TIP3    H234845   0.984   0.111   6.019
11634TIP3   OH234846   5.352   7.062   1.209
11634TIP3    H134847   5.373   7.082   1.118
11634TIP3    H234848   5.263   7.026   1.206
11635TIP3   OH234849   0.183   4.333   6.268
11635TIP3    H134850   0.181   4.364   6.359
11635TIP3    H234851   0.248   4.389   6.225
11636TIP3   OH234852   7.617   3.638   2.375
11636TIP3    H134853   7.659   3.721   2.353
11636TIP3    H234854   7.654   3.576   2.312
11637TIP3   OH234855   7.667   3.663   4.009
11637TIP3    H134856   7.644   3.640   4.099
11637TIP3    H234857   7.583   3.679   3.967
11638TIP3   OH234858   2.655   2.268   4.964
11638TIP3    H134859   2.605   2.257   4.884
11638TIP3    H234860   2.663   2.363   4.976
11639TIP3   OH234861   4.038   1.611   2.770
11639TIP3    H134862   4.083   1.602   2.686
11639TIP3    H234863   4.054   1.528   2.815
11640TIP3   OH234864   2.509   1.981   1.195
11640TIP3    H134865   2.509   1.928   1.274
11640TIP3    H234866   2.601   1.990   1.172
11641TIP3   OH234867   6.004   7.377   0.944
11641TIP3    H134868   5.950   7.344   0.872
11641TIP3    H234869   6.075   7.313   0.951
11642TIP3   OH234870   7.687   6.502   3.627
11642TIP3    H134871   7.725   6.576   3.580
11642TIP3    H234872   7.615   6.540   3.678
11643TIP3   OH234873   0.709   2.999   5.453
11643TIP3    H134874   0.670   2.914   5.474
11643TIP3    H234875   0.634   3.057   5.439
11644TIP3   OH234876   2.079   3.817   0.281
11644TIP3    H134877   2.155   3.772   0.243
11644TIP3    H234878   2.072   3.783   0.370
11645TIP3   OH234879   2.514   1.170   2.528
11645TIP3    H134880   2.465   1.237   2.479
11645TIP3    H234881   2.598   1.164   2.483
11646TIP3   OH234882   1.539   7.714   3.138
11646TIP3    H134883   1.617   7.694   3.189
11646TIP3    H234884   1.479   7.754   3.200
11647TIP3   OH234885   6.392   5.165   6.358
11647TIP3    H134886   6.431   5.245   6.394
11647TIP3    H234887   6.306   5.193   6.327
11648TIP3   OH234888   3.810   2.139   6.092
11648TIP3    H134889   3.903   2.151   6.071
11648TIP3    H234890   3.764   2.203   6.037
11649TIP3   OH234891   8.221   4.205   3.961
11649TIP3    H134892   8.266   4.156   4.029
11649TIP3    H234893   8.189   4.139   3.900
11650TIP3   OH234894   3.624   3.035   3.408
11650TIP3    H134895   3.587   3.058   3.494
11650TIP3    H234896   3.677   3.111   3.383
11651TIP3   OH234897   1.264   4.914   0.955
11651TIP3    H134898   1.297   5.004   0.962
11651TIP3    H234899   1.249   4.901   0.862
11652TIP3   OH234900   4.443   1.236   1.347
11652TIP3    H134901   4.478   1.319   1.314
11652TIP3    H234902   4.520   1.180   1.355
11653TIP3   OH234903   0.560   5.352   1.567
11653TIP3    H134904   0.587   5.427   1.514
11653TIP3    H234905   0.614   5.358   1.646
11654TIP3   OH234906   1.011   0.260   5.667
11654TIP3    H134907   0.949   0.291   5.600
11654TIP3    H234908   0.960   0.200   5.721
11655TIP3   OH234909   7.708   7.830   5.843
11655TIP3    H134910   7.714   7.762   5.777
11655TIP3    H234911   7.615   7.855   5.843
11656TIP3   OH234912   2.258   1.693   0.860
11656TIP3    H134913   2.212   1.623   0.906
11656TIP3    H234914   2.259   1.666   0.769
11657TIP3   OH234915   1.770   0.698   0.854
11657TIP3    H134916   1.748   0.791   0.844
11657TIP3    H234917   1.823   0.677   0.777
11658TIP3   OH234918   3.545   0.416   5.015
11658TIP3    H134919   3.569   0.478   4.947
11658TIP3    H234920   3.464   0.376   4.983
11659TIP3   OH234921   3.214   0.681   1.614
11659TIP3    H134922   3.289   0.621   1.613
11659TIP3    H234923   3.221   0.729   1.531
11660TIP3   OH234924   7.213   3.145   5.438
11660TIP3    H134925   7.228   3.083   5.510
11660TIP3    H234926   7.119   3.162   5.441
11661TIP3   OH234927   2.965   0.566   1.657
11661TIP3    H134928   2.924   0.651   1.643
11661TIP3    H234929   3.056   0.579   1.628
11662TIP3   OH234930   5.907   5.871   4.528
11662TIP3    H134931   5.892   5.776   4.527
11662TIP3    H234932   5.828   5.908   4.487
11663TIP3   OH234933   2.741   5.167   1.461
11663TIP3    H134934   2.731   5.262   1.464
11663TIP3    H234935   2.694   5.141   1.382
11664TIP3   OH234936   0.696   1.562   2.683
11664TIP3    H134937   0.764   1.621   2.649
11664TIP3    H234938   0.668   1.603   2.765
11665TIP3   OH234939   6.804   7.067   3.274
11665TIP3    H134940   6.871   7.009   3.238
11665TIP3    H234941   6.732   7.062   3.211
11666TIP3   OH234942   4.501   7.542   3.409
11666TIP3    H134943   4.456   7.620   3.442
11666TIP3    H234944   4.431   7.477   3.398
11667TIP3   OH234945   5.942   6.480   2.958
11667TIP3    H134946   5.860   6.527   2.975
11667TIP3    H234947   5.916   6.388   2.955
11668TIP3   OH234948   2.763   7.082   5.665
11668TIP3    H134949   2.799   6.997   5.639
11668TIP3    H234950   2.686   7.094   5.609
11669TIP3   OH234951   3.116   5.352   2.791
11669TIP3    H134952   3.031   5.375   2.754
11669TIP3    H234953   3.179   5.368   2.720
11670TIP3   OH234954   0.578   0.084   5.698
11670TIP3    H134955   0.491   0.086   5.657
11670TIP3    H234956   0.607   0.176   5.695
11671TIP3   OH234957   3.452   4.669   4.772
11671TIP3    H134958   3.450   4.685   4.677
11671TIP3    H234959   3.518   4.730   4.805
11672TIP3   OH234960   1.096   0.876   2.371
11672TIP3    H134961   1.015   0.858   2.323
11672TIP3    H234962   1.160   0.816   2.333
11673TIP3   OH234963   7.257   4.430   5.682
11673TIP3    H134964   7.305   4.382   5.749
11673TIP3    H234965   7.325   4.473   5.630
11674TIP3   OH234966   8.070   2.361   5.625
11674TIP3    H134967   8.005   2.293   5.639
11674TIP3    H234968   8.135   2.320   5.567
11675TIP3   OH234969   5.966   3.063   3.322
11675TIP3    H134970   5.927   3.126   3.383
11675TIP3    H234971   6.045   3.106   3.289
11676TIP3   OH234972   4.955   5.869   2.203
11676TIP3    H134973   4.980   5.788   2.247
11676TIP3    H234974   4.986   5.857   2.113
11677TIP3   OH234975   0.377   1.127   2.264
11677TIP3    H134976   0.441   1.196   2.249
11677TIP3    H234977   0.381   1.072   2.186
11678TIP3   OH234978   2.128   0.411   3.259
11678TIP3    H134979   2.066   0.382   3.325
11678TIP3    H234980   2.075   0.422   3.180
11679TIP3   OH234981   2.002   2.497   1.414
11679TIP3    H134982   1.984   2.590   1.402
11679TIP3    H234983   2.084   2.496   1.463
11680TIP3   OH234984   6.319   4.826   1.170
11680TIP3    H134985   6.260   4.868   1.108
11680TIP3    H234986   6.395   4.885   1.175
11681TIP3   OH234987   8.290   6.997   1.352
11681TIP3    H134988   8.211   6.983   1.404
11681TIP3    H234989   8.355   6.938   1.391
11682TIP3   OH234990   7.004   7.212   4.415
11682TIP3    H134991   7.099   7.215   4.408
11682TIP3    H234992   6.973   7.193   4.327
11683TIP3   OH234993   5.279   6.703   5.896
11683TIP3    H134994   5.251   6.794   5.889
11683TIP3    H234995   5.374   6.706   5.887
11684TIP3   OH234996   6.970   4.290   6.094
11684TIP3    H134997   7.015   4.338   6.024
11684TIP3    H234998   7.038   4.269   6.157
11685TIP3   OH234999   7.978   3.054   6.767
11685TIP3    H135000   7.984   3.123   6.700
11685TIP3    H235001   7.891   3.065   6.805
11686TIP3   OH235002   5.493   6.833   0.912
11686TIP3    H135003   5.511   6.788   0.829
11686TIP3    H235004   5.435   6.774   0.960
11687TIP3   OH235005   7.139   4.796   3.762
11687TIP3    H135006   7.080   4.759   3.696
11687TIP3    H235007   7.219   4.744   3.755
11688TIP3   OH235008   8.084   7.144   5.838
11688TIP3    H135009   8.175   7.134   5.811
11688TIP3    H235010   8.055   7.224   5.795
11689TIP3   OH235011   0.167   6.170   3.195
11689TIP3    H135012   0.148   6.232   3.266
11689TIP3    H235013   0.257   6.143   3.211
11690TIP3   OH235014   5.973   1.619   0.474
11690TIP3    H135015   5.878   1.621   0.486
11690TIP3    H235016   5.999   1.711   0.479
11691TIP3   OH235017   7.200   7.384   3.904
11691TIP3    H135018   7.234   7.445   3.971
11691TIP3    H235019   7.107   7.377   3.924
11692TIP3   OH235020   6.802   1.803   0.729
11692TIP3    H135021   6.761   1.759   0.654
11692TIP3    H235022   6.746   1.780   0.804
11693TIP3   OH235023   6.218   4.001   6.205
11693TIP3    H135024   6.211   3.906   6.197
11693TIP3    H235025   6.303   4.016   6.246
11694TIP3   OH235026   1.009   3.689   2.746
11694TIP3    H135027   0.983   3.757   2.808
11694TIP3    H235028   0.964   3.611   2.775
11695TIP3   OH235029   1.764   2.902   3.677
11695TIP3    H135030   1.798   2.963   3.611
11695TIP3    H235031   1.836   2.891   3.739
11696TIP3   OH235032   4.661   3.198   1.616
11696TIP3    H135033   4.608   3.274   1.593
11696TIP3    H235034   4.735   3.235   1.665
11697TIP3   OH235035   5.604   3.374   2.275
11697TIP3    H135036   5.579   3.453   2.324
11697TIP3    H235037   5.631   3.312   2.342
11698TIP3   OH235038   6.922   1.076   4.247
11698TIP3    H135039   6.840   1.124   4.259
11698TIP3    H235040   6.988   1.145   4.238
11699TIP3   OH235041   6.102   7.025   3.469
11699TIP3    H135042   6.109   7.114   3.435
11699TIP3    H235043   6.046   6.980   3.407
11700TIP3   OH235044   3.022   3.863   6.486
11700TIP3    H135045   2.942   3.820   6.516
11700TIP3    H235046   3.031   3.940   6.542
11701TIP3   OH235047   4.553   0.785   1.114
11701TIP3    H135048   4.463   0.773   1.142
11701TIP3    H235049   4.577   0.703   1.071
11702TIP3   OH235050   1.678   4.662   4.674
11702TIP3    H135051   1.667   4.750   4.711
11702TIP3    H235052   1.673   4.603   4.750
11703TIP3   OH235053   7.757   1.285   3.182
11703TIP3    H135054   7.808   1.229   3.241
11703TIP3    H235055   7.715   1.224   3.121
11704TIP3   OH235056   0.611   7.304   0.252
11704TIP3    H135057   0.578   7.323   0.340
11704TIP3    H235058   0.687   7.361   0.242
11705TIP3   OH235059   6.562   6.985   3.815
11705TIP3    H135060   6.495   6.961   3.751
11705TIP3    H235061   6.630   6.919   3.805
11706TIP3   OH235062   5.202   0.179   3.082
11706TIP3    H135063   5.263   0.240   3.041
11706TIP3    H235064   5.258   0.115   3.126
11707TIP3   OH235065   1.012   6.205   1.912
11707TIP3    H135066   0.960   6.189   1.833
11707TIP3    H235067   0.986   6.135   1.973
11708TIP3   OH235068   7.260   5.681   6.308
11708TIP3    H135069   7.186   5.735   6.336
11708TIP3    H235070   7.337   5.723   6.347
11709TIP3   OH235071   6.197   0.999   3.633
11709TIP3    H135072   6.275   1.017   3.685
11709TIP3    H235073   6.194   1.070   3.568
11710TIP3   OH235074   7.414   0.112   5.862
11710TIP3    H135075   7.469   0.109   5.783
11710TIP3    H235076   7.334   0.155   5.833
11711TIP3   OH235077   5.793   3.588   0.135
11711TIP3    H135078   5.746   3.627   0.208
11711TIP3    H235079   5.725   3.542   0.084
11712TIP3   OH235080   0.718   7.442   2.511
11712TIP3    H135081   0.808   7.421   2.486
11712TIP3    H235082   0.724   7.529   2.553
11713TIP3   OH235083   1.292   7.093   2.041
11713TIP3    H135084   1.343   7.174   2.034
11713TIP3    H235085   1.223   7.113   2.104
11714TIP3   OH235086   3.656   3.304   3.923
11714TIP3    H135087   3.573   3.290   3.967
11714TIP3    H235088   3.633   3.355   3.845
11715TIP3   OH235089   7.117   3.530   2.833
11715TIP3    H135090   7.071   3.501   2.912
11715TIP3    H235091   7.084   3.472   2.764
11716TIP3   OH235092   6.506   0.577   5.496
11716TIP3    H135093   6.599   0.603   5.502
11716TIP3    H235094   6.460   0.660   5.479
11717TIP3   OH235095   3.450   3.230   0.188
11717TIP3    H135096   3.527   3.282   0.167
11717TIP3    H235097   3.431   3.183   0.107
11718TIP3   OH235098   7.928   6.374   3.342
11718TIP3    H135099   7.981   6.404   3.416
11718TIP3    H235100   7.869   6.446   3.323
11719TIP3   OH235101   1.661   1.850   3.108
11719TIP3    H135102   1.582   1.847   3.160
11719TIP3    H235103   1.733   1.842   3.171
11720TIP3   OH235104   7.788   6.276   3.936
11720TIP3    H135105   7.694   6.279   3.954
11720TIP3    H235106   7.829   6.277   4.023
11721TIP3   OH235107   6.385   7.214   4.372
11721TIP3    H135108   6.317   7.194   4.436
11721TIP3    H235109   6.371   7.151   4.302
11722TIP3   OH235110   2.883   2.945   4.291
11722TIP3    H135111   2.872   2.929   4.385
11722TIP3    H235112   2.969   2.909   4.270
11723TIP3   OH235113   4.946   2.611   1.606
11723TIP3    H135114   4.947   2.569   1.692
11723TIP3    H235115   4.863   2.584   1.567
11724TIP3   OH235116   8.173   5.582   5.335
11724TIP3    H135117   8.235   5.594   5.263
11724TIP3    H235118   8.217   5.621   5.411
11725TIP3   OH235119   0.735   4.697   0.093
11725TIP3    H135120   0.727   4.726   0.002
11725TIP3    H235121   0.758   4.776   0.142
11726TIP3   OH235122   3.129   5.644   4.090
11726TIP3    H135123   3.138   5.670   4.181
11726TIP3    H235124   3.123   5.726   4.042
11727TIP3   OH235125   8.290   3.186   2.873
11727TIP3    H135126   8.281   3.173   2.778
11727TIP3    H235127   8.305   3.280   2.882
11728TIP3   OH235128   1.705   2.148   1.484
11728TIP3    H135129   1.706   2.107   1.397
11728TIP3    H235130   1.684   2.240   1.467
11729TIP3   OH235131   1.457   2.503   3.641
11729TIP3    H135132   1.551   2.494   3.624
11729TIP3    H235133   1.416   2.489   3.556
11730TIP3   OH235134   3.653   0.950   4.606
11730TIP3    H135135   3.666   1.033   4.560
11730TIP3    H235136   3.706   0.958   4.685
11731TIP3   OH235137   5.258   3.607   6.285
11731TIP3    H135138   5.217   3.625   6.370
11731TIP3    H235139   5.268   3.512   6.283
11732TIP3   OH235140   2.025   4.613   2.024
11732TIP3    H135141   1.943   4.662   2.020
11732TIP3    H235142   2.041   4.601   2.118
11733TIP3   OH235143   7.131   4.259   0.805
11733TIP3    H135144   7.106   4.351   0.814
11733TIP3    H235145   7.185   4.257   0.726
11734TIP3   OH235146   0.680   6.810   4.966
11734TIP3    H135147   0.642   6.736   5.015
11734TIP3    H235148   0.619   6.823   4.893
11735TIP3   OH235149   0.481   7.476   1.432
11735TIP3    H135150   0.554   7.435   1.479
11735TIP3    H235151   0.460   7.554   1.483
11736TIP3   OH235152   2.473   5.183   3.493
11736TIP3    H135153   2.551   5.186   3.549
11736TIP3    H235154   2.487   5.254   3.430
11737TIP3   OH235155   5.895   4.119   3.719
11737TIP3    H135156   5.829   4.087   3.657
11737TIP3    H235157   5.881   4.214   3.722
11738TIP3   OH235158   4.417   5.463   2.346
11738TIP3    H135159   4.410   5.369   2.361
11738TIP3    H235160   4.329   5.492   2.324
11739TIP3   OH235161   4.956   4.056   0.491
11739TIP3    H135162   4.965   4.085   0.400
11739TIP3    H235163   5.037   4.008   0.509
11740TIP3   OH235164   4.750   6.772   6.062
11740TIP3    H135165   4.671   6.795   6.112
11740TIP3    H235166   4.816   6.754   6.129
11741TIP3   OH235167   3.660   4.238   1.393
11741TIP3    H135168   3.676   4.157   1.442
11741TIP3    H235169   3.639   4.303   1.461
11742TIP3   OH235170   3.720   2.551   3.625
11742TIP3    H135171   3.776   2.533   3.701
11742TIP3    H235172   3.708   2.646   3.625
11743TIP3   OH235173   5.936   7.673   0.660
11743TIP3    H135174   6.024   7.643   0.682
11743TIP3    H235175   5.950   7.751   0.607
11744TIP3   OH235176   1.134   1.639   5.922
11744TIP3    H135177   1.095   1.595   5.997
11744TIP3    H235178   1.138   1.572   5.854
11745TIP3   OH235179   7.558   1.384   5.863
11745TIP3    H135180   7.525   1.358   5.949
11745TIP3    H235181   7.647   1.349   5.860
11746TIP3   OH235182   4.464   7.186   2.018
11746TIP3    H135183   4.516   7.138   2.082
11746TIP3    H235184   4.376   7.187   2.056
11747TIP3   OH235185   1.434   4.110   3.395
11747TIP3    H135186   1.376   4.041   3.363
11747TIP3    H235187   1.383   4.191   3.385
11748TIP3   OH235188   1.516   0.633   2.692
11748TIP3    H135189   1.561   0.695   2.634
11748TIP3    H235190   1.424   0.662   2.690
11749TIP3   OH235191   6.315   6.033   1.425
11749TIP3    H135192   6.241   6.094   1.433
11749TIP3    H235193   6.391   6.089   1.413
11750TIP3   OH235194   7.473   1.683   5.016
11750TIP3    H135195   7.393   1.703   5.063
11750TIP3    H235196   7.527   1.636   5.079
11751TIP3   OH235197   5.654   5.563   5.613
11751TIP3    H135198   5.562   5.538   5.603
11751TIP3    H235199   5.693   5.490   5.662
11752TIP3   OH235200   8.238   2.970   0.169
11752TIP3    H135201   8.246   2.887   0.121
11752TIP3    H235202   8.238   2.944   0.261
11753TIP3   OH235203   2.525   3.337   6.534
11753TIP3    H135204   2.546   3.272   6.467
11753TIP3    H235205   2.449   3.384   6.500
11754TIP3   OH235206   6.941   5.095   1.925
11754TIP3    H135207   6.937   5.013   1.876
11754TIP3    H235208   6.883   5.081   1.999
11755TIP3   OH235209   0.263   2.569   0.511
11755TIP3    H135210   0.176   2.601   0.536
11755TIP3    H235211   0.248   2.480   0.480
11756TIP3   OH235212   7.389   7.377   1.221
11756TIP3    H135213   7.310   7.384   1.167
11756TIP3    H235214   7.423   7.466   1.226
11757TIP3   OH235215   4.826   3.820   2.315
11757TIP3    H135216   4.774   3.778   2.246
11757TIP3    H235217   4.875   3.748   2.355
11758TIP3   OH235218   5.224   0.217   5.810
11758TIP3    H135219   5.248   0.306   5.783
11758TIP3    H235220   5.185   0.228   5.896
11759TIP3   OH235221   2.280   1.822   5.810
11759TIP3    H135222   2.319   1.739   5.838
11759TIP3    H235223   2.331   1.848   5.734
11760TIP3   OH235224   3.016   5.646   3.514
11760TIP3    H135225   3.018   5.727   3.462
11760TIP3    H235226   2.923   5.629   3.527
11761TIP3   OH235227   6.286   1.031   1.388
11761TIP3    H135228   6.219   1.027   1.457
11761TIP3    H235229   6.362   1.071   1.431
11762TIP3   OH235230   6.031   4.352   5.901
11762TIP3    H135231   6.036   4.259   5.921
11762TIP3    H235232   5.985   4.357   5.817
11763TIP3   OH235233   3.003   6.551   3.070
11763TIP3    H135234   3.006   6.646   3.080
11763TIP3    H235235   3.036   6.516   3.153
11764TIP3   OH235236   5.529   5.599   3.609
11764TIP3    H135237   5.489   5.527   3.658
11764TIP3    H235238   5.598   5.557   3.558
11765TIP3   OH235239   2.669   4.177   1.851
11765TIP3    H135240   2.734   4.162   1.783
11765TIP3    H235241   2.718   4.218   1.923
11766TIP3   OH235242   5.591   7.723   6.074
11766TIP3    H135243   5.653   7.651   6.068
11766TIP3    H235244   5.645   7.800   6.089
11767TIP3   OH235245   0.523   0.383   3.800
11767TIP3    H135246   0.461   0.379   3.873
11767TIP3    H235247   0.595   0.325   3.827
11768TIP3   OH235248   3.679   4.005   2.275
11768TIP3    H135249   3.702   3.952   2.352
11768TIP3    H235250   3.615   4.068   2.308
11769TIP3   OH235251   3.022   5.475   3.297
11769TIP3    H135252   3.086   5.504   3.231
11769TIP3    H235253   3.051   5.519   3.378
11770TIP3   OH235254   5.368   5.184   2.683
11770TIP3    H135255   5.428   5.152   2.616
11770TIP3    H235256   5.345   5.107   2.734
11771TIP3   OH235257   7.436   1.357   6.360
11771TIP3    H135258   7.430   1.336   6.453
11771TIP3    H235259   7.430   1.453   6.357
11772TIP3   OH235260   4.829   1.495   0.871
11772TIP3    H135261   4.885   1.527   0.941
11772TIP3    H235262   4.883   1.429   0.826
11773TIP3   OH235263   5.470   7.642   5.773
11773TIP3    H135264   5.422   7.723   5.790
11773TIP3    H235265   5.523   7.629   5.852
11774TIP3   OH235266   4.808   7.435   3.983
11774TIP3    H135267   4.761   7.508   4.023
11774TIP3    H235268   4.782   7.359   4.035
11775TIP3   OH235269   4.322   7.273   3.383
11775TIP3    H135270   4.374   7.213   3.329
11775TIP3    H235271   4.232   7.242   3.374
11776TIP3   OH235272   1.561   6.028   6.692
11776TIP3    H135273   1.477   5.998   6.656
11776TIP3    H235274   1.626   5.997   6.629
11777TIP3   OH235275   7.626   0.445   0.906
11777TIP3    H135276   7.651   0.354   0.890
11777TIP3    H235277   7.673   0.470   0.985
11778TIP3   OH235278   5.729   1.435   1.117
11778TIP3    H135279   5.641   1.439   1.080
11778TIP3    H235280   5.785   1.475   1.051
11779TIP3   OH235281   6.005   1.243   5.987
11779TIP3    H135282   5.933   1.183   6.008
11779TIP3    H235283   6.084   1.195   6.010
11780TIP3   OH235284   4.748   1.202   1.772
11780TIP3    H135285   4.832   1.165   1.746
11780TIP3    H235286   4.749   1.291   1.737
11781TIP3   OH235287   7.312   7.615   5.678
11781TIP3    H135288   7.369   7.584   5.608
11781TIP3    H235289   7.227   7.627   5.637
11782TIP3   OH235290   0.818   6.189   1.707
11782TIP3    H135291   0.818   6.147   1.622
11782TIP3    H235292   0.756   6.261   1.699
11783TIP3   OH235293   6.046   1.759   6.527
11783TIP3    H135294   6.134   1.730   6.501
11783TIP3    H235295   6.051   1.854   6.526
11784TIP3   OH235296   7.635   6.440   4.251
11784TIP3    H135297   7.591   6.387   4.185
11784TIP3    H235298   7.620   6.394   4.334
11785TIP3   OH235299   6.008   2.027   4.062
11785TIP3    H135300   5.948   2.049   3.991
11785TIP3    H235301   6.064   2.104   4.072
11786TIP3   OH235302   3.280   2.064   5.685
11786TIP3    H135303   3.291   2.095   5.595
11786TIP3    H235304   3.347   1.997   5.696
11787TIP3   OH235305   4.319   7.438   0.749
11787TIP3    H135306   4.373   7.480   0.682
11787TIP3    H235307   4.328   7.496   0.826
11788TIP3   OH235308   8.252   6.053   1.431
11788TIP3    H135309   8.268   5.972   1.383
11788TIP3    H235310   8.158   6.055   1.443
11789TIP3   OH235311   4.923   6.407   2.070
11789TIP3    H135312   4.832   6.435   2.079
11789TIP3    H235313   4.971   6.461   2.133
11790TIP3   OH235314   7.752   3.174   4.595
11790TIP3    H135315   7.806   3.247   4.624
11790TIP3    H235316   7.815   3.105   4.572
11791TIP3   OH235317   6.031   0.293   0.175
11791TIP3    H135318   6.089   0.217   0.185
11791TIP3    H235319   5.955   0.258   0.128
11792TIP3   OH235320   4.267   5.775   1.793
11792TIP3    H135321   4.329   5.834   1.748
11792TIP3    H235322   4.282   5.792   1.886
11793TIP3   OH235323   5.948   4.432   1.550
11793TIP3    H135324   6.030   4.419   1.599
11793TIP3    H235325   5.883   4.450   1.618
11794TIP3   OH235326   3.101   5.356   0.648
11794TIP3    H135327   3.084   5.379   0.739
11794TIP3    H235328   3.111   5.261   0.648
11795TIP3   OH235329   4.134   7.743   0.568
11795TIP3    H135330   4.138   7.755   0.663
11795TIP3    H235331   4.181   7.818   0.533
11796TIP3   OH235332   7.837   2.414   4.341
11796TIP3    H135333   7.760   2.466   4.364
11796TIP3    H235334   7.802   2.341   4.289
11797TIP3   OH235335   1.411   0.230   3.559
11797TIP3    H135336   1.453   0.241   3.473
11797TIP3    H235337   1.445   0.146   3.592
11798TIP3   OH235338   4.336   5.774   3.280
11798TIP3    H135339   4.274   5.834   3.322
11798TIP3    H235340   4.330   5.694   3.332
11799TIP3   OH235341   4.100   1.701   5.013
11799TIP3    H135342   4.067   1.759   4.945
11799TIP3    H235343   4.107   1.756   5.091
11800TIP3   OH235344   3.643   6.500   3.372
11800TIP3    H135345   3.592   6.465   3.299
11800TIP3    H235346   3.721   6.537   3.331
11801TIP3   OH235347   7.884   0.183   2.681
11801TIP3    H135348   7.979   0.189   2.693
11801TIP3    H235349   7.851   0.270   2.701
11802TIP3   OH235350   5.045   4.450   2.402
11802TIP3    H135351   5.096   4.384   2.354
11802TIP3    H235352   4.998   4.400   2.469
11803TIP3   OH235353   2.487   2.081   2.220
11803TIP3    H135354   2.539   2.049   2.294
11803TIP3    H235355   2.524   2.037   2.144
11804TIP3   OH235356   6.294   5.326   4.206
11804TIP3    H135357   6.351   5.377   4.264
11804TIP3    H235358   6.241   5.272   4.266
11805TIP3   OH235359   3.847   0.315   6.672
11805TIP3    H135360   3.766   0.313   6.724
11805TIP3    H235361   3.906   0.371   6.722
11806TIP3   OH235362   0.560   2.014   2.316
11806TIP3    H135363   0.596   1.974   2.395
11806TIP3    H235364   0.611   2.094   2.304
11807TIP3   OH235365   3.296   2.772   5.441
11807TIP3    H135366   3.216   2.814   5.473
11807TIP3    H235367   3.357   2.777   5.514
11808TIP3   OH235368   4.123   4.350   1.629
11808TIP3    H135369   4.169   4.417   1.579
11808TIP3    H235370   4.141   4.372   1.721
11809TIP3   OH235371   7.367   0.151   5.536
11809TIP3    H135372   7.357   0.169   5.443
11809TIP3    H235373   7.280   0.169   5.573
11810TIP3   OH235374   0.816   1.401   4.794
11810TIP3    H135375   0.869   1.325   4.818
11810TIP3    H235376   0.859   1.438   4.717
11811TIP3   OH235377   8.222   2.425   1.355
11811TIP3    H135378   8.214   2.348   1.298
11811TIP3    H235379   8.132   2.452   1.372
11812TIP3   OH235380   4.502   1.130   4.742
11812TIP3    H135381   4.442   1.094   4.678
11812TIP3    H235382   4.589   1.123   4.701
11813TIP3   OH235383   0.338   4.344   5.441
11813TIP3    H135384   0.270   4.282   5.466
11813TIP3    H235385   0.327   4.355   5.347
11814TIP3   OH235386   4.588   0.356   5.841
11814TIP3    H135387   4.532   0.300   5.788
11814TIP3    H235388   4.623   0.297   5.908
11815TIP3   OH235389   0.403   6.185   3.299
11815TIP3    H135390   0.434   6.275   3.311
11815TIP3    H235391   0.482   6.133   3.291
11816TIP3   OH235392   3.323   6.206   3.041
11816TIP3    H135393   3.331   6.111   3.032
11816TIP3    H235394   3.237   6.227   3.005
11817TIP3   OH235395   2.366   5.059   5.199
11817TIP3    H135396   2.405   5.122   5.260
11817TIP3    H235397   2.414   4.978   5.214
11818TIP3   OH235398   0.659   1.063   4.147
11818TIP3    H135399   0.600   0.990   4.126
11818TIP3    H235400   0.735   1.049   4.091
11819TIP3   OH235401   4.942   6.017   6.068
11819TIP3    H135402   4.925   5.936   6.117
11819TIP3    H235403   5.006   6.064   6.122
11820TIP3   OH235404   4.145   3.620   5.872
11820TIP3    H135405   4.185   3.535   5.859
11820TIP3    H235406   4.205   3.667   5.930
11821TIP3   OH235407   7.084   7.152   3.725
11821TIP3    H135408   7.013   7.184   3.781
11821TIP3    H235409   7.160   7.148   3.783
11822TIP3   OH235410   3.711   2.228   4.859
11822TIP3    H135411   3.617   2.241   4.872
11822TIP3    H235412   3.718   2.139   4.823
11823TIP3   OH235413   3.343   3.906   4.377
11823TIP3    H135414   3.284   3.922   4.450
11823TIP3    H235415   3.361   3.993   4.340
11824TIP3   OH235416   4.922   4.645   6.294
11824TIP3    H135417   4.958   4.588   6.362
11824TIP3    H235418   4.865   4.705   6.340
11825TIP3   OH235419   4.687   4.126   0.287
11825TIP3    H135420   4.614   4.156   0.342
11825TIP3    H235421   4.678   4.031   0.287
11826TIP3   OH235422   0.567   4.968   6.127
11826TIP3    H135423   0.647   4.938   6.170
11826TIP3    H235424   0.538   5.043   6.178
11827TIP3   OH235425   2.704   1.629   3.022
11827TIP3    H135426   2.771   1.594   2.963
11827TIP3    H235427   2.667   1.551   3.064
11828TIP3   OH235428   3.969   0.148   0.148
11828TIP3    H135429   3.954   0.242   0.160
11828TIP3    H235430   4.035   0.126   0.213
11829TIP3   OH235431   4.437   6.544   4.205
11829TIP3    H135432   4.508   6.490   4.172
11829TIP3    H235433   4.417   6.606   4.134
11830TIP3   OH235434   6.378   0.338   2.415
11830TIP3    H135435   6.440   0.402   2.451
11830TIP3    H235436   6.321   0.315   2.489
11831TIP3   OH235437   4.544   4.612   5.675
11831TIP3    H135438   4.474   4.630   5.738
11831TIP3    H235439   4.587   4.533   5.709
11832TIP3   OH235440   5.047   4.784   5.591
11832TIP3    H135441   5.050   4.834   5.672
11832TIP3    H235442   4.970   4.818   5.545
11833TIP3   OH235443   7.114   5.802   5.854
11833TIP3    H135444   7.115   5.736   5.785
11833TIP3    H235445   7.116   5.751   5.935
11834TIP3   OH235446   7.192   7.299   3.059
11834TIP3    H135447   7.282   7.331   3.049
11834TIP3    H235448   7.176   7.248   2.980
11835TIP3   OH235449   7.177   5.436   4.303
11835TIP3    H135450   7.244   5.503   4.313
11835TIP3    H235451   7.214   5.374   4.240
11836TIP3   OH235452   3.390   0.569   0.850
11836TIP3    H135453   3.365   0.629   0.921
11836TIP3    H235454   3.485   0.563   0.856
11837TIP3   OH235455   0.666   1.184   5.162
11837TIP3    H135456   0.730   1.113   5.165
11837TIP3    H235457   0.635   1.185   5.072
11838TIP3   OH235458   0.587   3.675   0.543
11838TIP3    H135459   0.644   3.751   0.533
11838TIP3    H235460   0.581   3.638   0.454
11839TIP3   OH235461   0.647   7.166   6.191
11839TIP3    H135462   0.640   7.178   6.285
11839TIP3    H235463   0.581   7.225   6.154
11840TIP3   OH235464   0.894   7.704   1.204
11840TIP3    H135465   0.985   7.728   1.184
11840TIP3    H235466   0.846   7.786   1.200
11841TIP3   OH235467   2.800   1.159   2.564
11841TIP3    H135468   2.884   1.205   2.561
11841TIP3    H235469   2.815   1.088   2.628
11842TIP3   OH235470   2.821   1.354   5.806
11842TIP3    H135471   2.815   1.321   5.717
11842TIP3    H235472   2.899   1.409   5.807
11843TIP3   OH235473   7.377   0.070   3.461
11843TIP3    H135474   7.366   0.150   3.514
11843TIP3    H235475   7.316   0.007   3.500
11844TIP3   OH235476   5.605   7.076   0.841
11844TIP3    H135477   5.553   6.997   0.855
11844TIP3    H235478   5.619   7.111   0.929
11845TIP3   OH235479   8.261   6.159   4.711
11845TIP3    H135480   8.231   6.189   4.797
11845TIP3    H235481   8.201   6.089   4.688
11846TIP3   OH235482   1.241   3.623   3.374
11846TIP3    H135483   1.305   3.609   3.304
11846TIP3    H235484   1.256   3.550   3.434
11847TIP3   OH235485   1.433   0.171   1.662
11847TIP3    H135486   1.505   0.118   1.626
11847TIP3    H235487   1.476   0.241   1.710
11848TIP3   OH235488   3.134   0.031   2.761
11848TIP3    H135489   3.061  -0.013   2.716
11848TIP3    H235490   3.152   0.107   2.706
11849TIP3   OH235491   7.871   6.904   5.018
11849TIP3    H135492   7.813   6.933   4.948
11849TIP3    H235493   7.959   6.915   4.982
11850TIP3   OH235494   5.372   5.939   3.804
11850TIP3    H135495   5.466   5.940   3.787
11850TIP3    H235496   5.349   5.846   3.806
11851TIP3   OH235497   0.029   2.250   4.948
11851TIP3    H135498   0.097   2.313   4.972
11851TIP3    H235499  -0.050   2.303   4.938
11852TIP3   OH235500   5.889   6.289   4.171
11852TIP3    H135501   5.860   6.327   4.254
11852TIP3    H235502   5.920   6.365   4.121
11853TIP3   OH235503   4.164   2.473   5.679
11853TIP3    H135504   4.259   2.472   5.691
11853TIP3    H235505   4.151   2.497   5.587
11854TIP3   OH235506   3.081   3.553   3.508
11854TIP3    H135507   3.054   3.495   3.436
11854TIP3    H235508   2.999   3.591   3.540
11855TIP3   OH235509   1.710   2.397   3.700
11855TIP3    H135510   1.647   2.328   3.722
11855TIP3    H235511   1.789   2.373   3.748
11856TIP3   OH235512   0.677   1.876   2.071
11856TIP3    H135513   0.715   1.790   2.052
11856TIP3    H235514   0.752   1.935   2.070
11857TIP3   OH235515   0.577   0.200   2.626
11857TIP3    H135516   0.635   0.128   2.602
11857TIP3    H235517   0.508   0.198   2.560
11858TIP3   OH235518   3.847   4.377   0.928
11858TIP3    H135519   3.894   4.315   0.985
11858TIP3    H235520   3.897   4.458   0.935
11859TIP3   OH235521   7.422   1.522   4.349
11859TIP3    H135522   7.454   1.606   4.383
11859TIP3    H235523   7.463   1.456   4.405
11860TIP3   OH235524   0.661   5.135   4.577
11860TIP3    H135525   0.638   5.115   4.668
11860TIP3    H235526   0.621   5.220   4.561
11861TIP3   OH235527   0.817   7.707   5.970
11861TIP3    H135528   0.769   7.691   5.889
11861TIP3    H235529   0.885   7.639   5.972
11862TIP3   OH235530   4.400   7.596   1.745
11862TIP3    H135531   4.488   7.568   1.720
11862TIP3    H235532   4.341   7.535   1.700
11863TIP3   OH235533   2.099   1.744   5.504
11863TIP3    H135534   2.084   1.721   5.596
11863TIP3    H235535   2.011   1.753   5.467
11864TIP3   OH235536   7.341   7.555   4.126
11864TIP3    H135537   7.321   7.645   4.099
11864TIP3    H235538   7.338   7.557   4.221
11865TIP3   OH235539   3.645   5.727   5.038
11865TIP3    H135540   3.677   5.648   4.994
11865TIP3    H235541   3.720   5.787   5.037
11866TIP3   OH235542  -0.020   7.552   4.665
11866TIP3    H135543  -0.017   7.467   4.709
11866TIP3    H235544   0.051   7.549   4.601
11867TIP3   OH235545   5.668   1.072   0.270
11867TIP3    H135546   5.719   1.147   0.242
11867TIP3    H235547   5.652   1.022   0.189
11868TIP3   OH235548   7.966   1.254   1.811
11868TIP3    H135549   7.981   1.178   1.755
11868TIP3    H235550   7.950   1.216   1.898
11869TIP3   OH235551   1.580   0.647   5.389
11869TIP3    H135552   1.558   0.587   5.460
11869TIP3    H235553   1.585   0.592   5.311
11870TIP3   OH235554   6.055   3.978   4.953
11870TIP3    H135555   6.111   4.051   4.977
11870TIP3    H235556   6.013   3.952   5.035
11871TIP3   OH235557   6.779   4.903   3.490
11871TIP3    H135558   6.761   4.886   3.398
11871TIP3    H235559   6.840   4.976   3.490
11872TIP3   OH235560   4.931   2.836   3.487
11872TIP3    H135561   4.934   2.757   3.541
11872TIP3    H235562   4.990   2.818   3.414
11873TIP3   OH235563   8.048   1.892   4.904
11873TIP3    H135564   8.028   1.862   4.992
11873TIP3    H235565   8.035   1.814   4.849
11874TIP3   OH235566   0.103   0.180   0.106
11874TIP3    H135567   0.074   0.180   0.014
11874TIP3    H235568   0.129   0.270   0.122
11875TIP3   OH235569   6.959   4.038   0.793
11875TIP3    H135570   7.034   4.096   0.808
11875TIP3    H235571   6.993   3.971   0.734
11876TIP3   OH235572   2.853   0.618   0.718
11876TIP3    H135573   2.894   0.630   0.803
11876TIP3    H235574   2.777   0.562   0.735
11877TIP3   OH235575   3.027   5.995   6.164
11877TIP3    H135576   3.105   6.039   6.129
11877TIP3    H235577   3.030   6.013   6.258
11878TIP3   OH235578   2.102   6.902   5.511
11878TIP3    H135579   2.120   6.953   5.432
11878TIP3    H235580   2.010   6.879   5.505
11879TIP3   OH235581   4.825   5.672   1.278
11879TIP3    H135582   4.910   5.676   1.321
11879TIP3    H235583   4.846   5.674   1.184
11880TIP3   OH235584   3.621   7.629   0.063
11880TIP3    H135585   3.657   7.540   0.065
11880TIP3    H235586   3.679   7.680   0.120
11881TIP3   OH235587   6.777   5.087   5.790
11881TIP3    H135588   6.735   5.056   5.710
11881TIP3    H235589   6.704   5.102   5.850
11882TIP3   OH235590   4.087   0.565   6.058
11882TIP3    H135591   4.137   0.501   6.107
11882TIP3    H235592   4.005   0.521   6.036
11883TIP3   OH235593   4.864   3.018   1.311
11883TIP3    H135594   4.913   2.958   1.255
11883TIP3    H235595   4.919   3.096   1.316
11884TIP3   OH235596   0.981   3.761   0.278
11884TIP3    H135597   0.979   3.855   0.256
11884TIP3    H235598   1.022   3.720   0.202
11885TIP3   OH235599   3.293   0.344   4.930
11885TIP3    H135600   3.207   0.304   4.921
11885TIP3    H235601   3.309   0.387   4.846
11886TIP3   OH235602   4.879   7.452   5.036
11886TIP3    H135603   4.830   7.533   5.049
11886TIP3    H235604   4.961   7.466   5.083
11887TIP3   OH235605   2.189   0.264   5.312
11887TIP3    H135606   2.119   0.306   5.263
11887TIP3    H235607   2.240   0.336   5.349
11888TIP3   OH235608   4.365   1.252   5.717
11888TIP3    H135609   4.304   1.195   5.764
11888TIP3    H235610   4.447   1.245   5.767
11889TIP3   OH235611   7.477   7.751   3.347
11889TIP3    H135612   7.570   7.767   3.365
11889TIP3    H235613   7.449   7.827   3.297
11890TIP3   OH235614   6.626   4.812   1.972
11890TIP3    H135615   6.686   4.858   2.031
11890TIP3    H235616   6.630   4.721   2.001
11891TIP3   OH235617   6.732   5.328   3.237
11891TIP3    H135618   6.658   5.269   3.227
11891TIP3    H235619   6.807   5.270   3.253
11892TIP3   OH235620   1.341   4.164   4.122
11892TIP3    H135621   1.317   4.255   4.142
11892TIP3    H235622   1.411   4.171   4.058
11893TIP3   OH235623   6.741   0.644   2.288
11893TIP3    H135624   6.755   0.600   2.204
11893TIP3    H235625   6.726   0.736   2.265
11894TIP3   OH235626   5.089   2.575   5.316
11894TIP3    H135627   5.126   2.661   5.336
11894TIP3    H235628   5.164   2.516   5.320
11895TIP3   OH235629   4.535   6.405   5.643
11895TIP3    H135630   4.504   6.329   5.692
11895TIP3    H235631   4.506   6.480   5.695
11896TIP3   OH235632   5.844   4.682   1.180
11896TIP3    H135633   5.756   4.648   1.167
11896TIP3    H235634   5.891   4.612   1.226
11897TIP3   OH235635   6.687   2.023   5.502
11897TIP3    H135636   6.645   1.996   5.583
11897TIP3    H235637   6.774   1.982   5.504
11898TIP3   OH235638   7.450   0.321   1.859
11898TIP3    H135639   7.483   0.237   1.826
11898TIP3    H235640   7.529   0.374   1.869
11899TIP3   OH235641   0.711   3.137   0.518
11899TIP3    H135642   0.622   3.113   0.544
11899TIP3    H235643   0.721   3.098   0.431
11900TIP3   OH235644   2.572   1.755   4.307
11900TIP3    H135645   2.544   1.845   4.321
11900TIP3    H235646   2.561   1.740   4.213
11901TIP3   OH235647   1.403   4.446   3.883
11901TIP3    H135648   1.465   4.382   3.919
11901TIP3    H235649   1.446   4.530   3.896
11902TIP3   OH235650   6.456   3.119   0.059
11902TIP3    H135651   6.522   3.098  -0.007
11902TIP3    H235652   6.504   3.125   0.141
11903TIP3   OH235653   5.121   5.025   6.339
11903TIP3    H135654   5.180   4.973   6.284
11903TIP3    H235655   5.033   5.001   6.308
11904TIP3   OH235656   0.739   5.346   5.843
11904TIP3    H135657   0.723   5.272   5.783
11904TIP3    H235658   0.834   5.343   5.858
11905TIP3   OH235659   4.321   6.909   3.958
11905TIP3    H135660   4.364   6.928   4.042
11905TIP3    H235661   4.229   6.931   3.972
11906TIP3   OH235662   1.941   2.664   6.200
11906TIP3    H135663   1.941   2.757   6.223
11906TIP3    H235664   1.982   2.661   6.114
11907TIP3   OH235665   6.738   5.390   2.985
11907TIP3    H135666   6.748   5.388   3.080
11907TIP3    H235667   6.647   5.416   2.971
11908TIP3   OH235668   4.430   0.735   6.127
11908TIP3    H135669   4.513   0.773   6.154
11908TIP3    H235670   4.437   0.642   6.150
11909TIP3   OH235671   4.615   0.262   6.124
11909TIP3    H135672   4.577   0.179   6.095
11909TIP3    H235673   4.691   0.236   6.176
11910TIP3   OH235674   6.679   4.356   0.472
11910TIP3    H135675   6.698   4.284   0.531
11910TIP3    H235676   6.591   4.386   0.497
11911TIP3   OH235677   4.230   3.676   3.473
11911TIP3    H135678   4.258   3.671   3.564
11911TIP3    H235679   4.310   3.666   3.422
11912TIP3   OH235680   3.854   5.781   1.251
11912TIP3    H135681   3.845   5.767   1.156
11912TIP3    H235682   3.934   5.734   1.275
11913TIP3   OH235683   1.401   0.076   6.501
11913TIP3    H135684   1.391  -0.019   6.493
11913TIP3    H235685   1.344   0.112   6.433
11914TIP3   OH235686   7.721   5.172   2.609
11914TIP3    H135687   7.807   5.136   2.588
11914TIP3    H235688   7.691   5.122   2.685
11915TIP3   OH235689   7.050   2.021   1.004
11915TIP3    H135690   6.957   2.032   0.987
11915TIP3    H235691   7.057   1.933   1.043
11916TIP3   OH235692   2.326   6.197   5.126
11916TIP3    H135693   2.300   6.213   5.217
11916TIP3    H235694   2.319   6.282   5.083
11917TIP3   OH235695   0.217   3.265   1.501
11917TIP3    H135696   0.202   3.339   1.559
11917TIP3    H235697   0.130   3.235   1.477
11918TIP3   OH235698   7.171   5.232   1.685
11918TIP3    H135699   7.210   5.164   1.632
11918TIP3    H235700   7.113   5.279   1.625
11919TIP3   OH235701   1.734   5.840   3.158
11919TIP3    H135702   1.648   5.845   3.200
11919TIP3    H235703   1.720   5.875   3.070
11920TIP3   OH235704   7.401   3.343   0.402
11920TIP3    H135705   7.324   3.337   0.345
11920TIP3    H235706   7.444   3.424   0.375
11921TIP3   OH235707   4.259   4.964   1.374
11921TIP3    H135708   4.167   4.935   1.379
11921TIP3    H235709   4.261   5.024   1.300
11922TIP3   OH235710   3.622   4.907   1.391
11922TIP3    H135711   3.663   4.992   1.372
11922TIP3    H235712   3.586   4.878   1.308
11923TIP3   OH235713   1.446   4.900   2.894
11923TIP3    H135714   1.429   4.807   2.905
11923TIP3    H235715   1.362   4.936   2.866
11924TIP3   OH235716   0.131   3.252   6.258
11924TIP3    H135717   0.153   3.333   6.210
11924TIP3    H235718   0.149   3.273   6.349
11925TIP3   OH235719   6.712   0.818   6.349
11925TIP3    H135720   6.750   0.736   6.380
11925TIP3    H235721   6.688   0.866   6.428
11926TIP3   OH235722   2.943   0.517   5.379
11926TIP3    H135723   2.891   0.558   5.310
11926TIP3    H235724   2.880   0.500   5.449
11927TIP3   OH235725   0.313   3.968   1.579
11927TIP3    H135726   0.362   3.948   1.659
11927TIP3    H235727   0.256   4.041   1.604
11928TIP3   OH235728   7.592   1.825   1.485
11928TIP3    H135729   7.545   1.858   1.562
11928TIP3    H235730   7.682   1.855   1.497
11929TIP3   OH235731   1.477   7.706   2.594
11929TIP3    H135732   1.533   7.677   2.522
11929TIP3    H235733   1.460   7.798   2.576
11930TIP3   OH235734   3.724   1.437   2.029
11930TIP3    H135735   3.783   1.365   2.008
11930TIP3    H235736   3.765   1.481   2.102
11931TIP3   OH235737   2.836   6.433   4.554
11931TIP3    H135738   2.829   6.418   4.648
11931TIP3    H235739   2.750   6.466   4.528
11932TIP3   OH235740   2.213   0.584   4.444
11932TIP3    H135741   2.241   0.657   4.500
11932TIP3    H235742   2.188   0.625   4.361
11933TIP3   OH235743   4.644   0.737   1.600
11933TIP3    H135744   4.549   0.726   1.604
11933TIP3    H235745   4.671   0.691   1.521
11934TIP3   OH235746   0.302   0.231   5.249
11934TIP3    H135747   0.361   0.170   5.293
11934TIP3    H235748   0.321   0.316   5.289
11935TIP3   OH235749   6.765   4.997   6.226
11935TIP3    H135750   6.805   4.915   6.198
11935TIP3    H235751   6.672   4.978   6.233
11936TIP3   OH235752   6.148   6.413   5.554
11936TIP3    H135753   6.149   6.403   5.650
11936TIP3    H235754   6.063   6.379   5.527
11937TIP3   OH235755   3.328   6.561   4.245
11937TIP3    H135756   3.369   6.499   4.185
11937TIP3    H235757   3.234   6.552   4.228
11938TIP3   OH235758   7.354   5.697   0.553
11938TIP3    H135759   7.354   5.747   0.472
11938TIP3    H235760   7.262   5.674   0.567
11939TIP3   OH235761   4.081   3.925   6.752
11939TIP3    H135762   3.990   3.901   6.739
11939TIP3    H235763   4.110   3.873   6.827
11940TIP3   OH235764   1.326   6.611   5.492
11940TIP3    H135765   1.319   6.531   5.440
11940TIP3    H235766   1.241   6.654   5.480
11941TIP3   OH235767   7.216   2.033   5.484
11941TIP3    H135768   7.263   2.114   5.504
11941TIP3    H235769   7.273   1.964   5.516
11942TIP3   OH235770   3.977   4.585   2.500
11942TIP3    H135771   3.946   4.605   2.412
11942TIP3    H235772   4.062   4.543   2.487
11943TIP3   OH235773   2.650   6.484   4.993
11943TIP3    H135774   2.697   6.515   5.070
11943TIP3    H235775   2.599   6.409   5.024
11944TIP3   OH235776   1.421   4.064   1.790
11944TIP3    H135777   1.489   4.105   1.844
11944TIP3    H235778   1.371   4.138   1.755
11945TIP3   OH235779   5.792   4.114   2.715
11945TIP3    H135780   5.847   4.066   2.653
11945TIP3    H235781   5.824   4.085   2.801
11946TIP3   OH235782   1.758   1.150   6.112
11946TIP3    H135783   1.701   1.219   6.146
11946TIP3    H235784   1.756   1.161   6.017
11947TIP3   OH235785   6.111   1.676   0.938
11947TIP3    H135786   6.148   1.629   1.012
11947TIP3    H235787   6.178   1.670   0.870
11948TIP3   OH235788   0.857   3.384   3.504
11948TIP3    H135789   0.800   3.313   3.532
11948TIP3    H235790   0.800   3.444   3.457
11949TIP3   OH235791   2.975   3.821   6.083
11949TIP3    H135792   3.049   3.829   6.143
11949TIP3    H235793   2.947   3.730   6.092
11950TIP3   OH235794   6.801   7.778   5.556
11950TIP3    H135795   6.744   7.766   5.632
11950TIP3    H235796   6.863   7.704   5.561
11951TIP3   OH235797   2.002   2.959   1.661
11951TIP3    H135798   1.979   2.904   1.736
11951TIP3    H235799   2.081   3.006   1.689
11952TIP3   OH235800   5.538   4.602   1.453
11952TIP3    H135801   5.517   4.676   1.510
11952TIP3    H235802   5.554   4.642   1.367
11953TIP3   OH235803   7.356   2.023   3.436
11953TIP3    H135804   7.333   1.961   3.505
11953TIP3    H235805   7.398   2.095   3.482
11954TIP3   OH235806   5.746   4.389   6.055
11954TIP3    H135807   5.838   4.364   6.059
11954TIP3    H235808   5.698   4.308   6.074
11955TIP3   OH235809   3.058   6.033   2.710
11955TIP3    H135810   2.999   5.965   2.679
11955TIP3    H235811   3.116   5.987   2.771
11956TIP3   OH235812   0.907   4.267   3.643
11956TIP3    H135813   0.881   4.295   3.555
11956TIP3    H235814   0.830   4.223   3.678
11957TIP3   OH235815   5.234   1.041   4.783
11957TIP3    H135816   5.277   1.125   4.800
11957TIP3    H235817   5.301   0.975   4.802
11958TIP3   OH235818   1.049   7.217   3.335
11958TIP3    H135819   1.110   7.262   3.277
11958TIP3    H235820   1.102   7.194   3.412
11959TIP3   OH235821   6.649   2.326   2.046
11959TIP3    H135822   6.718   2.329   2.113
11959TIP3    H235823   6.694   2.293   1.968
11960TIP3   OH235824   0.762   7.240   5.228
11960TIP3    H135825   0.779   7.334   5.236
11960TIP3    H235826   0.725   7.229   5.141
11961TIP3   OH235827   3.081   6.240   2.912
11961TIP3    H135828   2.999   6.288   2.898
11961TIP3    H235829   3.096   6.194   2.829
11962TIP3   OH235830   3.630   7.620   0.404
11962TIP3    H135831   3.688   7.587   0.472
11962TIP3    H235832   3.667   7.705   0.380
11963TIP3   OH235833   2.902   5.761   3.098
11963TIP3    H135834   2.941   5.796   3.178
11963TIP3    H235835   2.843   5.692   3.128
11964TIP3   OH235836   1.999   3.723   3.292
11964TIP3    H135837   2.012   3.663   3.365
11964TIP3    H235838   2.087   3.743   3.260
11965TIP3   OH235839   1.355   3.298   0.688
11965TIP3    H135840   1.398   3.349   0.619
11965TIP3    H235841   1.262   3.313   0.675
11966TIP3   OH235842   7.824   2.044   4.423
11966TIP3    H135843   7.744   2.096   4.426
11966TIP3    H235844   7.855   2.053   4.333
11967TIP3   OH235845   6.923   1.628   5.164
11967TIP3    H135846   6.956   1.693   5.102
11967TIP3    H235847   6.991   1.624   5.232
11968TIP3   OH235848   3.042   7.500   0.746
11968TIP3    H135849   3.103   7.570   0.767
11968TIP3    H235850   2.997   7.481   0.829
11969TIP3   OH235851   2.035   1.649   0.738
11969TIP3    H135852   2.001   1.577   0.685
11969TIP3    H235853   2.006   1.728   0.692
11970TIP3   OH235854   6.268   3.247   5.578
11970TIP3    H135855   6.211   3.277   5.649
11970TIP3    H235856   6.310   3.168   5.612
11971TIP3   OH235857   5.482   0.774   1.537
11971TIP3    H135858   5.387   0.764   1.527
11971TIP3    H235859   5.492   0.859   1.581
11972TIP3   OH235860   4.490   4.503   4.052
11972TIP3    H135861   4.491   4.411   4.078
11972TIP3    H235862   4.398   4.524   4.040
11973TIP3   OH235863   1.077   0.594   4.986
11973TIP3    H135864   1.166   0.613   4.958
11973TIP3    H235865   1.023   0.659   4.941
11974TIP3   OH235866   5.110   6.976   3.646
11974TIP3    H135867   5.057   6.898   3.629
11974TIP3    H235868   5.185   6.943   3.696
11975TIP3   OH235869   3.675   5.975   1.397
11975TIP3    H135870   3.727   5.901   1.365
11975TIP3    H235871   3.738   6.029   1.445
11976TIP3   OH235872   5.294   5.003   2.899
11976TIP3    H135873   5.272   5.054   2.977
11976TIP3    H235874   5.292   4.912   2.928
11977TIP3   OH235875   0.603   5.904   0.497
11977TIP3    H135876   0.543   5.881   0.567
11977TIP3    H235877   0.572   5.989   0.465
11978TIP3   OH235878   8.015   1.800   2.087
11978TIP3    H135879   8.096   1.805   2.137
11978TIP3    H235880   8.041   1.767   2.001
11979TIP3   OH235881   2.366   4.224   2.662
11979TIP3    H135882   2.338   4.134   2.677
11979TIP3    H235883   2.337   4.243   2.573
11980TIP3   OH235884   1.621   5.454   3.574
11980TIP3    H135885   1.542   5.438   3.523
11980TIP3    H235886   1.589   5.478   3.661
11981TIP3   OH235887   6.054   1.502   2.611
11981TIP3    H135888   6.088   1.444   2.679
11981TIP3    H235889   5.959   1.502   2.625
11982TIP3   OH235890   6.124   5.901   6.471
11982TIP3    H135891   6.061   5.833   6.494
11982TIP3    H235892   6.187   5.857   6.413
11983TIP3   OH235893   2.263   3.757   6.464
11983TIP3    H135894   2.237   3.782   6.553
11983TIP3    H235895   2.194   3.794   6.409
11984TIP3   OH235896   6.850   3.355   4.214
11984TIP3    H135897   6.778   3.302   4.180
11984TIP3    H235898   6.913   3.291   4.247
11985TIP3   OH235899   6.168   5.056   0.552
11985TIP3    H135900   6.253   5.036   0.590
11985TIP3    H235901   6.180   5.043   0.457
11986TIP3   OH235902   3.743   2.379   6.296
11986TIP3    H135903   3.695   2.300   6.321
11986TIP3    H235904   3.778   2.359   6.209
11987TIP3   OH235905   8.254   6.212   6.190
11987TIP3    H135906   8.246   6.259   6.107
11987TIP3    H235907   8.280   6.124   6.165
11988TIP3   OH235908   6.071   7.069   6.518
11988TIP3    H135909   5.979   7.094   6.525
11988TIP3    H235910   6.107   7.128   6.452
11989TIP3   OH235911   5.217   6.016   0.923
11989TIP3    H135912   5.302   6.017   0.880
11989TIP3    H235913   5.224   5.949   0.991
11990TIP3   OH235914   5.543   0.960   3.593
11990TIP3    H135915   5.502   0.925   3.513
11990TIP3    H235916   5.495   0.919   3.664
11991TIP3   OH235917   7.692   7.412   5.765
11991TIP3    H135918   7.788   7.413   5.758
11991TIP3    H235919   7.662   7.469   5.694
11992TIP3   OH235920   0.229   5.334   0.343
11992TIP3    H135921   0.237   5.239   0.342
11992TIP3    H235922   0.305   5.365   0.392
11993TIP3   OH235923   7.012   6.378   6.722
11993TIP3    H135924   6.984   6.300   6.770
11993TIP3    H235925   6.932   6.410   6.680
11994TIP3   OH235926   7.455   3.909   5.726
11994TIP3    H135927   7.500   3.867   5.798
11994TIP3    H235928   7.363   3.908   5.751
11995TIP3   OH235929   2.839   3.505   3.166
11995TIP3    H135930   2.811   3.545   3.248
11995TIP3    H235931   2.772   3.530   3.103
11996TIP3   OH235932   3.917   2.435   6.064
11996TIP3    H135933   3.985   2.370   6.080
11996TIP3    H235934   3.960   2.501   6.009
11997TIP3   OH235935   0.491   5.822   6.728
11997TIP3    H135936   0.431   5.756   6.695
11997TIP3    H235937   0.558   5.773   6.775
11998TIP3   OH235938   5.188   4.404   5.014
11998TIP3    H135939   5.119   4.341   4.993
11998TIP3    H235940   5.268   4.352   5.020
11999TIP3   OH235941   0.072   6.777   3.577
11999TIP3    H135942   0.134   6.831   3.626
11999TIP3    H235943   0.105   6.688   3.588
12000TIP3   OH235944   4.204   2.856   1.600
12000TIP3    H135945   4.130   2.888   1.650
12000TIP3    H235946   4.230   2.775   1.644
12001TIP3   OH235947   2.996   5.135   4.162
12001TIP3    H135948   3.074   5.146   4.107
12001TIP3    H235949   2.994   5.213   4.217
12002TIP3   OH235950   4.174   0.561   0.751
12002TIP3    H135951   4.204   0.477   0.785
12002TIP3    H235952   4.220   0.626   0.804
12003TIP3   OH235953   7.264   0.437   2.284
12003TIP3    H135954   7.333   0.502   2.275
12003TIP3    H235955   7.220   0.435   2.199
12004TIP3   OH235956   1.781   7.365   4.036
12004TIP3    H135957   1.783   7.307   4.112
12004TIP3    H235958   1.702   7.339   3.988
12005TIP3   OH235959   6.148   1.446   4.272
12005TIP3    H135960   6.086   1.379   4.242
12005TIP3    H235961   6.227   1.431   4.221
12006TIP3   OH235962   7.694   0.492   0.629
12006TIP3    H135963   7.680   0.479   0.723
12006TIP3    H235964   7.780   0.534   0.624
12007TIP3   OH235965   6.307   2.956   2.010
12007TIP3    H135966   6.401   2.961   2.027
12007TIP3    H235967   6.301   2.924   1.920
12008TIP3   OH235968   7.780   3.976   6.508
12008TIP3    H135969   7.694   3.994   6.547
12008TIP3    H235970   7.806   3.891   6.544
12009TIP3   OH235971   4.916   5.967   4.367
12009TIP3    H135972   4.958   5.948   4.283
12009TIP3    H235973   4.946   5.897   4.426
12010TIP3   OH235974   0.142   0.548   4.291
12010TIP3    H135975   0.078   0.602   4.338
12010TIP3    H235976   0.119   0.458   4.314
12011TIP3   OH235977   0.627   2.627   4.989
12011TIP3    H135978   0.605   2.667   5.074
12011TIP3    H235979   0.595   2.690   4.925
12012TIP3   OH235980   2.481   1.118   3.521
12012TIP3    H135981   2.386   1.108   3.532
12012TIP3    H235982   2.505   1.191   3.578
12013TIP3   OH235983   0.432   3.291   2.082
12013TIP3    H135984   0.514   3.242   2.077
12013TIP3    H235985   0.426   3.318   2.174
12014TIP3   OH235986   0.239   7.374   2.323
12014TIP3    H135987   0.181   7.449   2.312
12014TIP3    H235988   0.202   7.326   2.397
12015TIP3   OH235989   1.790   1.972   2.131
12015TIP3    H135990   1.879   1.999   2.110
12015TIP3    H235991   1.783   1.884   2.095
12016TIP3   OH235992   6.585   6.814   5.100
12016TIP3    H135993   6.573   6.719   5.109
12016TIP3    H235994   6.680   6.826   5.096
12017TIP3   OH235995   0.346   5.242   1.708
12017TIP3    H135996   0.397   5.220   1.787
12017TIP3    H235997   0.411   5.278   1.648
12018TIP3   OH235998   8.226   1.942   1.450
12018TIP3    H135999   8.162   1.948   1.521
12018TIP3    H236000   8.218   1.852   1.418
12019TIP3   OH236001   3.967   3.078   3.490
12019TIP3    H136002   3.959   2.990   3.454
12019TIP3    H236003   4.039   3.071   3.554
12020TIP3   OH236004   4.028   1.496   3.615
12020TIP3    H136005   4.093   1.474   3.548
12020TIP3    H236006   4.039   1.430   3.683
12021TIP3   OH236007   2.486   7.151   4.878
12021TIP3    H136008   2.544   7.227   4.879
12021TIP3    H236009   2.400   7.186   4.901
12022TIP3   OH236010   7.952   3.656   2.425
12022TIP3    H136011   8.041   3.654   2.390
12022TIP3    H236012   7.895   3.650   2.349
12023TIP3   OH236013   6.018   3.124   0.529
12023TIP3    H136014   6.106   3.121   0.491
12023TIP3    H236015   5.962   3.083   0.463
12024TIP3   OH236016   4.115   4.357   5.178
12024TIP3    H136017   4.171   4.351   5.256
12024TIP3    H236018   4.091   4.450   5.173
12025TIP3   OH236019   3.578   4.722   3.903
12025TIP3    H136020   3.531   4.691   3.826
12025TIP3    H236021   3.510   4.746   3.966
12026TIP3   OH236022   2.596   2.479   0.618
12026TIP3    H136023   2.632   2.443   0.537
12026TIP3    H236024   2.590   2.403   0.677
12027TIP3   OH236025   8.122   1.059   3.976
12027TIP3    H136026   8.142   1.142   3.933
12027TIP3    H236027   8.132   1.077   4.069
12028TIP3   OH236028   0.061   2.100   1.974
12028TIP3    H136029   0.047   2.183   1.928
12028TIP3    H236030   0.140   2.115   2.026
12029TIP3   OH236031   1.870   6.588   5.148
12029TIP3    H136032   1.865   6.493   5.143
12029TIP3    H236033   1.937   6.604   5.215
12030TIP3   OH236034   6.896   4.550   0.496
12030TIP3    H136035   6.839   4.627   0.486
12030TIP3    H236036   6.839   4.476   0.474
12031TIP3   OH236037   4.450   4.553   4.709
12031TIP3    H136038   4.363   4.531   4.676
12031TIP3    H236039   4.470   4.638   4.671
12032TIP3   OH236040   7.586   5.347   3.452
12032TIP3    H136041   7.646   5.395   3.509
12032TIP3    H236042   7.552   5.276   3.507
12033TIP3   OH236043   4.518   0.314   4.596
12033TIP3    H136044   4.549   0.309   4.686
12033TIP3    H236045   4.592   0.350   4.547
12034TIP3   OH236046   2.323   3.198   3.448
12034TIP3    H136047   2.364   3.246   3.520
12034TIP3    H236048   2.393   3.142   3.414
12035TIP3   OH236049   8.080   2.212   2.987
12035TIP3    H136050   8.164   2.168   2.971
12035TIP3    H236051   8.105   2.301   3.012
12036TIP3   OH236052   6.316   5.954   1.945
12036TIP3    H136053   6.313   5.859   1.938
12036TIP3    H236054   6.363   5.983   1.867
12037TIP3   OH236055   4.442   5.359   4.014
12037TIP3    H136056   4.478   5.270   4.009
12037TIP3    H236057   4.470   5.401   3.932
12038TIP3   OH236058   4.051   5.834   6.086
12038TIP3    H136059   4.001   5.822   6.005
12038TIP3    H236060   3.985   5.860   6.151
12039TIP3   OH236061   5.064   2.321   3.604
12039TIP3    H136062   4.993   2.306   3.541
12039TIP3    H236063   5.020   2.346   3.685
12040TIP3   OH236064   6.891   6.615   3.352
12040TIP3    H136065   6.868   6.606   3.259
12040TIP3    H236066   6.828   6.559   3.397
12041TIP3   OH236067   1.312   2.035   4.443
12041TIP3    H136068   1.349   1.947   4.440
12041TIP3    H236069   1.224   2.023   4.478
12042TIP3   OH236070   2.829   6.614   6.809
12042TIP3    H136071   2.755   6.556   6.789
12042TIP3    H236072   2.855   6.649   6.724
12043TIP3   OH236073   3.726   7.689   3.396
12043TIP3    H136074   3.693   7.599   3.398
12043TIP3    H236075   3.686   7.731   3.472
12044TIP3   OH236076   8.148   1.475   4.041
12044TIP3    H136077   8.114   1.386   4.047
12044TIP3    H236078   8.158   1.503   4.132
12045TIP3   OH236079   1.706   4.599   2.447
12045TIP3    H136080   1.726   4.673   2.504
12045TIP3    H236081   1.616   4.576   2.470
12046TIP3   OH236082   6.569   0.847   4.087
12046TIP3    H136083   6.501   0.852   4.020
12046TIP3    H236084   6.626   0.922   4.069
12047TIP3   OH236085   6.502   2.118   2.270
12047TIP3    H136086   6.572   2.147   2.211
12047TIP3    H236087   6.447   2.062   2.216
12048TIP3   OH236088   7.710   4.832   0.884
12048TIP3    H136089   7.740   4.746   0.856
12048TIP3    H236090   7.715   4.886   0.805
12049TIP3   OH236091   0.522   0.042   4.803
12049TIP3    H136092   0.536   0.091   4.885
12049TIP3    H236093   0.451   0.089   4.759
12050TIP3   OH236094   6.336   1.222   6.649
12050TIP3    H136095   6.399   1.245   6.580
12050TIP3    H236096   6.285   1.150   6.611
12051TIP3   OH236097   3.863   6.505   1.958
12051TIP3    H136098   3.858   6.534   1.867
12051TIP3    H236099   3.798   6.436   1.966
12052TIP3   OH236100   3.794   4.355   0.506
12052TIP3    H136101   3.886   4.375   0.486
12052TIP3    H236102   3.788   4.260   0.496
12053TIP3   OH236103   1.317   5.221   5.643
12053TIP3    H136104   1.412   5.220   5.652
12053TIP3    H236105   1.293   5.313   5.653
12054TIP3   OH236106   1.204   3.132   4.452
12054TIP3    H136107   1.222   3.224   4.434
12054TIP3    H236108   1.279   3.085   4.416
12055TIP3   OH236109   5.134   6.674   6.142
12055TIP3    H136110   5.166   6.669   6.052
12055TIP3    H236111   5.190   6.739   6.184
12056TIP3   OH236112   3.927   7.217   5.896
12056TIP3    H136113   4.022   7.223   5.909
12056TIP3    H236114   3.917   7.170   5.814
12057TIP3   OH236115   7.502   2.340   5.156
12057TIP3    H136116   7.580   2.376   5.115
12057TIP3    H236117   7.442   2.413   5.164
12058TIP3   OH236118   1.450   4.937   1.365
12058TIP3    H136119   1.441   4.871   1.297
12058TIP3    H236120   1.537   4.974   1.351
12059TIP3   OH236121   0.707   1.125   6.042
12059TIP3    H136122   0.688   1.031   6.052
12059TIP3    H236123   0.780   1.141   6.101
12060TIP3   OH236124   5.593   5.546   2.095
12060TIP3    H136125   5.547   5.506   2.021
12060TIP3    H236126   5.534   5.535   2.169
12061TIP3   OH236127   2.019   0.809   5.543
12061TIP3    H136128   2.081   0.774   5.479
12061TIP3    H236129   1.949   0.847   5.490
12062TIP3   OH236130   3.631   2.247   4.224
12062TIP3    H136131   3.562   2.254   4.289
12062TIP3    H236132   3.703   2.299   4.260
12063TIP3   OH236133   7.095   1.365   4.639
12063TIP3    H136134   7.075   1.280   4.676
12063TIP3    H236135   7.075   1.428   4.709
12064TIP3   OH236136   8.011   3.057   3.603
12064TIP3    H136137   7.955   3.100   3.667
12064TIP3    H236138   7.955   2.991   3.562
12065TIP3   OH236139   4.556   7.269   4.050
12065TIP3    H136140   4.534   7.185   4.090
12065TIP3    H236141   4.556   7.252   3.955
12066TIP3   OH236142   0.038   2.217   5.998
12066TIP3    H136143  -0.045   2.204   5.952
12066TIP3    H236144   0.026   2.173   6.082
12067TIP3   OH236145   3.193   3.586   5.235
12067TIP3    H136146   3.159   3.552   5.152
12067TIP3    H236147   3.154   3.673   5.243
12068TIP3   OH236148   1.786   4.327   4.339
12068TIP3    H136149   1.747   4.265   4.401
12068TIP3    H236150   1.712   4.378   4.305
12069TIP3   OH236151   0.183   2.236   0.099
12069TIP3    H136152   0.241   2.306   0.126
12069TIP3    H236153   0.149   2.264   0.014
12070TIP3   OH236154   6.215   6.355   2.884
12070TIP3    H136155   6.174   6.436   2.914
12070TIP3    H236156   6.226   6.303   2.964
12071TIP3   OH236157   3.774   0.411   4.530
12071TIP3    H136158   3.711   0.429   4.460
12071TIP3    H236159   3.730   0.347   4.586
12072TIP3   OH236160   5.623   1.890   5.471
12072TIP3    H136161   5.657   1.979   5.470
12072TIP3    H236162   5.542   1.894   5.421
12073TIP3   OH236163   3.743   4.700   2.011
12073TIP3    H136164   3.779   4.707   1.923
12073TIP3    H236165   3.719   4.608   2.020
12074TIP3   OH236166   4.191   6.210   0.488
12074TIP3    H136167   4.258   6.149   0.519
12074TIP3    H236168   4.232   6.296   0.495
12075TIP3   OH236169   3.963   3.699   4.561
12075TIP3    H136170   3.929   3.758   4.495
12075TIP3    H236171   3.904   3.624   4.559
12076TIP3   OH236172   1.123   4.515   6.610
12076TIP3    H136173   1.139   4.459   6.686
12076TIP3    H236174   1.037   4.488   6.578
12077TIP3   OH236175   6.173   2.387   0.958
12077TIP3    H136176   6.192   2.481   0.959
12077TIP3    H236177   6.078   2.381   0.958
12078TIP3   OH236178   6.500   6.216   5.242
12078TIP3    H136179   6.570   6.216   5.307
12078TIP3    H236180   6.439   6.283   5.272
12079TIP3   OH236181   6.420   2.065   4.887
12079TIP3    H136182   6.515   2.076   4.882
12079TIP3    H236183   6.386   2.154   4.898
12080TIP3   OH236184   5.341   7.643   3.113
12080TIP3    H136185   5.324   7.550   3.128
12080TIP3    H236186   5.392   7.670   3.189
12081TIP3   OH236187   0.696   6.565   0.583
12081TIP3    H136188   0.632   6.636   0.578
12081TIP3    H236189   0.772   6.597   0.535
12082TIP3   OH236190   2.573   3.023   2.316
12082TIP3    H136191   2.591   3.000   2.225
12082TIP3    H236192   2.654   3.065   2.346
12083TIP3   OH236193   5.719   2.192   1.426
12083TIP3    H136194   5.656   2.224   1.361
12083TIP3    H236195   5.804   2.220   1.393
12084TIP3   OH236196   2.616   4.100   3.332
12084TIP3    H136197   2.608   4.134   3.243
12084TIP3    H236198   2.701   4.133   3.363
12085TIP3   OH236199   4.311   1.950   6.344
12085TIP3    H136200   4.222   1.925   6.319
12085TIP3    H236201   4.366   1.911   6.277
12086TIP3   OH236202   1.342   3.961   5.533
12086TIP3    H136203   1.370   3.894   5.596
12086TIP3    H236204   1.402   4.034   5.547
12087TIP3   OH236205   4.146   2.214   6.809
12087TIP3    H136206   4.204   2.184   6.739
12087TIP3    H236207   4.074   2.257   6.763
12088TIP3   OH236208   5.790   4.339   0.951
12088TIP3    H136209   5.779   4.301   1.038
12088TIP3    H236210   5.872   4.388   0.956
12089TIP3   OH236211   7.326   4.395   3.009
12089TIP3    H136212   7.271   4.472   2.996
12089TIP3    H236213   7.324   4.348   2.926
12090TIP3   OH236214   7.538   1.107   2.456
12090TIP3    H136215   7.586   1.091   2.375
12090TIP3    H236216   7.547   1.026   2.506
12091TIP3   OH236217   2.302   3.431   6.105
12091TIP3    H136218   2.296   3.376   6.027
12091TIP3    H236219   2.364   3.500   6.082
12092TIP3   OH236220   3.490   1.644   0.016
12092TIP3    H136221   3.562   1.669   0.074
12092TIP3    H236222   3.447   1.727  -0.006
12093TIP3   OH236223   0.294   1.858   4.060
12093TIP3    H136224   0.231   1.872   3.990
12093TIP3    H236225   0.338   1.942   4.070
12094TIP3   OH236226   4.621   6.077   4.669
12094TIP3    H136227   4.686   6.008   4.670
12094TIP3    H236228   4.591   6.083   4.760
12095TIP3   OH236229   2.098   1.730   2.765
12095TIP3    H136230   2.067   1.644   2.794
12095TIP3    H236231   2.190   1.732   2.789
12096TIP3   OH236232   3.634   6.717   0.258
12096TIP3    H136233   3.654   6.797   0.211
12096TIP3    H236234   3.711   6.700   0.313
12097TIP3   OH236235   2.497   6.158   3.121
12097TIP3    H136236   2.544   6.075   3.136
12097TIP3    H236237   2.498   6.169   3.026
12098TIP3   OH236238   6.855   2.746   5.746
12098TIP3    H136239   6.765   2.723   5.767
12098TIP3    H236240   6.847   2.821   5.687
12099TIP3   OH236241   7.482   6.741   0.806
12099TIP3    H136242   7.467   6.673   0.740
12099TIP3    H236243   7.429   6.713   0.881
12100TIP3   OH236244   7.227   3.942   5.857
12100TIP3    H136245   7.135   3.955   5.834
12100TIP3    H236246   7.242   4.001   5.931
12101TIP3   OH236247   8.132   0.336   5.228
12101TIP3    H136248   8.116   0.370   5.140
12101TIP3    H236249   8.191   0.263   5.215
12102TIP3   OH236250   8.268   6.833   2.745
12102TIP3    H136251   8.267   6.893   2.670
12102TIP3    H236252   8.307   6.753   2.710
12103TIP3   OH236253   1.044   4.516   2.129
12103TIP3    H136254   1.113   4.563   2.175
12103TIP3    H236255   1.090   4.453   2.073
12104TIP3   OH236256   7.810   0.963   1.213
12104TIP3    H136257   7.778   0.920   1.292
12104TIP3    H236258   7.903   0.942   1.210
12105TIP3   OH236259   6.791   2.870   1.301
12105TIP3    H136260   6.829   2.838   1.382
12105TIP3    H236261   6.862   2.863   1.237
12106TIP3   OH236262   7.709   7.208   4.196
12106TIP3    H136263   7.628   7.246   4.162
12106TIP3    H236264   7.737   7.146   4.128
12107TIP3   OH236265   1.989   1.124   0.595
12107TIP3    H136266   1.992   1.132   0.690
12107TIP3    H236267   1.897   1.140   0.573
12108TIP3   OH236268   3.318   4.918   2.706
12108TIP3    H136269   3.358   4.854   2.766
12108TIP3    H236270   3.330   5.002   2.750
12109TIP3   OH236271   7.065   1.460   2.491
12109TIP3    H136272   7.078   1.368   2.518
12109TIP3    H236273   7.023   1.454   2.406
12110TIP3   OH236274   1.399   3.726   5.667
12110TIP3    H136275   1.349   3.702   5.589
12110TIP3    H236276   1.367   3.668   5.736
12111TIP3   OH236277   3.901   6.299   6.462
12111TIP3    H136278   3.843   6.289   6.387
12111TIP3    H236279   3.873   6.380   6.504
12112TIP3   OH236280   4.205   6.012   2.080
12112TIP3    H136281   4.244   5.927   2.060
12112TIP3    H236282   4.114   6.005   2.050
12113TIP3   OH236283   6.329   7.630   3.039
12113TIP3    H136284   6.352   7.718   3.010
12113TIP3    H236285   6.251   7.642   3.092
12114TIP3   OH236286   2.661   0.808   1.396
12114TIP3    H136287   2.709   0.798   1.314
12114TIP3    H236288   2.587   0.747   1.387
12115TIP3   OH236289   0.069   2.993   3.989
12115TIP3    H136290   0.032   3.002   3.901
12115TIP3    H236291   0.054   2.901   4.012
12116TIP3   OH236292   2.477   5.520   1.179
12116TIP3    H136293   2.465   5.615   1.183
12116TIP3    H236294   2.490   5.494   1.270
12117TIP3   OH236295   7.584   1.891   5.252
12117TIP3    H136296   7.560   1.927   5.166
12117TIP3    H236297   7.506   1.905   5.306
12118TIP3   OH236298   4.128   0.855   0.155
12118TIP3    H136299   4.181   0.927   0.188
12118TIP3    H236300   4.137   0.860   0.060
12119TIP3   OH236301   4.849   3.921   6.745
12119TIP3    H136302   4.848   4.010   6.780
12119TIP3    H236303   4.928   3.882   6.783
12120TIP3   OH236304   5.465   1.038   0.841
12120TIP3    H136305   5.517   0.975   0.792
12120TIP3    H236306   5.518   1.118   0.842
12121TIP3   OH236307   5.366   2.613   4.423
12121TIP3    H136308   5.412   2.539   4.384
12121TIP3    H236309   5.281   2.615   4.379
12122TIP3   OH236310   4.567   0.039   3.964
12122TIP3    H136311   4.597  -0.040   3.919
12122TIP3    H236312   4.572   0.108   3.898
12123TIP3   OH236313   2.005   3.243   2.012
12123TIP3    H136314   1.920   3.203   2.026
12123TIP3    H236315   2.067   3.186   2.059
12124TIP3   OH236316   8.045   3.025   1.388
12124TIP3    H136317   8.023   2.947   1.439
12124TIP3    H236318   7.963   3.075   1.385
12125TIP3   OH236319   5.770   0.563   3.805
12125TIP3    H136320   5.764   0.630   3.738
12125TIP3    H236321   5.853   0.517   3.787
12126TIP3   OH236322   4.480   1.746   5.838
12126TIP3    H136323   4.540   1.678   5.871
12126TIP3    H236324   4.433   1.704   5.766
12127TIP3   OH236325   2.261   4.049   4.869
12127TIP3    H136326   2.290   3.960   4.890
12127TIP3    H236327   2.236   4.046   4.777
12128TIP3   OH236328   2.275   0.405   3.572
12128TIP3    H136329   2.277   0.491   3.528
12128TIP3    H236330   2.213   0.354   3.521
12129TIP3   OH236331   7.113   7.178   5.404
12129TIP3    H136332   7.167   7.188   5.483
12129TIP3    H236333   7.130   7.257   5.353
12130TIP3   OH236334   4.195   4.177   2.711
12130TIP3    H136335   4.282   4.215   2.708
12130TIP3    H236336   4.174   4.155   2.620
12131TIP3   OH236337   5.714   2.681   2.785
12131TIP3    H136338   5.719   2.761   2.838
12131TIP3    H236339   5.744   2.707   2.698
12132TIP3   OH236340   4.960   2.551   0.847
12132TIP3    H136341   4.998   2.623   0.898
12132TIP3    H236342   5.035   2.502   0.815
12133TIP3   OH236343   2.442   4.314   1.811
12133TIP3    H136344   2.486   4.380   1.865
12133TIP3    H236345   2.493   4.234   1.824
12134TIP3   OH236346   3.117   5.017   5.492
12134TIP3    H136347   3.187   4.995   5.431
12134TIP3    H236348   3.065   5.083   5.445
12135TIP3   OH236349   2.528   7.110   5.503
12135TIP3    H136350   2.447   7.151   5.472
12135TIP3    H236351   2.563   7.065   5.426
12136TIP3   OH236352   1.011   5.485   4.947
12136TIP3    H136353   0.937   5.525   4.992
12136TIP3    H236354   0.991   5.392   4.947
12137TIP3   OH236355   5.373   6.712   1.940
12137TIP3    H136356   5.320   6.784   1.974
12137TIP3    H236357   5.320   6.672   1.871
12138TIP3   OH236358   3.152   0.052   2.242
12138TIP3    H136359   3.093  -0.019   2.217
12138TIP3    H236360   3.126   0.125   2.186
12139TIP3   OH236361   1.308   3.595   6.173
12139TIP3    H136362   1.258   3.521   6.207
12139TIP3    H236363   1.301   3.586   6.078
12140TIP3   OH236364   1.721   6.474   1.958
12140TIP3    H136365   1.728   6.379   1.968
12140TIP3    H236366   1.734   6.509   2.047
12141TIP3   OH236367   1.633   3.160   4.671
12141TIP3    H136368   1.582   3.080   4.687
12141TIP3    H236369   1.567   3.230   4.670
12142TIP3   OH236370   2.869   6.199   0.923
12142TIP3    H136371   2.812   6.131   0.957
12142TIP3    H236372   2.817   6.279   0.926
12143TIP3   OH236373   7.014   6.544   2.673
12143TIP3    H136374   7.096   6.534   2.625
12143TIP3    H236375   7.001   6.639   2.680
12144TIP3   OH236376   8.038   0.712   6.194
12144TIP3    H136377   8.030   0.782   6.129
12144TIP3    H236378   7.991   0.747   6.271
12145TIP3   OH236379   4.842   3.843   4.315
12145TIP3    H136380   4.925   3.882   4.343
12145TIP3    H236381   4.778   3.875   4.379
12146TIP3   OH236382   5.493   5.869   6.771
12146TIP3    H136383   5.507   5.919   6.690
12146TIP3    H236384   5.407   5.828   6.760
12147TIP3   OH236385   3.735   2.837   2.026
12147TIP3    H136386   3.784   2.865   2.104
12147TIP3    H236387   3.743   2.910   1.965
12148TIP3   OH236388   7.357   4.078   0.884
12148TIP3    H136389   7.400   4.009   0.833
12148TIP3    H236390   7.315   4.134   0.819
12149TIP3   OH236391   6.759   4.872   3.216
12149TIP3    H136392   6.702   4.821   3.158
12149TIP3    H236393   6.823   4.913   3.157
12150TIP3   OH236394   7.904   3.602   1.558
12150TIP3    H136395   7.812   3.624   1.539
12150TIP3    H236396   7.920   3.522   1.507
12151TIP3   OH236397   4.324   0.773   5.531
12151TIP3    H136398   4.263   0.845   5.511
12151TIP3    H236399   4.302   0.706   5.466
12152TIP3   OH236400   0.943   5.043   5.245
12152TIP3    H136401   1.022   5.090   5.273
12152TIP3    H236402   0.974   4.955   5.224
12153TIP3   OH236403   7.558   7.117   1.680
12153TIP3    H136404   7.551   7.164   1.763
12153TIP3    H236405   7.478   7.139   1.633
12154TIP3   OH236406   7.750   5.982   6.172
12154TIP3    H136407   7.728   5.990   6.079
12154TIP3    H236408   7.821   6.044   6.186
12155TIP3   OH236409   5.393   7.162   2.349
12155TIP3    H136410   5.463   7.192   2.407
12155TIP3    H236411   5.324   7.229   2.357
12156TIP3   OH236412   6.634   0.481   0.362
12156TIP3    H136413   6.549   0.491   0.405
12156TIP3    H236414   6.660   0.391   0.378
12157TIP3   OH236415   0.260   5.857   6.224
12157TIP3    H136416   0.252   5.762   6.217
12157TIP3    H236417   0.337   5.878   6.170
12158TIP3   OH236418   6.935   6.501   6.338
12158TIP3    H136419   6.865   6.558   6.370
12158TIP3    H236420   6.901   6.464   6.257
12159TIP3   OH236421   4.306   4.851   5.997
12159TIP3    H136422   4.318   4.900   6.078
12159TIP3    H236423   4.285   4.918   5.932
12160TIP3   OH236424   2.250   6.488   1.158
12160TIP3    H136425   2.239   6.468   1.065
12160TIP3    H236426   2.164   6.471   1.197
12161TIP3   OH236427   2.484   1.113   6.517
12161TIP3    H136428   2.518   1.090   6.431
12161TIP3    H236429   2.394   1.078   6.518
12162TIP3   OH236430   5.996   5.655   6.506
12162TIP3    H136431   5.964   5.604   6.432
12162TIP3    H236432   5.950   5.620   6.582
12163TIP3   OH236433   4.236   4.328   5.683
12163TIP3    H136434   4.142   4.335   5.699
12163TIP3    H236435   4.249   4.365   5.596
12164TIP3   OH236436   5.330   2.382   5.289
12164TIP3    H136437   5.284   2.334   5.220
12164TIP3    H236438   5.352   2.315   5.354
12165TIP3   OH236439   7.410   6.845   2.961
12165TIP3    H136440   7.501   6.875   2.955
12165TIP3    H236441   7.391   6.844   3.054
12166TIP3   OH236442   3.096   5.323   0.945
12166TIP3    H136443   3.043   5.334   1.024
12166TIP3    H236444   3.143   5.241   0.957
12167TIP3   OH236445   3.263   3.001   2.522
12167TIP3    H136446   3.183   2.948   2.530
12167TIP3    H236447   3.334   2.940   2.541
12168TIP3   OH236448   2.213   2.763   4.647
12168TIP3    H136449   2.221   2.844   4.697
12168TIP3    H236450   2.129   2.726   4.674
12169TIP3   OH236451   2.019   5.022   0.540
12169TIP3    H136452   2.004   4.928   0.533
12169TIP3    H236453   2.060   5.047   0.458
12170TIP3   OH236454   5.797   1.395   0.761
12170TIP3    H136455   5.710   1.365   0.788
12170TIP3    H236456   5.810   1.477   0.808
12171TIP3   OH236457   6.735   6.004   4.374
12171TIP3    H136458   6.819   6.038   4.341
12171TIP3    H236459   6.672   6.073   4.354
12172TIP3   OH236460   2.783   2.596   2.216
12172TIP3    H136461   2.720   2.556   2.155
12172TIP3    H236462   2.828   2.522   2.256
12173TIP3   OH236463   3.713   6.347   6.220
12173TIP3    H136464   3.755   6.302   6.146
12173TIP3    H236465   3.723   6.440   6.200
12174TIP3   OH236466   6.273   4.943   2.716
12174TIP3    H136467   6.338   4.958   2.648
12174TIP3    H236468   6.323   4.943   2.798
12175TIP3   OH236469   5.763   6.551   5.874
12175TIP3    H136470   5.809   6.564   5.791
12175TIP3    H236471   5.810   6.480   5.917
12176TIP3   OH236472   4.539   1.730   4.318
12176TIP3    H136473   4.621   1.722   4.270
12176TIP3    H236474   4.555   1.797   4.383
12177TIP3   OH236475   7.222   1.010   1.624
12177TIP3    H136476   7.196   0.922   1.653
12177TIP3    H236477   7.286   1.039   1.689
12178TIP3   OH236478   5.869   3.243   5.669
12178TIP3    H136479   5.832   3.234   5.582
12178TIP3    H236480   5.806   3.199   5.727
12179TIP3   OH236481   8.256   0.563   5.748
12179TIP3    H136482   8.249   0.567   5.843
12179TIP3    H236483   8.322   0.630   5.726
12180TIP3   OH236484   6.266   0.325   3.832
12180TIP3    H136485   6.342   0.379   3.849
12180TIP3    H236486   6.268   0.308   3.738
12181TIP3   OH236487   2.990   7.582   2.918
12181TIP3    H136488   2.895   7.588   2.908
12181TIP3    H236489   3.012   7.495   2.886
12182TIP3   OH236490   7.853   5.303   1.483
12182TIP3    H136491   7.837   5.350   1.565
12182TIP3    H236492   7.880   5.215   1.511
12183TIP3   OH236493   1.913   7.538   1.309
12183TIP3    H136494   1.906   7.631   1.287
12183TIP3    H236495   1.979   7.504   1.248
12184TIP3   OH236496   6.862   5.923   5.869
12184TIP3    H136497   6.792   5.869   5.906
12184TIP3    H236498   6.939   5.866   5.870
12185TIP3   OH236499   1.125   7.367   3.832
12185TIP3    H136500   1.145   7.321   3.913
12185TIP3    H236501   1.049   7.421   3.853
12186TIP3   OH236502   6.308   2.819   3.633
12186TIP3    H136503   6.336   2.844   3.545
12186TIP3    H236504   6.389   2.799   3.679
12187TIP3   OH236505   0.730   4.260   5.710
12187TIP3    H136506   0.792   4.188   5.698
12187TIP3    H236507   0.745   4.289   5.800
12188TIP3   OH236508   5.082   6.222   1.248
12188TIP3    H136509   4.997   6.267   1.249
12188TIP3    H236510   5.120   6.244   1.164
12189TIP3   OH236511   5.211   5.066   3.505
12189TIP3    H136512   5.250   5.026   3.583
12189TIP3    H236513   5.264   5.033   3.432
12190TIP3   OH236514   5.597   2.610   0.726
12190TIP3    H136515   5.595   2.698   0.764
12190TIP3    H236516   5.684   2.577   0.749
12191TIP3   OH236517   6.464   1.555   2.161
12191TIP3    H136518   6.405   1.628   2.177
12191TIP3    H236519   6.517   1.550   2.241
12192TIP3   OH236520   5.305   1.351   3.952
12192TIP3    H136521   5.379   1.343   4.012
12192TIP3    H236522   5.315   1.438   3.913
12193TIP3   OH236523   5.289   3.530   4.678
12193TIP3    H136524   5.379   3.536   4.646
12193TIP3    H236525   5.293   3.467   4.750
12194TIP3   OH236526   2.760   2.556   4.704
12194TIP3    H136527   2.686   2.574   4.762
12194TIP3    H236528   2.824   2.511   4.759
12195TIP3   OH236529   4.671   4.696   1.755
12195TIP3    H136530   4.695   4.680   1.664
12195TIP3    H236531   4.729   4.768   1.782
12196TIP3   OH236532   5.682   7.614   1.055
12196TIP3    H136533   5.619   7.685   1.066
12196TIP3    H236534   5.713   7.622   0.965
12197TIP3   OH236535   5.482   2.543   3.524
12197TIP3    H136536   5.456   2.464   3.571
12197TIP3    H236537   5.418   2.551   3.454
12198TIP3   OH236538   6.393   4.019   5.962
12198TIP3    H136539   6.385   4.107   5.927
12198TIP3    H236540   6.482   4.015   5.997
12199TIP3   OH236541   5.773   6.467   1.728
12199TIP3    H136542   5.754   6.390   1.676
12199TIP3    H236543   5.864   6.456   1.755
12200TIP3   OH236544   3.779   3.520   4.650
12200TIP3    H136545   3.719   3.541   4.578
12200TIP3    H236546   3.750   3.576   4.722
12201TIP3   OH236547   4.938   4.326   2.635
12201TIP3    H136548   4.860   4.291   2.677
12201TIP3    H236549   4.961   4.403   2.687
12202TIP3   OH236550   0.046   2.727   4.050
12202TIP3    H136551   0.122   2.677   4.020
12202TIP3    H236552  -0.024   2.662   4.057
12203TIP3   OH236553   7.861   3.756   2.159
12203TIP3    H136554   7.829   3.845   2.140
12203TIP3    H236555   7.880   3.719   2.073
12204TIP3   OH236556   6.370   5.311   2.011
12204TIP3    H136557   6.278   5.326   1.988
12204TIP3    H236558   6.413   5.299   1.927
12205TIP3   OH236559   7.159   5.366   6.059
12205TIP3    H136560   7.206   5.293   6.100
12205TIP3    H236561   7.143   5.337   5.969
12206TIP3   OH236562   4.738   0.840   1.303
12206TIP3    H136563   4.656   0.832   1.255
12206TIP3    H236564   4.790   0.764   1.277
12207TIP3   OH236565   2.815   0.294   2.678
12207TIP3    H136566   2.738   0.284   2.622
12207TIP3    H236567   2.886   0.251   2.631
12208TIP3   OH236568   0.695   0.714   0.975
12208TIP3    H136569   0.723   0.806   0.980
12208TIP3    H236570   0.756   0.673   0.914
12209TIP3   OH236571   0.963   7.070   5.639
12209TIP3    H136572   1.030   7.006   5.612
12209TIP3    H236573   0.901   7.072   5.566
12210TIP3   OH236574   7.516   4.763   1.742
12210TIP3    H136575   7.465   4.777   1.663
12210TIP3    H236576   7.546   4.672   1.736
12211TIP3   OH236577   5.255   2.522   5.778
12211TIP3    H136578   5.330   2.496   5.725
12211TIP3    H236579   5.179   2.487   5.731
12212TIP3   OH236580   3.575   6.437   1.785
12212TIP3    H136581   3.486   6.430   1.749
12212TIP3    H236582   3.604   6.525   1.759
12213TIP3   OH236583   4.208   7.129   4.863
12213TIP3    H136584   4.149   7.193   4.823
12213TIP3    H236585   4.296   7.158   4.837
12214TIP3   OH236586   0.762   3.961   2.748
12214TIP3    H136587   0.819   4.013   2.692
12214TIP3    H236588   0.734   3.888   2.693
12215TIP3   OH236589   5.701   5.808   2.016
12215TIP3    H136590   5.676   5.723   2.053
12215TIP3    H236591   5.757   5.847   2.082
12216TIP3   OH236592   1.504   3.604   1.569
12216TIP3    H136593   1.446   3.668   1.609
12216TIP3    H236594   1.449   3.557   1.506
12217TIP3   OH236595   0.064   7.675   2.820
12217TIP3    H136596   0.055   7.746   2.883
12217TIP3    H236597  -0.019   7.627   2.828
12218TIP3   OH236598   4.806   3.144   6.443
12218TIP3    H136599   4.779   3.170   6.531
12218TIP3    H236600   4.752   3.197   6.385
12219TIP3   OH236601   0.038   2.789   3.218
12219TIP3    H136602   0.028   2.884   3.215
12219TIP3    H236603  -0.043   2.755   3.181
12220TIP3   OH236604   0.081   4.195   5.833
12220TIP3    H136605   0.004   4.187   5.890
12220TIP3    H236606   0.138   4.123   5.860
12221TIP3   OH236607   3.052   6.728   5.013
12221TIP3    H136608   3.049   6.636   4.985
12221TIP3    H236609   3.095   6.774   4.941
12222TIP3   OH236610   4.482   4.741   2.039
12222TIP3    H136611   4.433   4.758   2.120
12222TIP3    H236612   4.414   4.722   1.974
12223TIP3   OH236613   2.671   2.124   4.483
12223TIP3    H136614   2.688   2.218   4.480
12223TIP3    H236615   2.590   2.113   4.433
12224TIP3   OH236616   0.890   2.899   4.381
12224TIP3    H136617   0.872   2.834   4.313
12224TIP3    H236618   0.983   2.888   4.401
12225TIP3   OH236619   7.694   4.089   3.015
12225TIP3    H136620   7.698   4.134   2.931
12225TIP3    H236621   7.770   4.030   3.014
12226TIP3   OH236622   6.220   1.448   1.416
12226TIP3    H136623   6.295   1.402   1.380
12226TIP3    H236624   6.250   1.482   1.500
12227TIP3   OH236625   6.122   5.702   0.995
12227TIP3    H136626   6.188   5.711   0.927
12227TIP3    H236627   6.079   5.618   0.977
12228TIP3   OH236628   0.248   1.372   3.204
12228TIP3    H136629   0.259   1.365   3.299
12228TIP3    H236630   0.204   1.291   3.178
12229TIP3   OH236631   1.354   2.705   0.591
12229TIP3    H136632   1.328   2.789   0.554
12229TIP3    H236633   1.445   2.719   0.618
12230TIP3   OH236634   3.989   2.640   1.456
12230TIP3    H136635   4.006   2.549   1.482
12230TIP3    H236636   3.944   2.678   1.531
12231TIP3   OH236637   0.164   4.704   5.214
12231TIP3    H136638   0.077   4.743   5.219
12231TIP3    H236639   0.177   4.664   5.299
12232TIP3   OH236640   1.431   5.765   5.244
12232TIP3    H136641   1.467   5.827   5.307
12232TIP3    H236642   1.508   5.731   5.198
12233TIP3   OH236643   2.316   4.922   3.039
12233TIP3    H136644   2.377   4.988   3.072
12233TIP3    H236645   2.284   4.878   3.118
12234TIP3   OH236646   4.069   4.546   6.439
12234TIP3    H136647   4.142   4.494   6.471
12234TIP3    H236648   4.005   4.481   6.408
12235TIP3   OH236649   4.864   6.035   5.371
12235TIP3    H136650   4.930   6.100   5.346
12235TIP3    H236651   4.851   6.050   5.465
12236TIP3   OH236652   7.812   3.028   2.903
12236TIP3    H136653   7.739   3.048   2.962
12236TIP3    H236654   7.867   3.107   2.906
12237TIP3   OH236655   7.094   0.371   3.785
12237TIP3    H136656   7.166   0.423   3.749
12237TIP3    H236657   7.136   0.297   3.828
12238TIP3   OH236658   7.079   3.334   3.897
12238TIP3    H136659   7.101   3.365   3.986
12238TIP3    H236660   7.041   3.410   3.855
12239TIP3   OH236661   7.442   4.818   6.634
12239TIP3    H136662   7.477   4.808   6.545
12239TIP3    H236663   7.349   4.798   6.625
12240TIP3   OH236664   4.064   5.178   5.648
12240TIP3    H136665   4.025   5.264   5.628
12240TIP3    H236666   4.017   5.117   5.591
12241TIP3   OH236667   3.641   6.554   5.291
12241TIP3    H136668   3.586   6.558   5.213
12241TIP3    H236669   3.602   6.485   5.345
12242TIP3   OH236670   4.418   4.624   1.153
12242TIP3    H136671   4.462   4.626   1.238
12242TIP3    H236672   4.326   4.640   1.174
12243TIP3   OH236673   7.741   7.471   6.340
12243TIP3    H136674   7.832   7.481   6.314
12243TIP3    H236675   7.697   7.440   6.260
12244TIP3   OH236676   5.306   6.124   6.495
12244TIP3    H136677   5.305   6.212   6.459
12244TIP3    H236678   5.264   6.070   6.428
12245TIP3   OH236679   7.256   5.365   3.003
12245TIP3    H136680   7.222   5.315   2.929
12245TIP3    H236681   7.280   5.450   2.965
12246TIP3   OH236682   7.255   4.549   4.856
12246TIP3    H136683   7.183   4.488   4.843
12246TIP3    H236684   7.214   4.630   4.885
12247TIP3   OH236685   5.209   0.264   1.376
12247TIP3    H136686   5.151   0.204   1.422
12247TIP3    H236687   5.294   0.252   1.419
12248TIP3   OH236688   4.258   7.514   0.461
12248TIP3    H136689   4.204   7.459   0.518
12248TIP3    H236690   4.209   7.596   0.455
12249TIP3   OH236691   2.535   3.707   6.371
12249TIP3    H136692   2.566   3.797   6.362
12249TIP3    H236693   2.443   3.715   6.394
12250TIP3   OH236694   5.529   0.309   0.473
12250TIP3    H136695   5.436   0.293   0.455
12250TIP3    H236696   5.573   0.286   0.391
12251TIP3   OH236697   6.779   0.491   1.874
12251TIP3    H136698   6.826   0.485   1.958
12251TIP3    H236699   6.718   0.418   1.875
12252TIP3   OH236700   4.625   1.241   2.499
12252TIP3    H136701   4.710   1.284   2.491
12252TIP3    H236702   4.569   1.286   2.437
12253TIP3   OH236703   1.328   5.261   2.795
12253TIP3    H136704   1.277   5.301   2.865
12253TIP3    H236705   1.298   5.170   2.793
12254TIP3   OH236706   6.357   2.516   1.817
12254TIP3    H136707   6.383   2.608   1.813
12254TIP3    H236708   6.289   2.508   1.750
12255TIP3   OH236709   4.110   4.783   2.634
12255TIP3    H136710   4.175   4.712   2.635
12255TIP3    H236711   4.028   4.741   2.608
12256TIP3   OH236712   4.991   6.000   0.166
12256TIP3    H136713   4.916   5.990   0.224
12256TIP3    H236714   5.046   6.065   0.208
12257TIP3   OH236715   8.028   0.929   5.592
12257TIP3    H136716   7.973   0.990   5.543
12257TIP3    H236717   8.117   0.944   5.559
12258TIP3   OH236718   4.928   5.718   3.138
12258TIP3    H136719   4.978   5.786   3.091
12258TIP3    H236720   4.971   5.636   3.114
12259TIP3   OH236721   4.260   7.745   4.326
12259TIP3    H136722   4.331   7.809   4.327
12259TIP3    H236723   4.279   7.687   4.400
12260TIP3   OH236724   4.741   7.386   1.430
12260TIP3    H136725   4.732   7.443   1.353
12260TIP3    H236726   4.831   7.399   1.460
12261TIP3   OH236727   4.451   6.913   0.951
12261TIP3    H136728   4.431   6.835   0.899
12261TIP3    H236729   4.376   6.970   0.938
12262TIP3   OH236730   3.795   1.911   0.885
12262TIP3    H136731   3.726   1.976   0.900
12262TIP3    H236732   3.776   1.875   0.798
12263TIP3   OH236733   6.750   1.985   1.079
12263TIP3    H136734   6.773   1.966   1.170
12263TIP3    H236735   6.707   2.070   1.082
12264TIP3   OH236736   3.103   4.821   5.686
12264TIP3    H136737   3.108   4.877   5.609
12264TIP3    H236738   3.192   4.788   5.697
12265TIP3   OH236739   5.586   5.639   2.583
12265TIP3    H136740   5.649   5.711   2.572
12265TIP3    H236741   5.507   5.681   2.615
12266TIP3   OH236742   3.672   6.749   5.517
12266TIP3    H136743   3.633   6.730   5.431
12266TIP3    H236744   3.680   6.844   5.518
12267TIP3   OH236745   2.059   3.678   0.505
12267TIP3    H136746   2.118   3.606   0.481
12267TIP3    H236747   2.005   3.642   0.575
12268TIP3   OH236748   1.298   6.868   2.794
12268TIP3    H136749   1.321   6.872   2.701
12268TIP3    H236750   1.258   6.782   2.805
12269TIP3   OH236751   6.083   5.278   3.982
12269TIP3    H136752   6.075   5.369   3.955
12269TIP3    H236753   6.172   5.270   4.016
12270TIP3   OH236754   5.640   2.257   6.693
12270TIP3    H136755   5.672   2.319   6.758
12270TIP3    H236756   5.630   2.174   6.740
12271TIP3   OH236757   0.446   4.534   4.434
12271TIP3    H136758   0.503   4.549   4.509
12271TIP3    H236759   0.467   4.604   4.372
12272TIP3   OH236760   0.919   0.601   2.660
12272TIP3    H136761   0.836   0.573   2.622
12272TIP3    H236762   0.920   0.561   2.747
12273TIP3   OH236763   5.778   7.718   0.403
12273TIP3    H136764   5.793   7.767   0.484
12273TIP3    H236765   5.779   7.784   0.334
12274TIP3   OH236766   5.047   0.079   6.090
12274TIP3    H136767   5.140   0.060   6.079
12274TIP3    H236768   5.002  -0.001   6.059
12275TIP3   OH236769   2.093   7.583   5.586
12275TIP3    H136770   2.179   7.617   5.562
12275TIP3    H236771   2.033   7.620   5.520
12276TIP3   OH236772   1.527   7.138   5.180
12276TIP3    H136773   1.456   7.108   5.237
12276TIP3    H236774   1.527   7.233   5.189
12277TIP3   OH236775   1.063   4.795   5.750
12277TIP3    H136776   1.054   4.851   5.827
12277TIP3    H236777   1.154   4.805   5.723
12278TIP3   OH236778   4.419   5.927   2.824
12278TIP3    H136779   4.388   5.897   2.739
12278TIP3    H236780   4.471   6.006   2.804
12279TIP3   OH236781   4.304   6.862   0.497
12279TIP3    H136782   4.320   6.883   0.405
12279TIP3    H236783   4.348   6.932   0.545
12280TIP3   OH236784   7.142   5.702   4.828
12280TIP3    H136785   7.233   5.731   4.836
12280TIP3    H236786   7.133   5.633   4.894
12281TIP3   OH236787   0.184   1.724   1.850
12281TIP3    H136788   0.194   1.632   1.873
12281TIP3    H236789   0.264   1.766   1.884
12282TIP3   OH236790   6.418   5.744   2.757
12282TIP3    H136791   6.326   5.770   2.766
12282TIP3    H236792   6.467   5.824   2.777
12283TIP3   OH236793   3.651   3.099   1.282
12283TIP3    H136794   3.629   3.183   1.323
12283TIP3    H236795   3.606   3.101   1.198
12284TIP3   OH236796   5.618   0.915   3.101
12284TIP3    H136797   5.626   0.886   3.192
12284TIP3    H236798   5.677   0.858   3.052
12285TIP3   OH236799   6.645   5.432   6.111
12285TIP3    H136800   6.674   5.390   6.192
12285TIP3    H236801   6.724   5.473   6.075
12286TIP3   OH236802   7.745   5.085   4.567
12286TIP3    H136803   7.750   4.998   4.529
12286TIP3    H236804   7.798   5.080   4.646
12287TIP3   OH236805   3.117   3.905   1.159
12287TIP3    H136806   3.199   3.932   1.117
12287TIP3    H236807   3.055   3.896   1.086
12288TIP3   OH236808   3.360   3.513   2.357
12288TIP3    H136809   3.358   3.590   2.300
12288TIP3    H236810   3.298   3.534   2.427
12289TIP3   OH236811   3.867   4.395   1.580
12289TIP3    H136812   3.878   4.403   1.485
12289TIP3    H236813   3.947   4.351   1.610
12290TIP3   OH236814   2.280   4.796   1.701
12290TIP3    H136815   2.290   4.728   1.768
12290TIP3    H236816   2.296   4.751   1.618
12291TIP3   OH236817   5.852   4.654   2.500
12291TIP3    H136818   5.906   4.717   2.453
12291TIP3    H236819   5.914   4.595   2.543
12292TIP3   OH236820   2.022   6.390   6.688
12292TIP3    H136821   1.959   6.358   6.624
12292TIP3    H236822   1.973   6.454   6.739
12293TIP3   OH236823   4.972   5.031   2.535
12293TIP3    H136824   5.062   5.033   2.505
12293TIP3    H236825   4.978   5.017   2.629
12294TIP3   OH236826   2.136   0.225   0.752
12294TIP3    H136827   2.202   0.156   0.750
12294TIP3    H236828   2.177   0.296   0.803
12295TIP3   OH236829   1.046   0.320   6.605
12295TIP3    H136830   1.120   0.291   6.552
12295TIP3    H236831   1.068   0.295   6.694
12296TIP3   OH236832   2.597   7.766   3.450
12296TIP3    H136833   2.530   7.738   3.388
12296TIP3    H236834   2.588   7.861   3.453
12297TIP3   OH236835   3.961   4.886   4.282
12297TIP3    H136836   3.922   4.889   4.195
12297TIP3    H236837   4.016   4.965   4.286
12298TIP3   OH236838   4.254   3.465   4.471
12298TIP3    H136839   4.340   3.448   4.509
12298TIP3    H236840   4.230   3.552   4.503
12299TIP3   OH236841   6.188   0.077   1.032
12299TIP3    H136842   6.134   0.156   1.035
12299TIP3    H236843   6.220   0.073   0.941
12300TIP3   OH236844   4.664   5.768   4.934
12300TIP3    H136845   4.702   5.767   5.022
12300TIP3    H236846   4.723   5.824   4.884
12301TIP3   OH236847   7.409   4.623   0.878
12301TIP3    H136848   7.326   4.610   0.924
12301TIP3    H236849   7.436   4.712   0.901
12302TIP3   OH236850   2.887   5.310   1.783
12302TIP3    H136851   2.864   5.229   1.739
12302TIP3    H236852   2.920   5.282   1.869
12303TIP3   OH236853   3.678   4.738   5.053
12303TIP3    H136854   3.621   4.707   5.123
12303TIP3    H236855   3.684   4.663   4.992
12304TIP3   OH236856   5.398   2.817   6.269
12304TIP3    H136857   5.485   2.799   6.303
12304TIP3    H236858   5.340   2.759   6.317
12305TIP3   OH236859   1.412   2.934   2.447
12305TIP3    H136860   1.388   2.956   2.357
12305TIP3    H236861   1.342   2.968   2.501
12306TIP3   OH236862   6.158   3.346   2.097
12306TIP3    H136863   6.082   3.289   2.112
12306TIP3    H236864   6.228   3.287   2.068
12307TIP3   OH236865   8.176   6.555   3.479
12307TIP3    H136866   8.132   6.628   3.436
12307TIP3    H236867   8.146   6.559   3.570
12308TIP3   OH236868   1.168   3.416   4.710
12308TIP3    H136869   1.248   3.375   4.743
12308TIP3    H236870   1.150   3.487   4.772
12309TIP3   OH236871   5.572   0.711   2.465
12309TIP3    H136872   5.619   0.755   2.395
12309TIP3    H236873   5.482   0.704   2.433
12310TIP3   OH236874   6.025   7.702   3.433
12310TIP3    H136875   6.008   7.724   3.341
12310TIP3    H236876   6.082   7.772   3.464
12311TIP3   OH236877   1.572   4.128   6.506
12311TIP3    H136878   1.489   4.094   6.538
12311TIP3    H236879   1.636   4.099   6.571
12312TIP3   OH236880   5.562   7.501   6.326
12312TIP3    H136881   5.512   7.429   6.287
12312TIP3    H236882   5.571   7.565   6.255
12313TIP3   OH236883   2.403   1.796   2.323
12313TIP3    H136884   2.407   1.807   2.418
12313TIP3    H236885   2.315   1.823   2.299
12314TIP3   OH236886   1.399   7.359   5.040
12314TIP3    H136887   1.387   7.431   4.978
12314TIP3    H236888   1.408   7.281   4.986
12315TIP3   OH236889   6.164   0.218   1.738
12315TIP3    H136890   6.137   0.261   1.819
12315TIP3    H236891   6.191   0.289   1.681
12316TIP3   OH236892   7.778   6.999   1.861
12316TIP3    H136893   7.775   6.905   1.877
12316TIP3    H236894   7.710   7.014   1.794
12317TIP3   OH236895   2.507   7.285   0.128
12317TIP3    H136896   2.556   7.349   0.180
12317TIP3    H236897   2.416   7.297   0.154
12318TIP3   OH236898   3.106   5.782   0.324
12318TIP3    H136899   3.155   5.705   0.353
12318TIP3    H236900   3.123   5.847   0.392
12319TIP3   OH236901   5.784   7.175   6.522
12319TIP3    H136902   5.787   7.238   6.594
12319TIP3    H236903   5.720   7.210   6.461
12320TIP3   OH236904   5.387   5.600   4.988
12320TIP3    H136905   5.445   5.671   4.959
12320TIP3    H236906   5.362   5.555   4.908
12321TIP3   OH236907   2.759   0.142   3.804
12321TIP3    H136908   2.845   0.165   3.768
12321TIP3    H236909   2.762   0.172   3.895
12322TIP3   OH236910   4.816   6.454   2.836
12322TIP3    H136911   4.852   6.366   2.844
12322TIP3    H236912   4.735   6.452   2.886
12323TIP3   OH236913   5.343   3.759   6.697
12323TIP3    H136914   5.423   3.783   6.744
12323TIP3    H236915   5.272   3.787   6.754
12324TIP3   OH236916   0.487   7.659   5.307
12324TIP3    H136917   0.453   7.572   5.287
12324TIP3    H236918   0.428   7.694   5.373
12325TIP3   OH236919   7.894   7.666   3.172
12325TIP3    H136920   7.849   7.686   3.254
12325TIP3    H236921   7.944   7.745   3.152
12326TIP3   OH236922   6.422   2.532   2.857
12326TIP3    H136923   6.377   2.594   2.915
12326TIP3    H236924   6.353   2.472   2.829
12327TIP3   OH236925   0.283   3.168   3.734
12327TIP3    H136926   0.345   3.235   3.766
12327TIP3    H236927   0.228   3.149   3.810
12328TIP3   OH236928   0.900   4.757   6.394
12328TIP3    H136929   0.966   4.790   6.456
12328TIP3    H236930   0.830   4.723   6.450
12329TIP3   OH236931   4.241   3.261   5.024
12329TIP3    H136932   4.226   3.183   5.078
12329TIP3    H236933   4.294   3.319   5.079
12330TIP3   OH236934   4.244   0.178   1.375
12330TIP3    H136935   4.215   0.094   1.338
12330TIP3    H236936   4.162   0.224   1.397
12331TIP3   OH236937   7.049   1.038   1.413
12331TIP3    H136938   7.029   1.131   1.408
12331TIP3    H236939   7.110   1.030   1.487
12332TIP3   OH236940   4.803   4.703   4.335
12332TIP3    H136941   4.765   4.658   4.411
12332TIP3    H236942   4.728   4.731   4.283
12333TIP3   OH236943   5.533   7.039   4.472
12333TIP3    H136944   5.452   7.084   4.495
12333TIP3    H236945   5.602   7.093   4.508
12334TIP3   OH236946   2.232   3.599   0.176
12334TIP3    H136947   2.221   3.514   0.218
12334TIP3    H236948   2.294   3.582   0.104
12335TIP3   OH236949   6.762   5.051   6.670
12335TIP3    H136950   6.846   5.087   6.639
12335TIP3    H236951   6.754   5.083   6.760
12336TIP3   OH236952   8.165   5.323   0.125
12336TIP3    H136953   8.114   5.296   0.048
12336TIP3    H236954   8.256   5.304   0.101
12337TIP3   OH236955   7.132   2.955   5.058
12337TIP3    H136956   7.166   3.032   5.103
12337TIP3    H236957   7.194   2.938   4.987
12338TIP3   OH236958   0.983   0.443   2.864
12338TIP3    H136959   1.032   0.516   2.903
12338TIP3    H236960   1.033   0.365   2.886
12339TIP3   OH236961   3.669   7.559   2.678
12339TIP3    H136962   3.708   7.570   2.592
12339TIP3    H236963   3.635   7.469   2.679
12340TIP3   OH236964   4.518   1.104   2.774
12340TIP3    H136965   4.445   1.064   2.728
12340TIP3    H236966   4.578   1.131   2.705
12341TIP3   OH236967   2.880   6.615   5.997
12341TIP3    H136968   2.958   6.572   6.031
12341TIP3    H236969   2.912   6.698   5.962
12342TIP3   OH236970   4.726   4.772   5.600
12342TIP3    H136971   4.792   4.731   5.656
12342TIP3    H236972   4.643   4.735   5.629
12343TIP3   OH236973   7.579   1.873   0.645
12343TIP3    H136974   7.484   1.859   0.651
12343TIP3    H236975   7.614   1.834   0.725
12344TIP3   OH236976   1.511   0.428   0.257
12344TIP3    H136977   1.442   0.362   0.247
12344TIP3    H236978   1.593   0.378   0.248
12345TIP3   OH236979   7.997   1.561   5.479
12345TIP3    H136980   8.036   1.474   5.480
12345TIP3    H236981   8.067   1.620   5.507
12346TIP3   OH236982   6.239   2.567   6.398
12346TIP3    H136983   6.153   2.608   6.383
12346TIP3    H236984   6.243   2.554   6.492
12347TIP3   OH236985   4.462   2.433   4.074
12347TIP3    H136986   4.544   2.432   4.123
12347TIP3    H236987   4.469   2.358   4.015
12348TIP3   OH236988   4.539   7.136   1.111
12348TIP3    H136989   4.510   7.067   1.052
12348TIP3    H236990   4.631   7.148   1.090
12349TIP3   OH236991   8.259   5.387   3.451
12349TIP3    H136992   8.189   5.407   3.389
12349TIP3    H236993   8.314   5.465   3.452
12350TIP3   OH236994   4.584   5.535   1.337
12350TIP3    H136995   4.572   5.501   1.248
12350TIP3    H236996   4.670   5.577   1.335
12351TIP3   OH236997   4.040   1.116   2.649
12351TIP3    H136998   3.976   1.187   2.657
12351TIP3    H236999   3.990   1.036   2.666
12352TIP3   OH237000   3.059   6.278   4.051
12352TIP3    H137001   3.068   6.192   4.091
12352TIP3    H237002   3.124   6.332   4.095
12353TIP3   OH237003   2.372   3.035   0.570
12353TIP3    H137004   2.421   3.078   0.640
12353TIP3    H237005   2.388   3.089   0.493
12354TIP3   OH237006   0.548   4.050   3.429
12354TIP3    H137007   0.452   4.047   3.435
12354TIP3    H237008   0.566   4.039   3.336
12355TIP3   OH237009   7.196   1.471   1.560
12355TIP3    H137010   7.280   1.493   1.519
12355TIP3    H237011   7.151   1.555   1.568
12356TIP3   OH237012   2.222   0.813   3.689
12356TIP3    H137013   2.298   0.789   3.741
12356TIP3    H237014   2.184   0.888   3.735
12357TIP3   OH237015   0.548   6.250   4.609
12357TIP3    H137016   0.547   6.216   4.699
12357TIP3    H237017   0.603   6.327   4.613
12358TIP3   OH237018   2.831   3.533   4.228
12358TIP3    H137019   2.826   3.622   4.262
12358TIP3    H237020   2.745   3.495   4.245
12359TIP3   OH237021   3.335   0.535   4.735
12359TIP3    H137022   3.414   0.582   4.709
12359TIP3    H237023   3.264   0.581   4.693
12360TIP3   OH237024   1.410   6.828   5.630
12360TIP3    H137025   1.380   6.747   5.587
12360TIP3    H237026   1.457   6.797   5.707
12361TIP3   OH237027   0.212   1.314   2.726
12361TIP3    H137028   0.278   1.304   2.795
12361TIP3    H237029   0.263   1.333   2.647
12362TIP3   OH237030   6.782   5.934   6.729
12362TIP3    H137031   6.866   5.896   6.755
12362TIP3    H237032   6.720   5.901   6.793
12363TIP3   OH237033   4.198   3.064   3.199
12363TIP3    H137034   4.152   3.038   3.119
12363TIP3    H237035   4.171   3.154   3.214
12364TIP3   OH237036   5.748   0.011   1.056
12364TIP3    H137037   5.806  -0.028   0.991
12364TIP3    H237038   5.691   0.070   1.006
12365TIP3   OH237039   1.663   1.462   2.144
12365TIP3    H137040   1.717   1.521   2.196
12365TIP3    H237041   1.682   1.375   2.178
12366TIP3   OH237042   7.617   4.279   2.841
12366TIP3    H137043   7.593   4.356   2.893
12366TIP3    H237044   7.534   4.234   2.826
12367TIP3   OH237045   3.856   7.068   2.436
12367TIP3    H137046   3.849   7.013   2.358
12367TIP3    H237047   3.939   7.042   2.476
12368TIP3   OH237048   2.750   6.523   2.968
12368TIP3    H137049   2.841   6.511   2.993
12368TIP3    H237050   2.715   6.434   2.957
12369TIP3   OH237051   3.536   4.665   5.257
12369TIP3    H137052   3.521   4.751   5.297
12369TIP3    H237053   3.484   4.604   5.309
12370TIP3   OH237054   3.187   7.655   5.015
12370TIP3    H137055   3.140   7.575   4.989
12370TIP3    H237056   3.164   7.667   5.107
12371TIP3   OH237057   6.050   2.993   5.617
12371TIP3    H137058   6.006   3.078   5.618
12371TIP3    H237059   6.003   2.940   5.681
12372TIP3   OH237060   4.214   7.236   5.816
12372TIP3    H137061   4.234   7.151   5.777
12372TIP3    H237062   4.214   7.220   5.910
12373TIP3   OH237063   6.163   4.328   2.086
12373TIP3    H137064   6.181   4.252   2.031
12373TIP3    H237065   6.196   4.304   2.172
12374TIP3   OH237066   2.837   6.469   1.305
12374TIP3    H137067   2.774   6.536   1.280
12374TIP3    H237068   2.877   6.442   1.222
12375TIP3   OH237069   3.296   7.454   4.572
12375TIP3    H137070   3.207   7.448   4.539
12375TIP3    H237071   3.311   7.548   4.584
12376TIP3   OH237072   7.395   0.854   1.345
12376TIP3    H137073   7.310   0.815   1.366
12376TIP3    H237074   7.390   0.943   1.380
12377TIP3   OH237075   4.428   1.677   4.943
12377TIP3    H137076   4.385   1.632   5.016
12377TIP3    H237077   4.489   1.738   4.985
12378TIP3   OH237078   2.557   4.515   1.989
12378TIP3    H137079   2.543   4.598   1.945
12378TIP3    H237080   2.634   4.529   2.043
12379TIP3   OH237081   3.930   7.839   3.505
12379TIP3    H137082   4.002   7.854   3.444
12379TIP3    H237083   3.872   7.778   3.458
12380TIP3   OH237084   1.400   7.468   5.291
12380TIP3    H137085   1.370   7.399   5.350
12380TIP3    H237086   1.393   7.431   5.203
12381TIP3   OH237087   0.819   3.082   1.695
12381TIP3    H137088   0.822   2.992   1.662
12381TIP3    H237089   0.882   3.129   1.640
12382TIP3   OH237090   4.465   3.004   2.919
12382TIP3    H137091   4.415   2.922   2.927
12382TIP3    H237092   4.400   3.069   2.893
12383TIP3   OH237093   2.024   0.512   2.570
12383TIP3    H137094   2.065   0.495   2.485
12383TIP3    H237095   1.940   0.553   2.548
12384TIP3   OH237096   5.169   5.277   6.183
12384TIP3    H137097   5.151   5.187   6.209
12384TIP3    H237098   5.102   5.297   6.118
12385TIP3   OH237099   4.070   2.241   4.705
12385TIP3    H137100   4.104   2.298   4.636
12385TIP3    H237101   4.008   2.295   4.753
12386TIP3   OH237102   6.718   5.740   2.449
12386TIP3    H137103   6.762   5.714   2.368
12386TIP3    H237104   6.720   5.661   2.503
12387TIP3   OH237105   7.622   1.722   4.226
12387TIP3    H137106   7.685   1.696   4.158
12387TIP3    H237107   7.537   1.697   4.189
12388TIP3   OH237108   0.261   3.229   5.877
12388TIP3    H137109   0.280   3.263   5.790
12388TIP3    H237110   0.168   3.205   5.874
12389TIP3   OH237111   6.211   6.472   4.353
12389TIP3    H137112   6.259   6.513   4.425
12389TIP3    H237113   6.130   6.440   4.392
12390TIP3   OH237114   3.897   7.454   3.551
12390TIP3    H137115   3.864   7.489   3.634
12390TIP3    H237116   3.818   7.435   3.500
12391TIP3   OH237117   6.845   0.529   2.983
12391TIP3    H137118   6.872   0.517   3.074
12391TIP3    H237119   6.838   0.441   2.948
12392TIP3   OH237120   3.431   7.565   5.123
12392TIP3    H137121   3.351   7.617   5.115
12392TIP3    H237122   3.477   7.603   5.198
12393TIP3   OH237123   6.244   7.484   4.991
12393TIP3    H137124   6.298   7.414   4.955
12393TIP3    H237125   6.293   7.515   5.068
12394TIP3   OH237126   1.524   2.950   6.539
12394TIP3    H137127   1.530   2.914   6.451
12394TIP3    H237128   1.457   2.898   6.582
12395TIP3   OH237129   6.957   6.377   5.701
12395TIP3    H137130   6.966   6.318   5.777
12395TIP3    H237131   6.877   6.426   5.719
12396TIP3   OH237132   6.356   3.069   4.365
12396TIP3    H137133   6.268   3.088   4.331
12396TIP3    H237134   6.357   3.108   4.452
12397TIP3   OH237135   0.869   2.405   1.642
12397TIP3    H137136   0.959   2.434   1.625
12397TIP3    H237137   0.819   2.438   1.568
12398TIP3   OH237138   5.513   5.219   6.682
12398TIP3    H137139   5.484   5.309   6.664
12398TIP3    H237140   5.460   5.164   6.624
12399TIP3   OH237141   0.282   7.224   2.121
12399TIP3    H137142   0.372   7.242   2.094
12399TIP3    H237143   0.262   7.292   2.185
12400TIP3   OH237144   2.470   0.079   1.091
12400TIP3    H137145   2.403   0.129   1.137
12400TIP3    H237146   2.448  -0.012   1.107
12401TIP3   OH237147   8.077   0.496   2.982
12401TIP3    H137148   8.068   0.405   3.012
12401TIP3    H237149   8.163   0.500   2.941
12402TIP3   OH237150   6.707   5.563   5.288
12402TIP3    H137151   6.616   5.553   5.262
12402TIP3    H237152   6.725   5.656   5.277
12403TIP3   OH237153   0.849   2.659   5.964
12403TIP3    H137154   0.881   2.670   6.054
12403TIP3    H237155   0.753   2.657   5.973
12404TIP3   OH237156   6.437   4.159   2.742
12404TIP3    H137157   6.355   4.117   2.771
12404TIP3    H237158   6.410   4.246   2.713
12405TIP3   OH237159   4.114   2.202   6.479
12405TIP3    H137160   4.069   2.121   6.502
12405TIP3    H237161   4.050   2.271   6.496
12406TIP3   OH237162   0.183   6.189   0.919
12406TIP3    H137163   0.223   6.116   0.966
12406TIP3    H237164   0.257   6.233   0.877
12407TIP3   OH237165   3.197   5.467   4.583
12407TIP3    H137166   3.230   5.379   4.565
12407TIP3    H237167   3.250   5.498   4.657
12408TIP3   OH237168   2.466   4.382   1.542
12408TIP3    H137169   2.510   4.467   1.545
12408TIP3    H237170   2.461   4.355   1.634
12409TIP3   OH237171   1.174   2.233   5.793
12409TIP3    H137172   1.220   2.249   5.711
12409TIP3    H237173   1.113   2.162   5.773
12410TIP3   OH237174   2.772   6.919   1.241
12410TIP3    H137175   2.778   6.882   1.153
12410TIP3    H237176   2.819   6.857   1.297
12411TIP3   OH237177   5.323   4.222   0.385
12411TIP3    H137178   5.232   4.228   0.356
12411TIP3    H237179   5.366   4.297   0.343
12412TIP3   OH237180   3.362   0.542   6.446
12412TIP3    H137181   3.391   0.482   6.377
12412TIP3    H237182   3.375   0.492   6.527
12413TIP3   OH237183   8.069   6.865   5.240
12413TIP3    H137184   8.007   6.916   5.187
12413TIP3    H237185   8.082   6.784   5.191
12414TIP3   OH237186   3.337   2.543   4.079
12414TIP3    H137187   3.361   2.554   4.171
12414TIP3    H237188   3.242   2.546   4.078
12415TIP3   OH237189   4.711   0.522   4.484
12415TIP3    H137190   4.694   0.616   4.474
12415TIP3    H237191   4.784   0.518   4.545
12416TIP3   OH237192   7.112   3.009   1.281
12416TIP3    H137193   7.056   3.086   1.277
12416TIP3    H237194   7.095   2.963   1.199
12417TIP3   OH237195   5.278   4.203   0.939
12417TIP3    H137196   5.219   4.194   0.864
12417TIP3    H237197   5.343   4.267   0.911
12418TIP3   OH237198   2.423   1.795   3.556
12418TIP3    H137199   2.495   1.782   3.494
12418TIP3    H237200   2.356   1.842   3.505
12419TIP3   OH237201   3.431   2.676   4.707
12419TIP3    H137202   3.339   2.651   4.709
12419TIP3    H237203   3.477   2.598   4.740
12420TIP3   OH237204   5.417   2.953   5.709
12420TIP3    H137205   5.434   3.019   5.776
12420TIP3    H237206   5.355   2.893   5.750
12421TIP3   OH237207   0.540   5.243   2.692
12421TIP3    H137208   0.601   5.290   2.749
12421TIP3    H237209   0.558   5.151   2.708
12422TIP3   OH237210   1.158   4.287   0.769
12422TIP3    H137211   1.235   4.235   0.747
12422TIP3    H237212   1.089   4.223   0.784
12423TIP3   OH237213   0.682   4.491   1.992
12423TIP3    H137214   0.592   4.514   2.016
12423TIP3    H237215   0.720   4.454   2.072
12424TIP3   OH237216   3.725   1.472   4.960
12424TIP3    H137217   3.642   1.519   4.950
12424TIP3    H237218   3.728   1.450   5.054
12425TIP3   OH237219   8.273   1.186   2.116
12425TIP3    H137220   8.231   1.136   2.047
12425TIP3    H237221   8.203   1.207   2.178
12426TIP3   OH237222   8.236   4.409   5.385
12426TIP3    H137223   8.220   4.381   5.475
12426TIP3    H237224   8.329   4.393   5.371
12427TIP3   OH237225   1.108   0.678   1.077
12427TIP3    H137226   1.026   0.630   1.090
12427TIP3    H237227   1.140   0.648   0.992
12428TIP3   OH237228   8.109   4.881   0.505
12428TIP3    H137229   8.142   4.956   0.456
12428TIP3    H237230   8.015   4.878   0.483
12429TIP3   OH237231   6.596   1.815   6.502
12429TIP3    H137232   6.636   1.893   6.464
12429TIP3    H237233   6.641   1.803   6.586
12430TIP3   OH237234   4.252   4.978   6.722
12430TIP3    H137235   4.274   4.891   6.756
12430TIP3    H237236   4.189   4.961   6.652
12431TIP3   OH237237   5.848   2.780   4.278
12431TIP3    H137238   5.808   2.763   4.363
12431TIP3    H237239   5.783   2.832   4.231
12432TIP3   OH237240   4.342   4.309   2.110
12432TIP3    H137241   4.434   4.330   2.124
12432TIP3    H237242   4.295   4.371   2.167
12433TIP3   OH237243   4.774   1.262   1.201
12433TIP3    H137244   4.717   1.198   1.159
12433TIP3    H237245   4.830   1.211   1.260
12434TIP3   OH237246   1.754   5.921   4.500
12434TIP3    H137247   1.798   5.948   4.420
12434TIP3    H237248   1.826   5.893   4.558
12435TIP3   OH237249   5.729   1.056   6.688
12435TIP3    H137250   5.702   0.964   6.685
12435TIP3    H237251   5.664   1.098   6.745
12436TIP3   OH237252   0.276   6.468   1.209
12436TIP3    H137253   0.209   6.404   1.232
12436TIP3    H237254   0.248   6.503   1.124
12437TIP3   OH237255   2.350   2.744   2.276
12437TIP3    H137256   2.391   2.658   2.261
12437TIP3    H237257   2.361   2.759   2.370
12438TIP3   OH237258   1.613   2.358   2.700
12438TIP3    H137259   1.695   2.406   2.692
12438TIP3    H237260   1.550   2.423   2.730
12439TIP3   OH237261   6.786   2.482   1.365
12439TIP3    H137262   6.805   2.392   1.390
12439TIP3    H237263   6.870   2.519   1.341
12440TIP3   OH237264   5.682   7.339   5.779
12440TIP3    H137265   5.704   7.352   5.871
12440TIP3    H237266   5.725   7.257   5.756
12441TIP3   OH237267   2.068   2.553   6.001
12441TIP3    H137268   2.084   2.517   5.914
12441TIP3    H237269   2.154   2.548   6.044
12442TIP3   OH237270   7.348   4.001   0.286
12442TIP3    H137271   7.432   4.042   0.263
12442TIP3    H237272   7.311   4.060   0.352
12443TIP3   OH237273   0.809   1.632   3.592
12443TIP3    H137274   0.718   1.609   3.609
12443TIP3    H237275   0.847   1.554   3.552
12444TIP3   OH237276   5.403   2.452   6.637
12444TIP3    H137277   5.453   2.420   6.562
12444TIP3    H237278   5.385   2.373   6.689
12445TIP3   OH237279   6.496   3.277   2.594
12445TIP3    H137280   6.432   3.210   2.569
12445TIP3    H237281   6.563   3.274   2.526
12446TIP3   OH237282   2.078   7.425   2.460
12446TIP3    H137283   2.013   7.370   2.417
12446TIP3    H237284   2.149   7.366   2.483
12447TIP3   OH237285   0.999   6.605   3.173
12447TIP3    H137286   1.033   6.694   3.164
12447TIP3    H237287   0.970   6.582   3.085
12448TIP3   OH237288   8.092   7.325   1.047
12448TIP3    H137289   8.151   7.292   0.979
12448TIP3    H237290   8.013   7.273   1.037
12449TIP3   OH237291   6.941   3.777   3.853
12449TIP3    H137292   6.846   3.791   3.851
12449TIP3    H237293   6.966   3.792   3.944
12450TIP3   OH237294   1.702   6.488   4.914
12450TIP3    H137295   1.631   6.451   4.862
12450TIP3    H237296   1.661   6.561   4.961
12451TIP3   OH237297   4.978   1.721   1.521
12451TIP3    H137298   4.934   1.722   1.436
12451TIP3    H237299   5.053   1.662   1.508
12452TIP3   OH237300   0.890   0.452   1.028
12452TIP3    H137301   0.848   0.419   1.108
12452TIP3    H237302   0.920   0.373   0.982
12453TIP3   OH237303   4.762   1.645   4.218
12453TIP3    H137304   4.849   1.642   4.257
12453TIP3    H237305   4.769   1.714   4.152
12454TIP3   OH237306   7.302   3.253   6.196
12454TIP3    H137307   7.365   3.308   6.244
12454TIP3    H237308   7.322   3.164   6.225
12455TIP3   OH237309   1.065   3.665   3.720
12455TIP3    H137310   1.152   3.706   3.711
12455TIP3    H237311   1.013   3.703   3.649
12456TIP3   OH237312   6.690   4.117   0.236
12456TIP3    H137313   6.602   4.089   0.210
12456TIP3    H237314   6.684   4.213   0.241
12457TIP3   OH237315   2.203   4.709   6.511
12457TIP3    H137316   2.183   4.802   6.506
12457TIP3    H237317   2.267   4.693   6.442
12458TIP3   OH237318   6.685   1.694   4.966
12458TIP3    H137319   6.607   1.746   4.945
12458TIP3    H237320   6.726   1.679   4.881
12459TIP3   OH237321   0.744   6.824   5.440
12459TIP3    H137322   0.702   6.812   5.525
12459TIP3    H237323   0.750   6.919   5.429
12460TIP3   OH237324   6.734   3.238   5.505
12460TIP3    H137325   6.722   3.162   5.448
12460TIP3    H237326   6.737   3.313   5.446
12461TIP3   OH237327   7.199   6.152   1.693
12461TIP3    H137328   7.289   6.140   1.725
12461TIP3    H237329   7.177   6.242   1.718
12462TIP3   OH237330   6.716   4.743   6.448
12462TIP3    H137331   6.650   4.679   6.419
12462TIP3    H237332   6.668   4.825   6.456
12463TIP3   OH237333   1.999   5.206   3.553
12463TIP3    H137334   1.904   5.207   3.538
12463TIP3    H237335   2.010   5.249   3.638
12464TIP3   OH237336   8.122   6.099   2.247
12464TIP3    H137337   8.107   6.023   2.302
12464TIP3    H237338   8.162   6.164   2.305
12465TIP3   OH237339   7.955   4.745   3.472
12465TIP3    H137340   7.889   4.803   3.435
12465TIP3    H237341   8.033   4.760   3.417
12466TIP3   OH237342   7.971   5.543   5.154
12466TIP3    H137343   7.935   5.455   5.169
12466TIP3    H237344   8.030   5.559   5.227
12467TIP3   OH237345   0.254   3.061   0.739
12467TIP3    H137346   0.235   2.969   0.759
12467TIP3    H237347   0.210   3.110   0.808
12468TIP3   OH237348   7.818   3.462   2.263
12468TIP3    H137349   7.904   3.448   2.223
12468TIP3    H237350   7.796   3.378   2.302
12469TIP3   OH237351   7.049   5.625   5.300
12469TIP3    H137352   7.071   5.571   5.376
12469TIP3    H237353   7.133   5.662   5.272
12470TIP3   OH237354   6.750   2.913   6.103
12470TIP3    H137355   6.767   2.988   6.047
12470TIP3    H237356   6.830   2.902   6.154
12471TIP3   OH237357   6.719   4.684   5.395
12471TIP3    H137358   6.660   4.619   5.355
12471TIP3    H237359   6.796   4.634   5.421
12472TIP3   OH237360   5.674   2.266   2.078
12472TIP3    H137361   5.747   2.239   2.023
12472TIP3    H237362   5.711   2.335   2.133
12473TIP3   OH237363   4.903   3.447   5.736
12473TIP3    H137364   4.922   3.499   5.814
12473TIP3    H237365   4.808   3.431   5.741
12474TIP3   OH237366   2.361   0.182   3.731
12474TIP3    H137367   2.287   0.149   3.682
12474TIP3    H237368   2.420   0.107   3.740
12475TIP3   OH237369   6.998   7.696   2.027
12475TIP3    H137370   7.054   7.756   2.076
12475TIP3    H237371   6.928   7.674   2.088
12476TIP3   OH237372   3.325   7.242   5.796
12476TIP3    H137373   3.296   7.328   5.824
12476TIP3    H237374   3.269   7.222   5.720
12477TIP3   OH237375   3.545   3.728   3.578
12477TIP3    H137376   3.451   3.724   3.558
12477TIP3    H237377   3.574   3.811   3.539
12478TIP3   OH237378   7.134   0.770   1.703
12478TIP3    H137379   7.083   0.714   1.644
12478TIP3    H237380   7.190   0.710   1.751
12479TIP3   OH237381   3.721   6.699   0.962
12479TIP3    H137382   3.667   6.622   0.979
12479TIP3    H237383   3.659   6.765   0.930
12480TIP3   OH237384   4.664   4.787   1.079
12480TIP3    H137385   4.582   4.821   1.044
12480TIP3    H237386   4.685   4.846   1.151
12481TIP3   OH237387   1.017   7.667   2.839
12481TIP3    H137388   0.960   7.662   2.762
12481TIP3    H237389   1.021   7.577   2.872
12482TIP3   OH237390   4.531   4.274   6.459
12482TIP3    H137391   4.552   4.293   6.550
12482TIP3    H237392   4.589   4.331   6.408
12483TIP3   OH237393   2.155   1.467   3.866
12483TIP3    H137394   2.102   1.416   3.805
12483TIP3    H237395   2.094   1.495   3.934
12484TIP3   OH237396   7.686   1.799   4.467
12484TIP3    H137397   7.668   1.766   4.379
12484TIP3    H237398   7.599   1.808   4.507
12485TIP3   OH237399   2.081   2.510   6.383
12485TIP3    H137400   2.023   2.459   6.327
12485TIP3    H237401   2.086   2.596   6.341
12486TIP3   OH237402   1.491   1.933   0.865
12486TIP3    H137403   1.498   1.852   0.815
12486TIP3    H237404   1.422   1.916   0.929
12487TIP3   OH237405   6.052   2.037   6.544
12487TIP3    H137406   6.100   2.119   6.560
12487TIP3    H237407   5.962   2.065   6.526
12488TIP3   OH237408   8.181   0.429   3.457
12488TIP3    H137409   8.169   0.482   3.535
12488TIP3    H237410   8.209   0.492   3.390
12489TIP3   OH237411   6.022   7.264   0.571
12489TIP3    H137412   5.973   7.292   0.493
12489TIP3    H237413   5.956   7.265   0.642
12490TIP3   OH237414   6.980   4.484   6.330
12490TIP3    H137415   7.074   4.493   6.346
12490TIP3    H237416   6.973   4.472   6.235
12491TIP3   OH237417   7.473   1.951   5.863
12491TIP3    H137418   7.498   1.988   5.779
12491TIP3    H237419   7.505   1.862   5.861
12492TIP3   OH237420   8.056   5.301   2.701
12492TIP3    H137421   8.028   5.349   2.779
12492TIP3    H237422   8.099   5.223   2.734
12493TIP3   OH237423   5.431   1.778   2.107
12493TIP3    H137424   5.343   1.808   2.084
12493TIP3    H237425   5.444   1.699   2.054
12494TIP3   OH237426   8.031   0.622   5.583
12494TIP3    H137427   8.036   0.717   5.598
12494TIP3    H237428   8.097   0.585   5.640
12495TIP3   OH237429   3.056   0.843   3.141
12495TIP3    H137430   2.979   0.876   3.187
12495TIP3    H237431   3.125   0.908   3.160
12496TIP3   OH237432   1.055   3.215   3.432
12496TIP3    H137433   0.982   3.268   3.463
12496TIP3    H237434   1.028   3.186   3.345
12497TIP3   OH237435   1.220   0.703   3.642
12497TIP3    H137436   1.159   0.629   3.650
12497TIP3    H237437   1.167   0.780   3.664
12498TIP3   OH237438   4.731   4.955   1.277
12498TIP3    H137439   4.794   4.920   1.341
12498TIP3    H237440   4.738   5.050   1.286
12499TIP3   OH237441   2.861   7.171   5.361
12499TIP3    H137442   2.857   7.102   5.295
12499TIP3    H237443   2.953   7.177   5.384
12500TIP3   OH237444   4.523   6.105   4.937
12500TIP3    H137445   4.595   6.134   4.993
12500TIP3    H237446   4.475   6.042   4.990
12501TIP3   OH237447   0.825   5.468   3.997
12501TIP3    H137448   0.884   5.485   4.071
12501TIP3    H237449   0.780   5.551   3.983
12502TIP3   OH237450   6.652   5.189   4.540
12502TIP3    H137451   6.737   5.224   4.513
12502TIP3    H237452   6.588   5.244   4.496
12503TIP3   OH237453   4.833   3.934   0.889
12503TIP3    H137454   4.894   3.918   0.961
12503TIP3    H237455   4.758   3.878   0.908
12504TIP3   OH237456   6.974   4.271   4.348
12504TIP3    H137457   7.045   4.321   4.387
12504TIP3    H237458   6.954   4.203   4.413
12505TIP3   OH237459   4.581   0.508   1.052
12505TIP3    H137460   4.659   0.466   1.016
12505TIP3    H237461   4.512   0.441   1.045
12506TIP3   OH237462   5.771   6.861   5.793
12506TIP3    H137463   5.800   6.787   5.740
12506TIP3    H237464   5.784   6.937   5.737
12507TIP3   OH237465   2.878   3.336   2.769
12507TIP3    H137466   2.942   3.387   2.819
12507TIP3    H237467   2.886   3.248   2.804
12508TIP3   OH237468   4.136   6.861   4.588
12508TIP3    H137469   4.085   6.803   4.532
12508TIP3    H237470   4.085   6.868   4.669
12509TIP3   OH237471   1.682   3.720   0.583
12509TIP3    H137472   1.590   3.724   0.609
12509TIP3    H237473   1.703   3.809   0.556
12510TIP3   OH237474   6.813   3.034   1.689
12510TIP3    H137475   6.782   3.095   1.756
12510TIP3    H237476   6.741   3.028   1.627
12511TIP3   OH237477   7.418   5.512   4.867
12511TIP3    H137478   7.381   5.486   4.782
12511TIP3    H237479   7.408   5.607   4.869
12512TIP3   OH237480   6.893   6.912   1.154
12512TIP3    H137481   6.965   6.886   1.097
12512TIP3    H237482   6.820   6.856   1.128
12513TIP3   OH237483   4.444   4.118   0.713
12513TIP3    H137484   4.534   4.084   0.710
12513TIP3    H237485   4.402   4.069   0.783
12514TIP3   OH237486   3.677   4.225   5.953
12514TIP3    H137487   3.736   4.228   6.028
12514TIP3    H237488   3.613   4.157   5.975
12515TIP3   OH237489   5.919   5.480   6.286
12515TIP3    H137490   5.860   5.527   6.227
12515TIP3    H237491   5.861   5.428   6.342
12516TIP3   OH237492   5.868   0.456   1.236
12516TIP3    H137493   5.863   0.522   1.305
12516TIP3    H237494   5.839   0.501   1.157
12517TIP3   OH237495   8.081   4.128   2.783
12517TIP3    H137496   8.123   4.139   2.698
12517TIP3    H237497   8.100   4.209   2.830
12518TIP3   OH237498   3.518   4.848   3.416
12518TIP3    H137499   3.528   4.753   3.415
12518TIP3    H237500   3.509   4.872   3.323
12519TIP3   OH237501   1.350   7.358   6.483
12519TIP3    H137502   1.304   7.278   6.456
12519TIP3    H237503   1.400   7.384   6.406
12520TIP3   OH237504   6.785   4.433   3.828
12520TIP3    H137505   6.697   4.395   3.825
12520TIP3    H237506   6.810   4.441   3.736
12521TIP3   OH237507   4.031   4.899   3.785
12521TIP3    H137508   3.975   4.884   3.708
12521TIP3    H237509   4.103   4.838   3.774
12522TIP3   OH237510   4.090   4.883   2.291
12522TIP3    H137511   4.131   4.968   2.308
12522TIP3    H237512   4.137   4.822   2.349
12523TIP3   OH237513   3.456   0.823   2.205
12523TIP3    H137514   3.421   0.908   2.179
12523TIP3    H237515   3.407   0.759   2.153
12524TIP3   OH237516   0.500   2.952   5.162
12524TIP3    H137517   0.586   2.924   5.130
12524TIP3    H237518   0.437   2.908   5.105
12525TIP3   OH237519   5.312   5.353   3.447
12525TIP3    H137520   5.356   5.280   3.404
12525TIP3    H237521   5.319   5.334   3.541
12526TIP3   OH237522   7.921   4.148   4.135
12526TIP3    H137523   7.904   4.157   4.042
12526TIP3    H237524   7.932   4.054   4.149
12527TIP3   OH237525   6.067   6.833   3.665
12527TIP3    H137526   6.071   6.888   3.586
12527TIP3    H237527   6.013   6.758   3.639
12528TIP3   OH237528   1.865   3.336   6.040
12528TIP3    H137529   1.859   3.313   5.947
12528TIP3    H237530   1.941   3.286   6.072
12529TIP3   OH237531   1.568   4.280   2.588
12529TIP3    H137532   1.635   4.252   2.526
12529TIP3    H237533   1.537   4.365   2.555
12530TIP3   OH237534   4.682   1.166   5.646
12530TIP3    H137535   4.698   1.096   5.710
12530TIP3    H237536   4.748   1.153   5.579
12531TIP3   OH237537   4.973   6.093   2.353
12531TIP3    H137538   4.976   6.007   2.313
12531TIP3    H237539   4.916   6.144   2.294
12532TIP3   OH237540   6.235   5.351   5.633
12532TIP3    H137541   6.270   5.440   5.623
12532TIP3    H237542   6.223   5.340   5.727
12533TIP3   OH237543   4.799   7.578   6.661
12533TIP3    H137544   4.859   7.504   6.657
12533TIP3    H237545   4.855   7.655   6.648
12534TIP3   OH237546   6.420   1.687   6.737
12534TIP3    H137547   6.374   1.605   6.756
12534TIP3    H237548   6.450   1.678   6.646
12535TIP3   OH237549   7.489   5.563   1.522
12535TIP3    H137550   7.529   5.630   1.577
12535TIP3    H237551   7.398   5.591   1.512
12536TIP3   OH237552   6.508  -0.034   1.022
12536TIP3    H137553   6.550   0.050   1.006
12536TIP3    H237554   6.414  -0.014   1.023
12537TIP3   OH237555   2.476   3.902   0.836
12537TIP3    H137556   2.459   3.843   0.909
12537TIP3    H237557   2.392   3.909   0.791
12538TIP3   OH237558   2.069   5.390   2.709
12538TIP3    H137559   2.002   5.449   2.673
12538TIP3    H237560   2.019   5.323   2.756
12539TIP3   OH237561   1.401   3.095   1.803
12539TIP3    H137562   1.484   3.059   1.772
12539TIP3    H237563   1.389   3.175   1.753
12540TIP3   OH237564   3.126   4.843   2.554
12540TIP3    H137565   3.213   4.871   2.581
12540TIP3    H237566   3.071   4.920   2.568
12541TIP3   OH237567   8.189   3.350   2.282
12541TIP3    H137568   8.141   3.363   2.200
12541TIP3    H237569   8.153   3.268   2.318
12542TIP3   OH237570   0.177   6.667   5.317
12542TIP3    H137571   0.271   6.651   5.324
12542TIP3    H237572   0.137   6.585   5.347
12543TIP3   OH237573   1.813   4.582   6.387
12543TIP3    H137574   1.876   4.557   6.320
12543TIP3    H237575   1.744   4.516   6.383
12544TIP3   OH237576   0.386   5.687   0.708
12544TIP3    H137577   0.435   5.607   0.725
12544TIP3    H237578   0.296   5.657   0.696
12545TIP3   OH237579   2.603   3.185   3.860
12545TIP3    H137580   2.638   3.103   3.894
12545TIP3    H237581   2.679   3.242   3.851
12546TIP3   OH237582   4.372   0.611   3.935
12546TIP3    H137583   4.467   0.595   3.933
12546TIP3    H237584   4.348   0.600   4.027
12547TIP3   OH237585   6.048   0.301   1.040
12547TIP3    H137586   6.001   0.339   1.114
12547TIP3    H237587   6.012   0.344   0.963
12548TIP3   OH237588   3.417   1.331   3.818
12548TIP3    H137589   3.406   1.307   3.910
12548TIP3    H237590   3.503   1.373   3.814
12549TIP3   OH237591   2.412   3.909   6.727
12549TIP3    H137592   2.436   3.818   6.709
12549TIP3    H237593   2.488   3.960   6.700
12550TIP3   OH237594   0.807   2.612   6.756
12550TIP3    H137595   0.846   2.699   6.744
12550TIP3    H237596   0.869   2.566   6.813
12551TIP3   OH237597   7.021   5.641   6.543
12551TIP3    H137598   6.932   5.605   6.546
12551TIP3    H237599   7.008   5.736   6.540
12552TIP3   OH237600   6.199   6.413   6.227
12552TIP3    H137601   6.213   6.387   6.318
12552TIP3    H237602   6.274   6.374   6.180
12553TIP3   OH237603   2.552   2.465   5.600
12553TIP3    H137604   2.594   2.486   5.516
12553TIP3    H237605   2.607   2.397   5.638
12554TIP3   OH237606   7.654   6.731   1.937
12554TIP3    H137607   7.561   6.756   1.935
12554TIP3    H237608   7.669   6.691   1.852
12555TIP3   OH237609   4.880   1.514   6.225
12555TIP3    H137610   4.918   1.539   6.310
12555TIP3    H237611   4.806   1.457   6.247
12556TIP3   OH237612   6.029   3.129   1.813
12556TIP3    H137613   6.110   3.179   1.825
12556TIP3    H237614   5.979   3.146   1.893
12557TIP3   OH237615   7.393   4.367   3.750
12557TIP3    H137616   7.360   4.277   3.742
12557TIP3    H237617   7.445   4.381   3.671
12558TIP3   OH237618   1.960   3.805   4.123
12558TIP3    H137619   1.991   3.849   4.043
12558TIP3    H237620   1.876   3.845   4.141
12559TIP3   OH237621   6.036   4.458   4.784
12559TIP3    H137622   6.116   4.420   4.747
12559TIP3    H237623   5.968   4.394   4.764
12560TIP3   OH237624   2.135   2.923   0.479
12560TIP3    H137625   2.209   2.933   0.538
12560TIP3    H237626   2.166   2.861   0.413
12561TIP3   OH237627   1.196   2.851   1.333
12561TIP3    H137628   1.183   2.839   1.239
12561TIP3    H237629   1.260   2.921   1.339
12562TIP3   OH237630   0.658   7.484   6.348
12562TIP3    H137631   0.642   7.577   6.333
12562TIP3    H237632   0.572   7.443   6.335
12563TIP3   OH237633   2.093   1.235   3.194
12563TIP3    H137634   2.009   1.257   3.153
12563TIP3    H237635   2.074   1.157   3.247
12564TIP3   OH237636   6.079   7.531   4.439
12564TIP3    H137637   6.116   7.502   4.355
12564TIP3    H237638   6.134   7.604   4.465
12565TIP3   OH237639   8.219   0.408   0.982
12565TIP3    H137640   8.295   0.451   0.944
12565TIP3    H237641   8.152   0.410   0.914
12566TIP3   OH237642   2.529   4.927   2.462
12566TIP3    H137643   2.459   4.978   2.503
12566TIP3    H237644   2.562   4.871   2.532
12567TIP3   OH237645   2.054   2.971   5.495
12567TIP3    H137646   2.049   2.893   5.440
12567TIP3    H237647   1.997   2.951   5.569
12568TIP3   OH237648   2.148   0.439   6.045
12568TIP3    H137649   2.169   0.353   6.081
12568TIP3    H237650   2.232   0.472   6.012
12569TIP3   OH237651   4.072   2.295   3.793
12569TIP3    H137652   3.997   2.319   3.847
12569TIP3    H237653   4.035   2.274   3.708
12570TIP3   OH237654   6.811   2.148   1.891
12570TIP3    H137655   6.778   2.064   1.923
12570TIP3    H237656   6.906   2.139   1.892
12571TIP3   OH237657   6.027   5.595   3.333
12571TIP3    H137658   6.000   5.567   3.245
12571TIP3    H237659   6.116   5.626   3.322
12572TIP3   OH237660   0.730   1.426   6.280
12572TIP3    H137661   0.815   1.380   6.283
12572TIP3    H237662   0.746   1.508   6.326
12573TIP3   OH237663   0.690   1.779   1.722
12573TIP3    H137664   0.637   1.716   1.673
12573TIP3    H237665   0.634   1.804   1.796
12574TIP3   OH237666   6.063   3.429   3.743
12574TIP3    H137667   6.029   3.355   3.794
12574TIP3    H237668   6.076   3.499   3.807
12575TIP3   OH237669   6.721   1.280   1.274
12575TIP3    H137670   6.783   1.328   1.219
12575TIP3    H237671   6.746   1.303   1.364
12576TIP3   OH237672   5.674   3.309   1.821
12576TIP3    H137673   5.638   3.236   1.771
12576TIP3    H237674   5.746   3.342   1.767
12577TIP3   OH237675   2.801   6.060   1.811
12577TIP3    H137676   2.752   6.046   1.892
12577TIP3    H237677   2.783   5.981   1.759
12578TIP3   OH237678   4.155   3.030   3.690
12578TIP3    H137679   4.126   3.077   3.769
12578TIP3    H237680   4.201   2.954   3.724
12579TIP3   OH237681   6.483   5.374   4.437
12579TIP3    H137682   6.468   5.424   4.517
12579TIP3    H237683   6.531   5.434   4.380
12580TIP3   OH237684   0.153   6.304   2.006
12580TIP3    H137685   0.208   6.236   2.046
12580TIP3    H237686   0.206   6.337   1.934
12581TIP3   OH237687   8.022   7.467   5.992
12581TIP3    H137688   7.941   7.508   6.024
12581TIP3    H237689   8.037   7.394   6.051
12582TIP3   OH237690   4.209   2.421   6.108
12582TIP3    H137691   4.271   2.470   6.054
12582TIP3    H237692   4.205   2.470   6.190
12583TIP3   OH237693   2.385   3.153   0.318
12583TIP3    H137694   2.376   3.064   0.284
12583TIP3    H237695   2.310   3.200   0.281
12584TIP3   OH237696   1.519   0.903   3.833
12584TIP3    H137697   1.472   0.977   3.794
12584TIP3    H237698   1.482   0.895   3.921
12585TIP3   OH237699   0.681   5.481   1.066
12585TIP3    H137700   0.589   5.488   1.091
12585TIP3    H237701   0.725   5.455   1.146
12586TIP3   OH237702   6.508   1.439   4.312
12586TIP3    H137703   6.434   1.386   4.280
12586TIP3    H237704   6.515   1.416   4.404
12587TIP3   OH237705   2.835   5.383   3.664
12587TIP3    H137706   2.834   5.443   3.739
12587TIP3    H237707   2.928   5.366   3.648
12588TIP3   OH237708   5.611   0.063   2.729
12588TIP3    H137709   5.570   0.142   2.694
12588TIP3    H237710   5.592  -0.005   2.665
12589TIP3   OH237711   7.907   0.391   5.417
12589TIP3    H137712   7.935   0.457   5.481
12589TIP3    H237713   7.981   0.384   5.356
12590TIP3   OH237714   8.024   3.036   6.245
12590TIP3    H137715   8.089   2.973   6.278
12590TIP3    H237716   8.009   3.095   6.319
12591TIP3   OH237717   0.431   3.706   1.442
12591TIP3    H137718   0.520   3.693   1.475
12591TIP3    H237719   0.399   3.618   1.424
12592TIP3   OH237720   4.898   2.329   3.824
12592TIP3    H137721   4.859   2.382   3.894
12592TIP3    H237722   4.858   2.243   3.835
12593TIP3   OH237723   1.307   0.742   4.906
12593TIP3    H137724   1.318   0.825   4.860
12593TIP3    H237725   1.301   0.766   4.999
12594TIP3   OH237726   7.666   1.129   0.591
12594TIP3    H137727   7.721   1.194   0.547
12594TIP3    H237728   7.628   1.176   0.665
12595TIP3   OH237729   5.208   6.900   6.451
12595TIP3    H137730   5.250   6.894   6.366
12595TIP3    H237731   5.178   6.811   6.470
12596TIP3   OH237732   1.409   3.367   3.007
12596TIP3    H137733   1.328   3.389   2.962
12596TIP3    H237734   1.471   3.434   2.979
12597TIP3   OH237735   7.884   5.576   6.457
12597TIP3    H137736   7.923   5.570   6.370
12597TIP3    H237737   7.879   5.485   6.488
12598TIP3   OH237738   5.606   7.545   4.895
12598TIP3    H137739   5.584   7.600   4.969
12598TIP3    H237740   5.627   7.460   4.933
12599TIP3   OH237741   7.855   6.600   3.997
12599TIP3    H137742   7.767   6.564   3.998
12599TIP3    H237743   7.866   6.636   3.908
12600TIP3   OH237744   5.930   3.670   1.085
12600TIP3    H137745   5.893   3.599   1.033
12600TIP3    H237746   6.014   3.635   1.116
12601TIP3   OH237747   4.401   0.950   3.946
12601TIP3    H137748   4.481   0.899   3.958
12601TIP3    H237749   4.387   0.950   3.851
12602TIP3   OH237750   1.963   2.747   1.349
12602TIP3    H137751   2.046   2.749   1.397
12602TIP3    H237752   1.945   2.839   1.329
12603TIP3   OH237753   3.874   2.658   2.680
12603TIP3    H137754   3.928   2.684   2.605
12603TIP3    H237755   3.828   2.580   2.650
12604TIP3   OH237756   0.439   3.960   0.846
12604TIP3    H137757   0.431   3.869   0.816
12604TIP3    H237758   0.486   4.004   0.775
12605TIP3   OH237759   3.719   6.020   5.988
12605TIP3    H137760   3.742   6.111   6.005
12605TIP3    H237761   3.637   6.025   5.938
12606TIP3   OH237762   3.360   4.173   4.417
12606TIP3    H137763   3.327   4.207   4.500
12606TIP3    H237764   3.312   4.222   4.350
12607TIP3   OH237765   0.865   4.914   5.623
12607TIP3    H137766   0.956   4.922   5.651
12607TIP3    H237767   0.840   4.825   5.647
12608TIP3   OH237768   0.928   7.331   2.421
12608TIP3    H137769   0.990   7.365   2.357
12608TIP3    H237770   0.968   7.249   2.451
12609TIP3   OH237771   4.902   3.304   4.398
12609TIP3    H137772   4.870   3.312   4.488
12609TIP3    H237773   4.902   3.394   4.365
12610TIP3   OH237774   6.907   5.622   5.601
12610TIP3    H137775   6.938   5.560   5.666
12610TIP3    H237776   6.948   5.594   5.519
12611TIP3   OH237777   5.581   7.171   5.094
12611TIP3    H137778   5.671   7.166   5.062
12611TIP3    H237779   5.577   7.252   5.145
12612TIP3   OH237780   1.998   5.875   4.653
12612TIP3    H137781   2.076   5.911   4.694
12612TIP3    H237782   2.031   5.816   4.586
12613TIP3   OH237783   4.620   6.772   4.161
12613TIP3    H137784   4.572   6.704   4.207
12613TIP3    H237785   4.692   6.725   4.118
12614TIP3   OH237786   7.185   6.206   0.389
12614TIP3    H137787   7.199   6.112   0.391
12614TIP3    H237788   7.115   6.219   0.325
12615TIP3   OH237789   3.171   6.278   6.339
12615TIP3    H137790   3.254   6.325   6.338
12615TIP3    H237791   3.111   6.334   6.389
12616TIP3   OH237792   7.554   6.227   1.243
12616TIP3    H137793   7.619   6.161   1.219
12616TIP3    H237794   7.523   6.262   1.159
12617TIP3   OH237795   1.048   2.732   1.809
12617TIP3    H137796   1.089   2.675   1.744
12617TIP3    H237797   1.106   2.808   1.815
12618TIP3   OH237798   3.856   4.150   6.647
12618TIP3    H137799   3.952   4.158   6.649
12618TIP3    H237800   3.839   4.061   6.678
12619TIP3   OH237801   4.979   7.573   5.377
12619TIP3    H137802   4.884   7.558   5.381
12619TIP3    H237803   5.016   7.485   5.365
12620TIP3   OH237804   5.637   4.333   3.755
12620TIP3    H137805   5.718   4.384   3.746
12620TIP3    H237806   5.606   4.353   3.843
12621TIP3   OH237807   3.113   1.124   1.454
12621TIP3    H137808   3.023   1.153   1.467
12621TIP3    H237809   3.133   1.074   1.533
12622TIP3   OH237810   0.670   5.410   2.435
12622TIP3    H137811   0.602   5.442   2.493
12622TIP3    H237812   0.721   5.488   2.412
12623TIP3   OH237813   3.662   7.683   3.944
12623TIP3    H137814   3.663   7.656   4.036
12623TIP3    H237815   3.613   7.765   3.944
12624TIP3   OH237816   0.251   2.847   4.936
12624TIP3    H137817   0.179   2.784   4.928
12624TIP3    H237818   0.267   2.876   4.846
12625TIP3   OH237819   1.322   0.224   0.169
12625TIP3    H137820   1.286   0.303   0.130
12625TIP3    H237821   1.329   0.162   0.096
12626TIP3   OH237822   3.370   5.338   6.582
12626TIP3    H137823   3.395   5.251   6.611
12626TIP3    H237824   3.309   5.370   6.649
12627TIP3   OH237825   6.220   4.072   3.321
12627TIP3    H137826   6.214   4.031   3.407
12627TIP3    H237827   6.199   4.002   3.259
12628TIP3   OH237828   6.159   6.979   3.897
12628TIP3    H137829   6.131   7.071   3.895
12628TIP3    H237830   6.172   6.957   3.804
12629TIP3   OH237831   1.595   4.831   0.402
12629TIP3    H137832   1.583   4.873   0.487
12629TIP3    H237833   1.544   4.885   0.341
12630TIP3   OH237834   0.716   1.153   6.428
12630TIP3    H137835   0.647   1.195   6.376
12630TIP3    H237836   0.787   1.217   6.428
12631TIP3   OH237837   0.931   3.433   1.841
12631TIP3    H137838   0.867   3.453   1.773
12631TIP3    H237839   0.884   3.447   1.923
12632TIP3   OH237840   1.775   5.082   3.699
12632TIP3    H137841   1.693   5.095   3.651
12632TIP3    H237842   1.751   5.086   3.791
12633TIP3   OH237843   1.383   6.727   0.039
12633TIP3    H137844   1.456   6.712   0.100
12633TIP3    H237845   1.352   6.815   0.060
12634TIP3   OH237846   4.865   3.100   0.172
12634TIP3    H137847   4.781   3.079   0.132
12634TIP3    H237848   4.845   3.114   0.265
12635TIP3   OH237849   3.416   0.726   1.408
12635TIP3    H137850   3.348   0.686   1.353
12635TIP3    H237851   3.428   0.664   1.480
12636TIP3   OH237852   5.775   3.543   1.314
12636TIP3    H137853   5.833   3.582   1.248
12636TIP3    H237854   5.791   3.449   1.306
12637TIP3   OH237855   5.000   7.026   0.933
12637TIP3    H137856   5.042   7.109   0.909
12637TIP3    H237857   5.034   6.963   0.870
12638TIP3   OH237858   7.899   1.598   2.251
12638TIP3    H137859   7.940   1.664   2.194
12638TIP3    H237860   7.964   1.529   2.259
12639TIP3   OH237861   4.776   0.306   1.986
12639TIP3    H137862   4.742   0.390   2.017
12639TIP3    H237863   4.761   0.309   1.891
12640TIP3   OH237864   4.418   4.032   4.952
12640TIP3    H137865   4.508   4.027   4.918
12640TIP3    H237866   4.404   4.125   4.969
12641TIP3   OH237867   7.563   0.484   0.418
12641TIP3    H137868   7.536   0.395   0.439
12641TIP3    H237869   7.592   0.520   0.502
12642TIP3   OH237870   2.615   1.508   1.328
12642TIP3    H137871   2.594   1.546   1.242
12642TIP3    H237872   2.534   1.518   1.378
12643TIP3   OH237873   4.379   1.018   6.634
12643TIP3    H137874   4.302   1.063   6.670
12643TIP3    H237875   4.449   1.035   6.697
12644TIP3   OH237876   1.386   1.748   1.785
12644TIP3    H137877   1.416   1.790   1.704
12644TIP3    H237878   1.337   1.816   1.831
12645TIP3   OH237879   7.950   1.152   2.845
12645TIP3    H137880   7.906   1.136   2.761
12645TIP3    H237881   7.892   1.212   2.891
12646TIP3   OH237882   5.673   4.280   0.709
12646TIP3    H137883   5.642   4.195   0.741
12646TIP3    H237884   5.708   4.323   0.787
12647TIP3   OH237885   2.296   5.532   4.944
12647TIP3    H137886   2.388   5.508   4.931
12647TIP3    H237887   2.262   5.543   4.855
12648TIP3   OH237888   0.703   4.795   1.995
12648TIP3    H137889   0.632   4.810   1.933
12648TIP3    H237890   0.711   4.699   2.000
12649TIP3   OH237891   6.487   1.450   2.705
12649TIP3    H137892   6.401   1.409   2.714
12649TIP3    H237893   6.490   1.480   2.615
12650TIP3   OH237894   6.030   0.462   3.775
12650TIP3    H137895   6.102   0.416   3.819
12650TIP3    H237896   6.021   0.418   3.691
12651TIP3   OH237897   1.912   2.586   3.902
12651TIP3    H137898   1.956   2.629   3.829
12651TIP3    H237899   1.912   2.652   3.972
12652TIP3   OH237900   2.208   4.045   6.058
12652TIP3    H137901   2.290   4.081   6.093
12652TIP3    H237902   2.171   4.117   6.005
12653TIP3   OH237903   0.777   7.001   5.854
12653TIP3    H137904   0.751   6.909   5.857
12653TIP3    H237905   0.830   7.008   5.774
12654TIP3   OH237906   4.374   7.686   2.303
12654TIP3    H137907   4.433   7.638   2.360
12654TIP3    H237908   4.389   7.778   2.326
12655TIP3   OH237909   4.859   5.074   6.493
12655TIP3    H137910   4.806   5.143   6.452
12655TIP3    H237911   4.949   5.096   6.470
12656TIP3   OH237912   7.907   6.530   4.289
12656TIP3    H137913   7.937   6.510   4.200
12656TIP3    H237914   7.813   6.514   4.286
12657TIP3   OH237915   7.908   7.661   0.345
12657TIP3    H137916   8.001   7.678   0.360
12657TIP3    H237917   7.891   7.577   0.386
12658TIP3   OH237918   3.263   5.499   1.394
12658TIP3    H137919   3.270   5.554   1.316
12658TIP3    H237920   3.224   5.557   1.460
12659TIP3   OH237921   7.382   6.371   0.254
12659TIP3    H137922   7.297   6.328   0.268
12659TIP3    H237923   7.441   6.329   0.316
12660TIP3   OH237924   4.725   2.377   0.568
12660TIP3    H137925   4.652   2.370   0.630
12660TIP3    H237926   4.686   2.363   0.482
12661TIP3   OH237927   0.114   5.621   3.444
12661TIP3    H137928   0.178   5.612   3.515
12661TIP3    H237929   0.125   5.710   3.412
12662TIP3   OH237930   4.594   2.689   4.935
12662TIP3    H137931   4.547   2.611   4.967
12662TIP3    H237932   4.686   2.661   4.930
12663TIP3   OH237933   7.488   0.420   4.651
12663TIP3    H137934   7.557   0.485   4.634
12663TIP3    H237935   7.469   0.384   4.564
12664TIP3   OH237936   1.135   2.677   4.448
12664TIP3    H137937   1.228   2.663   4.431
12664TIP3    H237938   1.090   2.642   4.371
12665TIP3   OH237939   3.121   1.564   3.130
12665TIP3    H137940   3.168   1.483   3.147
12665TIP3    H237941   3.190   1.631   3.127
12666TIP3   OH237942   6.554   2.603   1.251
12666TIP3    H137943   6.641   2.587   1.287
12666TIP3    H237944   6.507   2.651   1.319
12667TIP3   OH237945   2.430   6.592   3.171
12667TIP3    H137946   2.523   6.606   3.185
12667TIP3    H237947   2.401   6.543   3.248
12668TIP3   OH237948   4.330   7.823   5.576
12668TIP3    H137949   4.304   7.893   5.516
12668TIP3    H237950   4.266   7.754   5.563
12669TIP3   OH237951   6.496   0.164   4.721
12669TIP3    H137952   6.516   0.186   4.812
12669TIP3    H237953   6.460   0.244   4.685
12670TIP3   OH237954   2.942   6.839   3.047
12670TIP3    H137955   3.003   6.899   3.005
12670TIP3    H237956   2.856   6.880   3.038
12671TIP3   OH237957   1.821   2.446   3.348
12671TIP3    H137958   1.767   2.522   3.325
12671TIP3    H237959   1.804   2.383   3.277
12672TIP3   OH237960   4.427   7.500   6.764
12672TIP3    H137961   4.490   7.544   6.821
12672TIP3    H237962   4.379   7.572   6.723
12673TIP3   OH237963   6.658   5.386   1.415
12673TIP3    H137964   6.709   5.425   1.486
12673TIP3    H237965   6.600   5.455   1.385
12674TIP3   OH237966   7.193   6.777   1.216
12674TIP3    H137967   7.141   6.852   1.245
12674TIP3    H237968   7.280   6.792   1.253
12675TIP3   OH237969   4.510   2.675   1.260
12675TIP3    H137970   4.517   2.770   1.250
12675TIP3    H237971   4.585   2.652   1.315
12676TIP3   OH237972   5.169   5.230   0.454
12676TIP3    H137973   5.127   5.222   0.540
12676TIP3    H237974   5.099   5.262   0.397
12677TIP3   OH237975   0.369   5.992   4.628
12677TIP3    H137976   0.427   6.066   4.643
12677TIP3    H237977   0.356   5.991   4.533
12678TIP3   OH237978   5.948   1.593   4.583
12678TIP3    H137979   5.887   1.586   4.656
12678TIP3    H237980   5.950   1.686   4.562
12679TIP3   OH237981   1.537   5.864   4.846
12679TIP3    H137982   1.629   5.841   4.831
12679TIP3    H237983   1.540   5.952   4.883
12680TIP3   OH237984   1.740   6.570   1.306
12680TIP3    H137985   1.821   6.519   1.314
12680TIP3    H237986   1.691   6.550   1.385
12681TIP3   OH237987   2.695   2.440   3.418
12681TIP3    H137988   2.763   2.376   3.398
12681TIP3    H237989   2.731   2.492   3.490
12682TIP3   OH237990   6.756   1.507   0.157
12682TIP3    H137991   6.844   1.506   0.121
12682TIP3    H237992   6.699   1.488   0.081
12683TIP3   OH237993   1.364   7.291   1.720
12683TIP3    H137994   1.412   7.230   1.776
12683TIP3    H237995   1.349   7.242   1.639
12684TIP3   OH237996   2.720   5.687   3.512
12684TIP3    H137997   2.711   5.778   3.485
12684TIP3    H237998   2.632   5.662   3.542
12685TIP3   OH237999   5.328   7.306   5.337
12685TIP3    H138000   5.346   7.229   5.391
12685TIP3    H238001   5.414   7.345   5.320
12686TIP3   OH238002   6.527   4.582   0.215
12686TIP3    H138003   6.488   4.641   0.280
12686TIP3    H238004   6.518   4.495   0.253
12687TIP3   OH238005   6.501   4.344   1.972
12687TIP3    H138006   6.474   4.284   2.041
12687TIP3    H238007   6.547   4.415   2.017
12688TIP3   OH238008   7.138   3.554   3.146
12688TIP3    H138009   7.055   3.529   3.188
12688TIP3    H238010   7.152   3.644   3.175
12689TIP3   OH238011   1.243   7.662   3.283
12689TIP3    H138012   1.257   7.751   3.251
12689TIP3    H238013   1.162   7.634   3.240
12690TIP3   OH238014   6.548   6.280   0.843
12690TIP3    H138015   6.549   6.281   0.939
12690TIP3    H238016   6.543   6.372   0.818
12691TIP3   OH238017   7.648   1.029   2.757
12691TIP3    H138018   7.704   1.059   2.684
12691TIP3    H238019   7.613   0.945   2.727
12692TIP3   OH238020   7.228   1.997   6.275
12692TIP3    H138021   7.183   2.051   6.340
12692TIP3    H238022   7.282   2.058   6.225
12693TIP3   OH238023   7.453   5.013   3.812
12693TIP3    H138024   7.435   4.919   3.804
12693TIP3    H238025   7.506   5.021   3.891
12694TIP3   OH238026   2.154   4.577   3.058
12694TIP3    H138027   2.154   4.580   2.962
12694TIP3    H238028   2.062   4.589   3.082
12695TIP3   OH238029   5.766   4.989   2.659
12695TIP3    H138030   5.806   4.906   2.684
12695TIP3    H238031   5.828   5.055   2.688
12696TIP3   OH238032   3.425   3.907   1.221
12696TIP3    H138033   3.457   3.842   1.159
12696TIP3    H238034   3.453   3.875   1.307
12697TIP3   OH238035   7.381   1.074   5.488
12697TIP3    H138036   7.314   1.053   5.422
12697TIP3    H238037   7.421   0.989   5.508
12698TIP3   OH238038   6.001   6.341   2.387
12698TIP3    H138039   6.044   6.283   2.450
12698TIP3    H238040   5.927   6.379   2.435
12699TIP3   OH238041   6.253   2.538   2.571
12699TIP3    H138042   6.255   2.503   2.660
12699TIP3    H238043   6.293   2.469   2.517
12700TIP3   OH238044   1.379   6.683   6.692
12700TIP3    H138045   1.403   6.764   6.737
12700TIP3    H238046   1.419   6.691   6.606
12701TIP3   OH238047   8.149   6.479   1.576
12701TIP3    H138048   8.084   6.485   1.506
12701TIP3    H238049   8.101   6.504   1.655
12702TIP3   OH238050   1.531   6.891   4.760
12702TIP3    H138051   1.527   6.880   4.665
12702TIP3    H238052   1.563   6.981   4.772
12703TIP3   OH238053   0.933   3.389   6.581
12703TIP3    H138054   0.905   3.480   6.590
12703TIP3    H238055   0.914   3.367   6.490
12704TIP3   OH238056   5.714   1.113   3.956
12704TIP3    H138057   5.717   1.162   3.874
12704TIP3    H238058   5.803   1.082   3.969
12705TIP3   OH238059   0.799   2.478   2.863
12705TIP3    H138060   0.743   2.487   2.786
12705TIP3    H238061   0.752   2.524   2.932
12706TIP3   OH238062   5.883   1.042   2.839
12706TIP3    H138063   5.855   1.113   2.896
12706TIP3    H238064   5.854   1.068   2.751
12707TIP3   OH238065   7.421   0.304   3.734
12707TIP3    H138066   7.516   0.306   3.736
12707TIP3    H238067   7.396   0.272   3.821
12708TIP3   OH238068   4.668   1.833   6.339
12708TIP3    H138069   4.711   1.910   6.301
12708TIP3    H238070   4.631   1.787   6.264
12709TIP3   OH238071   2.149   6.990   5.875
12709TIP3    H138072   2.161   6.998   5.969
12709TIP3    H238073   2.145   6.896   5.859
12710TIP3   OH238074   1.392   1.152   5.693
12710TIP3    H138075   1.467   1.100   5.663
12710TIP3    H238076   1.331   1.151   5.620
12711TIP3   OH238077   2.976   5.450   5.511
12711TIP3    H138078   2.972   5.366   5.557
12711TIP3    H238079   2.982   5.516   5.581
12712TIP3   OH238080   0.900   1.215   5.654
12712TIP3    H138081   0.835   1.188   5.590
12712TIP3    H238082   0.939   1.133   5.684
12713TIP3   OH238083   0.733   5.815   0.970
12713TIP3    H138084   0.682   5.886   1.010
12713TIP3    H238085   0.734   5.746   1.036
12714TIP3   OH238086   8.016   3.290   1.019
12714TIP3    H138087   7.924   3.315   1.005
12714TIP3    H238088   8.018   3.196   1.001
12715TIP3   OH238089   6.182   2.668   2.235
12715TIP3    H138090   6.247   2.600   2.251
12715TIP3    H238091   6.146   2.649   2.149
12716TIP3   OH238092   2.281   4.598   0.289
12716TIP3    H138093   2.327   4.668   0.242
12716TIP3    H238094   2.292   4.521   0.234
12717TIP3   OH238095   4.676   4.480   6.329
12717TIP3    H138096   4.729   4.543   6.376
12717TIP3    H238097   4.631   4.531   6.261
12718TIP3   OH238098   4.585   3.859   3.686
12718TIP3    H138099   4.555   3.920   3.754
12718TIP3    H238100   4.524   3.785   3.693
12719TIP3   OH238101   1.643   7.257   3.826
12719TIP3    H138102   1.636   7.175   3.778
12719TIP3    H238103   1.676   7.320   3.762
12720TIP3   OH238104   8.116   2.198   1.255
12720TIP3    H138105   8.168   2.119   1.270
12720TIP3    H238106   8.076   2.217   1.340
12721TIP3   OH238107   4.141   4.213   4.721
12721TIP3    H138108   4.056   4.188   4.757
12721TIP3    H238109   4.121   4.259   4.640
12722TIP3   OH238110   2.508   7.145   2.572
12722TIP3    H138111   2.487   7.114   2.660
12722TIP3    H238112   2.423   7.147   2.527
12723TIP3   OH238113   2.232   4.443   5.745
12723TIP3    H138114   2.185   4.361   5.727
12723TIP3    H238115   2.189   4.508   5.688
12724TIP3   OH238116   0.915   4.362   2.880
12724TIP3    H138117   0.974   4.293   2.850
12724TIP3    H238118   0.838   4.316   2.911
12725TIP3   OH238119   3.199   2.583   5.287
12725TIP3    H138120   3.234   2.647   5.348
12725TIP3    H238121   3.112   2.615   5.264
12726TIP3   OH238122   4.858   6.787   5.518
12726TIP3    H138123   4.872   6.718   5.583
12726TIP3    H238124   4.809   6.854   5.566
12727TIP3   OH238125   6.255   5.512   5.046
12727TIP3    H138126   6.181   5.468   5.089
12727TIP3    H238127   6.303   5.441   5.003
12728TIP3   OH238128   0.121   4.886   0.312
12728TIP3    H138129   0.064   4.876   0.236
12728TIP3    H238130   0.209   4.872   0.278
12729TIP3   OH238131   2.576   4.434   3.797
12729TIP3    H138132   2.496   4.382   3.791
12729TIP3    H238133   2.645   4.375   3.767
12730TIP3   OH238134   5.600   4.268   4.857
12730TIP3    H138135   5.690   4.254   4.885
12730TIP3    H238136   5.568   4.339   4.913
12731TIP3   OH238137   2.216   0.115   6.466
12731TIP3    H138138   2.149   0.183   6.476
12731TIP3    H238139   2.175   0.036   6.503
12732TIP3   OH238140   4.092   5.071   0.268
12732TIP3    H138141   4.170   5.023   0.241
12732TIP3    H238142   4.023   5.005   0.274
12733TIP3   OH238143   7.796   1.688   3.988
12733TIP3    H138144   7.884   1.696   3.951
12733TIP3    H238145   7.738   1.709   3.915
12734TIP3   OH238146   6.347   0.956   1.021
12734TIP3    H138147   6.392   1.013   1.083
12734TIP3    H238148   6.380   0.983   0.935
12735TIP3   OH238149   2.843   7.790   1.459
12735TIP3    H138150   2.850   7.856   1.528
12735TIP3    H238151   2.789   7.721   1.497
12736TIP3   OH238152   1.474   2.887   1.098
12736TIP3    H138153   1.448   2.818   1.160
12736TIP3    H238154   1.431   2.966   1.131
12737TIP3   OH238155   7.776   1.878   5.908
12737TIP3    H138156   7.707   1.818   5.935
12737TIP3    H238157   7.857   1.829   5.920
12738TIP3   OH238158   4.813   3.576   0.598
12738TIP3    H138159   4.784   3.660   0.563
12738TIP3    H238160   4.899   3.593   0.634
12739TIP3   OH238161   5.917   2.488   5.907
12739TIP3    H138162   5.942   2.395   5.908
12739TIP3    H238163   5.976   2.529   5.970
12740TIP3   OH238164   8.056   1.161   5.213
12740TIP3    H138165   7.988   1.214   5.255
12740TIP3    H238166   8.132   1.218   5.209
12741TIP3   OH238167   5.588   6.310   6.767
12741TIP3    H138168   5.634   6.331   6.848
12741TIP3    H238169   5.607   6.383   6.708
12742TIP3   OH238170   6.288   1.994   2.559
12742TIP3    H138171   6.201   1.954   2.551
12742TIP3    H238172   6.340   1.929   2.604
12743TIP3   OH238173   6.923   1.338   2.235
12743TIP3    H138174   6.941   1.280   2.161
12743TIP3    H238175   6.910   1.424   2.194
12744TIP3   OH238176   7.411   2.055   4.702
12744TIP3    H138177   7.472   1.982   4.706
12744TIP3    H238178   7.455   2.125   4.751
12745TIP3   OH238179   2.570   1.038   6.761
12745TIP3    H138180   2.539   1.043   6.670
12745TIP3    H238181   2.658   1.075   6.758
12746TIP3   OH238182   5.129   6.970   0.056
12746TIP3    H138183   5.153   7.055   0.020
12746TIP3    H238184   5.068   6.990   0.127
12747TIP3   OH238185   3.517   4.958   3.150
12747TIP3    H138186   3.578   4.891   3.120
12747TIP3    H238187   3.430   4.919   3.137
12748TIP3   OH238188   7.414   7.060   6.248
12748TIP3    H138189   7.369   7.143   6.231
12748TIP3    H238190   7.507   7.083   6.250
12749TIP3   OH238191   2.970   5.640   2.485
12749TIP3    H138192   3.037   5.705   2.466
12749TIP3    H238193   2.907   5.687   2.540
12750TIP3   OH238194   7.355   3.312   2.353
12750TIP3    H138195   7.384   3.252   2.284
12750TIP3    H238196   7.296   3.373   2.310
12751TIP3   OH238197   2.541   6.861   4.220
12751TIP3    H138198   2.605   6.879   4.289
12751TIP3    H238199   2.585   6.801   4.160
12752TIP3   OH238200   7.266   7.263   4.838
12752TIP3    H138201   7.196   7.238   4.898
12752TIP3    H238202   7.237   7.232   4.752
12753TIP3   OH238203   7.799   3.804   4.648
12753TIP3    H138204   7.718   3.753   4.650
12753TIP3    H238205   7.770   3.895   4.649
12754TIP3   OH238206   6.150   2.881   1.535
12754TIP3    H138207   6.104   2.869   1.452
12754TIP3    H238208   6.086   2.921   1.593
12755TIP3   OH238209   5.942   6.088   6.694
12755TIP3    H138210   6.006   6.098   6.765
12755TIP3    H238211   5.981   6.136   6.621
12756TIP3   OH238212   5.143   1.261   1.994
12756TIP3    H138213   5.082   1.329   1.966
12756TIP3    H238214   5.117   1.240   2.084
12757TIP3   OH238215   0.143   4.021   3.620
12757TIP3    H138216   0.122   3.967   3.696
12757TIP3    H238217   0.075   4.001   3.556
12758TIP3   OH238218   0.987   1.812   0.572
12758TIP3    H138219   1.046   1.764   0.629
12758TIP3    H238220   0.941   1.872   0.629
12759TIP3   OH238221   0.070   7.512   5.541
12759TIP3    H138222   0.069   7.418   5.555
12759TIP3    H238223   0.156   7.541   5.571
12760TIP3   OH238224   2.490   3.971   0.435
12760TIP3    H138225   2.463   3.893   0.386
12760TIP3    H238226   2.436   3.969   0.514
12761TIP3   OH238227   4.205   6.216   5.605
12761TIP3    H138228   4.225   6.124   5.620
12761TIP3    H238229   4.211   6.227   5.510
12762TIP3   OH238230   4.959   4.277   3.985
12762TIP3    H138231   5.027   4.327   3.940
12762TIP3    H238232   4.906   4.344   4.030
12763TIP3   OH238233   6.219   1.345   5.317
12763TIP3    H138234   6.208   1.283   5.245
12763TIP3    H238235   6.144   1.404   5.310
12764TIP3   OH238236   1.628   7.796   0.502
12764TIP3    H138237   1.588   7.711   0.517
12764TIP3    H238238   1.607   7.817   0.411
12765TIP3   OH238239   6.511   0.310   5.452
12765TIP3    H138240   6.427   0.298   5.495
12765TIP3    H238241   6.520   0.405   5.443
12766TIP3   OH238242   1.944   3.081   6.720
12766TIP3    H138243   1.897   3.010   6.675
12766TIP3    H238244   1.919   3.160   6.673
12767TIP3   OH238245   1.494   7.455   5.679
12767TIP3    H138246   1.582   7.475   5.648
12767TIP3    H238247   1.466   7.380   5.627
12768TIP3   OH238248   1.195   4.066   2.670
12768TIP3    H138249   1.202   4.148   2.718
12768TIP3    H238250   1.286   4.034   2.663
12769TIP3   OH238251   7.017   5.920   3.443
12769TIP3    H138252   7.063   5.842   3.411
12769TIP3    H238253   7.082   5.966   3.496
12770TIP3   OH238254   1.643   5.094   1.789
12770TIP3    H138255   1.643   5.089   1.885
12770TIP3    H238256   1.571   5.037   1.763
12771TIP3   OH238257   4.354   2.771   4.852
12771TIP3    H138258   4.333   2.750   4.761
12771TIP3    H238259   4.447   2.750   4.861
12772TIP3   OH238260   6.557   0.558   2.478
12772TIP3    H138261   6.613   0.605   2.416
12772TIP3    H238262   6.576   0.598   2.563
12773TIP3   OH238263   7.914   2.880   2.461
12773TIP3    H138264   7.878   2.914   2.380
12773TIP3    H238265   7.879   2.937   2.529
12774TIP3   OH238266   4.794   7.212   6.301
12774TIP3    H138267   4.730   7.245   6.363
12774TIP3    H238268   4.862   7.279   6.299
12775TIP3   OH238269   2.890   5.073   3.461
12775TIP3    H138270   2.952   5.082   3.388
12775TIP3    H238271   2.857   4.984   3.454
12776TIP3   OH238272   5.450   5.482   2.395
12776TIP3    H138273   5.386   5.437   2.451
12776TIP3    H238274   5.524   5.500   2.454
12777TIP3   OH238275   5.737   6.083   6.119
12777TIP3    H138276   5.738   5.998   6.164
12777TIP3    H238277   5.739   6.061   6.026
12778TIP3   OH238278   2.048   3.017   1.406
12778TIP3    H138279   2.026   2.972   1.488
12778TIP3    H238280   2.108   3.087   1.433
12779TIP3   OH238281   1.487   6.868   4.495
12779TIP3    H138282   1.407   6.862   4.441
12779TIP3    H238283   1.526   6.951   4.471
12780TIP3   OH238284   1.481   7.549   0.501
12780TIP3    H138285   1.440   7.523   0.583
12780TIP3    H238286   1.408   7.576   0.445
12781TIP3   OH238287   6.093   0.313   6.036
12781TIP3    H138288   6.106   0.219   6.041
12781TIP3    H238289   6.000   0.324   6.018
12782TIP3   OH238290   1.336   3.575   3.996
12782TIP3    H138291   1.241   3.565   4.004
12782TIP3    H238292   1.370   3.486   4.010
12783TIP3   OH238293   2.048   7.589   3.956
12783TIP3    H138294   1.971   7.604   3.902
12783TIP3    H238295   2.121   7.588   3.894
12784TIP3   OH238296   6.472   1.382   1.352
12784TIP3    H138297   6.528   1.453   1.385
12784TIP3    H238298   6.534   1.317   1.319
12785TIP3   OH238299   2.156   5.271   3.017
12785TIP3    H138300   2.150   5.343   3.080
12785TIP3    H238301   2.131   5.193   3.067
12786TIP3   OH238302   8.244   3.419   1.650
12786TIP3    H138303   8.296   3.455   1.722
12786TIP3    H238304   8.240   3.325   1.668
12787TIP3   OH238305   7.006   3.656   3.390
12787TIP3    H138306   7.071   3.626   3.453
12787TIP3    H238307   7.012   3.751   3.392
12788TIP3   OH238308   7.693   5.110   5.531
12788TIP3    H138309   7.658   5.185   5.579
12788TIP3    H238310   7.642   5.035   5.563
12789TIP3   OH238311   7.429   2.067   5.088
12789TIP3    H138312   7.439   2.161   5.105
12789TIP3    H238313   7.440   2.058   4.993
12790TIP3   OH238314   0.203   1.219   5.435
12790TIP3    H138315   0.272   1.233   5.369
12790TIP3    H238316   0.145   1.294   5.424
12791TIP3   OH238317   4.578   2.209   4.563
12791TIP3    H138318   4.576   2.119   4.596
12791TIP3    H238319   4.668   2.238   4.576
12792TIP3   OH238320   2.105   6.133   4.232
12792TIP3    H138321   2.139   6.146   4.143
12792TIP3    H238322   2.156   6.059   4.266
12793TIP3   OH238323   4.717   7.006   2.956
12793TIP3    H138324   4.685   6.923   2.920
12793TIP3    H238325   4.724   6.991   3.050
12794TIP3   OH238326   6.449   3.296   6.485
12794TIP3    H138327   6.406   3.211   6.475
12794TIP3    H238328   6.472   3.322   6.396
12795TIP3   OH238329   8.072   0.462   0.724
12795TIP3    H138330   8.110   0.521   0.659
12795TIP3    H238331   8.029   0.521   0.787
12796TIP3   OH238332   6.496   1.572   1.140
12796TIP3    H138333   6.482   1.511   1.212
12796TIP3    H238334   6.452   1.652   1.167
12797TIP3   OH238335   1.692   1.363   2.703
12797TIP3    H138336   1.606   1.393   2.673
12797TIP3    H238337   1.725   1.435   2.757
12798TIP3   OH238338   6.451   7.017   4.046
12798TIP3    H138339   6.451   6.929   4.082
12798TIP3    H238340   6.488   7.007   3.958
12799TIP3   OH238341   5.081   6.170   2.630
12799TIP3    H138342   5.013   6.235   2.613
12799TIP3    H238343   5.129   6.162   2.547
12800TIP3   OH238344   2.362   3.481   3.381
12800TIP3    H138345   2.393   3.477   3.290
12800TIP3    H238346   2.313   3.400   3.393
12801TIP3   OH238347   7.743   5.288   0.881
12801TIP3    H138348   7.733   5.381   0.902
12801TIP3    H238349   7.838   5.275   0.876
12802TIP3   OH238350   2.727   7.721   2.919
12802TIP3    H138351   2.765   7.803   2.888
12802TIP3    H238352   2.683   7.684   2.843
12803TIP3   OH238353   2.785   2.900   6.037
12803TIP3    H138354   2.853   2.955   6.075
12803TIP3    H238355   2.753   2.949   5.961
12804TIP3   OH238356   6.906   3.625   5.601
12804TIP3    H138357   6.910   3.666   5.514
12804TIP3    H238358   6.813   3.629   5.624
12805TIP3   OH238359   0.830   1.444   5.072
12805TIP3    H138360   0.845   1.429   4.979
12805TIP3    H238361   0.801   1.359   5.106
12806TIP3   OH238362   4.243   4.686   5.494
12806TIP3    H138363   4.181   4.669   5.564
12806TIP3    H238364   4.312   4.737   5.535
12807TIP3   OH238365   0.846   3.495   1.574
12807TIP3    H138366   0.848   3.425   1.510
12807TIP3    H238367   0.793   3.563   1.533
12808TIP3   OH238368   0.941   4.947   1.953
12808TIP3    H138369   0.919   4.916   1.865
12808TIP3    H238370   1.035   4.963   1.949
12809TIP3   OH238371   3.728   6.194   5.388
12809TIP3    H138372   3.821   6.169   5.389
12809TIP3    H238373   3.681   6.114   5.409
12810TIP3   OH238374   6.795   1.420   1.750
12810TIP3    H138375   6.752   1.385   1.672
12810TIP3    H238376   6.883   1.381   1.748
12811TIP3   OH238377   3.477   1.465   6.549
12811TIP3    H138378   3.540   1.394   6.545
12811TIP3    H238379   3.458   1.475   6.642
12812TIP3   OH238380   0.380   2.171   4.733
12812TIP3    H138381   0.397   2.109   4.662
12812TIP3    H238382   0.369   2.255   4.689
12813TIP3   OH238383   6.533   3.833   6.297
12813TIP3    H138384   6.502   3.922   6.313
12813TIP3    H238385   6.549   3.830   6.203
12814TIP3   OH238386   1.458   7.428   3.110
12814TIP3    H138387   1.461   7.517   3.075
12814TIP3    H238388   1.479   7.372   3.036
12815TIP3   OH238389   7.462   5.288   0.120
12815TIP3    H138390   7.508   5.236   0.185
12815TIP3    H238391   7.370   5.286   0.149
12816TIP3   OH238392   0.919   1.520   0.627
12816TIP3    H138393   0.937   1.428   0.647
12816TIP3    H238394   0.887   1.557   0.709
12817TIP3   OH238395   6.138   7.022   4.283
12817TIP3    H138396   6.199   6.968   4.233
12817TIP3    H238397   6.051   6.997   4.252
12818TIP3   OH238398   1.616   0.105   4.911
12818TIP3    H138399   1.569   0.136   4.834
12818TIP3    H238400   1.640   0.185   4.957
12819TIP3   OH238401   0.421   6.281   0.816
12819TIP3    H138402   0.498   6.230   0.791
12819TIP3    H238403   0.442   6.316   0.902
12820TIP3   OH238404   5.837   6.929   6.067
12820TIP3    H138405   5.819   6.842   6.103
12820TIP3    H238406   5.801   6.927   5.978
12821TIP3   OH238407   2.757   4.711   4.230
12821TIP3    H138408   2.707   4.659   4.167
12821TIP3    H238409   2.830   4.654   4.256
12822TIP3   OH238410   3.314   3.225   3.227
12822TIP3    H138411   3.304   3.321   3.227
12822TIP3    H238412   3.255   3.195   3.296
12823TIP3   OH238413   7.278   7.543   4.809
12823TIP3    H138414   7.198   7.574   4.852
12823TIP3    H238415   7.286   7.452   4.837
12824TIP3   OH238416   4.704   2.430   6.233
12824TIP3    H138417   4.716   2.414   6.139
12824TIP3    H238418   4.786   2.469   6.262
12825TIP3   OH238419   3.602   3.144   1.608
12825TIP3    H138420   3.530   3.150   1.545
12825TIP3    H238421   3.680   3.131   1.554
12826TIP3   OH238422   7.646   2.539   5.010
12826TIP3    H138423   7.731   2.535   4.966
12826TIP3    H238424   7.664   2.583   5.093
12827TIP3   OH238425   8.139   7.080   4.036
12827TIP3    H138426   8.184   7.125   3.965
12827TIP3    H238427   8.096   7.149   4.086
12828TIP3   OH238428   6.756   7.525   4.079
12828TIP3    H138429   6.823   7.571   4.130
12828TIP3    H238430   6.694   7.492   4.145
12829TIP3   OH238431   5.726   1.200   5.791
12829TIP3    H138432   5.654   1.262   5.779
12829TIP3    H238433   5.685   1.123   5.830
12830TIP3   OH238434   7.056   2.883   2.186
12830TIP3    H138435   7.044   2.794   2.218
12830TIP3    H238436   7.141   2.882   2.142
12831TIP3   OH238437   6.551   7.034   3.392
12831TIP3    H138438   6.646   7.039   3.401
12831TIP3    H238439   6.536   6.960   3.333
12832TIP3   OH238440   5.512   0.635   3.582
12832TIP3    H138441   5.519   0.708   3.642
12832TIP3    H238442   5.571   0.568   3.619
12833TIP3   OH238443   1.202   5.016   1.910
12833TIP3    H138444   1.245   5.017   1.995
12833TIP3    H238445   1.269   4.985   1.849
12834TIP3   OH238446   6.586   2.613   5.818
12834TIP3    H138447   6.567   2.696   5.862
12834TIP3    H238448   6.503   2.565   5.822
12835TIP3   OH238449   1.578   0.973   3.502
12835TIP3    H138450   1.545   0.984   3.413
12835TIP3    H238451   1.616   1.058   3.524
12836TIP3   OH238452   2.615   4.603   1.544
12836TIP3    H138453   2.640   4.592   1.453
12836TIP3    H238454   2.698   4.603   1.592
12837TIP3   OH238455   2.812   1.113   1.238
12837TIP3    H138456   2.846   1.203   1.239
12837TIP3    H238457   2.826   1.083   1.148
12838TIP3   OH238458   2.894   5.125   0.938
12838TIP3    H138459   2.932   5.037   0.938
12838TIP3    H238460   2.960   5.178   0.983
12839TIP3   OH238461   3.308   3.804   5.827
12839TIP3    H138462   3.248   3.759   5.768
12839TIP3    H238463   3.271   3.892   5.836
12840TIP3   OH238464   0.925   4.367   6.476
12840TIP3    H138465   0.920   4.401   6.387
12840TIP3    H238466   0.941   4.273   6.464
12841TIP3   OH238467   2.281   7.438   4.553
12841TIP3    H138468   2.216   7.436   4.482
12841TIP3    H238469   2.228   7.441   4.633
12842TIP3   OH238470   1.351   2.335   0.815
12842TIP3    H138471   1.348   2.339   0.719
12842TIP3    H238472   1.444   2.342   0.836
12843TIP3   OH238473   2.230   5.294   2.510
12843TIP3    H138474   2.192   5.317   2.426
12843TIP3    H238475   2.167   5.326   2.574
12844TIP3   OH238476   6.941   6.037   1.500
12844TIP3    H138477   6.912   5.953   1.464
12844TIP3    H238478   7.008   6.013   1.564
12845TIP3   OH238479   4.751   2.632   6.476
12845TIP3    H138480   4.828   2.590   6.437
12845TIP3    H238481   4.757   2.723   6.447
12846TIP3   OH238482   6.544   4.746   4.618
12846TIP3    H138483   6.636   4.762   4.635
12846TIP3    H238484   6.521   4.807   4.548
12847TIP3   OH238485   2.020   5.541   6.286
12847TIP3    H138486   2.058   5.625   6.264
12847TIP3    H238487   2.002   5.546   6.380
12848TIP3   OH238488   4.074   4.631   3.850
12848TIP3    H138489   3.989   4.624   3.894
12848TIP3    H238490   4.136   4.595   3.913
12849TIP3   OH238491   2.187   2.945   6.648
12849TIP3    H138492   2.103   2.991   6.646
12849TIP3    H238493   2.239   2.992   6.713
12850TIP3   OH238494   2.730   2.070   0.277
12850TIP3    H138495   2.715   2.077   0.182
12850TIP3    H238496   2.822   2.046   0.285
12851TIP3   OH238497   0.588   3.222   1.789
12851TIP3    H138498   0.600   3.209   1.883
12851TIP3    H238499   0.672   3.196   1.750
12852TIP3   OH238500   2.742   0.925   0.552
12852TIP3    H138501   2.828   0.887   0.572
12852TIP3    H238502   2.734   0.999   0.613
12853TIP3   OH238503   7.936   6.191   6.245
12853TIP3    H138504   7.952   6.274   6.200
12853TIP3    H238505   7.999   6.191   6.318
12854TIP3   OH238506   5.478   3.989   0.405
12854TIP3    H138507   5.425   4.068   0.403
12854TIP3    H238508   5.542   4.005   0.475
12855TIP3   OH238509   4.636   1.983   4.776
12855TIP3    H138510   4.595   1.967   4.690
12855TIP3    H238511   4.562   1.987   4.837
12856TIP3   OH238512   5.281   6.374   1.560
12856TIP3    H138513   5.353   6.361   1.498
12856TIP3    H238514   5.277   6.292   1.608
12857TIP3   OH238515   0.766   5.700   2.885
12857TIP3    H138516   0.794   5.771   2.826
12857TIP3    H238517   0.688   5.735   2.929
12858TIP3   OH238518   7.087   2.206   0.663
12858TIP3    H138519   7.074   2.300   0.670
12858TIP3    H238520   7.143   2.184   0.737
12859TIP3   OH238521   7.095   2.057   5.217
12859TIP3    H138522   7.133   2.039   5.303
12859TIP3    H238523   7.132   2.142   5.192
12860TIP3   OH238524   3.761   2.455   2.078
12860TIP3    H138525   3.830   2.497   2.027
12860TIP3    H238526   3.770   2.361   2.059
12861TIP3   OH238527   5.264   4.091   6.698
12861TIP3    H138528   5.252   4.046   6.615
12861TIP3    H238529   5.336   4.153   6.681
12862TIP3   OH238530   2.044   0.565   1.819
12862TIP3    H138531   1.969   0.533   1.769
12862TIP3    H238532   2.112   0.498   1.807
12863TIP3   OH238533   7.976   3.636   3.807
12863TIP3    H138534   8.032   3.589   3.745
12863TIP3    H238535   7.887   3.619   3.777
12864TIP3   OH238536   1.686   1.664   3.995
12864TIP3    H138537   1.648   1.589   4.041
12864TIP3    H238538   1.639   1.667   3.912
12865TIP3   OH238539   4.482   0.210   2.767
12865TIP3    H138540   4.574   0.207   2.740
12865TIP3    H238541   4.462   0.120   2.792
12866TIP3   OH238542   5.495   2.629   2.516
12866TIP3    H138543   5.499   2.617   2.611
12866TIP3    H238544   5.404   2.656   2.500
12867TIP3   OH238545   6.823   6.081   5.353
12867TIP3    H138546   6.862   6.031   5.425
12867TIP3    H238547   6.878   6.158   5.345
12868TIP3   OH238548   6.414   3.575   2.516
12868TIP3    H138549   6.375   3.566   2.603
12868TIP3    H238550   6.501   3.611   2.533
12869TIP3   OH238551   2.947   1.006   4.673
12869TIP3    H138552   2.930   0.917   4.704
12869TIP3    H238553   3.018   1.038   4.729
12870TIP3   OH238554   0.976   3.584   6.210
12870TIP3    H138555   0.900   3.563   6.155
12870TIP3    H238556   0.977   3.680   6.215
12871TIP3   OH238557   2.737   0.516   3.236
12871TIP3    H138558   2.825   0.544   3.211
12871TIP3    H238559   2.679   0.583   3.199
12872TIP3   OH238560   6.277   2.962   5.958
12872TIP3    H138561   6.272   2.939   6.050
12872TIP3    H238562   6.240   3.050   5.953
12873TIP3   OH238563   6.769   3.839   6.446
12873TIP3    H138564   6.768   3.761   6.502
12873TIP3    H238565   6.679   3.844   6.412
12874TIP3   OH238566   3.049   2.059   6.592
12874TIP3    H138567   3.049   2.029   6.683
12874TIP3    H238568   3.036   1.979   6.540
12875TIP3   OH238569   5.450   2.120   1.258
12875TIP3    H138570   5.479   2.038   1.217
12875TIP3    H238571   5.512   2.186   1.225
12876TIP3   OH238572   5.438   7.113   5.878
12876TIP3    H138573   5.470   7.042   5.823
12876TIP3    H238574   5.441   7.191   5.823
12877TIP3   OH238575   4.203   1.571   2.549
12877TIP3    H138576   4.174   1.526   2.470
12877TIP3    H238577   4.268   1.511   2.588
12878TIP3   OH238578   5.683   0.117   1.733
12878TIP3    H138579   5.756   0.057   1.748
12878TIP3    H238580   5.678   0.170   1.812
12879TIP3   OH238581   2.631   0.792   0.110
12879TIP3    H138582   2.586   0.874   0.129
12879TIP3    H238583   2.619   0.779   0.016
12880TIP3   OH238584   7.332   5.293   5.019
12880TIP3    H138585   7.388   5.356   4.973
12880TIP3    H238586   7.331   5.216   4.963
12881TIP3   OH238587   2.377   7.109   2.191
12881TIP3    H138588   2.426   7.144   2.116
12881TIP3    H238589   2.423   7.029   2.214
12882TIP3   OH238590   0.509   5.776   5.178
12882TIP3    H138591   0.418   5.797   5.159
12882TIP3    H238592   0.512   5.767   5.274
12883TIP3   OH238593   1.429   4.128   0.732
12883TIP3    H138594   1.522   4.123   0.755
12883TIP3    H238595   1.383   4.107   0.814
12884TIP3   OH238596   0.476   0.546   3.585
12884TIP3    H138597   0.453   0.482   3.652
12884TIP3    H238598   0.433   0.627   3.614
12885TIP3   OH238599   3.785   1.732   1.326
12885TIP3    H138600   3.811   1.720   1.235
12885TIP3    H238601   3.780   1.826   1.338
12886TIP3   OH238602   1.364   5.098   2.129
12886TIP3    H138603   1.357   5.192   2.147
12886TIP3    H238604   1.455   5.086   2.101
12887TIP3   OH238605   2.716   3.336   0.685
12887TIP3    H138606   2.761   3.266   0.733
12887TIP3    H238607   2.773   3.412   0.694
12888TIP3   OH238608   3.104   0.897   3.608
12888TIP3    H138609   3.020   0.925   3.570
12888TIP3    H238610   3.150   0.979   3.627
12889TIP3   OH238611   4.464   6.065   3.974
12889TIP3    H138612   4.462   6.094   4.065
12889TIP3    H238613   4.376   6.083   3.941
12890TIP3   OH238614   5.797   1.351   4.740
12890TIP3    H138615   5.805   1.258   4.761
12890TIP3    H238616   5.730   1.354   4.672
12891TIP3   OH238617   7.593   6.131   1.490
12891TIP3    H138618   7.596   6.201   1.556
12891TIP3    H238619   7.613   6.175   1.408
12892TIP3   OH238620   7.689   1.152   5.206
12892TIP3    H138621   7.764   1.146   5.147
12892TIP3    H238622   7.636   1.075   5.185
12893TIP3   OH238623   2.295   1.460   1.121
12893TIP3    H138624   2.281   1.382   1.068
12893TIP3    H238625   2.289   1.430   1.212
12894TIP3   OH238626   7.309   5.448   3.283
12894TIP3    H138627   7.299   5.510   3.211
12894TIP3    H238628   7.221   5.411   3.295
12895TIP3   OH238629   1.512   3.817   6.294
12895TIP3    H138630   1.544   3.802   6.205
12895TIP3    H238631   1.479   3.732   6.323
12896TIP3   OH238632   2.517   3.281   2.557
12896TIP3    H138633   2.551   3.364   2.590
12896TIP3    H238634   2.471   3.242   2.631
12897TIP3   OH238635   6.194   0.426   3.013
12897TIP3    H138636   6.281   0.431   2.973
12897TIP3    H238637   6.170   0.333   3.006
12898TIP3   OH238638   3.787   6.950   3.676
12898TIP3    H138639   3.762   7.041   3.658
12898TIP3    H238640   3.832   6.954   3.760
12899TIP3   OH238641   6.206   0.031   0.263
12899TIP3    H138642   6.185   0.039   0.356
12899TIP3    H238643   6.179  -0.058   0.240
12900TIP3   OH238644   3.165   3.714   2.451
12900TIP3    H138645   3.131   3.634   2.491
12900TIP3    H238646   3.100   3.736   2.384
12901TIP3   OH238647   0.926   6.668   3.949
12901TIP3    H138648   0.841   6.685   3.989
12901TIP3    H238649   0.915   6.692   3.857
12902TIP3   OH238650   7.899   3.906   5.383
12902TIP3    H138651   7.985   3.863   5.383
12902TIP3    H238652   7.848   3.855   5.446
12903TIP3   OH238653   3.817   6.075   3.559
12903TIP3    H138654   3.739   6.033   3.523
12903TIP3    H238655   3.869   6.002   3.594
12904TIP3   OH238656   2.977   6.851   0.348
12904TIP3    H138657   3.024   6.799   0.283
12904TIP3    H238658   3.043   6.908   0.386
12905TIP3   OH238659   0.949   7.048   3.079
12905TIP3    H138660   0.914   7.134   3.101
12905TIP3    H238661   1.017   7.066   3.013
12906TIP3   OH238662   7.942   3.505   3.503
12906TIP3    H138663   7.899   3.462   3.577
12906TIP3    H238664   7.925   3.448   3.428
12907TIP3   OH238665   5.292   6.162   4.408
12907TIP3    H138666   5.268   6.229   4.471
12907TIP3    H238667   5.317   6.086   4.461
12908TIP3   OH238668   5.279   2.958   4.151
12908TIP3    H138669   5.196   3.005   4.149
12908TIP3    H238670   5.337   3.014   4.202
12909TIP3   OH238671   2.192   4.186   3.343
12909TIP3    H138672   2.144   4.222   3.268
12909TIP3    H238673   2.236   4.262   3.382
12910TIP3   OH238674   0.556   7.624   3.694
12910TIP3    H138675   0.597   7.673   3.623
12910TIP3    H238676   0.481   7.677   3.720
12911TIP3   OH238677   4.194   0.764   6.263
12911TIP3    H138678   4.283   0.759   6.231
12911TIP3    H238679   4.140   0.774   6.185
12912TIP3   OH238680   6.182   5.796   0.060
12912TIP3    H138681   6.177   5.785   0.155
12912TIP3    H238682   6.138   5.880   0.043
12913TIP3   OH238683   6.109   1.026   1.610
12913TIP3    H138684   6.086   1.119   1.612
12913TIP3    H238685   6.038   0.982   1.656
12914TIP3   OH238686   1.576   1.912   4.314
12914TIP3    H138687   1.524   1.853   4.369
12914TIP3    H238688   1.544   1.895   4.225
12915TIP3   OH238689   3.392   7.394   6.684
12915TIP3    H138690   3.361   7.357   6.767
12915TIP3    H238691   3.311   7.417   6.637
12916TIP3   OH238692   5.508   3.382   4.306
12916TIP3    H138693   5.416   3.401   4.324
12916TIP3    H238694   5.554   3.463   4.326
12917TIP3   OH238695   0.285   1.524   4.476
12917TIP3    H138696   0.272   1.462   4.405
12917TIP3    H238697   0.326   1.601   4.435
12918TIP3   OH238698   2.767   3.841   5.553
12918TIP3    H138699   2.842   3.870   5.501
12918TIP3    H238700   2.791   3.860   5.643
12919TIP3   OH238701   7.206   5.948   5.459
12919TIP3    H138702   7.123   5.935   5.506
12919TIP3    H238703   7.221   6.042   5.463
12920TIP3   OH238704   7.761   4.452   3.264
12920TIP3    H138705   7.804   4.493   3.339
12920TIP3    H238706   7.833   4.429   3.205
12921TIP3   OH238707   1.418   3.240   2.328
12921TIP3    H138708   1.441   3.327   2.361
12921TIP3    H238709   1.420   3.250   2.233
12922TIP3   OH238710   1.232   5.582   5.302
12922TIP3    H138711   1.291   5.645   5.259
12922TIP3    H238712   1.209   5.520   5.233
12923TIP3   OH238713   5.709   5.520   4.128
12923TIP3    H138714   5.767   5.584   4.086
12923TIP3    H238715   5.708   5.446   4.068
12924TIP3   OH238716   6.876   2.601   3.260
12924TIP3    H138717   6.925   2.672   3.219
12924TIP3    H238718   6.942   2.555   3.314
12925TIP3   OH238719   6.493   7.417   1.772
12925TIP3    H138720   6.477   7.365   1.851
12925TIP3    H238721   6.408   7.416   1.726
12926TIP3   OH238722   2.801   0.156   5.523
12926TIP3    H138723   2.790   0.071   5.565
12926TIP3    H238724   2.879   0.146   5.469
12927TIP3   OH238725   2.932   5.303   4.673
12927TIP3    H138726   2.950   5.209   4.681
12927TIP3    H238727   2.977   5.343   4.748
12928TIP3   OH238728   0.755   0.681   6.022
12928TIP3    H138729   0.819   0.712   5.958
12928TIP3    H238730   0.686   0.748   6.021
12929TIP3   OH238731   5.465   3.258   5.706
12929TIP3    H138732   5.530   3.190   5.722
12929TIP3    H238733   5.394   3.239   5.768
12930TIP3   OH238734   5.854   4.709   5.135
12930TIP3    H138735   5.818   4.645   5.197
12930TIP3    H238736   5.931   4.745   5.180
12931TIP3   OH238737   4.485   0.540   0.620
12931TIP3    H138738   4.550   0.570   0.556
12931TIP3    H238739   4.402   0.576   0.589
12932TIP3   OH238740   4.682   1.693   2.225
12932TIP3    H138741   4.607   1.687   2.285
12932TIP3    H238742   4.749   1.740   2.275
12933TIP3   OH238743   3.279   1.388   1.433
12933TIP3    H138744   3.232   1.305   1.434
12933TIP3    H238745   3.368   1.365   1.461
12934TIP3   OH238746   4.310   2.695   5.845
12934TIP3    H138747   4.360   2.614   5.836
12934TIP3    H238748   4.237   2.673   5.902
12935TIP3   OH238749   4.924   0.178   1.691
12935TIP3    H138750   4.904   0.086   1.673
12935TIP3    H238751   5.019   0.181   1.703
12936TIP3   OH238752   3.357   1.193   2.004
12936TIP3    H138753   3.438   1.210   2.053
12936TIP3    H238754   3.369   1.242   1.922
12937TIP3   OH238755   7.769   0.283   3.436
12937TIP3    H138756   7.726   0.216   3.489
12937TIP3    H238757   7.698   0.321   3.383
12938TIP3   OH238758   0.639   3.473   6.662
12938TIP3    H138759   0.674   3.405   6.605
12938TIP3    H238760   0.686   3.462   6.745
12939TIP3   OH238761   6.323   4.912   5.315
12939TIP3    H138762   6.355   4.870   5.235
12939TIP3    H238763   6.335   5.006   5.299
12940TIP3   OH238764   5.354   1.814   2.375
12940TIP3    H138765   5.400   1.750   2.430
12940TIP3    H238766   5.401   1.811   2.291
12941TIP3   OH238767   4.250   3.784   5.601
12941TIP3    H138768   4.239   3.860   5.544
12941TIP3    H238769   4.162   3.762   5.630
12942TIP3   OH238770   1.508   3.811   0.865
12942TIP3    H138771   1.533   3.903   0.875
12942TIP3    H238772   1.503   3.777   0.954
12943TIP3   OH238773   7.587   1.526   0.464
12943TIP3    H138774   7.574   1.583   0.389
12943TIP3    H238775   7.682   1.524   0.477
12944TIP3   OH238776   6.462   5.249   0.691
12944TIP3    H138777   6.451   5.322   0.752
12944TIP3    H238778   6.393   5.263   0.625
12945TIP3   OH238779   3.164   5.499   6.099
12945TIP3    H138780   3.177   5.564   6.029
12945TIP3    H238781   3.240   5.511   6.156
12946TIP3   OH238782   0.424   7.156   5.210
12946TIP3    H138783   0.395   7.118   5.126
12946TIP3    H238784   0.405   7.087   5.274
12947TIP3   OH238785   5.656   0.148   6.024
12947TIP3    H138786   5.662   0.210   6.097
12947TIP3    H238787   5.624   0.200   5.951
12948TIP3   OH238788   7.602   0.862   5.583
12948TIP3    H138789   7.665   0.890   5.517
12948TIP3    H238790   7.655   0.822   5.651
12949TIP3   OH238791   3.789   5.832   3.001
12949TIP3    H138792   3.713   5.792   3.044
12949TIP3    H238793   3.778   5.926   3.014
12950TIP3   OH238794   8.104   1.196   2.312
12950TIP3    H138795   8.080   1.112   2.350
12950TIP3    H238796   8.095   1.258   2.385
12951TIP3   OH238797   2.129   6.609   3.077
12951TIP3    H138798   2.096   6.520   3.072
12951TIP3    H238799   2.050   6.664   3.081
12952TIP3   OH238800   7.071   7.164   0.957
12952TIP3    H138801   7.001   7.167   0.892
12952TIP3    H238802   7.069   7.075   0.991
12953TIP3   OH238803   4.368   2.699   4.208
12953TIP3    H138804   4.429   2.736   4.272
12953TIP3    H238805   4.413   2.622   4.174
12954TIP3   OH238806   5.539   4.610   1.792
12954TIP3    H138807   5.564   4.674   1.859
12954TIP3    H238808   5.620   4.564   1.771
12955TIP3   OH238809   4.073   2.729   2.982
12955TIP3    H138810   4.087   2.676   3.061
12955TIP3    H238811   3.979   2.724   2.967
12956TIP3   OH238812   3.026   6.689   5.285
12956TIP3    H138813   3.095   6.631   5.316
12956TIP3    H238814   3.041   6.695   5.191
12957TIP3   OH238815   7.447   0.880   6.577
12957TIP3    H138816   7.477   0.858   6.665
12957TIP3    H238817   7.407   0.966   6.586
12958TIP3   OH238818   7.023   7.172   0.351
12958TIP3    H138819   6.945   7.218   0.320
12958TIP3    H238820   7.096   7.218   0.310
12959TIP3   OH238821   0.978   0.404   5.162
12959TIP3    H138822   1.053   0.345   5.168
12959TIP3    H238823   1.004   0.471   5.099
12960TIP3   OH238824   0.847   6.880   0.603
12960TIP3    H138825   0.809   6.960   0.565
12960TIP3    H238826   0.925   6.864   0.550
12961TIP3   OH238827   2.850   6.552   2.536
12961TIP3    H138828   2.858   6.515   2.448
12961TIP3    H238829   2.758   6.542   2.558
12962TIP3   OH238830   5.637   5.385   5.804
12962TIP3    H138831   5.546   5.411   5.790
12962TIP3    H238832   5.631   5.300   5.848
12963TIP3   OH238833   4.659   7.197   3.520
12963TIP3    H138834   4.636   7.240   3.603
12963TIP3    H238835   4.755   7.193   3.522
12964TIP3   OH238836   0.296   2.271   1.983
12964TIP3    H138837   0.320   2.267   1.891
12964TIP3    H238838   0.362   2.217   2.027
12965TIP3   OH238839   1.693   0.038   1.614
12965TIP3    H138840   1.696   0.085   1.530
12965TIP3    H238841   1.692  -0.054   1.590
12966TIP3   OH238842   7.835   0.483   3.746
12966TIP3    H138843   7.828   0.520   3.658
12966TIP3    H238844   7.885   0.547   3.795
12967TIP3   OH238845   0.542   4.506   4.681
12967TIP3    H138846   0.626   4.504   4.725
12967TIP3    H238847   0.479   4.480   4.748
12968TIP3   OH238848   4.180   4.012   4.122
12968TIP3    H138849   4.187   3.957   4.200
12968TIP3    H238850   4.086   4.025   4.110
12969TIP3   OH238851   0.278   2.958   4.625
12969TIP3    H138852   0.296   2.958   4.531
12969TIP3    H238853   0.335   3.027   4.660
12970TIP3   OH238854   6.361   0.836   3.899
12970TIP3    H138855   6.411   0.763   3.862
12970TIP3    H238856   6.277   0.798   3.925
12971TIP3   OH238857   3.330   4.342   0.683
12971TIP3    H138858   3.355   4.271   0.625
12971TIP3    H238859   3.406   4.354   0.740
12972TIP3   OH238860   0.310   1.613   1.205
12972TIP3    H138861   0.216   1.627   1.215
12972TIP3    H238862   0.346   1.702   1.199
12973TIP3   OH238863   0.950   2.491   1.238
12973TIP3    H138864   1.038   2.528   1.232
12973TIP3    H238865   0.911   2.508   1.152
12974TIP3   OH238866   7.116   4.047   5.177
12974TIP3    H138867   7.127   4.080   5.267
12974TIP3    H238868   7.170   4.105   5.123
12975TIP3   OH238869   7.530   7.055   6.645
12975TIP3    H138870   7.451   7.044   6.698
12975TIP3    H238871   7.524   7.144   6.611
12976TIP3   OH238872   1.246   4.203   5.755
12976TIP3    H138873   1.228   4.257   5.678
12976TIP3    H238874   1.335   4.172   5.743
12977TIP3   OH238875   1.036   7.747   4.674
12977TIP3    H138876   1.094   7.672   4.682
12977TIP3    H238877   1.083   7.809   4.619
12978TIP3   OH238878   6.913   1.621   3.015
12978TIP3    H138879   6.941   1.559   2.947
12978TIP3    H238880   6.919   1.707   2.974
12979TIP3   OH238881   0.174   4.122   5.527
12979TIP3    H138882   0.178   4.122   5.622
12979TIP3    H238883   0.087   4.088   5.506
12980TIP3   OH238884   3.017   7.121   5.784
12980TIP3    H138885   2.922   7.115   5.769
12980TIP3    H238886   3.052   7.157   5.703
12981TIP3   OH238887   0.758   0.418   0.710
12981TIP3    H138888   0.754   0.426   0.615
12981TIP3    H238889   0.786   0.505   0.740
12982TIP3   OH238890   5.788   2.221   0.815
12982TIP3    H138891   5.704   2.184   0.843
12982TIP3    H238892   5.800   2.298   0.872
12983TIP3   OH238893   2.191   6.902   0.962
12983TIP3    H138894   2.250   6.916   0.888
12983TIP3    H238895   2.241   6.847   1.022
12984TIP3   OH238896   4.018   6.665   3.823
12984TIP3    H138897   4.063   6.606   3.762
12984TIP3    H238898   4.030   6.624   3.908
12985TIP3   OH238899   3.851   2.802   1.620
12985TIP3    H138900   3.854   2.882   1.567
12985TIP3    H238901   3.901   2.825   1.699
12986TIP3   OH238902   4.468   1.493   3.044
12986TIP3    H138903   4.514   1.501   2.960
12986TIP3    H238904   4.537   1.470   3.106
12987TIP3   OH238905   7.941   1.852   6.554
12987TIP3    H138906   7.914   1.798   6.480
12987TIP3    H238907   7.923   1.799   6.632
12988TIP3   OH238908   7.061   1.916   3.373
12988TIP3    H138909   7.124   1.987   3.367
12988TIP3    H238910   7.041   1.909   3.466
12989TIP3   OH238911   3.603   7.033   6.015
12989TIP3    H138912   3.622   7.080   5.934
12989TIP3    H238913   3.521   6.986   5.998
12990TIP3   OH238914   1.297   4.259   4.843
12990TIP3    H138915   1.242   4.187   4.811
12990TIP3    H238916   1.381   4.245   4.799
12991TIP3   OH238917   6.742   0.720   1.525
12991TIP3    H138918   6.690   0.773   1.586
12991TIP3    H238919   6.684   0.649   1.499
12992TIP3   OH238920   0.234   1.931   3.672
12992TIP3    H138921   0.184   1.849   3.669
12992TIP3    H238922   0.190   1.989   3.611
12993TIP3   OH238923   2.953   2.682   5.203
12993TIP3    H138924   2.874   2.629   5.205
12993TIP3    H238925   2.953   2.722   5.116
12994TIP3   OH238926   7.452   6.941   3.670
12994TIP3    H138927   7.424   6.898   3.751
12994TIP3    H238928   7.388   6.913   3.604
12995TIP3   OH238929   7.126   0.729   6.586
12995TIP3    H138930   7.082   0.655   6.544
12995TIP3    H238931   7.157   0.695   6.670
12996TIP3   OH238932   5.241   7.082   2.958
12996TIP3    H138933   5.148   7.086   2.936
12996TIP3    H238934   5.247   7.014   3.025
12997TIP3   OH238935   4.191   5.099   4.602
12997TIP3    H138936   4.107   5.081   4.644
12997TIP3    H238937   4.174   5.089   4.508
12998TIP3   OH238938   1.800   4.057   5.725
12998TIP3    H138939   1.830   4.041   5.814
12998TIP3    H238940   1.742   3.982   5.705
12999TIP3   OH238941   6.985   1.946   3.642
12999TIP3    H138942   7.027   2.021   3.683
12999TIP3    H238943   6.898   1.942   3.684
13000TIP3   OH238944   7.381   3.720   4.740
13000TIP3    H138945   7.442   3.792   4.754
13000TIP3    H238946   7.381   3.672   4.823
13001TIP3   OH238947   6.153   1.696   6.183
13001TIP3    H138948   6.094   1.636   6.229
13001TIP3    H238949   6.228   1.706   6.242
13002TIP3   OH238950   5.648   7.627   1.524
13002TIP3    H138951   5.739   7.649   1.543
13002TIP3    H238952   5.623   7.564   1.592
13003TIP3   OH238953   6.993   2.929   2.575
13003TIP3    H138954   6.925   2.980   2.529
13003TIP3    H238955   6.951   2.902   2.657
13004TIP3   OH238956   2.125   2.638   0.350
13004TIP3    H138957   2.121   2.641   0.255
13004TIP3    H238958   2.190   2.571   0.370
13005TIP3   OH238959   7.241   0.018   1.039
13005TIP3    H138960   7.330   0.031   1.008
13005TIP3    H238961   7.239   0.060   1.125
13006TIP3   OH238962   3.220   5.527   0.421
13006TIP3    H138963   3.310   5.505   0.399
13006TIP3    H238964   3.198   5.469   0.494
13007TIP3   OH238965   1.283   0.520   2.952
13007TIP3    H138966   1.299   0.503   2.859
13007TIP3    H238967   1.323   0.605   2.968
13008TIP3   OH238968   0.875   0.798   2.186
13008TIP3    H138969   0.832   0.862   2.130
13008TIP3    H238970   0.803   0.749   2.228
13009TIP3   OH238971   5.031   6.596   2.223
13009TIP3    H138972   5.077   6.680   2.219
13009TIP3    H238973   5.092   6.536   2.266
13010TIP3   OH238974   4.158   2.261   5.870
13010TIP3    H138975   4.148   2.330   5.804
13010TIP3    H238976   4.215   2.299   5.936
13011TIP3   OH238977   0.320   0.125   3.279
13011TIP3    H138978   0.410   0.134   3.249
13011TIP3    H238979   0.320   0.164   3.366
13012TIP3   OH238980   5.242   0.526   3.337
13012TIP3    H138981   5.228   0.620   3.338
13012TIP3    H238982   5.197   0.495   3.259
13013TIP3   OH238983   3.619   7.299   5.311
13013TIP3    H138984   3.580   7.365   5.369
13013TIP3    H238985   3.672   7.244   5.368
13014TIP3   OH238986   7.935   4.639   0.871
13014TIP3    H138987   8.020   4.595   0.872
13014TIP3    H238988   7.903   4.627   0.782
13015TIP3   OH238989   0.347   4.993   4.798
13015TIP3    H138990   0.442   4.991   4.807
13015TIP3    H238991   0.318   4.907   4.830
13016TIP3   OH238992   1.091   1.001   5.982
13016TIP3    H138993   1.177   1.042   5.995
13016TIP3    H238994   1.052   0.998   6.070
13017TIP3   OH238995   6.067   4.705   4.621
13017TIP3    H138996   6.048   4.629   4.676
13017TIP3    H238997   6.152   4.686   4.582
13018TIP3   OH238998   3.401   0.663   2.456
13018TIP3    H138999   3.333   0.672   2.388
13018TIP3    H239000   3.425   0.753   2.478
13019TIP3   OH239001   2.330   6.172   3.522
13019TIP3    H139002   2.315   6.078   3.507
13019TIP3    H239003   2.424   6.183   3.509
13020TIP3   OH239004   6.779   3.353   6.188
13020TIP3    H139005   6.875   3.361   6.190
13020TIP3    H239006   6.760   3.325   6.099
13021TIP3   OH239007   2.434   5.784   1.189
13021TIP3    H139008   2.370   5.855   1.194
13021TIP3    H239009   2.516   5.828   1.164
13022TIP3   OH239010   1.728   4.862   5.533
13022TIP3    H139011   1.794   4.931   5.541
13022TIP3    H239012   1.777   4.780   5.543
13023TIP3   OH239013   4.499   2.497   6.440
13023TIP3    H139014   4.505   2.448   6.357
13023TIP3    H239015   4.589   2.524   6.458
13024TIP3   OH239016   5.632   5.716   5.331
13024TIP3    H139017   5.644   5.808   5.356
13024TIP3    H239018   5.680   5.667   5.398
13025TIP3   OH239019   4.344   1.990   0.402
13025TIP3    H139020   4.417   2.041   0.438
13025TIP3    H239021   4.386   1.925   0.347
13026TIP3   OH239022   1.031   4.455   2.468
13026TIP3    H139023   0.945   4.494   2.451
13026TIP3    H239024   1.030   4.373   2.418
13027TIP3   OH239025   5.408   3.106   0.208
13027TIP3    H139026   5.453   3.159   0.142
13027TIP3    H239027   5.412   3.016   0.173
13028TIP3   OH239028   2.122   4.286   0.361
13028TIP3    H139029   2.217   4.274   0.354
13028TIP3    H239030   2.103   4.270   0.453
13029TIP3   OH239031   5.883   4.406   3.828
13029TIP3    H139032   5.870   4.410   3.922
13029TIP3    H239033   5.964   4.456   3.813
13030TIP3   OH239034   0.746   2.504   1.432
13030TIP3    H139035   0.664   2.486   1.385
13030TIP3    H239036   0.812   2.513   1.363
13031TIP3   OH239037   5.791   7.725   3.578
13031TIP3    H139038   5.856   7.682   3.523
13031TIP3    H239039   5.827   7.813   3.592
13032TIP3   OH239040   0.207   5.956   6.536
13032TIP3    H139041   0.128   5.918   6.498
13032TIP3    H239042   0.260   5.980   6.460
13033TIP3   OH239043   1.759   2.611   2.501
13033TIP3    H139044   1.719   2.674   2.562
13033TIP3    H239045   1.842   2.588   2.541
13034TIP3   OH239046   1.255   7.567   0.325
13034TIP3    H139047   1.265   7.593   0.233
13034TIP3    H239048   1.219   7.645   0.368
13035TIP3   OH239049   2.530   5.748   4.659
13035TIP3    H139050   2.591   5.712   4.723
13035TIP3    H239051   2.487   5.670   4.621
13036TIP3   OH239052   2.637   7.178   4.238
13036TIP3    H139053   2.697   7.181   4.163
13036TIP3    H239054   2.550   7.172   4.198
13037TIP3   OH239055   0.079   5.502   3.812
13037TIP3    H139056   0.025   5.579   3.832
13037TIP3    H239057   0.107   5.469   3.898
13038TIP3   OH239058   1.499   4.643   4.447
13038TIP3    H139059   1.537   4.585   4.381
13038TIP3    H239060   1.570   4.660   4.508
13039TIP3   OH239061   7.664   1.193   1.154
13039TIP3    H139062   7.569   1.183   1.150
13039TIP3    H239063   7.697   1.103   1.155
13040TIP3   OH239064   2.404   5.171   3.097
13040TIP3    H139065   2.370   5.223   3.024
13040TIP3    H239066   2.479   5.222   3.130
13041TIP3   OH239067   5.016   1.293   4.070
13041TIP3    H139068   5.084   1.360   4.076
13041TIP3    H239069   4.939   1.334   4.111
13042TIP3   OH239070   6.464   4.835   0.920
13042TIP3    H139071   6.538   4.896   0.926
13042TIP3    H239072   6.409   4.856   0.996
13043TIP3   OH239073   6.021   2.224   6.262
13043TIP3    H139074   5.940   2.207   6.310
13043TIP3    H239075   6.005   2.191   6.174
13044TIP3   OH239076   5.882   4.714   2.090
13044TIP3    H139077   5.940   4.784   2.060
13044TIP3    H239078   5.933   4.634   2.079
13045TIP3   OH239079   4.868   0.549   0.948
13045TIP3    H139080   4.895   0.612   0.881
13045TIP3    H239081   4.940   0.486   0.952
13046TIP3   OH239082   6.823   5.321   5.504
13046TIP3    H139083   6.887   5.347   5.438
13046TIP3    H239084   6.870   5.327   5.587
13047TIP3   OH239085   3.538   4.242   2.337
13047TIP3    H139086   3.585   4.321   2.363
13047TIP3    H239087   3.527   4.250   2.242
13048TIP3   OH239088   6.109   1.419   0.292
13048TIP3    H139089   6.035   1.409   0.232
13048TIP3    H239090   6.186   1.406   0.238
13049TIP3   OH239091   2.317   1.720   0.269
13049TIP3    H139092   2.227   1.738   0.243
13049TIP3    H239093   2.334   1.778   0.343
13050TIP3   OH239094   3.674   7.422   1.107
13050TIP3    H139095   3.585   7.422   1.143
13050TIP3    H239096   3.711   7.506   1.134
13051TIP3   OH239097   6.698   2.273   0.829
13051TIP3    H139098   6.755   2.199   0.806
13051TIP3    H239099   6.718   2.339   0.763
13052TIP3   OH239100   2.378   1.923   3.301
13052TIP3    H139101   2.302   1.886   3.256
13052TIP3    H239102   2.416   1.984   3.238
13053TIP3   OH239103   4.900   6.445   3.576
13053TIP3    H139104   4.859   6.390   3.644
13053TIP3    H239105   4.827   6.484   3.529
13054TIP3   OH239106   4.607   4.976   6.600
13054TIP3    H139107   4.692   5.017   6.586
13054TIP3    H239108   4.605   4.957   6.694
13055TIP3   OH239109   1.134   1.728   2.108
13055TIP3    H139110   1.082   1.744   2.029
13055TIP3    H239111   1.069   1.720   2.178
13056TIP3   OH239112   0.954   4.884   6.789
13056TIP3    H139113   1.006   4.886   6.709
13056TIP3    H239114   0.867   4.856   6.761
13057TIP3   OH239115   8.139   1.590   0.610
13057TIP3    H139116   8.110   1.673   0.646
13057TIP3    H239117   8.090   1.523   0.658
13058TIP3   OH239118   1.137   4.523   3.804
13058TIP3    H139119   1.127   4.443   3.752
13058TIP3    H239120   1.215   4.507   3.857
13059TIP3   OH239121   1.125   3.810   0.659
13059TIP3    H139122   1.121   3.789   0.753
13059TIP3    H239123   1.091   3.732   0.616
13060TIP3   OH239124   4.721   0.367   2.374
13060TIP3    H139125   4.626   0.359   2.376
13060TIP3    H239126   4.738   0.461   2.383
13061TIP3   OH239127   1.533   3.478   4.229
13061TIP3    H139128   1.458   3.515   4.276
13061TIP3    H239129   1.494   3.419   4.165
13062TIP3   OH239130   5.201   1.018   6.203
13062TIP3    H139131   5.210   0.988   6.112
13062TIP3    H239132   5.135   0.960   6.241
13063TIP3   OH239133   2.255   0.652   3.476
13063TIP3    H139134   2.204   0.690   3.405
13063TIP3    H239135   2.267   0.725   3.538
13064TIP3   OH239136   1.176   2.095   5.481
13064TIP3    H139137   1.254   2.083   5.427
13064TIP3    H239138   1.130   2.011   5.477
13065TIP3   OH239139   5.877   1.854   5.366
13065TIP3    H139140   5.917   1.916   5.426
13065TIP3    H239141   5.786   1.848   5.396
13066TIP3   OH239142   4.245   3.333   5.682
13066TIP3    H139143   4.279   3.294   5.763
13066TIP3    H239144   4.320   3.337   5.623
13067TIP3   OH239145   4.686   3.983   6.237
13067TIP3    H139146   4.657   3.948   6.321
13067TIP3    H239147   4.778   4.004   6.250
13068TIP3   OH239148   4.263   0.593   2.173
13068TIP3    H139149   4.354   0.567   2.182
13068TIP3    H239150   4.265   0.689   2.168
13069TIP3   OH239151   2.592   1.285   0.448
13069TIP3    H139152   2.551   1.297   0.363
13069TIP3    H239153   2.666   1.346   0.449
13070TIP3   OH239154   8.252   6.447   4.636
13070TIP3    H139155   8.347   6.458   4.638
13070TIP3    H239156   8.238   6.353   4.651
13071TIP3   OH239157   0.032   1.482   6.554
13071TIP3    H139158   0.064   1.565   6.590
13071TIP3    H239159   0.066   1.479   6.465
13072TIP3   OH239160   7.175   0.120   6.685
13072TIP3    H139161   7.269   0.103   6.689
13072TIP3    H239162   7.159   0.180   6.758
13073TIP3   OH239163   7.836   0.556   6.408
13073TIP3    H139164   7.852   0.513   6.324
13073TIP3    H239165   7.760   0.510   6.445
13074TIP3   OH239166   3.213   3.717   6.750
13074TIP3    H139167   3.208   3.801   6.706
13074TIP3    H239168   3.249   3.657   6.684
13075TIP3   OH239169   1.183   0.568   6.110
13075TIP3    H139170   1.137   0.569   6.026
13075TIP3    H239171   1.254   0.630   6.099
13076TIP3   OH239172   0.528   6.825   1.699
13076TIP3    H139173   0.521   6.860   1.611
13076TIP3    H239174   0.479   6.743   1.696
13077TIP3   OH239175   2.811   3.131   2.341
13077TIP3    H139176   2.888   3.099   2.294
13077TIP3    H239177   2.808   3.225   2.322
13078TIP3   OH239178   6.184   7.487   0.275
13078TIP3    H139179   6.231   7.471   0.357
13078TIP3    H239180   6.102   7.528   0.302
13079TIP3   OH239181   7.071   0.701   4.576
13079TIP3    H139182   7.074   0.771   4.641
13079TIP3    H239183   7.074   0.745   4.491
13080TIP3   OH239184   8.169   5.467   1.071
13080TIP3    H139185   8.239   5.454   1.134
13080TIP3    H239186   8.093   5.423   1.110
13081TIP3   OH239187   2.722   6.420   0.991
13081TIP3    H139188   2.714   6.488   0.925
13081TIP3    H239189   2.659   6.445   1.059
13082TIP3   OH239190   5.129   4.889   5.841
13082TIP3    H139191   5.100   4.880   5.932
13082TIP3    H239192   5.204   4.829   5.834
13083TIP3   OH239193   4.701   3.370   3.359
13083TIP3    H139194   4.778   3.389   3.413
13083TIP3    H239195   4.651   3.308   3.411
13084TIP3   OH239196   6.665   4.534   6.752
13084TIP3    H139197   6.664   4.628   6.774
13084TIP3    H239198   6.575   4.514   6.729
13085TIP3   OH239199   0.841   2.472   3.235
13085TIP3    H139200   0.755   2.436   3.215
13085TIP3    H239201   0.829   2.567   3.231
13086TIP3   OH239202   3.740   6.373   5.088
13086TIP3    H139203   3.788   6.371   5.170
13086TIP3    H239204   3.793   6.427   5.029
13087TIP3   OH239205   2.139   7.542   0.885
13087TIP3    H139206   2.233   7.549   0.868
13087TIP3    H239207   2.099   7.591   0.813
13088TIP3   OH239208   1.746   2.589   0.943
13088TIP3    H139209   1.818   2.586   0.881
13088TIP3    H239210   1.706   2.675   0.929
13089TIP3   OH239211   2.158   6.419   5.605
13089TIP3    H139212   2.072   6.416   5.647
13089TIP3    H239213   2.219   6.392   5.674
13090TIP3   OH239214   3.441   5.417   5.493
13090TIP3    H139215   3.427   5.375   5.408
13090TIP3    H239216   3.495   5.355   5.542
13091TIP3   OH239217   5.672   1.918   3.917
13091TIP3    H139218   5.596   1.889   3.866
13091TIP3    H239219   5.713   1.837   3.947
13092TIP3   OH239220   1.551   4.854   1.054
13092TIP3    H139221   1.483   4.919   1.034
13092TIP3    H239222   1.569   4.812   0.970
13093TIP3   OH239223   4.291   5.611   1.140
13093TIP3    H139224   4.357   5.679   1.148
13093TIP3    H239225   4.337   5.535   1.105
13094TIP3   OH239226   1.590   1.155   6.762
13094TIP3    H139227   1.596   1.063   6.789
13094TIP3    H239228   1.677   1.175   6.727
13095TIP3   OH239229   3.586   2.409   1.663
13095TIP3    H139230   3.619   2.450   1.743
13095TIP3    H239231   3.576   2.481   1.601
13096TIP3   OH239232   4.989   3.559  -0.019
13096TIP3    H139233   5.078   3.537   0.009
13096TIP3    H239234   4.955   3.615   0.050
13097TIP3   OH239235   3.798   4.238   5.494
13097TIP3    H139236   3.854   4.172   5.534
13097TIP3    H239237   3.825   4.321   5.534
13098TIP3   OH239238   4.332   4.370   3.518
13098TIP3    H139239   4.271   4.444   3.519
13098TIP3    H239240   4.355   4.356   3.609
13099TIP3   OH239241   2.167   1.059   5.606
13099TIP3    H139242   2.130   0.972   5.593
13099TIP3    H239243   2.217   1.075   5.526
13100TIP3   OH239244   7.872   5.746   5.406
13100TIP3    H139245   7.925   5.706   5.475
13100TIP3    H239246   7.883   5.689   5.330
13101TIP3   OH239247   6.264   1.168   5.078
13101TIP3    H139248   6.264   1.074   5.097
13101TIP3    H239249   6.356   1.188   5.058
13102TIP3   OH239250   7.944   5.085   1.120
13102TIP3    H139251   7.854   5.082   1.089
13102TIP3    H239252   7.950   5.015   1.185
13103TIP3   OH239253   8.189   2.155   2.722
13103TIP3    H139254   8.109   2.205   2.703
13103TIP3    H239255   8.260   2.209   2.688
13104TIP3   OH239256   7.334   2.872   3.418
13104TIP3    H139257   7.278   2.948   3.407
13104TIP3    H239258   7.417   2.906   3.452
13105TIP3   OH239259   1.548   1.318   0.046
13105TIP3    H139260   1.454   1.338   0.046
13105TIP3    H239261   1.553   1.225   0.024
13106TIP3   OH239262   1.988   6.644   0.847
13106TIP3    H139263   2.041   6.717   0.878
13106TIP3    H239264   2.017   6.569   0.899
13107TIP3   OH239265   2.801   1.707   5.703
13107TIP3    H139266   2.872   1.771   5.699
13107TIP3    H239267   2.809   1.667   5.790
13108TIP3   OH239268   4.988   2.269   0.700
13108TIP3    H139269   5.042   2.233   0.630
13108TIP3    H239270   4.915   2.311   0.655
13109TIP3   OH239271   2.502   2.958   2.703
13109TIP3    H139272   2.595   2.979   2.696
13109TIP3    H239273   2.459   3.044   2.709
13110TIP3   OH239274   1.559   0.694   1.717
13110TIP3    H139275   1.609   0.686   1.798
13110TIP3    H239276   1.504   0.771   1.730
13111TIP3   OH239277   7.030   3.200   3.233
13111TIP3    H139278   6.977   3.170   3.307
13111TIP3    H239279   6.967   3.218   3.164
13112TIP3   OH239280   0.851   4.777   4.095
13112TIP3    H139281   0.890   4.780   4.008
13112TIP3    H239282   0.895   4.847   4.143
13113TIP3   OH239283   5.168   1.334   6.274
13113TIP3    H139284   5.128   1.247   6.267
13113TIP3    H239285   5.128   1.384   6.202
13114TIP3   OH239286   6.028   3.657   0.212
13114TIP3    H139287   5.948   3.630   0.168
13114TIP3    H239288   6.008   3.648   0.305
13115TIP3   OH239289   4.641   1.069   1.078
13115TIP3    H139290   4.592   0.993   1.106
13115TIP3    H239291   4.722   1.034   1.041
13116TIP3   OH239292   3.678   4.854   4.150
13116TIP3    H139293   3.750   4.889   4.098
13116TIP3    H239294   3.684   4.759   4.138
13117TIP3   OH239295   7.169   6.840   2.764
13117TIP3    H139296   7.241   6.855   2.826
13117TIP3    H239297   7.213   6.818   2.682
13118TIP3   OH239298   5.013   7.324   6.660
13118TIP3    H139299   4.932   7.312   6.709
13118TIP3    H239300   5.017   7.249   6.601
13119TIP3   OH239301   1.264   1.811   1.019
13119TIP3    H139302   1.204   1.853   1.081
13119TIP3    H239303   1.268   1.720   1.048
13120TIP3   OH239304   5.792   3.339   5.942
13120TIP3    H139305   5.844   3.401   5.891
13120TIP3    H239306   5.843   3.323   6.021
13121TIP3   OH239307   6.097   1.034   0.845
13121TIP3    H139308   6.129   1.114   0.887
13121TIP3    H239309   6.169   1.006   0.788
13122TIP3   OH239310   3.178   7.091   3.384
13122TIP3    H139311   3.096   7.048   3.362
13122TIP3    H239312   3.246   7.030   3.356
13123TIP3   OH239313   0.596   0.256   3.438
13123TIP3    H139314   0.662   0.274   3.505
13123TIP3    H239315   0.567   0.343   3.409
13124TIP3   OH239316   4.481   2.979   5.026
13124TIP3    H139317   4.440   2.922   4.961
13124TIP3    H239318   4.574   2.975   5.006
13125TIP3   OH239319   8.098   7.768   1.486
13125TIP3    H139320   8.165   7.703   1.464
13125TIP3    H239321   8.147   7.850   1.498
13126TIP3   OH239322   3.419   2.908   4.141
13126TIP3    H139323   3.489   2.961   4.178
13126TIP3    H239324   3.451   2.882   4.055
13127TIP3   OH239325   5.646   3.951   6.194
13127TIP3    H139326   5.703   3.977   6.121
13127TIP3    H239327   5.557   3.973   6.163
13128TIP3   OH239328   0.512   2.862   1.855
13128TIP3    H139329   0.459   2.862   1.935
13128TIP3    H239330   0.461   2.914   1.793
13129TIP3   OH239331   0.724   0.324   5.141
13129TIP3    H139332   0.680   0.408   5.129
13129TIP3    H239333   0.815   0.348   5.157
13130TIP3   OH239334   2.228   7.004   0.152
13130TIP3    H139335   2.212   7.092   0.187
13130TIP3    H239336   2.141   6.973   0.126
13131TIP3   OH239337   3.169   2.340   0.914
13131TIP3    H139338   3.237   2.351   0.847
13131TIP3    H239339   3.100   2.401   0.888
13132TIP3   OH239340   0.477   3.454   1.733
13132TIP3    H139341   0.529   3.377   1.754
13132TIP3    H239342   0.495   3.516   1.804
13133TIP3   OH239343   6.996   6.760   5.070
13133TIP3    H139344   7.027   6.825   5.132
13133TIP3    H239345   7.075   6.732   5.023
13134TIP3   OH239346   1.923   6.095   3.167
13134TIP3    H139347   1.938   6.073   3.075
13134TIP3    H239348   1.889   6.014   3.206
13135TIP3   OH239349   3.772   2.950   3.952
13135TIP3    H139350   3.739   3.004   4.024
13135TIP3    H239351   3.810   3.013   3.890
13136TIP3   OH239352   6.159   5.636   2.387
13136TIP3    H139353   6.126   5.677   2.467
13136TIP3    H239354   6.080   5.620   2.335
13137TIP3   OH239355   5.981   4.181   3.238
13137TIP3    H139356   5.965   4.275   3.246
13137TIP3    H239357   6.073   4.170   3.261
13138TIP3   OH239358   2.465   6.629   4.752
13138TIP3    H139359   2.510   6.673   4.679
13138TIP3    H239360   2.475   6.689   4.826
13139TIP3   OH239361   4.294   5.032   2.222
13139TIP3    H139362   4.342   5.053   2.142
13139TIP3    H239363   4.314   4.940   2.238
13140TIP3   OH239364   1.945   4.891   2.065
13140TIP3    H139365   1.918   4.982   2.067
13140TIP3    H239366   1.917   4.855   2.149
13141TIP3   OH239367   7.328   7.300   4.364
13141TIP3    H139368   7.382   7.278   4.440
13141TIP3    H239369   7.326   7.396   4.364
13142TIP3   OH239370   7.918   1.381   4.216
13142TIP3    H139371   7.919   1.392   4.120
13142TIP3    H239372   7.883   1.293   4.230
13143TIP3   OH239373   4.507   0.772   5.755
13143TIP3    H139374   4.418   0.753   5.785
13143TIP3    H239375   4.494   0.832   5.681
13144TIP3   OH239376   0.749   5.577   5.020
13144TIP3    H139377   0.666   5.531   5.026
13144TIP3    H239378   0.731   5.664   5.056
13145TIP3   OH239379   6.137   5.711   2.672
13145TIP3    H139380   6.062   5.759   2.708
13145TIP3    H239381   6.138   5.629   2.721
13146TIP3   OH239382   7.970   6.913   0.527
13146TIP3    H139383   7.945   6.884   0.614
13146TIP3    H239384   8.004   7.002   0.540
13147TIP3   OH239385   1.306   1.555   1.141
13147TIP3    H139386   1.376   1.550   1.205
13147TIP3    H239387   1.324   1.484   1.079
13148TIP3   OH239388   1.284   5.698   2.447
13148TIP3    H139389   1.276   5.773   2.506
13148TIP3    H239390   1.377   5.697   2.421
13149TIP3   OH239391   6.470   6.554   2.810
13149TIP3    H139392   6.412   6.580   2.738
13149TIP3    H239393   6.537   6.499   2.768
13150TIP3   OH239394   7.224   0.972   5.278
13150TIP3    H139395   7.252   0.939   5.193
13150TIP3    H239396   7.141   0.928   5.295
13151TIP3   OH239397   2.057   3.189   3.759
13151TIP3    H139398   1.976   3.209   3.804
13151TIP3    H239399   2.103   3.273   3.754
13152TIP3   OH239400   2.993   4.096   5.567
13152TIP3    H139401   3.030   4.176   5.530
13152TIP3    H239402   2.902   4.119   5.587
13153TIP3   OH239403   3.226   3.553   1.050
13153TIP3    H139404   3.316   3.579   1.071
13153TIP3    H239405   3.176   3.575   1.128
13154TIP3   OH239406   6.281   7.290   0.449
13154TIP3    H139407   6.337   7.268   0.524
13154TIP3    H239408   6.192   7.284   0.483
13155TIP3   OH239409   5.425   6.389   0.189
13155TIP3    H139410   5.450   6.482   0.182
13155TIP3    H239411   5.398   6.378   0.280
13156TIP3   OH239412   7.559   6.089   0.902
13156TIP3    H139413   7.634   6.067   0.847
13156TIP3    H239414   7.546   6.182   0.888
13157TIP3   OH239415   7.640   7.322   6.560
13157TIP3    H139416   7.689   7.367   6.628
13157TIP3    H239417   7.688   7.341   6.479
13158TIP3   OH239418   6.986   2.289   1.056
13158TIP3    H139419   7.013   2.201   1.029
13158TIP3    H239420   7.027   2.302   1.141
13159TIP3   OH239421   2.406   2.505   4.184
13159TIP3    H139422   2.488   2.550   4.164
13159TIP3    H239423   2.373   2.476   4.099
13160TIP3   OH239424   3.218   4.050   5.243
13160TIP3    H139425   3.285   4.022   5.180
13160TIP3    H239426   3.267   4.069   5.323
13161TIP3   OH239427   1.133   3.739   1.806
13161TIP3    H139428   1.044   3.758   1.837
13161TIP3    H239429   1.120   3.681   1.731
13162TIP3   OH239430   4.624   5.444   4.198
13162TIP3    H139431   4.684   5.483   4.134
13162TIP3    H239432   4.553   5.407   4.145
13163TIP3   OH239433   5.665   0.521   5.100
13163TIP3    H139434   5.595   0.546   5.040
13163TIP3    H239435   5.745   0.522   5.047
13164TIP3   OH239436   2.137   2.245   3.284
13164TIP3    H139437   2.060   2.219   3.334
13164TIP3    H239438   2.209   2.242   3.348
13165TIP3   OH239439   7.607   2.504   4.487
13165TIP3    H139440   7.605   2.475   4.578
13165TIP3    H239441   7.531   2.460   4.447
13166TIP3   OH239442   1.012   1.820   6.295
13166TIP3    H139443   1.015   1.892   6.359
13166TIP3    H239444   1.070   1.848   6.225
13167TIP3   OH239445   5.455   7.465   3.529
13167TIP3    H139446   5.390   7.480   3.597
13167TIP3    H239447   5.484   7.553   3.503
13168TIP3   OH239448   5.372   6.998   1.743
13168TIP3    H139449   5.289   6.993   1.696
13168TIP3    H239450   5.439   6.979   1.677
13169TIP3   OH239451   0.425   5.151   0.947
13169TIP3    H139452   0.483   5.221   0.918
13169TIP3    H239453   0.372   5.191   1.017
13170TIP3   OH239454   6.825   3.045   0.315
13170TIP3    H139455   6.765   3.119   0.323
13170TIP3    H239456   6.804   2.989   0.390
13171TIP3   OH239457   8.276   4.897   2.658
13171TIP3    H139458   8.184   4.906   2.633
13171TIP3    H239459   8.315   4.980   2.631
13172TIP3   OH239460   6.076   2.768   4.813
13172TIP3    H139461   6.117   2.833   4.756
13172TIP3    H239462   5.990   2.753   4.775
13173TIP3   OH239463   2.837   4.721   6.337
13173TIP3    H139464   2.863   4.687   6.251
13173TIP3    H239465   2.852   4.815   6.332
13174TIP3   OH239466   6.063   3.866   1.290
13174TIP3    H139467   6.015   3.885   1.370
13174TIP3    H239468   5.995   3.838   1.228
13175TIP3   OH239469   2.414   5.736   4.326
13175TIP3    H139470   2.440   5.671   4.391
13175TIP3    H239471   2.491   5.793   4.318
13176TIP3   OH239472   6.202   5.675   3.587
13176TIP3    H139473   6.234   5.704   3.502
13176TIP3    H239474   6.277   5.630   3.626
13177TIP3   OH239475   0.293   0.758   2.201
13177TIP3    H139476   0.307   0.668   2.172
13177TIP3    H239477   0.363   0.808   2.160
13178TIP3   OH239478   7.456   7.766   0.527
13178TIP3    H139479   7.432   7.802   0.613
13178TIP3    H239480   7.382   7.711   0.502
13179TIP3   OH239481   6.997   6.302   5.396
13179TIP3    H139482   6.975   6.321   5.487
13179TIP3    H239483   7.091   6.316   5.390
13180TIP3   OH239484   5.335   1.050   3.358
13180TIP3    H139485   5.276   1.022   3.427
13180TIP3    H239486   5.300   1.135   3.330
13181TIP3   OH239487   4.448   5.305   5.080
13181TIP3    H139488   4.533   5.341   5.105
13181TIP3    H239489   4.468   5.242   5.011
13182TIP3   OH239490   5.267   1.486   4.482
13182TIP3    H139491   5.240   1.578   4.479
13182TIP3    H239492   5.361   1.489   4.466
13183TIP3   OH239493   0.173   6.640   6.465
13183TIP3    H139494   0.120   6.566   6.496
13183TIP3    H239495   0.164   6.706   6.533
13184TIP3   OH239496   1.522   5.031   4.268
13184TIP3    H139497   1.591   5.040   4.334
13184TIP3    H239498   1.456   5.095   4.293
13185TIP3   OH239499   7.739   7.833   2.750
13185TIP3    H139500   7.656   7.792   2.727
13185TIP3    H239501   7.783   7.770   2.806
13186TIP3   OH239502   1.502   7.682   6.634
13186TIP3    H139503   1.581   7.666   6.687
13186TIP3    H239504   1.520   7.636   6.552
13187TIP3   OH239505   7.385   5.280   5.321
13187TIP3    H139506   7.392   5.365   5.365
13187TIP3    H239507   7.430   5.292   5.238
13188TIP3   OH239508   1.947   7.036   1.303
13188TIP3    H139509   1.887   7.082   1.361
13188TIP3    H239510   1.891   6.986   1.244
13189TIP3   OH239511   3.755   2.307   5.136
13189TIP3    H139512   3.739   2.227   5.086
13189TIP3    H239513   3.767   2.277   5.226
13190TIP3   OH239514   2.503   3.823   3.080
13190TIP3    H139515   2.429   3.878   3.053
13190TIP3    H239516   2.579   3.882   3.078
13191TIP3   OH239517   7.103   5.128   4.004
13191TIP3    H139518   7.164   5.174   4.062
13191TIP3    H239519   7.133   5.149   3.916
13192TIP3   OH239520   1.430   2.153   2.209
13192TIP3    H139521   1.418   2.221   2.276
13192TIP3    H239522   1.425   2.071   2.258
13193TIP3   OH239523   4.292   4.057   0.987
13193TIP3    H139524   4.282   4.025   1.076
13193TIP3    H239525   4.230   4.006   0.935
13194TIP3   OH239526   4.375   3.903   1.210
13194TIP3    H139527   4.315   3.953   1.265
13194TIP3    H239528   4.462   3.925   1.243
13195TIP3   OH239529   5.636   1.228   1.848
13195TIP3    H139530   5.585   1.173   1.788
13195TIP3    H239531   5.600   1.316   1.836
13196TIP3   OH239532   1.059   2.046   4.981
13196TIP3    H139533   1.028   2.044   4.890
13196TIP3    H239534   1.001   1.986   5.027
13197TIP3   OH239535   8.268   5.782   6.390
13197TIP3    H139536   8.250   5.688   6.379
13197TIP3    H239537   8.199   5.826   6.341
13198TIP3   OH239538   6.665   4.575   4.910
13198TIP3    H139539   6.729   4.551   4.977
13198TIP3    H239540   6.717   4.599   4.834
13199TIP3   OH239541   5.053   7.013   0.543
13199TIP3    H139542   5.135   6.964   0.539
13199TIP3    H239543   5.047   7.043   0.634
13200TIP3   OH239544   6.554   6.848   1.284
13200TIP3    H139545   6.509   6.910   1.342
13200TIP3    H239546   6.527   6.874   1.196
13201TIP3   OH239547   0.734   0.706   4.454
13201TIP3    H139548   0.778   0.668   4.377
13201TIP3    H239549   0.806   0.731   4.512
13202TIP3   OH239550   7.908   4.271   0.552
13202TIP3    H139551   7.977   4.234   0.496
13202TIP3    H239552   7.908   4.364   0.532
13203TIP3   OH239553   4.451   1.707   2.399
13203TIP3    H139554   4.446   1.748   2.486
13203TIP3    H239555   4.381   1.749   2.349
13204TIP3   OH239556   2.977   2.568   1.641
13204TIP3    H139557   3.036   2.492   1.634
13204TIP3    H239558   2.941   2.579   1.553
13205TIP3   OH239559   6.534   4.125   2.166
13205TIP3    H139560   6.515   4.039   2.129
13205TIP3    H239561   6.494   4.124   2.253
13206TIP3   OH239562   2.580   1.325   3.689
13206TIP3    H139563   2.673   1.349   3.683
13206TIP3    H239564   2.550   1.367   3.769
13207TIP3   OH239565   4.678   5.741   3.425
13207TIP3    H139566   4.619   5.702   3.360
13207TIP3    H239567   4.663   5.836   3.417
13208TIP3   OH239568   5.645   7.776   1.848
13208TIP3    H139569   5.688   7.851   1.809
13208TIP3    H239570   5.695   7.700   1.817
13209TIP3   OH239571   4.675   4.597   0.465
13209TIP3    H139572   4.741   4.662   0.440
13209TIP3    H239573   4.712   4.513   0.436
13210TIP3   OH239574   0.852   6.111   2.369
13210TIP3    H139575   0.761   6.127   2.343
13210TIP3    H239576   0.846   6.084   2.461
13211TIP3   OH239577   1.363   1.241   3.028
13211TIP3    H139578   1.321   1.323   3.001
13211TIP3    H239579   1.456   1.255   3.007
13212TIP3   OH239580   5.851   2.534   0.758
13212TIP3    H139581   5.910   2.610   0.760
13212TIP3    H239582   5.910   2.458   0.753
13213TIP3   OH239583   7.919   4.008   5.101
13213TIP3    H139584   7.905   3.988   5.194
13213TIP3    H239585   7.981   3.941   5.071
13214TIP3   OH239586   5.101   5.174   1.499
13214TIP3    H139587   5.080   5.087   1.466
13214TIP3    H239588   5.108   5.228   1.421
13215TIP3   OH239589   3.541   3.302   3.462
13215TIP3    H139590   3.507   3.352   3.388
13215TIP3    H239591   3.626   3.270   3.433
13216TIP3   OH239592   5.260   7.568   5.385
13216TIP3    H139593   5.169   7.589   5.367
13216TIP3    H239594   5.272   7.479   5.351
13217TIP3   OH239595   2.901   0.388   0.285
13217TIP3    H139596   2.975   0.336   0.317
13217TIP3    H239597   2.896   0.462   0.345
13218TIP3   OH239598   6.498   7.425   4.680
13218TIP3    H139599   6.470   7.517   4.679
13218TIP3    H239600   6.578   7.426   4.733
13219TIP3   OH239601   4.946   0.941   3.793
13219TIP3    H139602   4.958   1.035   3.780
13219TIP3    H239603   4.854   0.932   3.819
13220TIP3   OH239604   0.503   4.493   3.554
13220TIP3    H139605   0.537   4.450   3.632
13220TIP3    H239606   0.417   4.526   3.581
13221TIP3   OH239607   2.472   5.834   0.535
13221TIP3    H139608   2.442   5.822   0.625
13221TIP3    H239609   2.434   5.762   0.486
13222TIP3   OH239610   8.192   2.492   4.151
13222TIP3    H139611   8.265   2.430   4.149
13222TIP3    H239612   8.114   2.437   4.160
13223TIP3   OH239613   7.539   6.710   0.060
13223TIP3    H139614   7.555   6.740   0.150
13223TIP3    H239615   7.618   6.661   0.036
13224TIP3   OH239616   7.275   1.812   5.159
13224TIP3    H139617   7.203   1.822   5.097
13224TIP3    H239618   7.310   1.900   5.170
13225TIP3   OH239619   2.442   7.544   6.162
13225TIP3    H139620   2.522   7.570   6.207
13225TIP3    H239621   2.371   7.583   6.215
13226TIP3   OH239622   5.019   6.222   4.619
13226TIP3    H139623   5.100   6.273   4.620
13226TIP3    H239624   5.036   6.151   4.556
13227TIP3   OH239625   7.041   5.280   0.370
13227TIP3    H139626   7.088   5.251   0.448
13227TIP3    H239627   7.027   5.374   0.383
13228TIP3   OH239628   2.631   0.371   0.229
13228TIP3    H139629   2.579   0.452   0.229
13228TIP3    H239630   2.722   0.400   0.230
13229TIP3   OH239631   3.670   5.044   1.690
13229TIP3    H139632   3.665   4.981   1.619
13229TIP3    H239633   3.596   5.104   1.674
13230TIP3   OH239634   3.560   5.852   1.958
13230TIP3    H139635   3.556   5.846   1.863
13230TIP3    H239636   3.517   5.934   1.980
13231TIP3   OH239637   3.373   4.630   6.543
13231TIP3    H139638   3.358   4.538   6.566
13231TIP3    H239639   3.309   4.649   6.475
13232TIP3   OH239640   6.621   4.702   0.566
13232TIP3    H139641   6.597   4.639   0.634
13232TIP3    H239642   6.543   4.709   0.511
13233TIP3   OH239643   6.232   7.756   3.622
13233TIP3    H139644   6.309   7.783   3.572
13233TIP3    H239645   6.259   7.675   3.666
13234TIP3   OH239646   1.218   7.302   3.136
13234TIP3    H139647   1.295   7.356   3.121
13234TIP3    H239648   1.238   7.218   3.093
13235TIP3   OH239649   3.313   0.270   0.707
13235TIP3    H139650   3.396   0.238   0.741
13235TIP3    H239651   3.248   0.243   0.773
13236TIP3   OH239652   6.419   6.038   0.184
13236TIP3    H139653   6.365   5.979   0.236
13236TIP3    H239654   6.497   5.986   0.163
13237TIP3   OH239655   7.620   5.616   0.477
13237TIP3    H139656   7.556   5.676   0.517
13237TIP3    H239657   7.591   5.529   0.503
13238TIP3   OH239658   1.421   4.248   2.323
13238TIP3    H139659   1.514   4.224   2.317
13238TIP3    H239660   1.419   4.341   2.302
13239TIP3   OH239661   1.440   4.462   3.401
13239TIP3    H139662   1.460   4.534   3.341
13239TIP3    H239663   1.523   4.444   3.445
13240TIP3   OH239664   7.600   3.589   4.571
13240TIP3    H139665   7.651   3.566   4.650
13240TIP3    H239666   7.536   3.518   4.563
13241TIP3   OH239667   3.278   4.504   4.061
13241TIP3    H139668   3.271   4.584   4.112
13241TIP3    H239669   3.233   4.523   3.978
13242TIP3   OH239670   7.719   5.940   5.884
13242TIP3    H139671   7.783   5.952   5.815
13242TIP3    H239672   7.652   6.007   5.868
13243TIP3   OH239673   6.970   2.896   3.700
13243TIP3    H139674   6.980   2.988   3.676
13243TIP3    H239675   6.893   2.867   3.651
13244TIP3   OH239676   4.932   0.951   5.843
13244TIP3    H139677   4.930   0.891   5.768
13244TIP3    H239678   4.840   0.965   5.865
13245TIP3   OH239679   2.622   6.571   6.544
13245TIP3    H139680   2.624   6.659   6.505
13245TIP3    H239681   2.703   6.530   6.514
13246TIP3   OH239682   4.039   3.045   2.540
13246TIP3    H139683   3.945   3.055   2.528
13246TIP3    H239684   4.057   3.088   2.624
13247TIP3   OH239685   6.512   6.200   1.346
13247TIP3    H139686   6.592   6.228   1.390
13247TIP3    H239687   6.542   6.166   1.261
13248TIP3   OH239688   2.520   0.587   0.514
13248TIP3    H139689   2.436   0.590   0.467
13248TIP3    H239690   2.578   0.644   0.463
13249TIP3   OH239691   8.127   0.324   1.222
13249TIP3    H139692   8.182   0.336   1.145
13249TIP3    H239693   8.185   0.340   1.296
13250TIP3   OH239694   6.376   7.091   5.809
13250TIP3    H139695   6.426   7.026   5.760
13250TIP3    H239696   6.289   7.052   5.820
13251TIP3   OH239697   3.414   7.694   5.456
13251TIP3    H139698   3.360   7.727   5.385
13251TIP3    H239699   3.463   7.771   5.486
13252TIP3   OH239700   2.477   5.389   0.262
13252TIP3    H139701   2.562   5.364   0.298
13252TIP3    H239702   2.439   5.448   0.327
13253TIP3   OH239703   2.839   0.455   4.282
13253TIP3    H139704   2.876   0.543   4.286
13253TIP3    H239705   2.805   0.439   4.370
13254TIP3   OH239706   1.636   0.366   2.562
13254TIP3    H139707   1.653   0.439   2.622
13254TIP3    H239708   1.707   0.304   2.580
13255TIP3   OH239709   2.911   2.412   0.473
13255TIP3    H139710   2.944   2.499   0.497
13255TIP3    H239711   2.919   2.408   0.378
13256TIP3   OH239712   6.322   5.687   2.015
13256TIP3    H139713   6.358   5.710   2.101
13256TIP3    H239714   6.394   5.641   1.971
13257TIP3   OH239715   2.605   6.189   5.045
13257TIP3    H139716   2.514   6.159   5.038
13257TIP3    H239717   2.655   6.109   5.061
13258TIP3   OH239718   4.254   5.554   0.714
13258TIP3    H139719   4.200   5.609   0.771
13258TIP3    H239720   4.193   5.518   0.650
13259TIP3   OH239721   3.514   0.761   6.516
13259TIP3    H139722   3.589   0.728   6.467
13259TIP3    H239723   3.439   0.715   6.479
13260TIP3   OH239724   8.094   7.442   3.218
13260TIP3    H139725   8.038   7.425   3.293
13260TIP3    H239726   8.055   7.518   3.175
13261TIP3   OH239727   7.500   6.203   6.442
13261TIP3    H139728   7.502   6.294   6.413
13261TIP3    H239729   7.451   6.157   6.374
13262TIP3   OH239730   8.217   4.714   3.610
13262TIP3    H139731   8.238   4.693   3.701
13262TIP3    H239732   8.132   4.758   3.613
13263TIP3   OH239733   6.861   5.702   3.548
13263TIP3    H139734   6.918   5.674   3.620
13263TIP3    H239735   6.907   5.776   3.508
13264TIP3   OH239736   5.891   0.114   1.286
13264TIP3    H139737   5.819   0.145   1.341
13264TIP3    H239738   5.849   0.079   1.208
13265TIP3   OH239739   4.780   1.016   6.426
13265TIP3    H139740   4.791   1.043   6.517
13265TIP3    H239741   4.699   1.061   6.398
13266TIP3   OH239742   7.344   4.305   0.112
13266TIP3    H139743   7.436   4.305   0.140
13266TIP3    H239744   7.330   4.392   0.076
13267TIP3   OH239745   7.645   3.295   5.489
13267TIP3    H139746   7.656   3.294   5.584
13267TIP3    H239747   7.724   3.338   5.456
13268TIP3   OH239748   0.342   4.311   3.842
13268TIP3    H139749   0.372   4.384   3.896
13268TIP3    H239750   0.251   4.298   3.868
13269TIP3   OH239751   6.366   4.267   5.853
13269TIP3    H139752   6.319   4.239   5.774
13269TIP3    H239753   6.354   4.362   5.855
13270TIP3   OH239754   4.428   2.568   5.257
13270TIP3    H139755   4.371   2.495   5.280
13270TIP3    H239756   4.485   2.533   5.188
13271TIP3   OH239757   2.081   5.857   5.822
13271TIP3    H139758   2.161   5.816   5.789
13271TIP3    H239759   2.085   5.844   5.917
13272TIP3   OH239760   3.219   5.959   1.009
13272TIP3    H139761   3.305   5.930   1.040
13272TIP3    H239762   3.164   5.958   1.087
13273TIP3   OH239763   0.208   0.649   0.508
13273TIP3    H139764   0.230   0.572   0.561
13273TIP3    H239765   0.291   0.697   0.501
13274TIP3   OH239766   3.610   2.732   4.268
13274TIP3    H139767   3.529   2.702   4.309
13274TIP3    H239768   3.624   2.820   4.304
13275TIP3   OH239769   1.004   3.278   6.268
13275TIP3    H139770   0.974   3.226   6.194
13275TIP3    H239771   1.100   3.271   6.265
13276TIP3   OH239772   7.652   5.666   4.631
13276TIP3    H139773   7.579   5.632   4.580
13276TIP3    H239774   7.704   5.589   4.655
13277TIP3   OH239775   6.042   2.419   3.146
13277TIP3    H139776   6.089   2.346   3.106
13277TIP3    H239777   5.950   2.400   3.131
13278TIP3   OH239778   1.430   4.076   6.288
13278TIP3    H139779   1.502   4.110   6.342
13278TIP3    H239780   1.439   3.981   6.294
13279TIP3   OH239781   6.967   6.597   1.821
13279TIP3    H139782   6.920   6.670   1.780
13279TIP3    H239783   6.966   6.527   1.756
13280TIP3   OH239784   7.922   5.031   2.497
13280TIP3    H139785   8.005   5.076   2.484
13280TIP3    H239786   7.944   4.938   2.498
13281TIP3   OH239787   7.241   1.083   1.003
13281TIP3    H139788   7.174   1.030   1.047
13281TIP3    H239789   7.276   1.138   1.072
13282TIP3   OH239790   5.946   4.956   4.597
13282TIP3    H139791   5.996   4.877   4.617
13282TIP3    H239792   5.934   4.999   4.682
13283TIP3   OH239793   2.542   0.958   4.854
13283TIP3    H139794   2.603   0.890   4.825
13283TIP3    H239795   2.588   1.040   4.834
13284TIP3   OH239796   0.701   5.937   1.837
13284TIP3    H139797   0.648   6.011   1.866
13284TIP3    H239798   0.763   5.922   1.909
13285TIP3   OH239799   4.025   7.350   5.256
13285TIP3    H139800   3.994   7.370   5.168
13285TIP3    H239801   4.106   7.400   5.265
13286TIP3   OH239802   8.285   5.175   2.162
13286TIP3    H139803   8.209   5.154   2.108
13286TIP3    H239804   8.353   5.114   2.134
13287TIP3   OH239805   3.740  -0.002   0.158
13287TIP3    H139806   3.822   0.043   0.142
13287TIP3    H239807   3.685   0.062   0.203
13288TIP3   OH239808   5.639   3.321   1.135
13288TIP3    H139809   5.696   3.373   1.078
13288TIP3    H239810   5.556   3.368   1.134
13289TIP3   OH239811   6.965   1.696   5.534
13289TIP3    H139812   6.982   1.790   5.533
13289TIP3    H239813   7.006   1.663   5.454
13290TIP3   OH239814   0.840   5.022   3.391
13290TIP3    H139815   0.786   5.094   3.360
13290TIP3    H239816   0.868   4.977   3.312
13291TIP3   OH239817   1.176   4.942   0.683
13291TIP3    H139818   1.163   4.850   0.661
13291TIP3    H239819   1.217   4.980   0.605
13292TIP3   OH239820   3.315   4.579   3.378
13292TIP3    H139821   3.350   4.591   3.466
13292TIP3    H239822   3.224   4.609   3.383
13293TIP3   OH239823   2.507   0.393   4.382
13293TIP3    H139824   2.571   0.394   4.453
13293TIP3    H239825   2.528   0.314   4.332
13294TIP3   OH239826   7.071   5.969   0.199
13294TIP3    H139827   7.039   6.032   0.135
13294TIP3    H239828   7.006   5.899   0.199
13295TIP3   OH239829   3.876   4.598   2.941
13295TIP3    H139830   3.948   4.550   2.900
13295TIP3    H239831   3.847   4.659   2.873
13296TIP3   OH239832   4.563   6.921   1.846
13296TIP3    H139833   4.625   6.854   1.873
13296TIP3    H239834   4.616   7.000   1.833
13297TIP3   OH239835   7.999   3.874   4.463
13297TIP3    H139836   8.046   3.919   4.534
13297TIP3    H239837   7.921   3.838   4.505
13298TIP3   OH239838   6.128   6.262   3.976
13298TIP3    H139839   6.070   6.206   4.028
13298TIP3    H239840   6.116   6.350   4.013
13299TIP3   OH239841   0.600   2.908   3.800
13299TIP3    H139842   0.573   2.939   3.714
13299TIP3    H239843   0.684   2.865   3.785
13300TIP3   OH239844   2.612   2.494   6.253
13300TIP3    H139845   2.625   2.534   6.339
13300TIP3    H239846   2.588   2.567   6.196
13301TIP3   OH239847   1.704   6.748   3.873
13301TIP3    H139848   1.793   6.753   3.839
13301TIP3    H239849   1.676   6.658   3.854
13302TIP3   OH239850   4.839   6.303   3.801
13302TIP3    H139851   4.793   6.245   3.862
13302TIP3    H239852   4.923   6.321   3.843
13303TIP3   OH239853   6.617   0.939   0.270
13303TIP3    H139854   6.610   1.033   0.254
13303TIP3    H239855   6.617   0.900   0.182
13304TIP3   OH239856   2.075   5.371   0.464
13304TIP3    H139857   2.118   5.318   0.397
13304TIP3    H239858   2.139   5.378   0.535
13305TIP3   OH239859   1.025   7.251   1.033
13305TIP3    H139860   1.013   7.193   0.957
13305TIP3    H239861   1.097   7.211   1.083
13306TIP3   OH239862   6.456   3.959   0.207
13306TIP3    H139863   6.452   3.922   0.119
13306TIP3    H239864   6.382   3.919   0.254
13307TIP3   OH239865   1.130   4.684   0.623
13307TIP3    H139866   1.169   4.627   0.690
13307TIP3    H239867   1.044   4.646   0.607
13308TIP3   OH239868   3.555   5.530   5.913
13308TIP3    H139869   3.496   5.567   5.847
13308TIP3    H239870   3.596   5.455   5.869
13309TIP3   OH239871   3.515   1.275   1.517
13309TIP3    H139872   3.597   1.287   1.470
13309TIP3    H239873   3.476   1.197   1.478
13310TIP3   OH239874   3.962   3.047   2.999
13310TIP3    H139875   3.985   3.124   3.052
13310TIP3    H239876   3.890   3.006   3.047
13311TIP3   OH239877   7.563   7.758   4.383
13311TIP3    H139878   7.612   7.838   4.402
13311TIP3    H239879   7.600   7.726   4.301
13312TIP3   OH239880   6.354   7.155   5.221
13312TIP3    H139881   6.292   7.194   5.283
13312TIP3    H239882   6.391   7.080   5.268
13313TIP3   OH239883   2.693   6.164   4.502
13313TIP3    H139884   2.762   6.152   4.436
13313TIP3    H239885   2.721   6.239   4.554
13314TIP3   OH239886   4.639   0.833   4.334
13314TIP3    H139887   4.673   0.819   4.245
13314TIP3    H239888   4.563   0.890   4.321
13315TIP3   OH239889   4.925   5.308   0.373
13315TIP3    H139890   4.898   5.223   0.408
13315TIP3    H239891   4.888   5.372   0.434
13316TIP3   OH239892   6.664   6.639   1.772
13316TIP3    H139893   6.731   6.659   1.707
13316TIP3    H239894   6.640   6.548   1.754
13317TIP3   OH239895   2.364   3.193   2.777
13317TIP3    H139896   2.293   3.208   2.715
13317TIP3    H239897   2.337   3.242   2.855
13318TIP3   OH239898   1.024   0.564   0.604
13318TIP3    H139899   0.954   0.539   0.545
13318TIP3    H239900   1.090   0.495   0.594
13319TIP3   OH239901   3.668   1.301   4.105
13319TIP3    H139902   3.699   1.369   4.164
13319TIP3    H239903   3.657   1.345   4.021
13320TIP3   OH239904   4.745   2.038   0.926
13320TIP3    H139905   4.748   1.997   0.840
13320TIP3    H239906   4.651   2.040   0.948
13321TIP3   OH239907   5.289   6.845   0.546
13321TIP3    H139908   5.302   6.898   0.468
13321TIP3    H239909   5.375   6.808   0.565
13322TIP3   OH239910   2.691   7.559   1.555
13322TIP3    H139911   2.758   7.494   1.535
13322TIP3    H239912   2.698   7.571   1.650
13323TIP3   OH239913   1.382   2.762   1.812
13323TIP3    H139914   1.333   2.697   1.864
13323TIP3    H239915   1.469   2.724   1.803
13324TIP3   OH239916   5.812   7.792   6.371
13324TIP3    H139917   5.801   7.697   6.364
13324TIP3    H239918   5.731   7.823   6.411
13325TIP3   OH239919   8.005   4.827   3.105
13325TIP3    H139920   8.038   4.819   3.195
13325TIP3    H239921   7.910   4.815   3.113
13326TIP3   OH239922   7.342   0.158   2.710
13326TIP3    H139923   7.372   0.232   2.658
13326TIP3    H239924   7.407   0.090   2.697
13327TIP3   OH239925   1.507   0.328   0.989
13327TIP3    H139926   1.508   0.403   1.048
13327TIP3    H239927   1.423   0.336   0.942
13328TIP3   OH239928   1.243   1.931   1.928
13328TIP3    H139929   1.271   2.023   1.927
13328TIP3    H239930   1.196   1.922   2.011
13329TIP3   OH239931   2.762   0.712   5.790
13329TIP3    H139932   2.828   0.657   5.749
13329TIP3    H239933   2.784   0.801   5.762
13330TIP3   OH239934   5.666   5.687   1.705
13330TIP3    H139935   5.646   5.755   1.769
13330TIP3    H239936   5.707   5.734   1.632
13331TIP3   OH239937   2.539   0.413   3.815
13331TIP3    H139938   2.620   0.367   3.791
13331TIP3    H239939   2.562   0.461   3.894
13332TIP3   OH239940   3.976   2.942   6.701
13332TIP3    H139941   3.930   2.940   6.617
13332TIP3    H239942   4.050   3.001   6.686
13333TIP3   OH239943   2.759   0.439   4.542
13333TIP3    H139944   2.782   0.532   4.544
13333TIP3    H239945   2.734   0.419   4.632
13334TIP3   OH239946   0.681   4.571   0.341
13334TIP3    H139947   0.696   4.655   0.299
13334TIP3    H239948   0.763   4.551   0.387
13335TIP3   OH239949   2.098   2.553   3.321
13335TIP3    H139950   2.012   2.536   3.359
13335TIP3    H239951   2.159   2.505   3.376
13336TIP3   OH239952   7.681   3.770   2.795
13336TIP3    H139953   7.726   3.689   2.820
13336TIP3    H239954   7.745   3.839   2.812
13337TIP3   OH239955   0.050   2.043   6.221
13337TIP3    H139956  -0.023   1.985   6.243
13337TIP3    H239957   0.106   2.043   6.298
13338TIP3   OH239958   3.524   3.327   2.209
13338TIP3    H139959   3.520   3.255   2.271
13338TIP3    H239960   3.442   3.375   2.221
13339TIP3   OH239961   3.341   0.334   5.289
13339TIP3    H139962   3.274   0.317   5.223
13339TIP3    H239963   3.347   0.253   5.339
13340TIP3   OH239964   0.990   7.487   6.064
13340TIP3    H139965   1.027   7.499   6.151
13340TIP3    H239966   1.067   7.478   6.007
13341TIP3   OH239967   3.038   7.661   2.432
13341TIP3    H139968   3.093   7.684   2.357
13341TIP3    H239969   3.099   7.623   2.495
13342TIP3   OH239970   2.561   0.161   0.867
13342TIP3    H139971   2.514   0.107   0.931
13342TIP3    H239972   2.512   0.244   0.866
13343TIP3   OH239973   2.459   6.239   1.731
13343TIP3    H139974   2.481   6.213   1.820
13343TIP3    H239975   2.544   6.244   1.686
13344TIP3   OH239976   5.364   2.475   6.241
13344TIP3    H139977   5.357   2.399   6.298
13344TIP3    H239978   5.453   2.507   6.253
13345TIP3   OH239979   1.212   2.717   4.109
13345TIP3    H139980   1.163   2.637   4.126
13345TIP3    H239981   1.221   2.720   4.014
13346TIP3   OH239982   2.575   5.522   4.971
13346TIP3    H139983   2.617   5.608   4.965
13346TIP3    H239984   2.646   5.460   4.954
13347TIP3   OH239985   6.745   4.205   5.896
13347TIP3    H139986   6.779   4.250   5.819
13347TIP3    H239987   6.804   4.231   5.967
13348TIP3   OH239988   4.519   6.773   3.324
13348TIP3    H139989   4.586   6.819   3.272
13348TIP3    H239990   4.500   6.833   3.396
13349TIP3   OH239991   0.304   4.788   2.151
13349TIP3    H139992   0.257   4.861   2.190
13349TIP3    H239993   0.307   4.808   2.057
13350TIP3   OH239994   3.131   7.753   0.407
13350TIP3    H139995   3.201   7.699   0.442
13350TIP3    H239996   3.148   7.840   0.443
13351TIP3   OH239997   3.615   6.400   2.921
13351TIP3    H139998   3.706   6.395   2.950
13351TIP3    H239999   3.610   6.481   2.870
13352TIP3   OH240000   4.196   6.466   1.789
13352TIP3    H140001   4.187   6.394   1.851
13352TIP3    H240002   4.289   6.465   1.765
13353TIP3   OH240003   3.384   7.540   3.549
13353TIP3    H140004   3.383   7.600   3.624
13353TIP3    H240005   3.324   7.578   3.486
13354TIP3   OH240006   0.981   6.719   5.798
13354TIP3    H140007   0.966   6.624   5.801
13354TIP3    H240008   0.893   6.757   5.809
13355TIP3   OH240009   0.757   7.853   0.547
13355TIP3    H140010   0.674   7.843   0.500
13355TIP3    H240011   0.806   7.774   0.525
13356TIP3   OH240012   6.600   1.818   4.496
13356TIP3    H140013   6.551   1.775   4.426
13356TIP3    H240014   6.691   1.813   4.468
13357TIP3   OH240015   1.746   3.306   2.506
13357TIP3    H140016   1.761   3.238   2.440
13357TIP3    H240017   1.711   3.380   2.456
13358TIP3   OH240018   7.202   1.429   5.863
13358TIP3    H140019   7.265   1.395   5.798
13358TIP3    H240020   7.132   1.467   5.810
13359TIP3   OH240021   2.686   1.595   5.228
13359TIP3    H140022   2.626   1.592   5.303
13359TIP3    H240023   2.642   1.651   5.164
13360TIP3   OH240024   3.481   3.579   5.203
13360TIP3    H140025   3.518   3.503   5.248
13360TIP3    H240026   3.387   3.575   5.223
13361TIP3   OH240027   3.835   2.188   2.083
13361TIP3    H140028   3.896   2.174   2.011
13361TIP3    H240029   3.792   2.103   2.095
13362TIP3   OH240030   5.216   2.482   1.045
13362TIP3    H140031   5.199   2.388   1.042
13362TIP3    H240032   5.251   2.503   0.959
13363TIP3   OH240033   6.426   3.190   0.741
13363TIP3    H140034   6.383   3.179   0.825
13363TIP3    H240035   6.474   3.108   0.728
13364TIP3   OH240036   6.098   1.297   0.957
13364TIP3    H140037   6.159   1.293   1.031
13364TIP3    H240038   6.031   1.360   0.984
13365TIP3   OH240039   1.263   3.019   5.369
13365TIP3    H140040   1.192   3.049   5.313
13365TIP3    H240041   1.338   3.073   5.344
13366TIP3   OH240042   0.697   1.389   2.920
13366TIP3    H140043   0.698   1.375   2.825
13366TIP3    H240044   0.650   1.473   2.930
13367TIP3   OH240045   1.751   4.490   2.799
13367TIP3    H140046   1.739   4.532   2.714
13367TIP3    H240047   1.819   4.541   2.842
13368TIP3   OH240048   2.527   3.108   4.922
13368TIP3    H140049   2.572   3.026   4.898
13368TIP3    H240050   2.529   3.108   5.018
13369TIP3   OH240051   1.226   4.274   4.519
13369TIP3    H140052   1.283   4.335   4.565
13369TIP3    H240053   1.141   4.281   4.563
13370TIP3   OH240054   1.838   2.697   0.201
13370TIP3    H140055   1.919   2.668   0.160
13370TIP3    H240056   1.855   2.693   0.295
13371TIP3   OH240057   6.132   1.199   5.540
13371TIP3    H140058   6.090   1.232   5.619
13371TIP3    H240059   6.179   1.274   5.503
13372TIP3   OH240060   4.803   4.034   2.482
13372TIP3    H140061   4.779   4.014   2.572
13372TIP3    H240062   4.812   3.949   2.440
13373TIP3   OH240063   2.325   5.132   1.194
13373TIP3    H140064   2.263   5.098   1.259
13373TIP3    H240065   2.409   5.133   1.238
13374TIP3   OH240066   1.128   0.134   5.395
13374TIP3    H140067   1.138   0.215   5.445
13374TIP3    H240068   1.161   0.066   5.453
13375TIP3   OH240069   1.734   7.107   6.394
13375TIP3    H140070   1.770   7.084   6.480
13375TIP3    H240071   1.787   7.058   6.332
13376TIP3   OH240072   1.930   1.932   1.298
13376TIP3    H140073   2.002   1.993   1.314
13376TIP3    H240074   1.970   1.857   1.256
13377TIP3   OH240075   1.626   3.639   1.139
13377TIP3    H140076   1.669   3.642   1.053
13377TIP3    H240077   1.691   3.598   1.197
13378TIP3   OH240078   3.325   4.387   5.091
13378TIP3    H140079   3.257   4.347   5.038
13378TIP3    H240080   3.330   4.478   5.061
13379TIP3   OH240081   0.137   5.937   3.841
13379TIP3    H140082   0.131   5.862   3.900
13379TIP3    H240083   0.119   5.900   3.754
13380TIP3   OH240084   4.122   4.110   2.964
13380TIP3    H140085   4.116   4.028   2.916
13380TIP3    H240086   4.158   4.173   2.901
13381TIP3   OH240087   6.240   4.541   1.177
13381TIP3    H140088   6.153   4.536   1.218
13381TIP3    H240089   6.260   4.634   1.174
13382TIP3   OH240090   3.300   6.591   0.742
13382TIP3    H140091   3.280   6.681   0.770
13382TIP3    H240092   3.251   6.536   0.803
13383TIP3   OH240093   2.475   2.088   5.859
13383TIP3    H140094   2.556   2.037   5.860
13383TIP3    H240095   2.428   2.057   5.782
13384TIP3   OH240096   4.075   5.542   5.584
13384TIP3    H140097   4.168   5.559   5.599
13384TIP3    H240098   4.037   5.536   5.672
13385TIP3   OH240099   1.781   3.497   1.368
13385TIP3    H140100   1.775   3.408   1.403
13385TIP3    H240101   1.780   3.553   1.445
13386TIP3   OH240102   3.426   7.057   1.763
13386TIP3    H140103   3.354   7.016   1.715
13386TIP3    H240104   3.494   6.989   1.764
13387TIP3   OH240105   5.953   4.403   0.324
13387TIP3    H140106   5.962   4.445   0.409
13387TIP3    H240107   5.954   4.475   0.261
13388TIP3   OH240108   0.911   0.475   6.398
13388TIP3    H140109   0.958   0.410   6.345
13388TIP3    H240110   0.896   0.548   6.338
13389TIP3   OH240111   0.245   2.124   4.361
13389TIP3    H140112   0.197   2.072   4.296
13389TIP3    H240113   0.197   2.207   4.365
13390TIP3   OH240114   3.317   3.275   2.700
13390TIP3    H140115   3.287   3.214   2.768
13390TIP3    H240116   3.339   3.218   2.625
13391TIP3   OH240117   3.103   0.390   1.848
13391TIP3    H140118   3.076   0.320   1.789
13391TIP3    H240119   3.070   0.470   1.807
13392TIP3   OH240120   4.008   6.149   5.354
13392TIP3    H140121   4.073   6.107   5.298
13392TIP3    H240122   4.012   6.242   5.330
13393TIP3   OH240123   1.951   5.602   5.345
13393TIP3    H140124   1.863   5.599   5.307
13393TIP3    H240125   1.960   5.691   5.377
13394TIP3   OH240126   4.870   0.589   5.087
13394TIP3    H140127   4.907   0.657   5.031
13394TIP3    H240128   4.795   0.631   5.129
13395TIP3   OH240129   1.392   0.937   1.236
13395TIP3    H140130   1.372   0.934   1.329
13395TIP3    H240131   1.456   0.868   1.222
13396TIP3   OH240132   5.949   5.066   1.006
13396TIP3    H140133   5.929   5.155   1.036
13396TIP3    H240134   5.904   5.059   0.922
13397TIP3   OH240135   7.044   0.026   1.373
13397TIP3    H140136   7.003   0.052   1.456
13397TIP3    H240137   7.072  -0.065   1.388
13398TIP3   OH240138   3.999   1.304   1.454
13398TIP3    H140139   3.995   1.212   1.429
13398TIP3    H240140   3.915   1.340   1.426
13399TIP3   OH240141   5.353   0.117   2.363
13399TIP3    H140142   5.395   0.076   2.287
13399TIP3    H240143   5.426   0.150   2.415
13400TIP3   OH240144   6.111   4.559   3.873
13400TIP3    H140145   6.114   4.642   3.826
13400TIP3    H240146   6.190   4.559   3.927
13401TIP3   OH240147   7.494   0.833   2.107
13401TIP3    H140148   7.549   0.906   2.135
13401TIP3    H240149   7.493   0.774   2.182
13402TIP3   OH240150   7.317   7.029   0.871
13402TIP3    H140151   7.236   7.033   0.922
13402TIP3    H240152   7.316   7.107   0.816
13403TIP3   OH240153   4.014   7.625   2.804
13403TIP3    H140154   4.008   7.695   2.739
13403TIP3    H240155   4.097   7.641   2.849
13404TIP3   OH240156   2.665   5.440   5.424
13404TIP3    H140157   2.681   5.380   5.351
13404TIP3    H240158   2.751   5.450   5.466
13405TIP3   OH240159   2.612   0.567   6.734
13405TIP3    H140160   2.520   0.541   6.724
13405TIP3    H240161   2.652   0.545   6.650
13406TIP3   OH240162   4.633   5.471   2.815
13406TIP3    H140163   4.610   5.559   2.847
13406TIP3    H240164   4.637   5.481   2.720
13407TIP3   OH240165   0.110   4.972   6.558
13407TIP3    H140166   0.033   4.938   6.512
13407TIP3    H240167   0.146   4.895   6.604
13408TIP3   OH240168   2.243   5.088   2.213
13408TIP3    H140169   2.253   5.178   2.244
13408TIP3    H240170   2.177   5.094   2.144
13409TIP3   OH240171   4.101   6.743   2.630
13409TIP3    H140172   4.097   6.817   2.569
13409TIP3    H240173   4.186   6.754   2.674
13410TIP3   OH240174   7.979   0.142   4.886
13410TIP3    H140175   8.066   0.177   4.902
13410TIP3    H240176   7.950   0.184   4.805
13411TIP3   OH240177   0.234   4.074   6.229
13411TIP3    H140178   0.210   4.167   6.232
13411TIP3    H240179   0.153   4.028   6.207
13412TIP3   OH240180   4.419   5.488   1.907
13412TIP3    H140181   4.443   5.498   1.815
13412TIP3    H240182   4.384   5.573   1.932
13413TIP3   OH240183   3.586   4.481   0.605
13413TIP3    H140184   3.520   4.411   0.610
13413TIP3    H240185   3.664   4.439   0.569
13414TIP3   OH240186   2.567   3.491   0.880
13414TIP3    H140187   2.576   3.410   0.830
13414TIP3    H240188   2.486   3.530   0.847
13415TIP3   OH240189   5.836   2.019   2.320
13415TIP3    H140190   5.868   2.080   2.386
13415TIP3    H240191   5.915   1.988   2.276
13416TIP3   OH240192   4.597   6.850   2.644
13416TIP3    H140193   4.676   6.844   2.591
13416TIP3    H240194   4.619   6.806   2.725
13417TIP3   OH240195   4.994   4.853   3.013
13417TIP3    H140196   5.004   4.894   3.099
13417TIP3    H240197   4.990   4.759   3.032
13418TIP3   OH240198   2.444   2.500   3.347
13418TIP3    H140199   2.535   2.483   3.371
13418TIP3    H240200   2.398   2.508   3.431
13419TIP3   OH240201   2.385   1.770   1.891
13419TIP3    H140202   2.404   1.774   1.985
13419TIP3    H240203   2.302   1.723   1.885
13420TIP3   OH240204   1.629   7.131   1.842
13420TIP3    H140205   1.670   7.070   1.780
13420TIP3    H240206   1.575   7.076   1.898
13421TIP3   OH240207   6.519   0.227   1.748
13421TIP3    H140208   6.553   0.245   1.836
13421TIP3    H240209   6.428   0.204   1.762
13422TIP3   OH240210   3.570   6.771   2.625
13422TIP3    H140211   3.637   6.821   2.580
13422TIP3    H240212   3.538   6.708   2.560
13423TIP3   OH240213   8.024   6.620   5.512
13423TIP3    H140214   8.016   6.713   5.491
13423TIP3    H240215   7.942   6.581   5.483
13424TIP3   OH240216   5.218   3.291   6.193
13424TIP3    H140217   5.180   3.229   6.255
13424TIP3    H240218   5.307   3.304   6.224
13425TIP3   OH240219   2.549   4.782   1.790
13425TIP3    H140220   2.457   4.807   1.782
13425TIP3    H240221   2.560   4.711   1.726
13426TIP3   OH240222   4.106   0.170   0.399
13426TIP3    H140223   4.101   0.261   0.426
13426TIP3    H240224   4.191   0.140   0.432
13427TIP3   OH240225   1.739   2.644   2.960
13427TIP3    H140226   1.778   2.726   2.930
13427TIP3    H240227   1.732   2.591   2.881
13428TIP3   OH240228   6.358   7.058   1.245
13428TIP3    H140229   6.361   7.093   1.334
13428TIP3    H240230   6.426   7.106   1.198
13429TIP3   OH240231   4.228   4.525   4.557
13429TIP3    H140232   4.146   4.545   4.603
13429TIP3    H240233   4.209   4.541   4.465
13430TIP3   OH240234   0.496   6.439   3.249
13430TIP3    H140235   0.575   6.491   3.264
13430TIP3    H240236   0.462   6.472   3.166
13431TIP3   OH240237   7.160   4.191   6.289
13431TIP3    H140238   7.212   4.188   6.369
13431TIP3    H240239   7.180   4.108   6.245
13432TIP3   OH240240   4.475   6.488   4.899
13432TIP3    H140241   4.523   6.407   4.888
13432TIP3    H240242   4.470   6.501   4.994
13433TIP3   OH240243   0.828   6.906   0.880
13433TIP3    H140244   0.831   6.872   0.791
13433TIP3    H240245   0.734   6.916   0.899
13434TIP3   OH240246   6.653   3.678   1.778
13434TIP3    H140247   6.630   3.722   1.696
13434TIP3    H240248   6.569   3.662   1.820
13435TIP3   OH240249   3.037   0.270   4.860
13435TIP3    H140250   3.006   0.260   4.770
13435TIP3    H240251   3.011   0.188   4.903
13436TIP3   OH240252   6.376   0.763   1.311
13436TIP3    H140253   6.304   0.700   1.307
13436TIP3    H240254   6.333   0.849   1.306
13437TIP3   OH240255   0.508   1.823   5.238
13437TIP3    H140256   0.581   1.884   5.243
13437TIP3    H240257   0.544   1.748   5.190
13438TIP3   OH240258   3.958   2.072   1.057
13438TIP3    H140259   3.892   2.026   1.006
13438TIP3    H240260   3.936   2.053   1.148
13439TIP3   OH240261   7.799   6.664   3.043
13439TIP3    H140262   7.775   6.755   3.060
13439TIP3    H240263   7.887   6.669   3.006
13440TIP3   OH240264   7.793   6.517   6.252
13440TIP3    H140265   7.879   6.544   6.220
13440TIP3    H240266   7.779   6.571   6.330
13441TIP3   OH240267   3.692   7.710   6.310
13441TIP3    H140268   3.769   7.763   6.333
13441TIP3    H240269   3.700   7.696   6.215
13442TIP3   OH240270   7.187   3.864   2.617
13442TIP3    H140271   7.275   3.894   2.594
13442TIP3    H240272   7.179   3.779   2.575
13443TIP3   OH240273   4.437   0.076   6.029
13443TIP3    H140274   4.431  -0.020   6.035
13443TIP3    H240275   4.359   0.107   6.075
13444TIP3   OH240276   8.241   1.666   4.521
13444TIP3    H140277   8.311   1.731   4.522
13444TIP3    H240278   8.237   1.633   4.611
13445TIP3   OH240279   1.308   5.464   0.177
13445TIP3    H140280   1.273   5.472   0.088
13445TIP3    H240281   1.230   5.473   0.233
13446TIP3   OH240282   7.051   5.874   6.326
13446TIP3    H140283   7.077   5.937   6.259
13446TIP3    H240284   6.960   5.896   6.347
13447TIP3   OH240285   6.789   7.209   6.292
13447TIP3    H140286   6.815   7.154   6.366
13447TIP3    H240287   6.766   7.293   6.331
13448TIP3   OH240288   5.865   0.591   0.049
13448TIP3    H140289   5.785   0.620   0.006
13448TIP3    H240290   5.891   0.512   0.001
13449TIP3   OH240291   7.329   1.237   2.588
13449TIP3    H140292   7.402   1.204   2.534
13449TIP3    H240293   7.366   1.243   2.676
13450TIP3   OH240294   5.456   0.619   0.175
13450TIP3    H140295   5.386   0.558   0.151
13450TIP3    H240296   5.443   0.634   0.269
13451TIP3   OH240297   7.337   7.450   2.067
13451TIP3    H140298   7.375   7.524   2.019
13451TIP3    H240299   7.318   7.385   1.999
13452TIP3   OH240300   7.251   6.824   3.220
13452TIP3    H140301   7.172   6.862   3.181
13452TIP3    H240302   7.219   6.758   3.281
13453TIP3   OH240303   5.916   6.243   1.312
13453TIP3    H140304   5.928   6.272   1.221
13453TIP3    H240305   5.827   6.273   1.334
13454TIP3   OH240306   0.765   0.716   5.556
13454TIP3    H140307   0.696   0.665   5.598
13454TIP3    H240308   0.777   0.675   5.470
13455TIP3   OH240309   6.170   5.397   0.934
13455TIP3    H140310   6.100   5.381   0.871
13455TIP3    H240311   6.135   5.366   1.018
13456TIP3   OH240312   2.960   1.987   0.826
13456TIP3    H140313   2.867   1.967   0.814
13456TIP3    H240314   2.971   2.072   0.782
13457TIP3   OH240315   0.890   6.061   6.265
13457TIP3    H140316   0.912   5.968   6.269
13457TIP3    H240317   0.796   6.064   6.281
13458TIP3   OH240318   1.457   1.379   5.293
13458TIP3    H140319   1.365   1.407   5.283
13458TIP3    H240320   1.502   1.458   5.322
13459TIP3   OH240321   0.750   2.636   0.753
13459TIP3    H140322   0.786   2.711   0.704
13459TIP3    H240323   0.656   2.641   0.738
13460TIP3   OH240324   3.849   2.397   3.221
13460TIP3    H140325   3.805   2.456   3.282
13460TIP3    H240326   3.781   2.371   3.159
13461TIP3   OH240327   5.840   2.513   5.214
13461TIP3    H140328   5.895   2.577   5.260
13461TIP3    H240329   5.903   2.452   5.174
13462TIP3   OH240330   7.612   1.976   4.078
13462TIP3    H140331   7.585   1.891   4.114
13462TIP3    H240332   7.531   2.017   4.050
13463TIP3   OH240333   4.538   1.116   6.414
13463TIP3    H140334   4.488   1.111   6.333
13463TIP3    H240335   4.482   1.074   6.479
13464TIP3   OH240336   2.392   0.613   6.108
13464TIP3    H140337   2.341   0.654   6.039
13464TIP3    H240338   2.473   0.664   6.113
13465TIP3   OH240339   3.521   4.454   2.885
13465TIP3    H140340   3.581   4.387   2.916
13465TIP3    H240341   3.476   4.485   2.965
13466TIP3   OH240342   2.667   1.690   2.326
13466TIP3    H140343   2.719   1.709   2.404
13466TIP3    H240344   2.586   1.739   2.339
13467TIP3   OH240345   2.604   3.547   2.310
13467TIP3    H140346   2.524   3.496   2.301
13467TIP3    H240347   2.584   3.610   2.379
13468TIP3   OH240348   2.515   1.331   5.798
13468TIP3    H140349   2.603   1.370   5.798
13468TIP3    H240350   2.531   1.237   5.800
13469TIP3   OH240351   8.217   3.256   1.978
13469TIP3    H140352   8.182   3.240   1.891
13469TIP3    H240353   8.258   3.173   2.004
13470TIP3   OH240354   6.639   1.024   6.544
13470TIP3    H140355   6.730   1.002   6.565
13470TIP3    H240356   6.602   1.058   6.625
13471TIP3   OH240357   0.566   3.546   0.285
13471TIP3    H140358   0.593   3.633   0.255
13471TIP3    H240359   0.471   3.546   0.275
13472TIP3   OH240360   3.321   3.402   1.526
13472TIP3    H140361   3.256   3.457   1.568
13472TIP3    H240362   3.330   3.326   1.584
13473TIP3   OH240363   8.050   6.400   2.782
13473TIP3    H140364   8.005   6.476   2.745
13473TIP3    H240365   8.020   6.397   2.873
13474TIP3   OH240366   2.801   1.383   4.460
13474TIP3    H140367   2.719   1.423   4.431
13474TIP3    H240368   2.800   1.295   4.422
13475TIP3   OH240369   8.242   6.939   0.091
13475TIP3    H140370   8.219   6.859   0.045
13475TIP3    H240371   8.226   7.009   0.028
13476TIP3   OH240372   1.790   0.868   5.405
13476TIP3    H140373   1.733   0.792   5.396
13476TIP3    H240374   1.757   0.930   5.340
13477TIP3   OH240375   0.978   6.481   4.606
13477TIP3    H140376   0.918   6.475   4.680
13477TIP3    H240377   1.054   6.429   4.633
13478TIP3   OH240378   0.611   7.793   4.581
13478TIP3    H140379   0.524   7.806   4.545
13478TIP3    H240380   0.604   7.826   4.671
13479TIP3   OH240381   5.266   5.541   4.710
13479TIP3    H140382   5.275   5.493   4.627
13479TIP3    H240383   5.302   5.628   4.692
13480TIP3   OH240384   0.172   5.804   5.075
13480TIP3    H140385   0.077   5.794   5.081
13480TIP3    H240386   0.186   5.856   4.996
13481TIP3   OH240387   6.404   2.797   2.772
13481TIP3    H140388   6.437   2.708   2.783
13481TIP3    H240389   6.315   2.794   2.809
13482TIP3   OH240390   5.549   2.427   0.523
13482TIP3    H140391   5.541   2.442   0.618
13482TIP3    H240392   5.641   2.405   0.511
13483TIP3   OH240393   6.023   1.637   5.378
13483TIP3    H140394   5.969   1.713   5.353
13483TIP3    H240395   5.978   1.562   5.338
13484TIP3   OH240396   7.263   6.111   5.025
13484TIP3    H140397   7.333   6.092   4.962
13484TIP3    H240398   7.191   6.055   4.999
13485TIP3   OH240399   6.312   0.092   0.804
13485TIP3    H140400   6.405   0.116   0.809
13485TIP3    H240401   6.313   0.001   0.773
13486TIP3   OH240402   2.889   7.155   3.843
13486TIP3    H140403   2.867   7.070   3.882
13486TIP3    H240404   2.891   7.215   3.918
13487TIP3   OH240405   6.370   3.732   0.838
13487TIP3    H140406   6.425   3.806   0.863
13487TIP3    H240407   6.404   3.658   0.888
13488TIP3   OH240408   7.674   5.966   1.871
13488TIP3    H140409   7.624   5.969   1.953
13488TIP3    H240410   7.733   5.891   1.883
13489TIP3   OH240411   6.441   2.614   0.300
13489TIP3    H140412   6.443   2.518   0.294
13489TIP3    H240413   6.507   2.644   0.237
13490TIP3   OH240414   1.646   1.264   5.485
13490TIP3    H140415   1.651   1.341   5.541
13490TIP3    H240416   1.724   1.213   5.506
13491TIP3   OH240417   2.514   2.908   5.653
13491TIP3    H140418   2.493   2.840   5.590
13491TIP3    H240419   2.447   2.975   5.639
13492TIP3   OH240420   7.960   4.852   2.815
13492TIP3    H140421   7.976   4.821   2.904
13492TIP3    H240422   7.898   4.925   2.826
13493TIP3   OH240423   3.296   6.796   4.468
13493TIP3    H140424   3.319   6.719   4.417
13493TIP3    H240425   3.364   6.860   4.448
13494TIP3   OH240426   6.533   5.546   1.888
13494TIP3    H140427   6.574   5.463   1.912
13494TIP3    H240428   6.605   5.599   1.854
13495TIP3   OH240429   3.430   2.700   0.167
13495TIP3    H140430   3.345   2.683   0.209
13495TIP3    H240431   3.490   2.715   0.240
13496TIP3   OH240432   2.198   3.119   5.197
13496TIP3    H140433   2.260   3.164   5.139
13496TIP3    H240434   2.165   3.187   5.255
13497TIP3   OH240435   2.324   6.748   5.584
13497TIP3    H140436   2.312   6.735   5.678
13497TIP3    H240437   2.243   6.790   5.555
13498TIP3   OH240438   6.363   0.268   5.834
13498TIP3    H140439   6.334   0.351   5.872
13498TIP3    H240440   6.451   0.287   5.800
13499TIP3   OH240441   2.670   4.471   1.129
13499TIP3    H140442   2.751   4.482   1.180
13499TIP3    H240443   2.621   4.403   1.176
13500TIP3   OH240444   5.903   0.395   2.663
13500TIP3    H140445   5.889   0.317   2.609
13500TIP3    H240446   5.827   0.450   2.646
13501TIP3   OH240447   3.589   1.457   0.987
13501TIP3    H140448   3.528   1.439   1.059
13501TIP3    H240449   3.618   1.370   0.958
13502TIP3   OH240450   6.654   4.171   2.924
13502TIP3    H140451   6.573   4.138   2.886
13502TIP3    H240452   6.718   4.101   2.909
13503TIP3   OH240453   4.567   3.838   2.517
13503TIP3    H140454   4.608   3.906   2.464
13503TIP3    H240455   4.473   3.850   2.503
13504TIP3   OH240456   3.013   1.550   4.435
13504TIP3    H140457   3.095   1.518   4.473
13504TIP3    H240458   2.956   1.474   4.432
13505TIP3   OH240459   3.250   5.949   0.473
13505TIP3    H140460   3.262   5.867   0.522
13505TIP3    H240461   3.254   6.017   0.540
13506TIP3   OH240462   1.927   7.060   3.660
13506TIP3    H140463   1.985   7.133   3.679
13506TIP3    H240464   1.945   6.996   3.728
13507TIP3   OH240465   7.767   0.598   2.544
13507TIP3    H140466   7.705   0.626   2.477
13507TIP3    H240467   7.728   0.519   2.582
13508TIP3   OH240468   0.856   1.514   4.101
13508TIP3    H140469   0.806   1.508   4.182
13508TIP3    H240470   0.862   1.608   4.084
13509TIP3   OH240471   4.972   3.116   1.585
13509TIP3    H140472   5.011   3.201   1.603
13509TIP3    H240473   4.883   3.136   1.557
13510TIP3   OH240474   2.645   2.422   3.141
13510TIP3    H140475   2.640   2.448   3.233
13510TIP3    H240476   2.555   2.426   3.110
13511TIP3   OH240477   3.306   5.506   2.670
13511TIP3    H140478   3.336   5.574   2.730
13511TIP3    H240479   3.384   5.455   2.650
13512TIP3   OH240480   0.411   3.666   4.521
13512TIP3    H140481   0.473   3.698   4.457
13512TIP3    H240482   0.426   3.720   4.599
13513TIP3   OH240483   0.493   7.537   0.121
13513TIP3    H140484   0.500   7.517   0.027
13513TIP3    H240485   0.563   7.599   0.138
13514TIP3   OH240486   6.231   0.103   5.632
13514TIP3    H140487   6.184   0.172   5.585
13514TIP3    H240488   6.279   0.149   5.701
13515TIP3   OH240489   7.282   3.917   1.863
13515TIP3    H140490   7.292   3.931   1.957
13515TIP3    H240491   7.324   3.993   1.823
13516TIP3   OH240492   6.262   3.647   6.216
13516TIP3    H140493   6.298   3.628   6.303
13516TIP3    H240494   6.339   3.647   6.158
13517TIP3   OH240495   6.512   4.508   3.736
13517TIP3    H140496   6.459   4.563   3.794
13517TIP3    H240497   6.519   4.559   3.655
13518TIP3   OH240498   0.454   2.148   5.634
13518TIP3    H140499   0.535   2.189   5.604
13518TIP3    H240500   0.483   2.074   5.687
13519TIP3   OH240501   1.501   0.579   0.712
13519TIP3    H140502   1.553   0.607   0.787
13519TIP3    H240503   1.566   0.548   0.648
13520TIP3   OH240504   2.762   0.101   1.115
13520TIP3    H140505   2.671   0.110   1.087
13520TIP3    H240506   2.773   0.007   1.128
13521TIP3   OH240507   6.145   5.349   4.451
13521TIP3    H140508   6.070   5.294   4.429
13521TIP3    H240509   6.209   5.289   4.489
13522TIP3   OH240510   0.896   5.929   2.767
13522TIP3    H140511   0.974   5.983   2.752
13522TIP3    H240512   0.823   5.982   2.736
13523TIP3   OH240513   5.830   5.763   3.496
13523TIP3    H140514   5.870   5.755   3.583
13523TIP3    H240515   5.871   5.694   3.444
13524TIP3   OH240516   7.786   5.297   3.118
13524TIP3    H140517   7.736   5.367   3.159
13524TIP3    H240518   7.755   5.217   3.161
13525TIP3   OH240519   0.319   7.171   3.951
13525TIP3    H140520   0.329   7.199   4.043
13525TIP3    H240521   0.339   7.077   3.952
13526TIP3   OH240522   0.650   5.253   0.255
13526TIP3    H140523   0.579   5.285   0.310
13526TIP3    H240524   0.607   5.202   0.187
13527TIP3   OH240525   0.448   5.553   1.825
13527TIP3    H140526   0.513   5.581   1.889
13527TIP3    H240527   0.421   5.466   1.854
13528TIP3   OH240528   6.909   4.096   4.558
13528TIP3    H140529   6.837   4.096   4.622
13528TIP3    H240530   6.932   4.004   4.547
13529TIP3   OH240531   2.037   1.585   2.514
13529TIP3    H140532   2.068   1.660   2.564
13529TIP3    H240533   2.115   1.550   2.472
13530TIP3   OH240534   6.876   2.591   1.047
13530TIP3    H140535   6.813   2.569   0.979
13530TIP3    H240536   6.926   2.511   1.060
13531TIP3   OH240537   0.325   1.235   4.128
13531TIP3    H140538   0.288   1.217   4.215
13531TIP3    H240539   0.411   1.192   4.130
13532TIP3   OH240540   7.234   2.645   3.300
13532TIP3    H140541   7.197   2.670   3.216
13532TIP3    H240542   7.274   2.726   3.333
13533TIP3   OH240543   2.164   1.471   0.127
13533TIP3    H140544   2.203   1.522   0.056
13533TIP3    H240545   2.078   1.511   0.140
13534TIP3   OH240546   2.350   6.015   5.962
13534TIP3    H140547   2.368   6.109   5.955
13534TIP3    H240548   2.338   5.987   5.872
13535TIP3   OH240549   4.809   4.346   0.431
13535TIP3    H140550   4.825   4.272   0.373
13535TIP3    H240551   4.720   4.333   0.462
13536TIP3   OH240552   2.576   0.525   5.766
13536TIP3    H140553   2.616   0.455   5.715
13536TIP3    H240554   2.646   0.588   5.781
13537TIP3   OH240555   4.665   0.628   3.777
13537TIP3    H140556   4.655   0.540   3.812
13537TIP3    H240557   4.686   0.615   3.685
13538TIP3   OH240558   5.365   4.882   2.002
13538TIP3    H140559   5.438   4.820   2.002
13538TIP3    H240560   5.407   4.968   1.995
13539TIP3   OH240561   6.272   4.107   4.232
13539TIP3    H140562   6.344   4.163   4.260
13539TIP3    H240563   6.259   4.128   4.140
13540TIP3   OH240564   8.295   5.457   0.482
13540TIP3    H140565   8.210   5.415   0.495
13540TIP3    H240566   8.343   5.396   0.427
13541TIP3   OH240567   0.901   2.675   4.601
13541TIP3    H140568   0.986   2.665   4.557
13541TIP3    H240569   0.884   2.589   4.638
13542TIP3   OH240570   4.797   1.826   2.034
13542TIP3    H140571   4.755   1.762   2.091
13542TIP3    H240572   4.725   1.880   2.000
13543TIP3   OH240573   5.460   3.573   2.870
13543TIP3    H140574   5.485   3.504   2.931
13543TIP3    H240575   5.463   3.653   2.923
13544TIP3   OH240576   8.217   5.835   5.148
13544TIP3    H140577   8.136   5.878   5.123
13544TIP3    H240578   8.207   5.745   5.119
13545TIP3   OH240579   0.755   2.738   4.183
13545TIP3    H140580   0.680   2.786   4.150
13545TIP3    H240581   0.800   2.706   4.105
13546TIP3   OH240582   7.449   5.076   2.040
13546TIP3    H140583   7.383   5.138   2.011
13546TIP3    H240584   7.408   5.030   2.113
13547TIP3   OH240585   0.495   3.125   4.829
13547TIP3    H140586   0.540   3.146   4.911
13547TIP3    H240587   0.402   3.139   4.848
13548TIP3   OH240588   6.011   3.961   3.931
13548TIP3    H140589   5.962   3.999   3.858
13548TIP3    H240590   5.945   3.918   3.985
13549TIP3   OH240591   0.915   6.289   0.768
13549TIP3    H140592   0.909   6.194   0.776
13549TIP3    H240593   0.824   6.319   0.778
13550TIP3   OH240594   4.448   5.897   3.550
13550TIP3    H140595   4.482   5.808   3.555
13550TIP3    H240596   4.386   5.895   3.477
13551TIP3   OH240597   6.767   3.701   5.171
13551TIP3    H140598   6.734   3.650   5.097
13551TIP3    H240599   6.846   3.743   5.138
13552TIP3   OH240600   3.572   3.024   6.406
13552TIP3    H140601   3.496   3.015   6.463
13552TIP3    H240602   3.549   3.094   6.345
13553TIP3   OH240603   7.713   6.869   3.526
13553TIP3    H140604   7.661   6.838   3.451
13553TIP3    H240605   7.649   6.905   3.587
13554TIP3   OH240606   0.982   2.802   5.288
13554TIP3    H140607   0.951   2.768   5.372
13554TIP3    H240608   1.075   2.781   5.287
13555TIP3   OH240609   0.505   6.060   6.575
13555TIP3    H140610   0.498   5.974   6.617
13555TIP3    H240611   0.417   6.097   6.580
13556TIP3   OH240612   1.868   2.123   3.822
13556TIP3    H140613   1.923   2.201   3.829
13556TIP3    H240614   1.931   2.050   3.821
13557TIP3   OH240615   5.952   5.959   1.341
13557TIP3    H140616   5.956   5.939   1.247
13557TIP3    H240617   5.939   6.054   1.345
13558TIP3   OH240618   2.496   0.573   2.666
13558TIP3    H140619   2.508   0.480   2.646
13558TIP3    H240620   2.562   0.591   2.733
13559TIP3   OH240621   5.262   4.325   4.536
13559TIP3    H140622   5.229   4.368   4.615
13559TIP3    H240623   5.356   4.341   4.538
13560TIP3   OH240624   0.374   6.301   2.312
13560TIP3    H140625   0.362   6.289   2.406
13560TIP3    H240626   0.349   6.392   2.296
13561TIP3   OH240627   8.132   1.918   3.491
13561TIP3    H140628   8.066   1.851   3.471
13561TIP3    H240629   8.151   1.959   3.406
13562TIP3   OH240630   4.616   4.337   6.719
13562TIP3    H140631   4.669   4.339   6.798
13562TIP3    H240632   4.533   4.378   6.744
13563TIP3   OH240633   5.807   1.360   3.821
13563TIP3    H140634   5.877   1.381   3.882
13563TIP3    H240635   5.834   1.400   3.738
13564TIP3   OH240636   1.998   7.331   2.939
13564TIP3    H140637   2.037   7.306   2.855
13564TIP3    H240638   2.052   7.403   2.971
13565TIP3   OH240639   1.335   3.606   4.388
13565TIP3    H140640   1.308   3.698   4.380
13565TIP3    H240641   1.254   3.560   4.412
13566TIP3   OH240642   2.802   0.970   6.112
13566TIP3    H140643   2.780   1.049   6.162
13566TIP3    H240644   2.844   1.003   6.033
13567TIP3   OH240645   0.376   2.024   2.116
13567TIP3    H140646   0.327   1.945   2.090
13567TIP3    H240647   0.440   1.992   2.180
13568TIP3   OH240648   6.247   3.246   6.252
13568TIP3    H140649   6.303   3.310   6.207
13568TIP3    H240650   6.293   3.163   6.241
13569TIP3   OH240651   1.630   7.538   6.423
13569TIP3    H140652   1.644   7.608   6.359
13569TIP3    H240653   1.609   7.461   6.371
13570TIP3   OH240654   3.463   4.015   6.219
13570TIP3    H140655   3.544   3.970   6.243
13570TIP3    H240656   3.455   4.000   6.125
13571TIP3   OH240657   7.197   3.800   3.197
13571TIP3    H140658   7.184   3.841   3.282
13571TIP3    H240659   7.202   3.874   3.136
13572TIP3   OH240660   6.665   3.098   4.771
13572TIP3    H140661   6.744   3.081   4.823
13572TIP3    H240662   6.645   3.015   4.729
13573TIP3   OH240663   2.249   2.539   3.551
13573TIP3    H140664   2.186   2.476   3.587
13573TIP3    H240665   2.275   2.592   3.627
13574TIP3   OH240666   0.320   3.725   5.779
13574TIP3    H140667   0.283   3.720   5.691
13574TIP3    H240668   0.409   3.691   5.770
13575TIP3   OH240669   8.063   6.566   5.908
13575TIP3    H140670   7.998   6.524   5.852
13575TIP3    H240671   8.127   6.604   5.847
13576TIP3   OH240672   4.950   7.160   5.040
13576TIP3    H140673   4.888   7.228   5.012
13576TIP3    H240674   4.896   7.098   5.089
13577TIP3   OH240675   2.426   5.644   1.996
13577TIP3    H140676   2.453   5.635   2.088
13577TIP3    H240677   2.427   5.555   1.962
13578TIP3   OH240678   3.377   0.970   3.116
13578TIP3    H140679   3.396   0.986   3.023
13578TIP3    H240680   3.305   1.030   3.136
13579TIP3   OH240681   1.221   2.526   1.914
13579TIP3    H140682   1.230   2.482   1.829
13579TIP3    H240683   1.142   2.488   1.952
13580TIP3   OH240684   2.153   3.075   3.195
13580TIP3    H140685   2.231   3.050   3.244
13580TIP3    H240686   2.147   3.010   3.124
13581TIP3   OH240687   3.066   6.980   4.383
13581TIP3    H140688   3.148   6.934   4.398
13581TIP3    H240689   3.089   7.052   4.324
13582TIP3   OH240690   2.735   1.445   6.223
13582TIP3    H140691   2.654   1.440   6.274
13582TIP3    H240692   2.719   1.390   6.147
13583TIP3   OH240693   4.460   0.314   2.330
13583TIP3    H140694   4.442   0.221   2.339
13583TIP3    H240695   4.380   0.358   2.359
13584TIP3   OH240696   6.902   4.256   1.639
13584TIP3    H140697   6.870   4.341   1.669
13584TIP3    H240698   6.937   4.272   1.552
13585TIP3   OH240699   7.338   4.974   2.269
13585TIP3    H140700   7.414   5.015   2.311
13585TIP3    H240701   7.276   4.959   2.340
13586TIP3   OH240702   2.122   7.336   1.608
13586TIP3    H140703   2.165   7.278   1.545
13586TIP3    H240704   2.039   7.292   1.629
13587TIP3   OH240705   3.601   0.549   5.546
13587TIP3    H140706   3.539   0.483   5.578
13587TIP3    H240707   3.585   0.555   5.452
13588TIP3   OH240708   2.778   3.018   2.598
13588TIP3    H140709   2.815   2.973   2.523
13588TIP3    H240710   2.774   3.110   2.572
13589TIP3   OH240711   6.383   7.536   3.704
13589TIP3    H140712   6.429   7.579   3.776
13589TIP3    H240713   6.428   7.452   3.694
13590TIP3   OH240714   5.989   6.783   3.977
13590TIP3    H140715   6.068   6.832   3.953
13590TIP3    H240716   5.919   6.823   3.926
13591TIP3   OH240717   6.297   2.235   1.480
13591TIP3    H140718   6.243   2.192   1.414
13591TIP3    H240719   6.350   2.298   1.431
13592TIP3   OH240720   1.650   2.753   3.421
13592TIP3    H140721   1.611   2.821   3.475
13592TIP3    H240722   1.742   2.751   3.447
13593TIP3   OH240723   2.975   2.265   5.624
13593TIP3    H140724   3.051   2.321   5.604
13593TIP3    H240725   3.008   2.201   5.686
13594TIP3   OH240726   0.361   1.542   0.316
13594TIP3    H140727   0.321   1.506   0.396
13594TIP3    H240728   0.360   1.637   0.330
13595TIP3   OH240729   1.759   2.070   2.568
13595TIP3    H140730   1.762   2.166   2.575
13595TIP3    H240731   1.843   2.041   2.602
13596TIP3   OH240732   7.556   3.823   1.583
13596TIP3    H140733   7.618   3.844   1.652
13596TIP3    H240734   7.487   3.773   1.627
13597TIP3   OH240735   8.292   6.244   5.694
13597TIP3    H140736   8.343   6.323   5.709
13597TIP3    H240737   8.211   6.274   5.652
13598TIP3   OH240738   0.658   2.389   4.052
13598TIP3    H140739   0.571   2.353   4.068
13598TIP3    H240740   0.705   2.377   4.135
13599TIP3   OH240741   6.648   6.924   0.925
13599TIP3    H140742   6.649   6.847   0.867
13599TIP3    H240743   6.693   6.992   0.875
13600TIP3   OH240744   3.586   3.748   6.116
13600TIP3    H140745   3.609   3.758   6.208
13600TIP3    H240746   3.646   3.807   6.070
13601TIP3   OH240747   2.595   5.011   2.051
13601TIP3    H140748   2.556   5.097   2.066
13601TIP3    H240749   2.661   5.027   1.983
13602TIP3   OH240750   4.167   6.796   2.243
13602TIP3    H140751   4.228   6.789   2.169
13602TIP3    H240752   4.094   6.740   2.218
13603TIP3   OH240753   4.494   6.862   1.234
13603TIP3    H140754   4.470   6.799   1.167
13603TIP3    H240755   4.568   6.910   1.197
13604TIP3   OH240756   5.898   7.137   1.506
13604TIP3    H140757   5.871   7.047   1.526
13604TIP3    H240758   5.964   7.127   1.437
13605TIP3   OH240759   4.156   0.961   4.108
13605TIP3    H140760   4.218   0.932   4.041
13605TIP3    H240761   4.091   1.013   4.061
13606TIP3   OH240762   3.330   6.913   2.355
13606TIP3    H140763   3.294   6.825   2.343
13606TIP3    H240764   3.281   6.967   2.294
13607TIP3   OH240765   6.128   1.412   2.882
13607TIP3    H140766   6.187   1.381   2.952
13607TIP3    H240767   6.072   1.476   2.925
13608TIP3   OH240768   3.210   4.536   5.937
13608TIP3    H140769   3.255   4.619   5.947
13608TIP3    H240770   3.278   4.476   5.905
13609TIP3   OH240771   6.869   7.068   1.373
13609TIP3    H140772   6.833   7.015   1.444
13609TIP3    H240773   6.878   7.006   1.300
13610TIP3   OH240774   4.100   7.537   1.244
13610TIP3    H140775   4.195   7.542   1.255
13610TIP3    H240776   4.065   7.586   1.319
13611TIP3   OH240777   4.636   4.595   0.764
13611TIP3    H140778   4.561   4.539   0.786
13611TIP3    H240779   4.648   4.582   0.670
13612TIP3   OH240780   5.941   5.110   5.387
13612TIP3    H140781   5.853   5.072   5.397
13612TIP3    H240782   6.000   5.043   5.420
13613TIP3   OH240783   5.634   5.639   0.233
13613TIP3    H140784   5.607   5.727   0.208
13613TIP3    H240785   5.618   5.634   0.327
13614TIP3   OH240786   0.672   6.347   3.518
13614TIP3    H140787   0.581   6.330   3.495
13614TIP3    H240788   0.704   6.263   3.552
13615TIP3   OH240789   4.126   7.236   5.529
13615TIP3    H140790   4.105   7.316   5.481
13615TIP3    H240791   4.134   7.264   5.621
13616TIP3   OH240792   3.184   3.985   4.591
13616TIP3    H140793   3.153   4.072   4.616
13616TIP3    H240794   3.245   3.960   4.660
13617TIP3   OH240795   2.012   3.477   2.333
13617TIP3    H140796   2.000   3.392   2.376
13617TIP3    H240797   2.090   3.514   2.375
13618TIP3   OH240798   3.640   2.820   3.674
13618TIP3    H140799   3.699   2.894   3.690
13618TIP3    H240800   3.618   2.787   3.761
13619TIP3   OH240801   1.443   7.327   2.045
13619TIP3    H140802   1.495   7.256   2.084
13619TIP3    H240803   1.420   7.383   2.119
13620TIP3   OH240804   6.674   5.779   5.597
13620TIP3    H140805   6.754   5.728   5.587
13620TIP3    H240806   6.630   5.741   5.673
13621TIP3   OH240807   5.584   3.768   5.914
13621TIP3    H140808   5.559   3.696   5.855
13621TIP3    H240809   5.611   3.839   5.855
13622TIP3   OH240810   6.490   3.566   1.334
13622TIP3    H140811   6.405   3.605   1.314
13622TIP3    H240812   6.476   3.517   1.415
13623TIP3   OH240813   5.485   2.703   4.117
13623TIP3    H140814   5.445   2.619   4.094
13623TIP3    H240815   5.411   2.761   4.131
13624TIP3   OH240816   2.670   0.285   4.088
13624TIP3    H140817   2.701   0.375   4.098
13624TIP3    H240818   2.691   0.243   4.172
13625TIP3   OH240819   4.685   0.341   1.705
13625TIP3    H140820   4.763   0.290   1.685
13625TIP3    H240821   4.719   0.421   1.745
13626TIP3   OH240822   1.709   0.959   3.027
13626TIP3    H140823   1.798   0.994   3.028
13626TIP3    H240824   1.659   1.021   2.973
13627TIP3   OH240825   4.573   1.904   5.067
13627TIP3    H140826   4.658   1.875   5.034
13627TIP3    H240827   4.576   1.888   5.161
13628TIP3   OH240828   6.384   5.244   0.028
13628TIP3    H140829   6.419   5.228  -0.060
13628TIP3    H240830   6.461   5.246   0.085
13629TIP3   OH240831   4.025   6.901   1.187
13629TIP3    H140832   4.079   6.823   1.172
13629TIP3    H240833   4.026   6.947   1.103
13630TIP3   OH240834   1.617   0.000   5.853
13630TIP3    H140835   1.551   0.062   5.887
13630TIP3    H240836   1.622   0.019   5.759
13631TIP3   OH240837   8.195   6.696   4.493
13631TIP3    H140838   8.208   6.611   4.535
13631TIP3    H240839   8.253   6.695   4.417
13632TIP3   OH240840   3.547   1.507   2.430
13632TIP3    H140841   3.511   1.555   2.355
13632TIP3    H240842   3.512   1.418   2.421
13633TIP3   OH240843   4.893   6.617   4.838
13633TIP3    H140844   4.837   6.680   4.884
13633TIP3    H240845   4.878   6.534   4.884
13634TIP3   OH240846   0.711   0.572   5.356
13634TIP3    H140847   0.671   0.527   5.429
13634TIP3    H240848   0.646   0.569   5.286
13635TIP3   OH240849   0.520   2.395   2.665
13635TIP3    H140850   0.483   2.430   2.584
13635TIP3    H240851   0.597   2.345   2.635
13636TIP3   OH240852   7.873   5.755   2.351
13636TIP3    H140853   7.953   5.727   2.307
13636TIP3    H240854   7.898   5.832   2.401
13637TIP3   OH240855   2.271   1.958   1.566
13637TIP3    H140856   2.357   1.943   1.605
13637TIP3    H240857   2.235   1.870   1.555
13638TIP3   OH240858   2.513   6.298   2.883
13638TIP3    H140859   2.467   6.381   2.888
13638TIP3    H240860   2.501   6.269   2.792
13639TIP3   OH240861   3.647   3.284   4.744
13639TIP3    H140862   3.710   3.347   4.709
13639TIP3    H240863   3.694   3.239   4.814
13640TIP3   OH240864   1.209   0.551   1.314
13640TIP3    H140865   1.164   0.606   1.251
13640TIP3    H240866   1.182   0.586   1.399
13641TIP3   OH240867   8.179   5.354   3.709
13641TIP3    H140868   8.248   5.415   3.735
13641TIP3    H240869   8.192   5.342   3.615
13642TIP3   OH240870   3.278   3.489   6.579
13642TIP3    H140871   3.353   3.515   6.526
13642TIP3    H240872   3.213   3.459   6.515
13643TIP3   OH240873   7.129   4.521   1.494
13643TIP3    H140874   7.189   4.448   1.505
13643TIP3    H240875   7.074   4.497   1.419
13644TIP3   OH240876   6.134   4.368   0.722
13644TIP3    H140877   6.116   4.379   0.816
13644TIP3    H240878   6.209   4.307   0.720
13645TIP3   OH240879   8.029   4.294   0.839
13645TIP3    H140880   7.960   4.265   0.899
13645TIP3    H240881   7.991   4.281   0.752
13646TIP3   OH240882   5.416   2.695   5.375
13646TIP3    H140883   5.432   2.681   5.468
13646TIP3    H240884   5.328   2.732   5.370
13647TIP3   OH240885   1.546   4.226   0.094
13647TIP3    H140886   1.451   4.228   0.109
13647TIP3    H240887   1.568   4.315   0.067
13648TIP3   OH240888   3.898   7.127   2.947
13648TIP3    H140889   3.805   7.115   2.928
13648TIP3    H240890   3.931   7.175   2.871
13649TIP3   OH240891   6.674   6.888   1.922
13649TIP3    H140892   6.633   6.903   2.008
13649TIP3    H240893   6.638   6.804   1.893
13650TIP3   OH240894   0.628   1.999   2.912
13650TIP3    H140895   0.611   1.905   2.907
13650TIP3    H240896   0.649   2.025   2.822
13651TIP3   OH240897   6.965   4.553   1.246
13651TIP3    H140898   6.885   4.558   1.298
13651TIP3    H240899   7.008   4.638   1.259
13652TIP3   OH240900   3.865   7.159   3.236
13652TIP3    H140901   3.813   7.238   3.221
13652TIP3    H240902   3.874   7.120   3.150
13653TIP3   OH240903   2.884   3.976   4.857
13653TIP3    H140904   2.900   4.031   4.934
13653TIP3    H240905   2.969   3.934   4.840
13654TIP3   OH240906   0.199   4.666   3.551
13654TIP3    H140907   0.214   4.745   3.603
13654TIP3    H240908   0.105   4.650   3.557
13655TIP3   OH240909   2.289   7.568   3.828
13655TIP3    H140910   2.324   7.484   3.799
13655TIP3    H240911   2.344   7.633   3.785
13656TIP3   OH240912   6.782   5.975   3.577
13656TIP3    H140913   6.816   5.954   3.664
13656TIP3    H240914   6.854   5.955   3.518
13657TIP3   OH240915   4.591   4.426   5.467
13657TIP3    H140916   4.585   4.507   5.519
13657TIP3    H240917   4.684   4.402   5.472
13658TIP3   OH240918   5.109   1.189   0.929
13658TIP3    H140919   5.058   1.248   0.874
13658TIP3    H240920   5.129   1.241   1.007
13659TIP3   OH240921   5.057   0.573   1.865
13659TIP3    H140922   5.087   0.502   1.922
13659TIP3    H240923   4.962   0.566   1.867
13660TIP3   OH240924   5.582   5.589   6.750
13660TIP3    H140925   5.600   5.679   6.724
13660TIP3    H240926   5.489   5.576   6.730
13661TIP3   OH240927   8.234   4.370   2.038
13661TIP3    H140928   8.309   4.420   2.006
13661TIP3    H240929   8.273   4.291   2.077
13662TIP3   OH240930   6.574   3.905   0.871
13662TIP3    H140931   6.626   3.916   0.792
13662TIP3    H240932   6.610   3.969   0.933
13663TIP3   OH240933   4.715   4.242   4.465
13663TIP3    H140934   4.774   4.260   4.539
13663TIP3    H240935   4.675   4.327   4.446
13664TIP3   OH240936   6.653   5.579   0.344
13664TIP3    H140937   6.559   5.564   0.334
13664TIP3    H240938   6.684   5.505   0.396
13665TIP3   OH240939   6.308   5.204   1.566
13665TIP3    H140940   6.305   5.279   1.626
13665TIP3    H240941   6.216   5.180   1.554
13666TIP3   OH240942   6.551   5.323   6.509
13666TIP3    H140943   6.640   5.330   6.474
13666TIP3    H240944   6.530   5.411   6.540
13667TIP3   OH240945   1.088   5.547   0.613
13667TIP3    H140946   1.102   5.639   0.591
13667TIP3    H240947   1.046   5.549   0.699
13668TIP3   OH240948   0.493   5.968   4.114
13668TIP3    H140949   0.477   5.894   4.174
13668TIP3    H240950   0.426   6.032   4.137
13669TIP3   OH240951   4.748   7.284   4.783
13669TIP3    H140952   4.782   7.361   4.738
13669TIP3    H240953   4.814   7.216   4.768
13670TIP3   OH240954   7.336   4.324   1.492
13670TIP3    H140955   7.432   4.325   1.481
13670TIP3    H240956   7.310   4.238   1.459
13671TIP3   OH240957   2.743   7.175   0.067
13671TIP3    H140958   2.756   7.115  -0.007
13671TIP3    H240959   2.649   7.190   0.069
13672TIP3   OH240960   1.711   0.220   0.242
13672TIP3    H140961   1.799   0.252   0.227
13672TIP3    H240962   1.712   0.130   0.208
13673TIP3   OH240963   2.564   0.989   1.037
13673TIP3    H140964   2.569   0.951   0.949
13673TIP3    H240965   2.617   0.931   1.091
13674TIP3   OH240966   6.750   5.622   6.629
13674TIP3    H140967   6.779   5.598   6.717
13674TIP3    H240968   6.655   5.626   6.635
13675TIP3   OH240969   7.658   1.265   1.463
13675TIP3    H140970   7.736   1.264   1.407
13675TIP3    H240971   7.633   1.357   1.467
13676TIP3   OH240972   5.533   3.944   3.382
13676TIP3    H140973   5.530   4.030   3.425
13676TIP3    H240974   5.518   3.964   3.289
13677TIP3   OH240975   1.849   5.693   1.075
13677TIP3    H140976   1.901   5.711   0.997
13677TIP3    H240977   1.885   5.612   1.110
13678TIP3   OH240978   6.718   7.124   5.691
13678TIP3    H140979   6.749   7.061   5.627
13678TIP3    H240980   6.714   7.075   5.773
13679TIP3   OH240981   2.088   6.966   1.661
13679TIP3    H140982   2.021   7.024   1.697
13679TIP3    H240983   2.101   6.997   1.571
13680TIP3   OH240984   2.371   5.508   5.819
13680TIP3    H140985   2.317   5.510   5.898
13680TIP3    H240986   2.410   5.421   5.819
13681TIP3   OH240987   1.820   2.182   0.261
13681TIP3    H140988   1.906   2.141   0.265
13681TIP3    H240989   1.811   2.228   0.344
13682TIP3   OH240990   0.919   4.900   3.138
13682TIP3    H140991   0.846   4.848   3.170
13682TIP3    H240992   0.919   4.888   3.044
13683TIP3   OH240993   3.331   5.141   2.864
13683TIP3    H140994   3.256   5.195   2.840
13683TIP3    H240995   3.392   5.202   2.905
13684TIP3   OH240996   0.765   3.121   3.648
13684TIP3    H140997   0.853   3.113   3.685
13684TIP3    H240998   0.720   3.181   3.708
13685TIP3   OH240999   3.894   6.403   2.962
13685TIP3    H141000   3.922   6.403   2.871
13685TIP3    H241001   3.969   6.372   3.011
13686TIP3   OH241002   5.429   2.588   4.686
13686TIP3    H141003   5.424   2.621   4.597
13686TIP3    H241004   5.369   2.513   4.688
13687TIP3   OH241005   2.461   1.416   2.378
13687TIP3    H141006   2.390   1.473   2.348
13687TIP3    H241007   2.519   1.409   2.302
13688TIP3   OH241008   1.110   6.884   6.730
13688TIP3    H141009   1.127   6.791   6.737
13688TIP3    H241010   1.189   6.926   6.763
13689TIP3   OH241011   4.027   2.482   3.477
13689TIP3    H141012   3.999   2.393   3.497
13689TIP3    H241013   4.003   2.532   3.555
13690TIP3   OH241014   7.546   5.934   0.230
13690TIP3    H141015   7.576   5.976   0.311
13690TIP3    H241016   7.488   6.000   0.190
13691TIP3   OH241017   4.272   3.324   1.485
13691TIP3    H141018   4.181   3.351   1.470
13691TIP3    H241019   4.324   3.387   1.435
13692TIP3   OH241020   1.600   5.221   5.607
13692TIP3    H141021   1.666   5.249   5.544
13692TIP3    H241022   1.636   5.245   5.692
13693TIP3   OH241023   5.288   5.383   6.430
13693TIP3    H141024   5.256   5.375   6.340
13693TIP3    H241025   5.309   5.293   6.456
13694TIP3   OH241026   3.219   2.440   2.216
13694TIP3    H141027   3.222   2.474   2.305
13694TIP3    H241028   3.310   2.445   2.185
13695TIP3   OH241029   0.773   5.454   1.943
13695TIP3    H141030   0.810   5.377   1.986
13695TIP3    H241031   0.787   5.439   1.850
13696TIP3   OH241032   3.786   1.378   5.975
13696TIP3    H141033   3.728   1.346   6.044
13696TIP3    H241034   3.727   1.405   5.904
13697TIP3   OH241035   6.452   4.705   3.466
13697TIP3    H141036   6.482   4.701   3.376
13697TIP3    H241037   6.521   4.753   3.512
13698TIP3   OH241038   7.136   0.097   1.971
13698TIP3    H141039   7.105   0.079   1.882
13698TIP3    H241040   7.079   0.045   2.027
13699TIP3   OH241041   5.846   4.974   3.138
13699TIP3    H141042   5.884   4.889   3.114
13699TIP3    H241043   5.865   4.983   3.231
13700TIP3   OH241044   6.395   0.506   6.068
13700TIP3    H141045   6.407   0.555   6.150
13700TIP3    H241046   6.441   0.423   6.083
13701TIP3   OH241047   1.495   7.721   3.779
13701TIP3    H141048   1.563   7.680   3.832
13701TIP3    H241049   1.433   7.651   3.760
13702TIP3   OH241050   7.172   6.281   3.139
13702TIP3    H141051   7.201   6.194   3.164
13702TIP3    H241052   7.115   6.309   3.211
13703TIP3   OH241053   5.065   3.292   3.646
13703TIP3    H141054   5.023   3.208   3.627
13703TIP3    H241055   5.141   3.268   3.700
13704TIP3   OH241056   3.842   4.681   5.508
13704TIP3    H141057   3.772   4.738   5.538
13704TIP3    H241058   3.804   4.632   5.435
13705TIP3   OH241059   5.024   6.696   3.706
13705TIP3    H141060   4.941   6.659   3.675
13705TIP3    H241061   5.091   6.637   3.670
13706TIP3   OH241062   6.623   6.812   4.660
13706TIP3    H141063   6.711   6.779   4.647
13706TIP3    H241064   6.596   6.775   4.744
13707TIP3   OH241065   4.910   7.342   2.163
13707TIP3    H141066   4.902   7.339   2.258
13707TIP3    H241067   4.823   7.366   2.132
13708TIP3   OH241068   1.117   2.014   3.160
13708TIP3    H141069   1.032   1.996   3.198
13708TIP3    H241070   1.166   1.932   3.168
13709TIP3   OH241071   0.668   3.740   6.650
13709TIP3    H141072   0.727   3.758   6.723
13709TIP3    H241073   0.656   3.645   6.652
13710TIP3   OH241074   7.218   7.741   6.579
13710TIP3    H141075   7.213   7.832   6.550
13710TIP3    H241076   7.178   7.691   6.508
13711TIP3   OH241077   3.763   6.897   2.243
13711TIP3    H141078   3.826   6.864   2.180
13711TIP3    H241079   3.679   6.864   2.213
13712TIP3   OH241080   0.849   4.729   5.950
13712TIP3    H141081   0.816   4.727   5.860
13712TIP3    H241082   0.875   4.820   5.964
13713TIP3   OH241083   0.748   1.017   1.000
13713TIP3    H141084   0.666   1.046   1.038
13713TIP3    H241085   0.779   1.092   0.949
13714TIP3   OH241086   5.473   3.353   6.289
13714TIP3    H141087   5.502   3.369   6.379
13714TIP3    H241088   5.506   3.428   6.240
13715TIP3   OH241089   3.094   7.591   1.935
13715TIP3    H141090   3.097   7.510   1.884
13715TIP3    H241091   3.126   7.658   1.875
13716TIP3   OH241092   6.187   7.027   2.856
13716TIP3    H141093   6.264   7.039   2.801
13716TIP3    H241094   6.169   6.933   2.853
13717TIP3   OH241095   1.329   6.362   2.981
13717TIP3    H141096   1.257   6.324   3.032
13717TIP3    H241097   1.379   6.414   3.044
13718TIP3   OH241098   6.800   5.936   6.451
13718TIP3    H141099   6.814   6.028   6.428
13718TIP3    H241100   6.774   5.937   6.543
13719TIP3   OH241101   7.975   4.967   5.578
13719TIP3    H141102   7.926   5.036   5.534
13719TIP3    H241103   7.943   4.886   5.539
13720TIP3   OH241104   5.138   6.995   5.986
13720TIP3    H141105   5.070   7.039   6.037
13720TIP3    H241106   5.090   6.955   5.913
13721TIP3   OH241107   2.534   3.974   5.648
13721TIP3    H141108   2.600   3.935   5.590
13721TIP3    H241109   2.507   3.903   5.705
13722TIP3   OH241110   5.926   7.313   1.966
13722TIP3    H141111   5.850   7.348   2.014
13722TIP3    H241112   5.925   7.220   1.985
13723TIP3   OH241113   3.838   2.895   0.315
13723TIP3    H141114   3.799   2.914   0.400
13723TIP3    H241115   3.766   2.907   0.253
13724TIP3   OH241116   1.748   2.052   0.502
13724TIP3    H141117   1.669   2.026   0.454
13724TIP3    H241118   1.747   2.147   0.500
13725TIP3   OH241119   4.111   1.256   5.984
13725TIP3    H141120   4.082   1.262   5.893
13725TIP3    H241121   4.047   1.201   6.027
13726TIP3   OH241122   1.822   4.157   4.659
13726TIP3    H141123   1.843   4.083   4.716
13726TIP3    H241124   1.786   4.117   4.580
13727TIP3   OH241125   2.801   0.647   5.168
13727TIP3    H141126   2.708   0.642   5.187
13727TIP3    H241127   2.805   0.669   5.074
13728TIP3   OH241128   2.830   1.885   6.396
13728TIP3    H141129   2.922   1.892   6.423
13728TIP3    H241130   2.781   1.887   6.477
13729TIP3   OH241131   4.416   0.352   1.735
13729TIP3    H141132   4.364   0.311   1.804
13729TIP3    H241133   4.504   0.359   1.773
13730TIP3   OH241134   8.276   4.469   2.509
13730TIP3    H141135   8.325   4.524   2.448
13730TIP3    H241136   8.186   4.500   2.502
13731TIP3   OH241137   8.196   3.445   0.747
13731TIP3    H141138   8.219   3.483   0.662
13731TIP3    H241139   8.100   3.448   0.750
13732TIP3   OH241140   0.009   4.487   4.611
13732TIP3    H141141  -0.013   4.425   4.681
13732TIP3    H241142   0.030   4.568   4.657
13733TIP3   OH241143   8.117   0.803   4.079
13733TIP3    H141144   8.178   0.876   4.068
13733TIP3    H241145   8.054   0.834   4.146
13734TIP3   OH241146   4.520   3.635   3.405
13734TIP3    H141147   4.608   3.620   3.440
13734TIP3    H241148   4.523   3.600   3.316
13735TIP3   OH241149   2.435   6.226   3.847
13735TIP3    H141150   2.485   6.220   3.929
13735TIP3    H241151   2.460   6.148   3.798
13736TIP3   OH241152   2.223   2.609   3.830
13736TIP3    H141153   2.208   2.657   3.911
13736TIP3    H241154   2.272   2.531   3.856
13737TIP3   OH241155   3.930   6.548   0.836
13737TIP3    H141156   3.908   6.455   0.842
13737TIP3    H241157   3.854   6.593   0.875
13738TIP3   OH241158   4.866   7.593   0.217
13738TIP3    H141159   4.804   7.666   0.230
13738TIP3    H241160   4.934   7.607   0.283
13739TIP3   OH241161   6.438   5.985   1.668
13739TIP3    H141162   6.443   5.891   1.651
13739TIP3    H241163   6.386   6.020   1.595
13740TIP3   OH241164   7.348   6.703   6.695
13740TIP3    H141165   7.365   6.742   6.609
13740TIP3    H241166   7.379   6.613   6.687
13741TIP3   OH241167   0.449   0.945   2.051
13741TIP3    H141168   0.424   1.013   1.988
13741TIP3    H241169   0.544   0.957   2.063
13742TIP3   OH241170   7.747   2.980   6.200
13742TIP3    H141171   7.839   3.002   6.190
13742TIP3    H241172   7.726   3.006   6.290
13743TIP3   OH241173   6.303   4.276   3.160
13743TIP3    H141174   6.270   4.200   3.208
13743TIP3    H241175   6.395   4.283   3.186
13744TIP3   OH241176   4.212   6.758   5.894
13744TIP3    H141177   4.288   6.708   5.864
13744TIP3    H241178   4.216   6.752   5.989
13745TIP3   OH241179   3.806   7.183   6.132
13745TIP3    H141180   3.843   7.212   6.048
13745TIP3    H241181   3.724   7.140   6.109
13746TIP3   OH241182   1.972   7.238   4.479
13746TIP3    H141183   1.942   7.179   4.548
13746TIP3    H241184   2.066   7.219   4.470
13747TIP3   OH241185   6.122   4.717   5.665
13747TIP3    H141186   6.058   4.787   5.675
13747TIP3    H241187   6.204   4.763   5.645
13748TIP3   OH241188   6.565   0.650   5.024
13748TIP3    H141189   6.489   0.598   5.000
13748TIP3    H241190   6.621   0.649   4.946
13749TIP3   OH241191   2.648   0.292   0.500
13749TIP3    H141192   2.647   0.333   0.414
13749TIP3    H241193   2.641   0.364   0.562
13750TIP3   OH241194   4.675   5.938   3.804
13750TIP3    H141195   4.669   6.032   3.785
13750TIP3    H241196   4.630   5.927   3.888
13751TIP3   OH241197   6.265   7.445   5.906
13751TIP3    H141198   6.247   7.356   5.935
13751TIP3    H241199   6.179   7.482   5.888
13752TIP3   OH241200   4.662   0.591   2.105
13752TIP3    H141201   4.640   0.584   2.198
13752TIP3    H241202   4.756   0.613   2.104
13753TIP3   OH241203   1.764   3.557   3.499
13753TIP3    H141204   1.739   3.643   3.464
13753TIP3    H241205   1.691   3.532   3.555
13754TIP3   OH241206   1.678   3.130   6.706
13754TIP3    H141207   1.663   3.045   6.665
13754TIP3    H241208   1.750   3.115   6.766
13755TIP3   OH241209   6.491   3.883   5.539
13755TIP3    H141210   6.517   3.796   5.507
13755TIP3    H241211   6.407   3.867   5.583
13756TIP3   OH241212   7.589   2.398   6.156
13756TIP3    H141213   7.668   2.453   6.159
13756TIP3    H241214   7.536   2.437   6.086
13757TIP3   OH241215   5.120   2.047   6.548
13757TIP3    H141216   5.070   2.084   6.622
13757TIP3    H241217   5.075   1.966   6.528
13758TIP3   OH241218   1.088   7.256   2.174
13758TIP3    H141219   1.066   7.337   2.129
13758TIP3    H241220   1.008   7.205   2.173
13759TIP3   OH241221   2.854   1.524   2.819
13759TIP3    H141222   2.914   1.511   2.746
13759TIP3    H241223   2.785   1.459   2.805
13760TIP3   OH241224   4.083   6.617   0.610
13760TIP3    H141225   4.043   6.573   0.684
13760TIP3    H241226   4.013   6.626   0.546
13761TIP3   OH241227   7.124   3.374   6.513
13761TIP3    H141228   7.175   3.325   6.578
13761TIP3    H241229   7.105   3.457   6.556
13762TIP3   OH241230   2.191   2.885   6.239
13762TIP3    H141231   2.113   2.904   6.292
13762TIP3    H241232   2.161   2.891   6.149
13763TIP3   OH241233   5.542   4.358   4.497
13763TIP3    H141234   5.574   4.447   4.483
13763TIP3    H241235   5.621   4.304   4.495
13764TIP3   OH241236   2.886   7.244   3.563
13764TIP3    H141237   2.967   7.293   3.548
13764TIP3    H241238   2.890   7.218   3.655
13765TIP3   OH241239   5.566   5.010   3.567
13765TIP3    H141240   5.500   4.976   3.628
13765TIP3    H241241   5.594   5.093   3.607
13766TIP3   OH241242   0.422   7.232   2.747
13766TIP3    H141243   0.432   7.303   2.683
13766TIP3    H241244   0.360   7.172   2.706
13767TIP3   OH241245   1.041   3.099   3.977
13767TIP3    H141246   1.036   3.185   4.019
13767TIP3    H241247   1.084   3.043   4.041
13768TIP3   OH241248   2.432   2.600   4.692
13768TIP3    H141249   2.366   2.669   4.685
13768TIP3    H241250   2.416   2.544   4.616
13769TIP3   OH241251   5.301   4.706   4.215
13769TIP3    H141252   5.379   4.654   4.194
13769TIP3    H241253   5.320   4.744   4.301
13770TIP3   OH241254   4.355   0.347   2.978
13770TIP3    H141255   4.420   0.304   2.923
13770TIP3    H241256   4.359   0.299   3.061
13771TIP3   OH241257   6.862   5.616   4.096
13771TIP3    H141258   6.900   5.584   4.177
13771TIP3    H241259   6.805   5.688   4.123
13772TIP3   OH241260   5.426   5.396   3.788
13772TIP3    H141261   5.423   5.418   3.881
13772TIP3    H241262   5.344   5.349   3.772
13773TIP3   OH241263   1.141   6.103   2.822
13773TIP3    H141264   1.172   6.175   2.768
13773TIP3    H241265   1.116   6.144   2.905
13774TIP3   OH241266   1.464   6.584   2.111
13774TIP3    H141267   1.416   6.569   2.029
13774TIP3    H241268   1.497   6.497   2.135
13775TIP3   OH241269   0.889   7.070   1.659
13775TIP3    H141270   0.808   7.046   1.704
13775TIP3    H241271   0.955   7.071   1.728
13776TIP3   OH241272   7.784   1.876   3.572
13776TIP3    H141273   7.710   1.828   3.535
13776TIP3    H241274   7.776   1.964   3.536
13777TIP3   OH241275   2.158   7.123   4.798
13777TIP3    H141276   2.223   7.185   4.832
13777TIP3    H241277   2.096   7.177   4.749
13778TIP3   OH241278   7.319   5.928   6.093
13778TIP3    H141279   7.261   5.864   6.052
13778TIP3    H241280   7.383   5.875   6.140
13779TIP3   OH241281   0.936   3.198   4.665
13779TIP3    H141282   1.000   3.263   4.694
13779TIP3    H241283   0.948   3.192   4.571
13780TIP3   OH241284   2.000   2.567   0.768
13780TIP3    H141285   2.090   2.598   0.769
13780TIP3    H241286   2.006   2.472   0.759
13781TIP3   OH241287   1.263   4.060   0.959
13781TIP3    H141288   1.198   3.997   0.927
13781TIP3    H241289   1.300   4.019   1.037
13782TIP3   OH241290   6.638   5.173   4.819
13782TIP3    H141291   6.714   5.120   4.844
13782TIP3    H241292   6.632   5.164   4.724
13783TIP3   OH241293   4.556   2.303   1.185
13783TIP3    H141294   4.639   2.337   1.151
13783TIP3    H241295   4.557   2.210   1.161
13784TIP3   OH241296   5.436   2.248   1.961
13784TIP3    H141297   5.525   2.222   1.986
13784TIP3    H241298   5.437   2.344   1.966
13785TIP3   OH241299   7.083   3.112   4.753
13785TIP3    H141300   7.080   3.196   4.798
13785TIP3    H241301   7.100   3.047   4.822
13786TIP3   OH241302   1.493   0.418   1.743
13786TIP3    H141303   1.496   0.513   1.735
13786TIP3    H241304   1.470   0.402   1.834
13787TIP3   OH241305   1.129   1.333   3.753
13787TIP3    H141306   1.081   1.416   3.758
13787TIP3    H241307   1.177   1.329   3.836
13788TIP3   OH241308   2.839   3.675   3.667
13788TIP3    H141309   2.838   3.769   3.650
13788TIP3    H241310   2.887   3.665   3.749
13789TIP3   OH241311   7.053   0.267   0.888
13789TIP3    H141312   7.143   0.300   0.894
13789TIP3    H241313   7.026   0.255   0.979
13790TIP3   OH241314   0.950   1.677   2.293
13790TIP3    H141315   0.975   1.729   2.369
13790TIP3    H241316   0.947   1.587   2.325
13791TIP3   OH241317   7.867   0.975   0.319
13791TIP3    H141318   7.851   1.069   0.326
13791TIP3    H241319   7.958   0.967   0.291
13792TIP3   OH241320   4.944   0.324   4.313
13792TIP3    H141321   5.035   0.352   4.323
13792TIP3    H241322   4.903   0.393   4.262
13793TIP3   OH241323   5.700   3.089   5.804
13793TIP3    H141324   5.751   3.099   5.884
13793TIP3    H241325   5.700   2.995   5.787
13794TIP3   OH241326   7.781   4.207   1.653
13794TIP3    H141327   7.876   4.215   1.642
13794TIP3    H241328   7.744   4.250   1.575
13795TIP3   OH241329   7.167   4.043   5.470
13795TIP3    H141330   7.233   3.977   5.447
13795TIP3    H241331   7.107   3.998   5.529
13796TIP3   OH241332   6.642   7.341   0.577
13796TIP3    H141333   6.558   7.330   0.621
13796TIP3    H241334   6.621   7.348   0.484
13797TIP3   OH241335   2.553   3.538   0.048
13797TIP3    H141336   2.617   3.472   0.026
13797TIP3    H241337   2.598   3.622   0.036
13798TIP3   OH241338   5.942   0.311   5.576
13798TIP3    H141339   6.016   0.315   5.517
13798TIP3    H241340   5.949   0.391   5.629
13799TIP3   OH241341   0.982   6.617   1.174
13799TIP3    H141342   0.888   6.631   1.166
13799TIP3    H241343   1.019   6.653   1.093
13800TIP3   OH241344   4.667   4.555   2.008
13800TIP3    H141345   4.615   4.624   2.048
13800TIP3    H241346   4.652   4.565   1.914
13801TIP3   OH241347   0.332   4.238   0.602
13801TIP3    H141348   0.322   4.240   0.698
13801TIP3    H241349   0.306   4.325   0.573
13802TIP3   OH241350   2.179   3.298   5.867
13802TIP3    H141351   2.166   3.246   5.947
13802TIP3    H241352   2.121   3.258   5.803
13803TIP3   OH241353   3.509   5.540   2.867
13803TIP3    H141354   3.513   5.452   2.903
13803TIP3    H241355   3.466   5.592   2.936
13804TIP3   OH241356   2.915   7.528   4.737
13804TIP3    H141357   2.960   7.507   4.655
13804TIP3    H241358   2.835   7.475   4.734
13805TIP3   OH241359   7.672   2.729   1.058
13805TIP3    H141360   7.727   2.659   1.023
13805TIP3    H241361   7.734   2.798   1.082
13806TIP3   OH241362   6.908   0.148   3.133
13806TIP3    H141363   6.894   0.188   3.047
13806TIP3    H241364   6.825   0.105   3.154
13807TIP3   OH241365   0.626   4.596   5.273
13807TIP3    H141366   0.653   4.582   5.364
13807TIP3    H241367   0.544   4.645   5.280
13808TIP3   OH241368   2.122   3.197   0.538
13808TIP3    H141369   2.112   3.113   0.495
13808TIP3    H241370   2.131   3.176   0.631
13809TIP3   OH241371   7.945   0.544   4.590
13809TIP3    H141372   8.005   0.556   4.517
13809TIP3    H241373   7.956   0.622   4.644
13810TIP3   OH241374   6.783   5.088   2.154
13810TIP3    H141375   6.696   5.122   2.174
13810TIP3    H241376   6.774   4.993   2.156
13811TIP3   OH241377   1.202   2.015   1.665
13811TIP3    H141378   1.189   1.970   1.748
13811TIP3    H241379   1.294   2.041   1.665
13812TIP3   OH241380   2.557   2.129   3.219
13812TIP3    H141381   2.550   2.211   3.172
13812TIP3    H241382   2.611   2.150   3.296
13813TIP3   OH241383   3.995   6.287   2.648
13813TIP3    H141384   3.917   6.241   2.617
13813TIP3    H241385   4.012   6.353   2.581
13814TIP3   OH241386   5.585   1.326   4.567
13814TIP3    H141387   5.643   1.353   4.496
13814TIP3    H241388   5.527   1.401   4.579
13815TIP3   OH241389   7.107   1.704   3.203
13815TIP3    H141390   7.085   1.773   3.266
13815TIP3    H241391   7.034   1.704   3.141
13816TIP3   OH241392   3.015   4.305   5.838
13816TIP3    H141393   2.956   4.342   5.772
13816TIP3    H241394   3.062   4.381   5.873
13817TIP3   OH241395   7.745   4.673   0.152
13817TIP3    H141396   7.659   4.653   0.188
13817TIP3    H241397   7.780   4.589   0.122
13818TIP3   OH241398   3.905   7.588   2.486
13818TIP3    H141399   3.918   7.647   2.561
13818TIP3    H241400   3.971   7.520   2.498
13819TIP3   OH241401   3.315   4.385   2.550
13819TIP3    H141402   3.295   4.439   2.474
13819TIP3    H241403   3.376   4.437   2.602
13820TIP3   OH241404   1.541   6.329   2.168
13820TIP3    H141405   1.629   6.290   2.162
13820TIP3    H241406   1.486   6.273   2.113
13821TIP3   OH241407   6.745   0.648   4.803
13821TIP3    H141408   6.775   0.574   4.749
13821TIP3    H241409   6.821   0.671   4.857
13822TIP3   OH241410   4.434   5.299   2.896
13822TIP3    H141411   4.477   5.259   2.821
13822TIP3    H241412   4.500   5.357   2.933
13823TIP3   OH241413   2.537   6.301   4.144
13823TIP3    H141414   2.485   6.381   4.153
13823TIP3    H241415   2.519   6.251   4.223
13824TIP3   OH241416   3.567   7.173   0.935
13824TIP3    H141417   3.519   7.253   0.912
13824TIP3    H241418   3.594   7.187   1.025
13825TIP3   OH241419   3.652   1.583   0.451
13825TIP3    H141420   3.623   1.657   0.398
13825TIP3    H241421   3.607   1.592   0.534
13826TIP3   OH241422   4.265   3.767   6.059
13826TIP3    H141423   4.326   3.710   6.106
13826TIP3    H241424   4.203   3.796   6.126
13827TIP3   OH241425   2.030   1.541   0.410
13827TIP3    H141426   1.993   1.542   0.322
13827TIP3    H241427   1.953   1.537   0.468
13828TIP3   OH241428   5.494   6.048   4.908
13828TIP3    H141429   5.417   6.015   4.955
13828TIP3    H241430   5.548   6.088   4.976
13829TIP3   OH241431   1.940   0.377   0.225
13829TIP3    H141432   1.922   0.461   0.266
13829TIP3    H241433   2.018   0.345   0.270
13830TIP3   OH241434   0.848   0.476   3.254
13830TIP3    H141435   0.890   0.550   3.209
13830TIP3    H241436   0.920   0.423   3.286
13831TIP3   OH241437   0.754   4.412   4.857
13831TIP3    H141438   0.806   4.452   4.927
13831TIP3    H241439   0.820   4.380   4.794
13832TIP3   OH241440   6.219   3.992   2.232
13832TIP3    H141441   6.222   4.082   2.266
13832TIP3    H241442   6.279   3.944   2.288
13833TIP3   OH241443   7.392   1.022   1.882
13833TIP3    H141444   7.405   0.930   1.903
13833TIP3    H241445   7.344   1.058   1.957
13834TIP3   OH241446   5.761   4.803   0.307
13834TIP3    H141447   5.748   4.708   0.308
13834TIP3    H241448   5.693   4.836   0.248
13835TIP3   OH241449   2.654   2.887   0.256
13835TIP3    H141450   2.732   2.862   0.307
13835TIP3    H241451   2.682   2.879   0.165
13836TIP3   OH241452   5.212   7.752   5.044
13836TIP3    H141453   5.218   7.836   4.997
13836TIP3    H241454   5.139   7.764   5.105
13837TIP3   OH241455   2.152   2.383   4.156
13837TIP3    H141456   2.225   2.445   4.160
13837TIP3    H241457   2.101   2.402   4.235
13838TIP3   OH241458   2.196   1.299   5.381
13838TIP3    H141459   2.122   1.299   5.320
13838TIP3    H241460   2.267   1.343   5.333
13839TIP3   OH241461   6.391   7.330   5.679
13839TIP3    H141462   6.340   7.362   5.754
13839TIP3    H241463   6.408   7.238   5.699
13840TIP3   OH241464   3.241   4.823   0.033
13840TIP3    H141465   3.268   4.736   0.065
13840TIP3    H241466   3.194   4.862   0.107
13841TIP3   OH241467   6.870   4.185   4.106
13841TIP3    H141468   6.807   4.132   4.153
13841TIP3    H241469   6.923   4.226   4.175
13842TIP3   OH241470   1.507   3.992   4.973
13842TIP3    H141471   1.589   4.039   4.986
13842TIP3    H241472   1.528   3.922   4.911
13843TIP3   OH241473   0.723   2.164   3.821
13843TIP3    H141474   0.734   2.259   3.817
13843TIP3    H241475   0.733   2.142   3.913
13844TIP3   OH241476   4.728   4.741   6.470
13844TIP3    H141477   4.674   4.817   6.447
13844TIP3    H241478   4.749   4.755   6.563
13845TIP3   OH241479   1.212   1.662   1.501
13845TIP3    H141480   1.299   1.698   1.521
13845TIP3    H241481   1.154   1.738   1.499
13846TIP3   OH241482   3.886   6.653   6.009
13846TIP3    H141483   3.888   6.619   6.099
13846TIP3    H241484   3.928   6.739   6.016
13847TIP3   OH241485   3.096   3.142   2.319
13847TIP3    H141486   3.158   3.108   2.384
13847TIP3    H241487   3.064   3.223   2.357
13848TIP3   OH241488   6.536   0.096   4.168
13848TIP3    H141489   6.623   0.056   4.178
13848TIP3    H241490   6.478   0.040   4.220
13849TIP3   OH241491   0.587   2.700   1.573
13849TIP3    H141492   0.581   2.647   1.652
13849TIP3    H241493   0.628   2.642   1.508
13850TIP3   OH241494   4.207   4.412   1.886
13850TIP3    H141495   4.234   4.362   1.963
13850TIP3    H241496   4.159   4.486   1.922
13851TIP3   OH241497   2.948   7.446   5.941
13851TIP3    H141498   2.952   7.384   6.014
13851TIP3    H241499   3.031   7.436   5.896
13852TIP3   OH241500   7.110   6.461   0.052
13852TIP3    H141501   7.187   6.446  -0.003
13852TIP3    H241502   7.065   6.534   0.010
13853TIP3   OH241503   4.786   3.154   0.434
13853TIP3    H141504   4.795   3.249   0.427
13853TIP3    H241505   4.836   3.131   0.512
13854TIP3   OH241506   6.317   2.317   4.911
13854TIP3    H141507   6.239   2.270   4.881
13854TIP3    H241508   6.293   2.410   4.905
13855TIP3   OH241509   6.950   4.532   5.484
13855TIP3    H141510   7.002   4.454   5.464
13855TIP3    H241511   7.011   4.605   5.473
13856TIP3   OH241512   2.749   5.308   4.915
13856TIP3    H141513   2.822   5.361   4.885
13856TIP3    H241514   2.745   5.234   4.854
13857TIP3   OH241515   2.321   3.871   1.088
13857TIP3    H141516   2.319   3.964   1.064
13857TIP3    H241517   2.287   3.868   1.177
13858TIP3   OH241518   2.076   2.231   4.989
13858TIP3    H141519   2.083   2.228   5.084
13858TIP3    H241520   2.152   2.283   4.961
13859TIP3   OH241521   4.656   6.437   5.393
13859TIP3    H141522   4.612   6.427   5.477
13859TIP3    H241523   4.585   6.455   5.331
13860TIP3   OH241524   6.110   5.058   2.048
13860TIP3    H141525   6.195   5.018   2.030
13860TIP3    H241526   6.125   5.152   2.039
13861TIP3   OH241527   6.529   5.455   3.472
13861TIP3    H141528   6.502   5.393   3.540
13861TIP3    H241529   6.452   5.463   3.415
13862TIP3   OH241530   1.601   5.844   3.714
13862TIP3    H141531   1.546   5.898   3.772
13862TIP3    H241532   1.576   5.754   3.735
13863TIP3   OH241533   6.446   5.104   5.679
13863TIP3    H141534   6.468   5.196   5.694
13863TIP3    H241535   6.507   5.076   5.610
13864TIP3   OH241536   1.900   6.092   5.508
13864TIP3    H141537   1.914   6.152   5.435
13864TIP3    H241538   1.985   6.089   5.553
13865TIP3   OH241539   5.127   4.523   6.754
13865TIP3    H141540   5.201   4.535   6.695
13865TIP3    H241541   5.050   4.527   6.697
13866TIP3   OH241542   4.784   6.623   3.982
13866TIP3    H141543   4.880   6.628   3.973
13866TIP3    H241544   4.752   6.643   3.894
13867TIP3   OH241545   0.878   4.068   1.110
13867TIP3    H141546   0.785   4.046   1.114
13867TIP3    H241547   0.880   4.156   1.073
13868TIP3   OH241548   8.272   3.837   2.719
13868TIP3    H141549   8.280   3.922   2.761
13868TIP3    H241550   8.318   3.776   2.777
13869TIP3   OH241551   3.824   4.809   1.180
13869TIP3    H141552   3.868   4.850   1.255
13869TIP3    H241553   3.801   4.882   1.123
13870TIP3   OH241554   2.624   4.832   4.426
13870TIP3    H141555   2.601   4.924   4.409
13870TIP3    H241556   2.675   4.806   4.350
13871TIP3   OH241557   5.639   4.830   1.963
13871TIP3    H141558   5.674   4.836   2.052
13871TIP3    H241559   5.700   4.881   1.910
13872TIP3   OH241560   5.975   0.956   4.042
13872TIP3    H141561   5.910   0.899   4.083
13872TIP3    H241562   6.058   0.912   4.059
13873TIP3   OH241563   1.743   6.774   5.780
13873TIP3    H141564   1.689   6.845   5.813
13873TIP3    H241565   1.766   6.800   5.690
13874TIP3   OH241566   4.448   4.093   0.120
13874TIP3    H141567   4.452   4.100   0.025
13874TIP3    H241568   4.537   4.113   0.150
13875TIP3   OH241569   5.907   0.481   2.930
13875TIP3    H141570   5.903   0.429   2.849
13875TIP3    H241571   6.000   0.491   2.948
13876TIP3   OH241572   5.105   2.987   5.845
13876TIP3    H141573   5.151   2.927   5.905
13876TIP3    H241574   5.073   2.930   5.774
13877TIP3   OH241575   6.034   7.404   2.908
13877TIP3    H141576   5.976   7.468   2.867
13877TIP3    H241577   6.097   7.381   2.839
13878TIP3   OH241578   6.608   5.860   0.912
13878TIP3    H141579   6.540   5.928   0.914
13878TIP3    H241580   6.686   5.906   0.881
13879TIP3   OH241581   4.329   5.463   5.498
13879TIP3    H141582   4.394   5.429   5.558
13879TIP3    H241583   4.283   5.386   5.465
13880TIP3   OH241584   3.051   7.452   1.356
13880TIP3    H141585   3.048   7.382   1.291
13880TIP3    H241586   2.997   7.522   1.319
13881TIP3   OH241587   7.510   2.198   2.186
13881TIP3    H141588   7.603   2.174   2.185
13881TIP3    H241589   7.465   2.117   2.210
13882TIP3   OH241590   6.207   4.063   2.858
13882TIP3    H141591   6.149   3.999   2.818
13882TIP3    H241592   6.238   4.021   2.938
13883TIP3   OH241593   0.870   2.686   2.436
13883TIP3    H141594   0.960   2.718   2.450
13883TIP3    H241595   0.823   2.714   2.515
13884TIP3   OH241596   1.435   3.521   5.408
13884TIP3    H141597   1.362   3.581   5.394
13884TIP3    H241598   1.487   3.528   5.328
13885TIP3   OH241599  -0.018   1.923   1.745
13885TIP3    H141600  -0.006   1.991   1.811
13885TIP3    H241601   0.069   1.885   1.734
13886TIP3   OH241602   6.661   1.273   5.464
13886TIP3    H141603   6.577   1.315   5.485
13886TIP3    H241604   6.652   1.247   5.372
13887TIP3   OH241605   5.114   5.496   0.802
13887TIP3    H141606   5.050   5.445   0.852
13887TIP3    H241607   5.151   5.557   0.866
13888TIP3   OH241608   0.130   7.100   5.361
13888TIP3    H141609   0.214   7.054   5.368
13888TIP3    H241610   0.065   7.029   5.359
13889TIP3   OH241611   5.137   6.372   6.364
13889TIP3    H141612   5.069   6.334   6.420
13889TIP3    H241613   5.158   6.303   6.301
13890TIP3   OH241614   3.518   3.057   3.771
13890TIP3    H141615   3.528   2.996   3.844
13890TIP3    H241616   3.606   3.094   3.759
13891TIP3   OH241617   6.651   4.048   4.197
13891TIP3    H141618   6.640   3.953   4.206
13891TIP3    H241619   6.610   4.069   4.113
13892TIP3   OH241620   1.912   0.615   0.627
13892TIP3    H141621   1.946   0.638   0.541
13892TIP3    H241622   1.829   0.571   0.609
13893TIP3   OH241623   0.874   3.543   4.984
13893TIP3    H141624   0.845   3.462   4.941
13893TIP3    H241625   0.893   3.603   4.912
13894TIP3   OH241626   5.064   0.268   4.675
13894TIP3    H141627   4.989   0.319   4.644
13894TIP3    H241628   5.100   0.319   4.747
13895TIP3   OH241629   0.286   3.338   3.968
13895TIP3    H141630   0.372   3.380   3.979
13895TIP3    H241631   0.224   3.403   4.001
13896TIP3   OH241632   1.248   3.309   5.190
13896TIP3    H141633   1.203   3.386   5.155
13896TIP3    H241634   1.310   3.344   5.254
13897TIP3   OH241635   1.927   2.937   6.332
13897TIP3    H141636   1.902   2.925   6.424
13897TIP3    H241637   1.856   2.989   6.295
13898TIP3   OH241638   3.937   3.742   5.458
13898TIP3    H141639   3.970   3.680   5.393
13898TIP3    H241640   3.929   3.690   5.538
13899TIP3   OH241641   4.678   3.041   2.754
13899TIP3    H141642   4.697   2.966   2.699
13899TIP3    H241643   4.615   3.009   2.818
13900TIP3   OH241644   1.184   5.362   6.377
13900TIP3    H141645   1.252   5.334   6.315
13900TIP3    H241646   1.207   5.317   6.458
13901TIP3   OH241647   2.292   4.095   4.356
13901TIP3    H141648   2.198   4.089   4.336
13901TIP3    H241649   2.333   4.034   4.295
13902TIP3   OH241650   0.272   3.434   0.919
13902TIP3    H141651   0.364   3.443   0.893
13902TIP3    H241652   0.265   3.483   1.001
13903TIP3   OH241653   8.048   7.837   6.499
13903TIP3    H141654   8.094   7.766   6.543
13903TIP3    H241655   7.977   7.861   6.559
13904TIP3   OH241656   8.338   6.431   4.182
13904TIP3    H141657   8.279   6.505   4.168
13904TIP3    H241658   8.281   6.355   4.193
13905TIP3   OH241659   1.725   6.312   5.146
13905TIP3    H141660   1.661   6.241   5.150
13905TIP3    H241661   1.682   6.380   5.094
13906TIP3   OH241662   0.937   7.637   0.464
13906TIP3    H141663   0.961   7.544   0.465
13906TIP3    H241664   1.014   7.681   0.427
13907TIP3   OH241665   7.964   6.410   3.632
13907TIP3    H141666   7.873   6.439   3.631
13907TIP3    H241667   8.014   6.489   3.650
13908TIP3   OH241668   7.244   7.511   2.311
13908TIP3    H141669   7.269   7.428   2.350
13908TIP3    H241670   7.243   7.494   2.217
13909TIP3   OH241671   3.069   5.834   3.915
13909TIP3    H141672   3.041   5.891   3.844
13909TIP3    H241673   3.138   5.780   3.876
13910TIP3   OH241674   7.392   6.349   3.385
13910TIP3    H141675   7.424   6.284   3.323
13910TIP3    H241676   7.375   6.298   3.465
13911TIP3   OH241677   7.813   7.639   6.054
13911TIP3    H141678   7.852   7.694   6.122
13911TIP3    H241679   7.762   7.699   6.001
13912TIP3   OH241680   2.695   0.613   2.848
13912TIP3    H141681   2.705   0.528   2.891
13912TIP3    H241682   2.745   0.674   2.902
13913TIP3   OH241683   0.897   3.347   5.311
13913TIP3    H141684   0.985   3.379   5.292
13913TIP3    H241685   0.904   3.252   5.302
13914TIP3   OH241686   1.849   7.374   6.599
13914TIP3    H141687   1.760   7.385   6.564
13914TIP3    H241688   1.906   7.392   6.524
13915TIP3   OH241689   2.211   1.015   3.889
13915TIP3    H141690   2.285   1.059   3.848
13915TIP3    H241691   2.136   1.073   3.871
13916TIP3   OH241692   3.471   2.167   5.028
13916TIP3    H141693   3.450   2.218   5.106
13916TIP3    H241694   3.407   2.195   4.963
13917TIP3   OH241695   8.092   1.305   5.533
13917TIP3    H141696   8.139   1.277   5.612
13917TIP3    H241697   8.000   1.305   5.559
13918TIP3   OH241698   0.284   7.173   5.623
13918TIP3    H141699   0.192   7.198   5.617
13918TIP3    H241700   0.312   7.204   5.708
13919TIP3   OH241701   1.440   2.623   2.383
13919TIP3    H141702   1.418   2.641   2.475
13919TIP3    H241703   1.536   2.625   2.381
13920TIP3   OH241704   0.063   1.979   1.040
13920TIP3    H141705   0.028   1.910   0.983
13920TIP3    H241706   0.105   2.041   0.980
13921TIP3   OH241707   3.131   3.566   1.649
13921TIP3    H141708   3.080   3.558   1.730
13921TIP3    H241709   3.103   3.648   1.610
13922TIP3   OH241710   3.779   6.235   4.652
13922TIP3    H141711   3.843   6.298   4.684
13922TIP3    H241712   3.798   6.154   4.700
13923TIP3   OH241713   0.502   1.719   3.532
13923TIP3    H141714   0.539   1.700   3.446
13923TIP3    H241715   0.410   1.739   3.514
13924TIP3   OH241716   1.695   1.883   2.374
13924TIP3    H141717   1.689   1.946   2.446
13924TIP3    H241718   1.720   1.935   2.298
13925TIP3   OH241719   0.661   7.445   6.630
13925TIP3    H141720   0.692   7.535   6.641
13925TIP3    H241721   0.661   7.431   6.535
13926TIP3   OH241722   6.657   3.985   6.047
13926TIP3    H141723   6.695   4.038   5.978
13926TIP3    H241724   6.732   3.941   6.087
13927TIP3   OH241725   4.034   0.829   4.726
13927TIP3    H141726   3.989   0.777   4.659
13927TIP3    H241727   4.099   0.879   4.676
13928TIP3   OH241728   1.222   0.254   5.171
13928TIP3    H141729   1.183   0.208   5.245
13928TIP3    H241730   1.230   0.187   5.102
13929TIP3   OH241731   0.691   5.392   3.747
13929TIP3    H141732   0.760   5.353   3.694
13929TIP3    H241733   0.716   5.372   3.837
13930TIP3   OH241734   8.087   6.831   3.908
13930TIP3    H141735   8.071   6.899   3.973
13930TIP3    H241736   8.092   6.879   3.825
13931TIP3   OH241737   0.688   7.569   3.266
13931TIP3    H141738   0.718   7.588   3.177
13931TIP3    H241739   0.693   7.474   3.274
13932TIP3   OH241740   5.933   0.726   5.352
13932TIP3    H141741   5.837   0.727   5.342
13932TIP3    H241742   5.964   0.677   5.275
13933TIP3   OH241743   3.051   3.101   1.619
13933TIP3    H141744   3.110   3.125   1.547
13933TIP3    H241745   3.052   3.006   1.620
13934TIP3   OH241746   5.212   7.382   4.788
13934TIP3    H141747   5.252   7.355   4.871
13934TIP3    H241748   5.277   7.439   4.748
13935TIP3   OH241749   6.818   5.483   2.549
13935TIP3    H141750   6.728   5.451   2.543
13935TIP3    H241751   6.869   5.421   2.498
13936TIP3   OH241752   3.074   1.124   6.424
13936TIP3    H141753   3.122   1.041   6.430
13936TIP3    H241754   3.100   1.171   6.503
13937TIP3   OH241755   6.158   5.493   0.054
13937TIP3    H141756   6.067   5.494   0.084
13937TIP3    H241757   6.178   5.585   0.037
13938TIP3   OH241758   6.145   6.259   1.443
13938TIP3    H141759   6.127   6.259   1.536
13938TIP3    H241760   6.059   6.259   1.401
13939TIP3   OH241761   0.829   2.966   3.432
13939TIP3    H141762   0.917   2.999   3.452
13939TIP3    H241763   0.770   3.022   3.483
13940TIP3   OH241764   5.589   4.677   4.426
13940TIP3    H141765   5.499   4.655   4.453
13940TIP3    H241766   5.629   4.714   4.504
13941TIP3   OH241767   1.874   5.237   2.863
13941TIP3    H141768   1.799   5.179   2.876
13941TIP3    H241769   1.894   5.271   2.950
13942TIP3   OH241770   3.994   1.597   1.480
13942TIP3    H141771   3.995   1.501   1.485
13942TIP3    H241772   3.976   1.615   1.388
13943TIP3   OH241773   3.116   7.124   6.040
13943TIP3    H141774   3.051   7.074   6.090
13943TIP3    H241775   3.075   7.136   5.954
13944TIP3   OH241776   2.614   5.703   5.314
13944TIP3    H141777   2.538   5.739   5.358
13944TIP3    H241778   2.638   5.627   5.368
13945TIP3   OH241779   4.492   6.283   3.438
13945TIP3    H141780   4.406   6.248   3.415
13945TIP3    H241781   4.491   6.285   3.534
13946TIP3   OH241782   4.037   4.748   5.675
13946TIP3    H141783   3.978   4.707   5.611
13946TIP3    H241784   3.978   4.787   5.740
13947TIP3   OH241785   7.495   1.162   4.919
13947TIP3    H141786   7.548   1.086   4.894
13947TIP3    H241787   7.538   1.236   4.876
13948TIP3   OH241788   5.480   1.525   4.706
13948TIP3    H141789   5.411   1.590   4.721
13948TIP3    H241790   5.561   1.576   4.706
13949TIP3   OH241791   2.936   1.579   6.314
13949TIP3    H141792   2.905   1.650   6.370
13949TIP3    H241793   2.857   1.526   6.297
13950TIP3   OH241794   6.626   5.225   0.166
13950TIP3    H141795   6.669   5.244   0.250
13950TIP3    H241796   6.667   5.285   0.104
13951TIP3   OH241797   3.158   7.706   6.292
13951TIP3    H141798   3.193   7.690   6.205
13951TIP3    H241799   3.214   7.654   6.350
13952TIP3   OH241800   2.416   7.035   5.766
13952TIP3    H141801   2.441   7.042   5.674
13952TIP3    H241802   2.330   6.993   5.765
13953TIP3   OH241803   6.341   3.334   4.120
13953TIP3    H141804   6.274   3.265   4.128
13953TIP3    H241805   6.295   3.414   4.144
13954TIP3   OH241806   4.402   5.923   4.365
13954TIP3    H141807   4.342   5.897   4.295
13954TIP3    H241808   4.466   5.852   4.368
13955TIP3   OH241809   4.317   3.088   4.756
13955TIP3    H141810   4.248   3.023   4.743
13955TIP3    H241811   4.275   3.157   4.808
13956TIP3   OH241812   3.371   4.685   1.014
13956TIP3    H141813   3.320   4.726   0.944
13956TIP3    H241814   3.436   4.632   0.969
13957TIP3   OH241815   6.995   1.132   0.766
13957TIP3    H141816   6.952   1.109   0.684
13957TIP3    H241817   6.923   1.140   0.829
13958TIP3   OH241818   1.413   1.546   4.941
13958TIP3    H141819   1.398   1.564   5.033
13958TIP3    H241820   1.334   1.499   4.913
13959TIP3   OH241821   5.262   3.605   4.000
13959TIP3    H141822   5.201   3.678   4.009
13959TIP3    H241823   5.211   3.528   4.024
13960TIP3   OH241824   6.360   2.760   5.164
13960TIP3    H141825   6.415   2.703   5.110
13960TIP3    H241826   6.408   2.770   5.246
13961TIP3   OH241827   1.416   7.213   4.235
13961TIP3    H141828   1.473   7.290   4.231
13961TIP3    H241829   1.427   7.171   4.150
13962TIP3   OH241830   6.020   0.705   6.571
13962TIP3    H141831   5.974   0.623   6.591
13962TIP3    H241832   6.103   0.677   6.532
13963TIP3   OH241833   4.608   4.975   2.187
13963TIP3    H141834   4.620   5.049   2.127
13963TIP3    H241835   4.634   4.899   2.135
13964TIP3   OH241836   5.936   7.446   0.368
13964TIP3    H141837   5.916   7.462   0.276
13964TIP3    H241838   5.905   7.525   0.413
13965TIP3   OH241839   7.453   2.766   5.765
13965TIP3    H141840   7.432   2.714   5.688
13965TIP3    H241841   7.501   2.842   5.732
13966TIP3   OH241842   8.116   1.425   1.563
13966TIP3    H141843   8.170   1.387   1.632
13966TIP3    H241844   8.139   1.376   1.484
13967TIP3   OH241845   7.540   0.839   3.359
13967TIP3    H141846   7.551   0.922   3.405
13967TIP3    H241847   7.475   0.858   3.292
13968TIP3   OH241848   1.919   6.765   3.087
13968TIP3    H141849   1.852   6.776   3.155
13968TIP3    H241850   1.930   6.852   3.050
13969TIP3   OH241851   3.839   0.359   1.856
13969TIP3    H141852   3.922   0.311   1.855
13969TIP3    H241853   3.864   0.451   1.868
13970TIP3   OH241854   7.910   2.330   4.600
13970TIP3    H141855   7.915   2.375   4.515
13970TIP3    H241856   7.827   2.282   4.597
13971TIP3   OH241857   4.772   5.659   4.515
13971TIP3    H141858   4.765   5.580   4.568
13971TIP3    H241859   4.855   5.649   4.468
13972TIP3   OH241860   0.466   6.707   5.368
13972TIP3    H141861   0.494   6.798   5.354
13972TIP3    H241862   0.544   6.662   5.399
13973TIP3   OH241863   7.279   6.992   0.289
13973TIP3    H141864   7.253   7.072   0.245
13973TIP3    H241865   7.208   6.930   0.270
13974TIP3   OH241866   2.751   2.989   5.378
13974TIP3    H141867   2.842   3.011   5.397
13974TIP3    H241868   2.701   3.063   5.413
13975TIP3   OH241869   6.286   5.686   3.287
13975TIP3    H141870   6.358   5.740   3.254
13975TIP3    H241871   6.316   5.596   3.273
13976TIP3   OH241872   5.071   2.959   3.852
13976TIP3    H141873   4.990   2.987   3.895
13976TIP3    H241874   5.077   2.866   3.871
13977TIP3   OH241875   3.943   7.184   4.741
13977TIP3    H141876   3.992   7.200   4.660
13977TIP3    H241877   3.915   7.093   4.734
13978TIP3   OH241878   1.143   1.491   2.600
13978TIP3    H141879   1.074   1.490   2.533
13978TIP3    H241880   1.179   1.402   2.598
13979TIP3   OH241881   0.488   3.560   1.153
13979TIP3    H141882   0.511   3.507   1.229
13979TIP3    H241883   0.400   3.593   1.173
13980TIP3   OH241884   4.732   3.864   0.248
13980TIP3    H141885   4.821   3.832   0.232
13980TIP3    H241886   4.694   3.874   0.160
13981TIP3   OH241887   0.133   7.704   2.566
13981TIP3    H141888   0.086   7.780   2.531
13981TIP3    H241889   0.087   7.682   2.646
13982TIP3   OH241890   6.564   4.857   4.922
13982TIP3    H141891   6.604   4.777   4.886
13982TIP3    H241892   6.630   4.925   4.907
13983TIP3   OH241893   0.305   7.340   0.212
13983TIP3    H141894   0.256   7.342   0.129
13983TIP3    H241895   0.381   7.395   0.196
13984TIP3   OH241896   5.462   3.693   3.128
13984TIP3    H141897   5.546   3.668   3.167
13984TIP3    H241898   5.486   3.752   3.056
13985TIP3   OH241899   2.770   7.656   2.471
13985TIP3    H141900   2.733   7.602   2.401
13985TIP3    H241901   2.865   7.648   2.458
13986TIP3   OH241902   8.246   3.153   1.706
13986TIP3    H141903   8.296   3.072   1.700
13986TIP3    H241904   8.156   3.127   1.688
13987TIP3   OH241905   7.487   2.530   5.937
13987TIP3    H141906   7.489   2.608   5.882
13987TIP3    H241907   7.396   2.500   5.932
13988TIP3   OH241908   0.307   1.814   0.382
13988TIP3    H141909   0.254   1.817   0.461
13988TIP3    H241910   0.350   1.899   0.378
13989TIP3   OH241911   6.456   5.740   0.121
13989TIP3    H141912   6.385   5.766   0.062
13989TIP3    H241913   6.536   5.773   0.079
13990TIP3   OH241914   0.627   2.083   0.479
13990TIP3    H141915   0.617   2.016   0.547
13990TIP3    H241916   0.708   2.129   0.503
13991TIP3   OH241917   0.286   1.808   6.285
13991TIP3    H141918   0.361   1.790   6.341
13991TIP3    H241919   0.301   1.755   6.207
13992TIP3   OH241920   6.533   1.897   2.715
13992TIP3    H141921   6.552   1.828   2.779
13992TIP3    H241922   6.604   1.889   2.650
13993TIP3   OH241923   1.169   4.986   2.877
13993TIP3    H141924   1.074   4.979   2.870
13993TIP3    H241925   1.187   4.989   2.971
13994TIP3   OH241926   2.801   7.515   1.811
13994TIP3    H141927   2.794   7.551   1.899
13994TIP3    H241928   2.864   7.444   1.820
13995TIP3   OH241929   3.734   6.470   4.036
13995TIP3    H141930   3.745   6.413   3.960
13995TIP3    H241931   3.735   6.559   4.000
13996TIP3   OH241932   4.587   6.481   2.539
13996TIP3    H141933   4.530   6.416   2.499
13996TIP3    H241934   4.649   6.503   2.469
13997TIP3   OH241935   3.002   1.299   6.054
13997TIP3    H141936   2.914   1.328   6.080
13997TIP3    H241937   3.059   1.373   6.077
13998TIP3   OH241938   2.164   1.729   3.271
13998TIP3    H141939   2.225   1.655   3.266
13998TIP3    H241940   2.086   1.699   3.225
13999TIP3   OH241941   4.533   3.334   5.518
13999TIP3    H141942   4.489   3.249   5.518
13999TIP3    H241943   4.619   3.317   5.480
14000TIP3   OH241944   4.210   6.538   4.545
14000TIP3    H141945   4.235   6.470   4.483
14000TIP3    H241946   4.293   6.577   4.573
14001TIP3   OH241947   4.445   1.189   0.941
14001TIP3    H141948   4.519   1.173   1.000
14001TIP3    H241949   4.380   1.123   0.964
14002TIP3   OH241950   7.680   2.061   2.509
14002TIP3    H141951   7.597   2.044   2.464
14002TIP3    H241952   7.706   1.976   2.544
14003TIP3   OH241953   1.418   1.957   4.041
14003TIP3    H141954   1.496   1.995   4.000
14003TIP3    H241955   1.383   1.898   3.975
14004TIP3   OH241956   1.975   0.419   4.441
14004TIP3    H141957   2.027   0.391   4.366
14004TIP3    H241958   2.017   0.500   4.469
14005TIP3   OH241959   7.262   2.869   0.547
14005TIP3    H141960   7.263   2.956   0.507
14005TIP3    H241961   7.192   2.823   0.500
14006TIP3   OH241962   4.242   0.335   2.691
14006TIP3    H141963   4.197   0.259   2.727
14006TIP3    H241964   4.331   0.328   2.724
14007TIP3   OH241965   3.622   7.289   6.565
14007TIP3    H141966   3.531   7.319   6.566
14007TIP3    H241967   3.646   7.284   6.658
14008TIP3   OH241968   1.256   3.304   5.796
14008TIP3    H141969   1.212   3.225   5.766
14008TIP3    H241970   1.304   3.335   5.719
14009TIP3   OH241971   5.015   3.715   0.706
14009TIP3    H141972   5.010   3.807   0.732
14009TIP3    H241973   5.093   3.681   0.749
14010TIP3   OH241974   6.444   7.500   5.197
14010TIP3    H141975   6.494   7.420   5.182
14010TIP3    H241976   6.485   7.565   5.139
14011TIP3   OH241977   2.297   7.739   1.628
14011TIP3    H141978   2.361   7.751   1.559
14011TIP3    H241979   2.231   7.682   1.590
14012TIP3   OH241980   4.654   0.799   0.789
14012TIP3    H141981   4.712   0.730   0.757
14012TIP3    H241982   4.663   0.795   0.884
14013TIP3   OH241983   2.483   3.720   6.082
14013TIP3    H141984   2.557   3.779   6.067
14013TIP3    H241985   2.475   3.714   6.177
14014TIP3   OH241986   1.440   7.588   2.885
14014TIP3    H141987   1.517   7.558   2.837
14014TIP3    H241988   1.451   7.683   2.890
14015TIP3   OH241989   3.661   1.533   3.894
14015TIP3    H141990   3.705   1.616   3.913
14015TIP3    H241991   3.568   1.551   3.907
14016TIP3   OH241992   1.818   2.904   5.641
14016TIP3    H141993   1.795   2.904   5.548
14016TIP3    H241994   1.734   2.909   5.687
14017TIP3   OH241995   7.623   4.489   4.645
14017TIP3    H141996   7.608   4.429   4.718
14017TIP3    H241997   7.627   4.576   4.685
14018TIP3   OH241998   5.824   5.403   2.051
14018TIP3    H141999   5.876   5.476   2.018
14018TIP3    H242000   5.737   5.440   2.066
14019TIP3   OH242001   3.826   6.213   2.238
14019TIP3    H142002   3.803   6.125   2.267
14019TIP3    H242003   3.762   6.269   2.282
14020TIP3   OH242004   7.887   7.224   4.479
14020TIP3    H142005   7.902   7.132   4.502
14020TIP3    H242006   7.819   7.221   4.411
14021TIP3   OH242007   3.499   4.549   1.907
14021TIP3    H142008   3.563   4.558   1.836
14021TIP3    H242009   3.499   4.633   1.951
14022TIP3   OH242010   2.902   7.206   2.669
14022TIP3    H142011   2.863   7.265   2.604
14022TIP3    H242012   2.967   7.156   2.620
14023TIP3   OH242013   0.837   6.958   4.640
14023TIP3    H142014   0.757   6.915   4.610
14023TIP3    H242015   0.891   6.887   4.675
14024TIP3   OH242016   5.690   2.229   2.535
14024TIP3    H142017   5.622   2.255   2.474
14024TIP3    H242018   5.698   2.304   2.595
14025TIP3   OH242019   6.116   2.369   4.604
14025TIP3    H142020   6.138   2.329   4.520
14025TIP3    H242021   6.029   2.406   4.591
14026TIP3   OH242022   4.716   0.566   1.378
14026TIP3    H142023   4.629   0.540   1.347
14026TIP3    H242024   4.777   0.517   1.323
14027TIP3   OH242025   3.883   6.970   1.815
14027TIP3    H142026   3.945   7.020   1.868
14027TIP3    H242027   3.929   6.889   1.793
14028TIP3   OH242028   4.308   1.217   2.505
14028TIP3    H142029   4.355   1.275   2.565
14028TIP3    H242030   4.236   1.182   2.557
14029TIP3   OH242031   5.599   5.988   1.803
14029TIP3    H142032   5.645   5.956   1.880
14029TIP3    H242033   5.543   6.059   1.837
14030TIP3   OH242034   0.114   5.880   3.338
14030TIP3    H142035   0.194   5.921   3.369
14030TIP3    H242036   0.079   5.942   3.274
14031TIP3   OH242037   0.767   4.685   1.370
14031TIP3    H142038   0.807   4.709   1.286
14031TIP3    H242039   0.842   4.666   1.427
14032TIP3   OH242040   4.376   6.042   0.114
14032TIP3    H142041   4.356   5.966   0.169
14032TIP3    H242042   4.471   6.037   0.102
14033TIP3   OH242043   3.173   6.829   0.772
14033TIP3    H142044   3.098   6.801   0.824
14033TIP3    H242045   3.210   6.903   0.820
14034TIP3   OH242046   4.518   5.529   0.852
14034TIP3    H142047   4.588   5.553   0.792
14034TIP3    H242048   4.438   5.540   0.800
14035TIP3   OH242049   2.400   3.929   1.643
14035TIP3    H142050   2.341   3.886   1.580
14035TIP3    H242051   2.467   3.970   1.589
14036TIP3   OH242052   7.700   3.776   1.848
14036TIP3    H142053   7.691   3.871   1.838
14036TIP3    H242054   7.658   3.756   1.931
14037TIP3   OH242055   5.926   4.922   5.696
14037TIP3    H142056   5.938   5.016   5.711
14037TIP3    H242057   5.844   4.916   5.646
14038TIP3   OH242058   7.588   5.085   3.580
14038TIP3    H142059   7.543   5.056   3.659
14038TIP3    H242060   7.681   5.087   3.604
14039TIP3   OH242061   0.438   5.650   2.348
14039TIP3    H142062   0.419   5.604   2.430
14039TIP3    H242063   0.352   5.667   2.309
14040TIP3   OH242064   5.858   4.209   5.707
14040TIP3    H142065   5.809   4.134   5.671
14040TIP3    H242066   5.801   4.284   5.691
14041TIP3   OH242067   6.839   1.608   6.419
14041TIP3    H142068   6.899   1.563   6.360
14041TIP3    H242069   6.855   1.701   6.404
14042TIP3   OH242070   7.291   0.523   4.819
14042TIP3    H142071   7.223   0.548   4.756
14042TIP3    H242072   7.357   0.477   4.766
14043TIP3   OH242073   5.387   7.588   1.969
14043TIP3    H142074   5.471   7.566   1.928
14043TIP3    H242075   5.322   7.567   1.902
14044TIP3   OH242076   6.875   5.629   2.272
14044TIP3    H142077   6.924   5.551   2.298
14044TIP3    H242078   6.799   5.594   2.225
14045TIP3   OH242079   7.325   0.946   5.039
14045TIP3    H142080   7.311   1.040   5.024
14045TIP3    H242081   7.287   0.905   4.961
14046TIP3   OH242082   6.559   4.204   4.396
14046TIP3    H142083   6.622   4.274   4.380
14046TIP3    H242084   6.581   4.136   4.333
14047TIP3   OH242085   3.346   0.963   4.174
14047TIP3    H142086   3.341   0.942   4.080
14047TIP3    H242087   3.297   1.046   4.182
14048TIP3   OH242088   1.962   4.874   1.330
14048TIP3    H142089   2.018   4.818   1.277
14048TIP3    H242090   1.925   4.815   1.396
14049TIP3   OH242091   5.636   1.082   2.662
14049TIP3    H142092   5.558   1.046   2.620
14049TIP3    H242093   5.695   1.105   2.590
14050TIP3   OH242094   1.708   4.609   1.951
14050TIP3    H142095   1.758   4.671   1.897
14050TIP3    H242096   1.758   4.528   1.945
14051TIP3   OH242097   4.219   1.249   3.155
14051TIP3    H142098   4.299   1.253   3.207
14051TIP3    H242099   4.249   1.240   3.065
14052TIP3   OH242100   6.651   7.649   1.265
14052TIP3    H142101   6.643   7.715   1.335
14052TIP3    H242102   6.604   7.573   1.299
14053TIP3   OH242103  -0.008   5.051   6.240
14053TIP3    H142104   0.078   5.011   6.238
14053TIP3    H242105  -0.059   5.003   6.174
14054TIP3   OH242106   5.353   7.094   4.766
14054TIP3    H142107   5.440   7.130   4.784
14054TIP3    H242108   5.299   7.124   4.840
14055TIP3   OH242109   8.119   7.200   2.561
14055TIP3    H142110   8.134   7.287   2.527
14055TIP3    H242111   8.129   7.209   2.656
14056TIP3   OH242112   0.421   5.657   0.168
14056TIP3    H142113   0.326   5.668   0.171
14056TIP3    H242114   0.436   5.571   0.207
14057TIP3   OH242115   4.673   1.754   6.072
14057TIP3    H142116   4.729   1.678   6.087
14057TIP3    H242117   4.721   1.807   6.009
14058TIP3   OH242118   3.677   3.794   5.179
14058TIP3    H142119   3.667   3.815   5.272
14058TIP3    H242120   3.610   3.728   5.162
14059TIP3   OH242121   6.155   2.870   6.195
14059TIP3    H142122   6.162   2.775   6.183
14059TIP3    H242123   6.061   2.885   6.207
14060TIP3   OH242124   7.553   5.092   2.441
14060TIP3    H142125   7.627   5.109   2.501
14060TIP3    H242126   7.524   5.179   2.415
14061TIP3   OH242127   1.515   0.695   0.343
14061TIP3    H142128   1.509   0.606   0.307
14061TIP3    H242129   1.453   0.695   0.416
14062TIP3   OH242130   4.380   0.641   1.614
14062TIP3    H142131   4.320   0.599   1.553
14062TIP3    H242132   4.348   0.618   1.701
14063TIP3   OH242133   7.888   0.482   3.282
14063TIP3    H142134   7.904   0.420   3.353
14063TIP3    H242135   7.809   0.449   3.239
14064TIP3   OH242136   5.384   2.383   2.727
14064TIP3    H142137   5.348   2.334   2.801
14064TIP3    H242138   5.315   2.444   2.702
14065TIP3   OH242139   8.018   3.810   5.799
14065TIP3    H142140   8.086   3.864   5.758
14065TIP3    H242141   7.940   3.824   5.744
14066TIP3   OH242142   3.962   0.079   6.727
14066TIP3    H142143   3.933   0.161   6.688
14066TIP3    H242144   4.033   0.049   6.670
14067TIP3   OH242145   1.070   4.990   4.918
14067TIP3    H142146   1.050   4.921   4.981
14067TIP3    H242147   1.008   4.975   4.846
14068TIP3   OH242148   1.797   4.019   6.276
14068TIP3    H142149   1.760   3.932   6.290
14068TIP3    H242150   1.789   4.062   6.361
14069TIP3   OH242151   1.538   1.794   6.651
14069TIP3    H142152   1.578   1.784   6.738
14069TIP3    H242153   1.548   1.887   6.631
14070TIP3   OH242154   3.780   1.752   4.007
14070TIP3    H142155   3.839   1.799   3.947
14070TIP3    H242156   3.824   1.758   4.092
14071TIP3   OH242157   0.669   6.373   5.110
14071TIP3    H142158   0.696   6.443   5.170
14071TIP3    H242159   0.598   6.329   5.155
14072TIP3   OH242160   4.332   1.813   6.093
14072TIP3    H142161   4.241   1.836   6.076
14072TIP3    H242162   4.371   1.804   6.006
14073TIP3   OH242163   8.123   2.118   2.113
14073TIP3    H142164   8.083   2.205   2.103
14073TIP3    H242165   8.209   2.127   2.071
14074TIP3   OH242166   2.065   4.644   2.301
14074TIP3    H142167   2.160   4.634   2.314
14074TIP3    H242168   2.038   4.708   2.367
14075TIP3   OH242169   1.275   6.895   1.224
14075TIP3    H142170   1.354   6.854   1.259
14075TIP3    H242171   1.216   6.902   1.299
14076TIP3   OH242172   2.952   3.569   3.935
14076TIP3    H142173   2.946   3.480   3.901
14076TIP3    H242174   2.909   3.566   4.020
14077TIP3   OH242175   7.445   4.931   5.730
14077TIP3    H142176   7.389   4.879   5.788
14077TIP3    H242177   7.392   4.944   5.652
14078TIP3   OH242178   2.602   5.326   3.171
14078TIP3    H142179   2.538   5.393   3.194
14078TIP3    H242180   2.660   5.321   3.248
14079TIP3   OH242181   5.061   2.526   6.023
14079TIP3    H142182   5.076   2.606   6.072
14079TIP3    H242183   4.966   2.524   6.009
14080TIP3   OH242184   6.199   1.521   4.547
14080TIP3    H142185   6.108   1.529   4.576
14080TIP3    H242186   6.195   1.531   4.452
14081TIP3   OH242187   3.658   7.050   2.805
14081TIP3    H142188   3.732   7.007   2.763
14081TIP3    H242189   3.607   6.979   2.845
14082TIP3   OH242190   6.267   1.836   0.078
14082TIP3    H142191   6.342   1.796   0.121
14082TIP3    H242192   6.269   1.927   0.105
14083TIP3   OH242193   1.928   3.292   5.078
14083TIP3    H142194   2.022   3.297   5.096
14083TIP3    H242195   1.921   3.230   5.005
14084TIP3   OH242196   4.093   3.959   0.831
14084TIP3    H142197   4.089   4.026   0.762
14084TIP3    H242198   4.044   3.885   0.795
14085TIP3   OH242199   3.172   0.928   6.685
14085TIP3    H142200   3.203   0.892   6.602
14085TIP3    H242201   3.118   0.859   6.723
14086TIP3   OH242202   4.144   1.478   5.772
14086TIP3    H142203   4.220   1.452   5.720
14086TIP3    H242204   4.082   1.406   5.762
14087TIP3   OH242205   2.211   4.647   4.974
14087TIP3    H142206   2.287   4.610   4.930
14087TIP3    H242207   2.147   4.659   4.905
14088TIP3   OH242208   2.586   1.031   0.276
14088TIP3    H142209   2.634   1.024   0.358
14088TIP3    H242210   2.497   1.005   0.298
14089TIP3   OH242211   6.177   2.066   1.259
14089TIP3    H142212   6.246   2.088   1.197
14089TIP3    H242213   6.164   1.972   1.249
14090TIP3   OH242214   6.690   0.686   5.920
14090TIP3    H142215   6.716   0.595   5.933
14090TIP3    H242216   6.744   0.736   5.981
14091TIP3   OH242217   0.047   3.719   2.985
14091TIP3    H142218   0.137   3.730   2.958
14091TIP3    H242219   0.029   3.794   3.041
14092TIP3   OH242220   1.758   5.262   3.436
14092TIP3    H142221   1.727   5.344   3.475
14092TIP3    H242222   1.689   5.199   3.456
14093TIP3   OH242223   6.739   4.811   5.672
14093TIP3    H142224   6.705   4.764   5.596
14093TIP3    H242225   6.661   4.834   5.723
14094TIP3   OH242226   3.607   2.179   2.691
14094TIP3    H142227   3.606   2.248   2.757
14094TIP3    H242228   3.689   2.192   2.644
14095TIP3   OH242229   5.686   2.143   5.380
14095TIP3    H142230   5.644   2.227   5.363
14095TIP3    H242231   5.780   2.161   5.371
14096TIP3   OH242232   3.480   0.760   6.798
14096TIP3    H142233   3.557   0.705   6.808
14096TIP3    H242234   3.464   0.762   6.703
14097TIP3   OH242235   1.299   1.996   6.232
14097TIP3    H142236   1.215   2.039   6.246
14097TIP3    H242237   1.364   2.066   6.241
14098TIP3   OH242238   6.612   0.241   3.642
14098TIP3    H142239   6.602   0.161   3.591
14098TIP3    H242240   6.593   0.215   3.732
14099TIP3   OH242241   4.966   7.579   0.893
14099TIP3    H142242   5.049   7.562   0.937
14099TIP3    H242243   4.985   7.572   0.800
14100TIP3   OH242244   4.156   0.696   5.247
14100TIP3    H142245   4.114   0.759   5.187
14100TIP3    H242246   4.119   0.717   5.332
14101TIP3   OH242247   4.645   7.278   6.544
14101TIP3    H142248   4.648   7.374   6.541
14101TIP3    H242249   4.690   7.255   6.625
14102TIP3   OH242250   4.752   1.049   6.168
14102TIP3    H142251   4.724   0.973   6.117
14102TIP3    H242252   4.780   1.013   6.252
14103TIP3   OH242253   3.234   1.163   3.630
14103TIP3    H142254   3.198   1.238   3.677
14103TIP3    H242255   3.203   1.172   3.541
14104TIP3   OH242256   1.003   4.555   4.327
14104TIP3    H142257   0.972   4.581   4.241
14104TIP3    H242258   0.924   4.534   4.377
14105TIP3   OH242259   0.398   2.702   0.278
14105TIP3    H142260   0.407   2.664   0.365
14105TIP3    H242261   0.328   2.767   0.287
14106TIP3   OH242262   4.940   1.645   5.178
14106TIP3    H142263   4.893   1.702   5.117
14106TIP3    H242264   4.884   1.641   5.255
14107TIP3   OH242265   6.103   5.535   1.365
14107TIP3    H142266   6.133   5.610   1.417
14107TIP3    H242267   6.009   5.531   1.380
14108TIP3   OH242268   3.670   5.899   2.385
14108TIP3    H142269   3.677   5.833   2.454
14108TIP3    H242270   3.720   5.863   2.312
14109TIP3   OH242271   5.914   3.513   4.799
14109TIP3    H142272   5.994   3.536   4.846
14109TIP3    H242273   5.847   3.572   4.834
14110TIP3   OH242274   3.771   4.980   2.222
14110TIP3    H142275   3.763   4.928   2.142
14110TIP3    H242276   3.857   5.022   2.215
14111TIP3   OH242277   0.994   4.075   3.833
14111TIP3    H142278   1.036   4.154   3.798
14111TIP3    H242279   0.901   4.099   3.839
14112TIP3   OH242280   1.401   7.602   4.886
14112TIP3    H142281   1.439   7.665   4.947
14112TIP3    H242282   1.309   7.596   4.912
14113TIP3   OH242283   1.295   0.991   0.520
14113TIP3    H142284   1.314   1.002   0.427
14113TIP3    H242285   1.294   0.896   0.534
14114TIP3   OH242286   2.382   1.101   3.234
14114TIP3    H142287   2.437   1.070   3.162
14114TIP3    H242288   2.294   1.071   3.211
14115TIP3   OH242289   7.743   7.518   4.350
14115TIP3    H142290   7.734   7.492   4.259
14115TIP3    H242291   7.836   7.535   4.362
14116TIP3   OH242292   6.217   1.615   3.260
14116TIP3    H142293   6.301   1.570   3.265
14116TIP3    H242294   6.153   1.545   3.244
14117TIP3   OH242295   2.207   4.007   3.971
14117TIP3    H142296   2.192   4.097   4.000
14117TIP3    H242297   2.196   4.010   3.876
14118TIP3   OH242298   1.513   6.176   2.829
14118TIP3    H142299   1.448   6.240   2.857
14118TIP3    H242300   1.510   6.179   2.734
14119TIP3   OH242301   1.451   2.569   0.251
14119TIP3    H142302   1.359   2.595   0.251
14119TIP3    H242303   1.470   2.545   0.342
14120TIP3   OH242304   5.232   6.065   2.436
14120TIP3    H142305   5.153   6.065   2.382
14120TIP3    H242306   5.302   6.091   2.375
14121TIP3   OH242307   1.525   5.220   4.585
14121TIP3    H142308   1.522   5.275   4.664
14121TIP3    H242309   1.504   5.279   4.513
14122TIP3   OH242310   4.319   2.415   1.252
14122TIP3    H142311   4.268   2.334   1.243
14122TIP3    H242312   4.409   2.389   1.234
14123TIP3   OH242313   4.209   2.191   1.170
14123TIP3    H142314   4.115   2.188   1.151
14123TIP3    H242315   4.243   2.107   1.140
14124TIP3   OH242316   7.371   2.599   2.065
14124TIP3    H142317   7.408   2.665   2.006
14124TIP3    H242318   7.412   2.619   2.150
14125TIP3   OH242319   6.663   4.225   6.601
14125TIP3    H142320   6.729   4.208   6.668
14125TIP3    H242321   6.712   4.254   6.525
14126TIP3   OH242322   0.499   0.606   4.342
14126TIP3    H142323   0.582   0.649   4.362
14126TIP3    H242324   0.436   0.678   4.335
14127TIP3   OH242325   4.635   3.165   4.468
14127TIP3    H142326   4.696   3.130   4.533
14127TIP3    H242327   4.564   3.100   4.466
14128TIP3   OH242328   7.352   5.550   3.842
14128TIP3    H142329   7.369   5.535   3.749
14128TIP3    H242330   7.260   5.578   3.846
14129TIP3   OH242331   7.520   6.367   0.817
14129TIP3    H142332   7.580   6.406   0.753
14129TIP3    H242333   7.433   6.378   0.777
14130TIP3   OH242334   6.918   3.907   5.908
14130TIP3    H142335   6.924   3.811   5.902
14130TIP3    H242336   6.945   3.927   5.997
14131TIP3   OH242337   1.186   2.551   0.726
14131TIP3    H142338   1.237   2.473   0.744
14131TIP3    H242339   1.250   2.616   0.697
14132TIP3   OH242340   2.947   3.768   5.786
14132TIP3    H142341   2.984   3.836   5.842
14132TIP3    H242342   3.018   3.745   5.726
14133TIP3   OH242343   5.059   6.163   2.002
14133TIP3    H142344   5.051   6.071   1.976
14133TIP3    H242345   4.969   6.192   2.013
14134TIP3   OH242346   2.042   1.997   3.054
14134TIP3    H142347   2.051   1.966   3.145
14134TIP3    H242348   2.129   2.029   3.031
14135TIP3   OH242349   4.329   6.130   3.657
14135TIP3    H142350   4.382   6.055   3.628
14135TIP3    H242351   4.239   6.100   3.650
14136TIP3   OH242352   5.879   2.178   5.750
14136TIP3    H142353   5.800   2.127   5.765
14136TIP3    H242354   5.849   2.254   5.699
14137TIP3   OH242355   4.267   5.345   1.601
14137TIP3    H142356   4.203   5.387   1.543
14137TIP3    H242357   4.352   5.371   1.565
14138TIP3   OH242358   2.260   7.447   6.588
14138TIP3    H142359   2.192   7.410   6.532
14138TIP3    H242360   2.212   7.482   6.664
14139TIP3   OH242361   0.212   1.137   5.135
14139TIP3    H142362   0.242   1.148   5.044
14139TIP3    H242363   0.143   1.202   5.146
14140TIP3   OH242364   2.669   5.042   6.567
14140TIP3    H142365   2.630   5.047   6.655
14140TIP3    H242366   2.761   5.065   6.580
14141TIP3   OH242367   0.014   1.467   1.898
14141TIP3    H142368   0.045   1.480   1.988
14141TIP3    H242369   0.055   1.386   1.870
14142TIP3   OH242370   4.891   4.460   6.083
14142TIP3    H142371   4.897   4.537   6.141
14142TIP3    H242372   4.799   4.457   6.057
14143TIP3   OH242373   6.235   7.661   3.974
14143TIP3    H142374   6.325   7.694   3.972
14143TIP3    H242375   6.213   7.660   4.068
14144TIP3   OH242376   6.391   6.529   2.075
14144TIP3    H142377   6.404   6.580   2.155
14144TIP3    H242378   6.444   6.451   2.088
14145TIP3   OH242379   7.625   4.584   2.976
14145TIP3    H142380   7.623   4.663   3.030
14145TIP3    H242381   7.709   4.543   2.996
14146TIP3   OH242382   5.030   0.617   2.154
14146TIP3    H142383   5.058   0.708   2.165
14146TIP3    H242384   5.101   0.576   2.105
14147TIP3   OH242385   4.940   1.994   1.590
14147TIP3    H142386   4.878   2.014   1.520
14147TIP3    H242387   4.949   1.899   1.588
14148TIP3   OH242388   8.133   0.312   5.714
14148TIP3    H142389   8.198   0.367   5.757
14148TIP3    H242390   8.096   0.368   5.646
14149TIP3   OH242391   2.943   3.683   0.579
14149TIP3    H142392   3.010   3.735   0.623
14149TIP3    H242393   2.891   3.646   0.650
14150TIP3   OH242394   7.912   4.412   4.606
14150TIP3    H142395   7.821   4.442   4.597
14150TIP3    H242396   7.926   4.403   4.700
14151TIP3   OH242397   1.735   3.967   2.379
14151TIP3    H142398   1.786   3.890   2.405
14151TIP3    H242399   1.683   3.938   2.304
14152TIP3   OH242400   3.045   6.526   4.226
14152TIP3    H142401   2.985   6.593   4.259
14152TIP3    H242402   2.988   6.458   4.190
14153TIP3   OH242403   5.718   4.906   6.262
14153TIP3    H142404   5.746   4.920   6.171
14153TIP3    H242405   5.686   4.816   6.263
14154TIP3   OH242406   3.882   3.664   2.451
14154TIP3    H142407   3.863   3.745   2.403
14154TIP3    H242408   3.809   3.606   2.429
14155TIP3   OH242409   3.881   0.655   4.570
14155TIP3    H142410   3.841   0.568   4.569
14155TIP3    H242411   3.924   0.663   4.484
14156TIP3   OH242412   5.474   1.657   3.063
14156TIP3    H142413   5.405   1.637   2.999
14156TIP3    H242414   5.556   1.643   3.015
14157TIP3   OH242415   0.682   6.906   3.791
14157TIP3    H142416   0.681   6.828   3.848
14157TIP3    H242417   0.592   6.912   3.759
14158TIP3   OH242418   1.106   5.488   6.008
14158TIP3    H142419   1.183   5.475   6.063
14158TIP3    H242420   1.079   5.400   5.982
14159TIP3   OH242421   6.571   6.036   3.911
14159TIP3    H142422   6.476   6.043   3.906
14159TIP3    H242423   6.588   5.944   3.929
14160TIP3   OH242424   3.123   6.252   5.520
14160TIP3    H142425   3.056   6.197   5.479
14160TIP3    H242426   3.075   6.328   5.553
14161TIP3   OH242427   2.164   6.636   4.867
14161TIP3    H142428   2.209   6.701   4.813
14161TIP3    H242429   2.071   6.656   4.856
14162TIP3   OH242430   2.528   7.663   3.723
14162TIP3    H142431   2.559   7.573   3.719
14162TIP3    H242432   2.540   7.696   3.634
14163TIP3   OH242433   2.708   0.060   5.141
14163TIP3    H142434   2.678   0.034   5.228
14163TIP3    H242435   2.659   0.140   5.121
14164TIP3   OH242436   1.819   6.587   0.606
14164TIP3    H142437   1.767   6.506   0.607
14164TIP3    H242438   1.900   6.562   0.561
14165TIP3   OH242439   3.575   3.534   3.781
14165TIP3    H142440   3.590   3.601   3.715
14165TIP3    H242441   3.507   3.571   3.837
14166TIP3   OH242442   1.325   5.299   1.301
14166TIP3    H142443   1.394   5.278   1.238
14166TIP3    H242444   1.368   5.357   1.364
14167TIP3   OH242445   3.524   6.778   4.257
14167TIP3    H142446   3.599   6.778   4.317
14167TIP3    H242447   3.496   6.687   4.253
14168TIP3   OH242448   5.105   4.099   2.599
14168TIP3    H142449   5.088   4.070   2.510
14168TIP3    H242450   5.037   4.164   2.616
14169TIP3   OH242451   5.740   7.549   3.175
14169TIP3    H142452   5.738   7.487   3.102
14169TIP3    H242453   5.759   7.495   3.252
14170TIP3   OH242454   5.585   2.302   3.172
14170TIP3    H142455   5.493   2.321   3.153
14170TIP3    H242456   5.634   2.361   3.116
14171TIP3   OH242457   4.049   5.579   4.293
14171TIP3    H142458   4.132   5.585   4.246
14171TIP3    H242459   3.987   5.626   4.238
14172TIP3   OH242460   2.954   3.896   0.947
14172TIP3    H142461   2.959   3.951   0.868
14172TIP3    H242462   3.014   3.824   0.929
14173TIP3   OH242463   0.774   6.039   4.096
14173TIP3    H142464   0.684   6.010   4.107
14173TIP3    H242465   0.767   6.134   4.081
14174TIP3   OH242466   4.249   0.991   1.454
14174TIP3    H142467   4.321   0.994   1.517
14174TIP3    H242468   4.283   1.035   1.376
14175TIP3   OH242469   1.638   2.937   1.513
14175TIP3    H142470   1.548   2.905   1.505
14175TIP3    H242471   1.675   2.925   1.426
14176TIP3   OH242472   7.825   2.549   6.163
14176TIP3    H142473   7.881   2.476   6.138
14176TIP3    H242474   7.858   2.623   6.111
14177TIP3   OH242475   8.272   6.465   5.352
14177TIP3    H142476   8.211   6.500   5.286
14177TIP3    H242477   8.295   6.378   5.319
14178TIP3   OH242478   5.260   2.792   2.434
14178TIP3    H142479   5.191   2.759   2.376
14178TIP3    H242480   5.220   2.867   2.478
14179TIP3   OH242481   4.986   3.335   4.652
14179TIP3    H142482   4.997   3.274   4.726
14179TIP3    H242483   5.076   3.355   4.626
14180TIP3   OH242484   1.281   6.758   4.697
14180TIP3    H142485   1.310   6.690   4.636
14180TIP3    H242486   1.357   6.815   4.707
14181TIP3   OH242487   0.004   4.556   3.109
14181TIP3    H142488   0.068   4.525   3.173
14181TIP3    H242489   0.029   4.648   3.094
14182TIP3   OH242490   5.638   7.335   1.457
14182TIP3    H142491   5.715   7.283   1.481
14182TIP3    H242492   5.671   7.424   1.449
14183TIP3   OH242493   4.180   0.967   0.488
14183TIP3    H142494   4.193   1.043   0.545
14183TIP3    H242495   4.092   0.978   0.453
14184TIP3   OH242496   4.923   1.025   2.019
14184TIP3    H142497   4.990   1.023   2.087
14184TIP3    H242498   4.862   1.092   2.048
14185TIP3   OH242499   1.714   1.784   0.070
14185TIP3    H142500   1.659   1.855   0.103
14185TIP3    H242501   1.666   1.749  -0.006
14186TIP3   OH242502   2.198   2.149   2.690
14186TIP3    H142503   2.208   2.196   2.607
14186TIP3    H242504   2.170   2.216   2.752
14187TIP3   OH242505   4.046   4.915   6.546
14187TIP3    H142506   3.976   4.851   6.533
14187TIP3    H242507   4.028   4.984   6.482
14188TIP3   OH242508   3.239   5.758   1.242
14188TIP3    H142509   3.145   5.741   1.239
14188TIP3    H242510   3.247   5.843   1.287
14189TIP3   OH242511   0.530   3.972   3.726
14189TIP3    H142512   0.550   3.878   3.725
14189TIP3    H242513   0.523   3.995   3.633
14190TIP3   OH242514   7.578   4.350   0.258
14190TIP3    H142515   7.640   4.283   0.288
14190TIP3    H242516   7.584   4.419   0.324
14191TIP3   OH242517   8.267   7.057   5.096
14191TIP3    H142518   8.203   7.039   5.027
14191TIP3    H242519   8.215   7.090   5.169
14192TIP3   OH242520   0.818   7.138   1.376
14192TIP3    H142521   0.882   7.095   1.319
14192TIP3    H242522   0.833   7.100   1.462
14193TIP3   OH242523   7.108   0.632   3.517
14193TIP3    H142524   7.030   0.624   3.572
14193TIP3    H242525   7.151   0.547   3.525
14194TIP3   OH242526   2.478   7.706   1.443
14194TIP3    H142527   2.547   7.654   1.482
14194TIP3    H242528   2.507   7.722   1.353
14195TIP3   OH242529   4.106   4.614   6.743
14195TIP3    H142530   4.034   4.667   6.709
14195TIP3    H242531   4.177   4.627   6.680
14196TIP3   OH242532   4.145   6.839   1.554
14196TIP3    H142533   4.127   6.925   1.515
14196TIP3    H242534   4.079   6.782   1.516
14197TIP3   OH242535   5.115   0.353   1.087
14197TIP3    H142536   5.152   0.320   1.169
14197TIP3    H242537   5.160   0.437   1.073
14198TIP3   OH242538   6.625   6.988   6.230
14198TIP3    H142539   6.541   7.014   6.270
14198TIP3    H242540   6.676   7.068   6.229
14199TIP3   OH242541   5.626   0.826   2.783
14199TIP3    H142542   5.687   0.811   2.855
14199TIP3    H242543   5.623   0.921   2.773
14200TIP3   OH242544   2.122   3.730   4.901
14200TIP3    H142545   2.103   3.678   4.823
14200TIP3    H242546   2.046   3.715   4.959
14201TIP3   OH242547   0.838   5.128   6.542
14201TIP3    H142548   0.908   5.066   6.564
14201TIP3    H242549   0.884   5.205   6.510
14202TIP3   OH242550   0.297   0.678   1.239
14202TIP3    H142551   0.322   0.722   1.157
14202TIP3    H242552   0.210   0.644   1.222
14203TIP3   OH242553   3.692   2.177   3.979
14203TIP3    H142554   3.670   2.194   4.070
14203TIP3    H242555   3.612   2.141   3.941
14204TIP3   OH242556   6.894   2.251   6.639
14204TIP3    H142557   6.802   2.226   6.644
14204TIP3    H242558   6.938   2.196   6.704
14205TIP3   OH242559   4.542   6.111   4.231
14205TIP3    H142560   4.606   6.142   4.295
14205TIP3    H242561   4.495   6.040   4.275
14206TIP3   OH242562   5.802   1.364   6.442
14206TIP3    H142563   5.785   1.286   6.389
14206TIP3    H242564   5.898   1.370   6.444
14207TIP3   OH242565   6.023   7.681   6.640
14207TIP3    H142566   5.957   7.672   6.571
14207TIP3    H242567   5.991   7.626   6.711
14208TIP3   OH242568   7.390   4.883   0.952
14208TIP3    H142569   7.449   4.885   1.028
14208TIP3    H242570   7.319   4.943   0.975
14209TIP3   OH242571   1.717   6.668   6.037
14209TIP3    H142572   1.808   6.669   6.066
14209TIP3    H242573   1.722   6.680   5.942
14210TIP3   OH242574   6.718   7.663   2.127
14210TIP3    H142575   6.692   7.754   2.114
14210TIP3    H242576   6.639   7.613   2.104
14211TIP3   OH242577   3.806   2.630   2.939
14211TIP3    H142578   3.796   2.636   2.844
14211TIP3    H242579   3.725   2.667   2.974
14212TIP3   OH242580   1.176   2.972   3.509
14212TIP3    H142581   1.153   3.056   3.470
14212TIP3    H242582   1.116   2.963   3.583
14213TIP3   OH242583   4.868   7.189   3.751
14213TIP3    H142584   4.955   7.152   3.738
14213TIP3    H242585   4.839   7.153   3.834
14214TIP3   OH242586   0.649   4.854   0.340
14214TIP3    H142587   0.556   4.875   0.343
14214TIP3    H242588   0.690   4.918   0.398
14215TIP3   OH242589   5.329   1.364   1.828
14215TIP3    H142590   5.254   1.338   1.881
14215TIP3    H242591   5.382   1.419   1.886
14216TIP3   OH242592   6.250   7.683   0.569
14216TIP3    H142593   6.254   7.718   0.658
14216TIP3    H242594   6.195   7.745   0.521
14217TIP3   OH242595   1.507   6.296   1.642
14217TIP3    H142596   1.585   6.262   1.686
14217TIP3    H242597   1.540   6.328   1.557
14218TIP3   OH242598   0.239   3.548   6.164
14218TIP3    H142599   0.162   3.604   6.169
14218TIP3    H242600   0.309   3.600   6.205
14219TIP3   OH242601   4.055   1.437   1.820
14219TIP3    H142602   4.090   1.370   1.761
14219TIP3    H242603   4.014   1.388   1.891
14220TIP3   OH242604   3.616   0.533   5.274
14220TIP3    H142605   3.579   0.480   5.203
14220TIP3    H242606   3.664   0.603   5.229
14221TIP3   OH242607   2.236   7.288   0.239
14221TIP3    H142608   2.163   7.275   0.300
14221TIP3    H242609   2.201   7.348   0.173
14222TIP3   OH242610   3.266   5.489   5.041
14222TIP3    H142611   3.358   5.463   5.046
14222TIP3    H242612   3.223   5.441   5.112
14223TIP3   OH242613   3.304   7.735   4.549
14223TIP3    H142614   3.320   7.778   4.633
14223TIP3    H242615   3.237   7.789   4.506
14224TIP3   OH242616   8.303   7.741   5.648
14224TIP3    H142617   8.334   7.656   5.617
14224TIP3    H242618   8.236   7.720   5.713
14225TIP3   OH242619   4.981   1.058   1.739
14225TIP3    H142620   5.024   1.042   1.824
14225TIP3    H242621   4.944   0.973   1.715
14226TIP3   OH242622   6.300   0.880   4.949
14226TIP3    H142623   6.211   0.902   4.923
14226TIP3    H242624   6.333   0.824   4.879
14227TIP3   OH242625   1.838   6.336   3.299
14227TIP3    H142626   1.898   6.274   3.258
14227TIP3    H242627   1.784   6.369   3.228
14228TIP3   OH242628   3.657   7.023   5.560
14228TIP3    H142629   3.628   7.064   5.479
14228TIP3    H242630   3.632   7.084   5.629
14229TIP3   OH242631   6.827   5.503   1.608
14229TIP3    H142632   6.765   5.517   1.680
14229TIP3    H242633   6.874   5.586   1.601
14230TIP3   OH242634   5.554   0.523   4.019
14230TIP3    H142635   5.623   0.559   3.963
14230TIP3    H242636   5.507   0.600   4.051
14231TIP3   OH242637   2.141   2.250   5.272
14231TIP3    H142638   2.124   2.343   5.287
14231TIP3    H242639   2.092   2.206   5.341
14232TIP3   OH242640   5.327   4.300   4.185
14232TIP3    H142641   5.275   4.221   4.174
14232TIP3    H242642   5.317   4.324   4.277
14233TIP3   OH242643   5.320   5.877   5.031
14233TIP3    H142644   5.226   5.890   5.035
14233TIP3    H242645   5.336   5.800   5.085
14234TIP3   OH242646   7.551   5.663   0.216
14234TIP3    H142647   7.547   5.635   0.307
14234TIP3    H242648   7.511   5.749   0.215
14235TIP3   OH242649   2.864   4.116   4.003
14235TIP3    H142650   2.809   4.079   3.934
14235TIP3    H242651   2.802   4.147   4.069
14236TIP3   OH242652   8.023   4.807   4.593
14236TIP3    H142653   8.040   4.750   4.667
14236TIP3    H242654   8.012   4.894   4.631
14237TIP3   OH242655   4.817   7.327   5.788
14237TIP3    H142656   4.791   7.268   5.859
14237TIP3    H242657   4.908   7.303   5.770
14238TIP3   OH242658   4.060   0.506   3.427
14238TIP3    H142659   3.966   0.522   3.437
14238TIP3    H242660   4.083   0.451   3.502
14239TIP3   OH242661   2.799   4.273   2.276
14239TIP3    H142662   2.758   4.333   2.338
14239TIP3    H242663   2.889   4.305   2.267
14240TIP3   OH242664   7.083   0.843   4.298
14240TIP3    H142665   7.032   0.923   4.300
14240TIP3    H242666   7.097   0.825   4.205
14241TIP3   OH242667   7.587   5.502   3.212
14241TIP3    H142668   7.565   5.434   3.276
14241TIP3    H242669   7.511   5.506   3.154
14242TIP3   OH242670   7.845   6.172   4.209
14242TIP3    H142671   7.761   6.152   4.249
14242TIP3    H242672   7.866   6.096   4.155
14243TIP3   OH242673   1.589   2.003   0.180
14243TIP3    H142674   1.652   2.075   0.191
14243TIP3    H242675   1.531   2.033   0.110
14244TIP3   OH242676   5.912   1.907   0.942
14244TIP3    H142677   5.899   1.976   1.007
14244TIP3    H242678   5.987   1.858   0.973
14245TIP3   OH242679   5.411   1.254   3.601
14245TIP3    H142680   5.434   1.167   3.568
14245TIP3    H242681   5.362   1.237   3.682
14246TIP3   OH242682   0.121   6.778   2.092
14246TIP3    H142683   0.109   6.800   2.000
14246TIP3    H242684   0.159   6.857   2.131
14247TIP3   OH242685   2.518   1.720   5.043
14247TIP3    H142686   2.463   1.798   5.048
14247TIP3    H242687   2.468   1.658   4.991
14248TIP3   OH242688   6.916   7.372   3.900
14248TIP3    H142689   6.928   7.439   3.833
14248TIP3    H242690   6.887   7.421   3.978
14249TIP3   OH242691   5.173   4.637   1.387
14249TIP3    H142692   5.259   4.658   1.423
14249TIP3    H242693   5.186   4.640   1.292
14250TIP3   OH242694   8.160   3.562   4.033
14250TIP3    H142695   8.138   3.650   4.063
14250TIP3    H242696   8.108   3.551   3.953
14251TIP3   OH242697   1.093   0.784   0.449
14251TIP3    H142698   1.052   0.712   0.497
14251TIP3    H242699   1.185   0.781   0.476
14252TIP3   OH242700   6.531   6.804   4.380
14252TIP3    H142701   6.558   6.780   4.469
14252TIP3    H242702   6.607   6.850   4.343
14253TIP3   OH242703   5.355   1.614   5.302
14253TIP3    H142704   5.345   1.584   5.392
14253TIP3    H242705   5.297   1.557   5.251
14254TIP3   OH242706   1.500   0.050   5.145
14254TIP3    H142707   1.523   0.139   5.171
14254TIP3    H242708   1.560   0.030   5.073
14255TIP3   OH242709   3.956   1.006   2.016
14255TIP3    H142710   4.043   0.991   1.980
14255TIP3    H242711   3.959   0.967   2.103
14256TIP3   OH242712   8.117   7.679   5.829
14256TIP3    H142713   8.090   7.608   5.888
14256TIP3    H242714   8.121   7.756   5.886
14257TIP3   OH242715   0.848   6.754   2.682
14257TIP3    H142716   0.920   6.739   2.621
14257TIP3    H242717   0.779   6.794   2.629
14258TIP3   OH242718   0.632   5.105   2.401
14258TIP3    H142719   0.658   5.045   2.470
14258TIP3    H242720   0.612   5.187   2.446
14259TIP3   OH242721   7.353   2.404   4.894
14259TIP3    H142722   7.349   2.495   4.923
14259TIP3    H242723   7.343   2.409   4.799
14260TIP3   OH242724   5.973   4.742   3.027
14260TIP3    H142725   5.960   4.758   2.934
14260TIP3    H242726   5.987   4.648   3.034
14261TIP3   OH242727   5.511   1.677   0.894
14261TIP3    H142728   5.433   1.694   0.840
14261TIP3    H242729   5.491   1.594   0.938
14262TIP3   OH242730   6.817   4.258   6.374
14262TIP3    H142731   6.869   4.339   6.373
14262TIP3    H242732   6.849   4.209   6.298
14263TIP3   OH242733   3.405   1.360   1.158
14263TIP3    H142734   3.418   1.266   1.155
14263TIP3    H242735   3.311   1.372   1.170
14264TIP3   OH242736   5.343   7.673   6.413
14264TIP3    H142737   5.274   7.637   6.469
14264TIP3    H242738   5.406   7.601   6.402
14265TIP3   OH242739   4.705   5.980   5.154
14265TIP3    H142740   4.730   6.057   5.103
14265TIP3    H242741   4.759   5.984   5.233
14266TIP3   OH242742   0.427   0.550   2.030
14266TIP3    H142743   0.430   0.461   1.996
14266TIP3    H242744   0.487   0.599   1.973
14267TIP3   OH242745   0.304   6.493   3.050
14267TIP3    H142746   0.255   6.522   3.126
14267TIP3    H242747   0.239   6.485   2.980
14268TIP3   OH242748   5.452   4.102   3.129
14268TIP3    H142749   5.358   4.084   3.125
14268TIP3    H242750   5.460   4.195   3.106
14269TIP3   OH242751   7.763   2.252   1.346
14269TIP3    H142752   7.822   2.325   1.327
14269TIP3    H242753   7.794   2.217   1.429
14270TIP3   OH242754   6.598   3.174   3.124
14270TIP3    H142755   6.600   3.091   3.077
14270TIP3    H242756   6.605   3.241   3.055
14271TIP3   OH242757   1.502   4.348   5.009
14271TIP3    H142758   1.409   4.344   4.990
14271TIP3    H242759   1.545   4.330   4.925
14272TIP3   OH242760   1.123   6.768   0.563
14272TIP3    H142761   1.139   6.700   0.628
14272TIP3    H242762   1.202   6.822   0.563
14273TIP3   OH242763   5.010   4.849   4.840
14273TIP3    H142764   5.078   4.917   4.836
14273TIP3    H242765   4.983   4.848   4.932
14274TIP3   OH242766   3.587   4.175   0.810
14274TIP3    H142767   3.635   4.234   0.868
14274TIP3    H242768   3.609   4.087   0.842
14275TIP3   OH242769   3.704   1.058   6.680
14275TIP3    H142770   3.752   1.121   6.734
14275TIP3    H242771   3.740   0.973   6.706
14276TIP3   OH242772   7.811   0.180   5.557
14276TIP3    H142773   7.823   0.264   5.511
14276TIP3    H242774   7.856   0.116   5.502
14277TIP3   OH242775   2.676   1.331   6.532
14277TIP3    H142776   2.650   1.422   6.540
14277TIP3    H242777   2.594   1.283   6.523
14278TIP3   OH242778   5.673   7.136   2.101
14278TIP3    H142779   5.682   7.063   2.039
14278TIP3    H242780   5.649   7.094   2.184
14279TIP3   OH242781   5.650   3.976   0.989
14279TIP3    H142782   5.669   4.057   1.035
14279TIP3    H242783   5.634   3.912   1.058
14280TIP3   OH242784   2.989   0.670   6.500
14280TIP3    H142785   2.944   0.586   6.508
14280TIP3    H242786   2.999   0.701   6.590
14281TIP3   OH242787   0.389   1.833   0.865
14281TIP3    H142788   0.312   1.862   0.817
14281TIP3    H242789   0.362   1.834   0.957
14282TIP3   OH242790   2.219   2.107   1.109
14282TIP3    H142791   2.159   2.036   1.086
14282TIP3    H242792   2.302   2.063   1.126
14283TIP3   OH242793   5.912   7.652   1.569
14283TIP3    H142794   5.910   7.577   1.509
14283TIP3    H242795   6.003   7.680   1.568
14284TIP3   OH242796   7.054   4.925   6.438
14284TIP3    H142797   7.032   5.012   6.403
14284TIP3    H242798   6.981   4.869   6.410
14285TIP3   OH242799   6.720   3.605   6.575
14285TIP3    H142800   6.650   3.552   6.614
14285TIP3    H242801   6.763   3.545   6.514
14286TIP3   OH242802   0.298   1.855   5.733
14286TIP3    H142803   0.211   1.885   5.759
14286TIP3    H242804   0.313   1.896   5.648
14287TIP3   OH242805   3.876   0.152   4.295
14287TIP3    H142806   3.905   0.130   4.383
14287TIP3    H242807   3.866   0.248   4.295
14288TIP3   OH242808   3.469   1.891   5.740
14288TIP3    H142809   3.475   1.823   5.673
14288TIP3    H242810   3.557   1.896   5.777
14289TIP3   OH242811   3.458   5.943   6.145
14289TIP3    H142812   3.426   5.852   6.143
14289TIP3    H242813   3.437   5.977   6.058
14290TIP3   OH242814   4.145   3.645   4.128
14290TIP3    H142815   4.107   3.562   4.157
14290TIP3    H242816   4.227   3.621   4.087
14291TIP3   OH242817   4.610   1.060   3.020
14291TIP3    H142818   4.567   0.980   3.050
14291TIP3    H242819   4.555   1.090   2.947
14292TIP3   OH242820   7.074   0.776   0.494
14292TIP3    H142821   7.084   0.717   0.569
14292TIP3    H242822   6.981   0.772   0.472
14293TIP3   OH242823   7.826   5.811   3.501
14293TIP3    H142824   7.866   5.729   3.472
14293TIP3    H242825   7.745   5.785   3.544
14294TIP3   OH242826   2.178   5.646   2.739
14294TIP3    H142827   2.213   5.654   2.828
14294TIP3    H242828   2.146   5.556   2.733
14295TIP3   OH242829   0.244   4.574   4.114
14295TIP3    H142830   0.325   4.523   4.125
14295TIP3    H242831   0.197   4.562   4.196
14296TIP3   OH242832   7.465   3.303   0.917
14296TIP3    H142833   7.436   3.231   0.973
14296TIP3    H242834   7.388   3.361   0.910
14297TIP3   OH242835   1.034   4.986   4.216
14297TIP3    H142836   1.055   4.983   4.310
14297TIP3    H242837   0.984   5.067   4.206
14298TIP3   OH242838   6.062   0.795   6.207
14298TIP3    H142839   6.077   0.737   6.133
14298TIP3    H242840   6.132   0.775   6.269
14299TIP3   OH242841   6.631   6.426   3.315
14299TIP3    H142842   6.550   6.382   3.342
14299TIP3    H242843   6.662   6.374   3.240
14300TIP3   OH242844   0.978   1.932   2.914
14300TIP3    H142845   0.940   1.867   2.974
14300TIP3    H242846   1.034   1.986   2.970
14301TIP3   OH242847   0.922   4.602   3.271
14301TIP3    H142848   0.864   4.640   3.337
14301TIP3    H242849   1.004   4.587   3.317
14302TIP3   OH242850   1.846   7.001   3.416
14302TIP3    H142851   1.753   6.990   3.437
14302TIP3    H242852   1.885   7.032   3.497
14303TIP3   OH242853   5.536   1.445   3.740
14303TIP3    H142854   5.625   1.425   3.768
14303TIP3    H242855   5.506   1.367   3.693
14304TIP3   OH242856   4.030   0.751   4.348
14304TIP3    H142857   3.997   0.692   4.280
14304TIP3    H242858   4.123   0.762   4.328
14305TIP3   OH242859   6.815   1.290   6.131
14305TIP3    H142860   6.885   1.341   6.172
14305TIP3    H242861   6.811   1.209   6.183
14306TIP3   OH242862   2.320   4.373   4.787
14306TIP3    H142863   2.273   4.302   4.829
14306TIP3    H242864   2.252   4.425   4.743
14307TIP3   OH242865   5.003   1.882   3.493
14307TIP3    H142866   4.936   1.911   3.555
14307TIP3    H242867   4.975   1.918   3.409
14308TIP3   OH242868   6.582   3.959   5.267
14308TIP3    H142869   6.675   3.970   5.247
14308TIP3    H242870   6.580   3.937   5.360
14309TIP3   OH242871   7.270   6.313   3.971
14309TIP3    H142872   7.216   6.235   3.983
14309TIP3    H242873   7.221   6.367   3.909
14310TIP3   OH242874   3.210   0.586   1.263
14310TIP3    H142875   3.203   0.557   1.172
14310TIP3    H242876   3.167   0.517   1.314
14311TIP3   OH242877   3.699   1.727   0.176
14311TIP3    H142878   3.765   1.795   0.166
14311TIP3    H242879   3.749   1.645   0.174
14312TIP3   OH242880   4.551   1.957   6.581
14312TIP3    H142881   4.605   2.031   6.552
14312TIP3    H242882   4.472   1.998   6.616
14313TIP3   OH242883   2.259   7.728   1.173
14313TIP3    H142884   2.349   7.702   1.193
14313TIP3    H242885   2.212   7.645   1.165
14314TIP3   OH242886   6.227   0.072   6.051
14314TIP3    H142887   6.306   0.021   6.069
14314TIP3    H242888   6.259   0.153   6.012
14315TIP3   OH242889   1.071   7.416   4.930
14315TIP3    H142890   0.980   7.408   4.960
14315TIP3    H242891   1.079   7.352   4.860
14316TIP3   OH242892   6.045   7.439   3.604
14316TIP3    H142893   6.065   7.405   3.691
14316TIP3    H242894   6.070   7.532   3.608
14317TIP3   OH242895   4.064   3.974   2.383
14317TIP3    H142896   4.016   4.056   2.394
14317TIP3    H242897   4.064   3.933   2.469
14318TIP3   OH242898   6.999   6.744   5.689
14318TIP3    H142899   6.955   6.692   5.756
14318TIP3    H242900   7.020   6.827   5.733
14319TIP3   OH242901   8.168   4.753   6.487
14319TIP3    H142902   8.109   4.680   6.502
14319TIP3    H242903   8.254   4.722   6.515
14320TIP3   OH242904   0.854   5.700   2.006
14320TIP3    H142905   0.772   5.735   2.041
14320TIP3    H242906   0.834   5.608   1.987
14321TIP3   OH242907   2.263   2.148   2.409
14321TIP3    H142908   2.340   2.123   2.358
14321TIP3    H242909   2.199   2.079   2.391
14322TIP3   OH242910   4.766   7.388   2.908
14322TIP3    H142911   4.746   7.395   3.001
14322TIP3    H242912   4.841   7.446   2.895
14323TIP3   OH242913   5.130   5.735   5.541
14323TIP3    H142914   5.098   5.649   5.516
14323TIP3    H242915   5.055   5.777   5.583
14324TIP3   OH242916   4.651   4.516   3.081
14324TIP3    H142917   4.604   4.529   2.999
14324TIP3    H242918   4.582   4.512   3.148
14325TIP3   OH242919   2.213   1.594   6.348
14325TIP3    H142920   2.157   1.518   6.333
14325TIP3    H242921   2.296   1.572   6.304
14326TIP3   OH242922   5.666   3.783   4.737
14326TIP3    H142923   5.674   3.877   4.755
14326TIP3    H242924   5.621   3.748   4.813
14327TIP3   OH242925   5.128   6.380   6.062
14327TIP3    H142926   5.153   6.294   6.096
14327TIP3    H242927   5.135   6.438   6.137
14328TIP3   OH242928   3.195   5.952   1.789
14328TIP3    H142929   3.137   6.027   1.774
14328TIP3    H242930   3.196   5.941   1.884
14329TIP3   OH242931   2.732   4.891   0.615
14329TIP3    H142932   2.793   4.898   0.541
14329TIP3    H242933   2.690   4.806   0.604
14330TIP3   OH242934   4.015   0.446   2.351
14330TIP3    H142935   3.966   0.365   2.364
14330TIP3    H242936   4.098   0.432   2.397
14331TIP3   OH242937   7.346   4.194   0.628
14331TIP3    H142938   7.439   4.174   0.621
14331TIP3    H242939   7.313   4.191   0.538
14332TIP3   OH242940   2.463   0.202   2.858
14332TIP3    H142941   2.381   0.185   2.812
14332TIP3    H242942   2.439   0.260   2.931
14333TIP3   OH242943   1.868   2.321   6.178
14333TIP3    H142944   1.853   2.228   6.196
14333TIP3    H242945   1.881   2.325   6.083
14334TIP3   OH242946   0.276   5.465   6.431
14334TIP3    H142947   0.219   5.389   6.426
14334TIP3    H242948   0.360   5.430   6.460
14335TIP3   OH242949   7.195   1.358   0.750
14335TIP3    H142950   7.159   1.444   0.771
14335TIP3    H242951   7.131   1.296   0.784
14336TIP3   OH242952   3.296   0.844   4.424
14336TIP3    H142953   3.201   0.847   4.423
14336TIP3    H242954   3.323   0.901   4.352
14337TIP3   OH242955   5.041   6.499   0.630
14337TIP3    H142956   5.000   6.584   0.616
14337TIP3    H242957   5.006   6.444   0.560
14338TIP3   OH242958   4.311   1.424   5.475
14338TIP3    H142959   4.222   1.407   5.445
14338TIP3    H242960   4.319   1.373   5.556
14339TIP3   OH242961   0.054   1.534   4.790
14339TIP3    H142962   0.069   1.460   4.730
14339TIP3    H242963   0.141   1.558   4.820
14340TIP3   OH242964   6.915   7.618   6.147
14340TIP3    H142965   6.822   7.598   6.155
14340TIP3    H242966   6.936   7.668   6.226
14341TIP3   OH242967   4.207   1.638   4.076
14341TIP3    H142968   4.138   1.704   4.074
14341TIP3    H242969   4.164   1.557   4.047
14342TIP3   OH242970   4.442   0.980   0.437
14342TIP3    H142971   4.348   0.968   0.422
14342TIP3    H242972   4.450   0.996   0.531
14343TIP3   OH242973   3.671   5.316   5.799
14343TIP3    H142974   3.693   5.325   5.706
14343TIP3    H242975   3.749   5.276   5.838
14344TIP3   OH242976   3.283   7.646   6.063
14344TIP3    H142977   3.374   7.674   6.071
14344TIP3    H242978   3.237   7.725   6.032
14345TIP3   OH242979   4.129   4.806   3.353
14345TIP3    H142980   4.183   4.882   3.334
14345TIP3    H242981   4.189   4.742   3.390
14346TIP3   OH242982   6.378   4.507   6.415
14346TIP3    H142983   6.319   4.568   6.371
14346TIP3    H242984   6.463   4.523   6.375
14347TIP3   OH242985   7.978   5.325   1.222
14347TIP3    H142986   7.942   5.293   1.305
14347TIP3    H242987   7.962   5.254   1.160
14348TIP3   OH242988   4.851   2.291   5.785
14348TIP3    H142989   4.889   2.287   5.697
14348TIP3    H242990   4.917   2.251   5.842
14349TIP3   OH242991   2.271   4.590   1.882
14349TIP3    H142992   2.181   4.622   1.890
14349TIP3    H242993   2.297   4.567   1.971
14350TIP3   OH242994   1.029   7.553   5.281
14350TIP3    H142995   1.096   7.497   5.319
14350TIP3    H242996   0.946   7.518   5.315
14351TIP3   OH242997   1.406   1.145   1.613
14351TIP3    H142998   1.454   1.188   1.683
14351TIP3    H242999   1.388   1.214   1.550
14352TIP3   OH243000   5.631   5.919   0.241
14352TIP3    H143001   5.655   5.933   0.333
14352TIP3    H243002   5.552   5.971   0.228
14353TIP3   OH243003   6.687   5.787   6.033
14353TIP3    H143004   6.598   5.802   5.999
14353TIP3    H243005   6.675   5.781   6.127
14354TIP3   OH243006   2.388   2.194   5.276
14354TIP3    H143007   2.298   2.218   5.253
14354TIP3    H243008   2.383   2.170   5.369
14355TIP3   OH243009   4.002   4.571   4.860
14355TIP3    H143010   4.050   4.604   4.935
14355TIP3    H243011   3.910   4.575   4.887
14356TIP3   OH243012   2.575   5.926   2.558
14356TIP3    H143013   2.584   5.947   2.465
14356TIP3    H243014   2.494   5.875   2.563
14357TIP3   OH243015   0.677   2.834   6.201
14357TIP3    H143016   0.661   2.895   6.129
14357TIP3    H243017   0.772   2.831   6.210
14358TIP3   OH243018   1.684   0.944   4.174
14358TIP3    H143019   1.668   0.980   4.261
14358TIP3    H243020   1.600   0.948   4.129
14359TIP3   OH243021   2.987   1.695   2.064
14359TIP3    H143022   2.900   1.731   2.045
14359TIP3    H243023   2.996   1.702   2.159
14360TIP3   OH243024   1.497   4.081   1.508
14360TIP3    H143025   1.514   4.120   1.594
14360TIP3    H243026   1.418   4.125   1.477
14361TIP3   OH243027   6.766   0.623   4.291
14361TIP3    H143028   6.841   0.646   4.235
14361TIP3    H243029   6.757   0.698   4.350
14362TIP3   OH243030   1.144   0.593   5.453
14362TIP3    H143031   1.050   0.609   5.444
14362TIP3    H243032   1.172   0.653   5.522
14363TIP3   OH243033   3.383   5.970   3.606
14363TIP3    H143034   3.302   5.922   3.623
14363TIP3    H243035   3.448   5.927   3.662
14364TIP3   OH243036   7.941   0.981   1.930
14364TIP3    H143037   7.921   1.044   1.999
14364TIP3    H243038   7.861   0.930   1.920
14365TIP3   OH243039   1.144   4.960   4.480
14365TIP3    H143040   1.064   4.965   4.532
14365TIP3    H243041   1.172   4.868   4.488
14366TIP3   OH243042   6.957   0.454   5.684
14366TIP3    H143043   7.034   0.488   5.638
14366TIP3    H243044   6.981   0.457   5.777
14367TIP3   OH243045   4.615   6.759   2.900
14367TIP3    H143046   4.689   6.718   2.946
14367TIP3    H243047   4.542   6.699   2.915
14368TIP3   OH243048   7.363   3.404   4.102
14368TIP3    H143049   7.405   3.480   4.142
14368TIP3    H243050   7.306   3.369   4.171
14369TIP3   OH243051   2.697   5.505   1.757
14369TIP3    H143052   2.646   5.476   1.832
14369TIP3    H243053   2.769   5.442   1.750
14370TIP3   OH243054   4.797   6.539   2.366
14370TIP3    H143055   4.877   6.487   2.359
14370TIP3    H243056   4.780   6.570   2.277
14371TIP3   OH243057   7.019   7.759   0.166
14371TIP3    H143058   7.022   7.777   0.260
14371TIP3    H243059   7.084   7.691   0.151
14372TIP3   OH243060   0.196   7.651   5.281
14372TIP3    H143061   0.187   7.630   5.374
14372TIP3    H243062   0.122   7.609   5.239
14373TIP3   OH243063   3.041   6.450   1.105
14373TIP3    H143064   3.091   6.464   1.025
14373TIP3    H243065   3.099   6.399   1.161
14374TIP3   OH243066   3.014   5.716   0.590
14374TIP3    H143067   3.019   5.777   0.663
14374TIP3    H243068   2.940   5.746   0.538
14375TIP3   OH243069   6.456   2.904   3.407
14375TIP3    H143070   6.535   2.946   3.374
14375TIP3    H243071   6.457   2.816   3.369
14376TIP3   OH243072   0.867   1.686   6.724
14376TIP3    H143073   0.945   1.660   6.675
14376TIP3    H243074   0.797   1.634   6.685
14377TIP3   OH243075   5.521   1.230   3.224
14377TIP3    H143076   5.486   1.157   3.276
14377TIP3    H243077   5.519   1.305   3.284
14378TIP3   OH243078   2.147   1.110   6.249
14378TIP3    H143079   2.102   1.118   6.165
14378TIP3    H243080   2.111   1.180   6.303
14379TIP3   OH243081   2.689   0.433   3.480
14379TIP3    H143082   2.691   0.340   3.459
14379TIP3    H243083   2.697   0.477   3.395
14380TIP3   OH243084   2.926   6.745   0.895
14380TIP3    H143085   2.865   6.818   0.895
14380TIP3    H243086   2.872   6.667   0.885
14381TIP3   OH243087   0.686   3.328   4.439
14381TIP3    H143088   0.665   3.374   4.358
14381TIP3    H243089   0.773   3.290   4.423
14382TIP3   OH243090   2.727   6.301   3.914
14382TIP3    H143091   2.662   6.294   3.984
14382TIP3    H243092   2.811   6.302   3.958
14383TIP3   OH243093   7.562   4.040   6.093
14383TIP3    H143094   7.559   3.972   6.026
14383TIP3    H243095   7.617   4.004   6.162
14384TIP3   OH243096   0.004   5.400   1.325
14384TIP3    H143097  -0.052   5.439   1.392
14384TIP3    H243098   0.054   5.333   1.371
14385TIP3   OH243099   3.509   0.350   6.261
14385TIP3    H143100   3.510   0.267   6.214
14385TIP3    H243101   3.573   0.339   6.332
14386TIP3   OH243102   5.641   0.929   5.894
14386TIP3    H143103   5.699   0.917   5.969
14386TIP3    H243104   5.617   0.840   5.868
14387TIP3   OH243105   4.608   3.917   4.604
14387TIP3    H143106   4.659   3.991   4.572
14387TIP3    H243107   4.519   3.952   4.612
14388TIP3   OH243108   4.986   5.090   2.092
14388TIP3    H143109   5.016   5.012   2.139
14388TIP3    H243110   5.043   5.097   2.017
14389TIP3   OH243111   4.148   4.443   1.095
14389TIP3    H143112   4.065   4.417   1.136
14389TIP3    H243113   4.123   4.513   1.035
14390TIP3   OH243114   1.296   5.863   0.376
14390TIP3    H143115   1.324   5.945   0.336
14390TIP3    H243116   1.361   5.799   0.348
14391TIP3   OH243117   6.692   1.506   6.690
14391TIP3    H143118   6.764   1.487   6.631
14391TIP3    H243119   6.613   1.494   6.637
14392TIP3   OH243120   6.175   5.967   2.330
14392TIP3    H143121   6.166   6.043   2.272
14392TIP3    H243122   6.170   6.003   2.418
14393TIP3   OH243123   6.664   1.743   0.966
14393TIP3    H143124   6.603   1.693   1.020
14393TIP3    H243125   6.660   1.832   1.000
14394TIP3   OH243126   0.026   7.507   4.216
14394TIP3    H143127   0.100   7.533   4.161
14394TIP3    H243128   0.034   7.411   4.222
14395TIP3   OH243129   2.122   4.862   4.594
14395TIP3    H143130   2.140   4.769   4.604
14395TIP3    H243131   2.096   4.891   4.681
14396TIP3   OH243132   0.242   6.344   4.338
14396TIP3    H143133   0.246   6.425   4.389
14396TIP3    H243134   0.166   6.356   4.280
14397TIP3   OH243135   6.181   3.566   5.454
14397TIP3    H143136   6.197   3.500   5.387
14397TIP3    H243137   6.095   3.543   5.490
14398TIP3   OH243138   6.562   1.670   3.554
14398TIP3    H143139   6.653   1.698   3.540
14398TIP3    H243140   6.510   1.735   3.506
14399TIP3   OH243141   1.271   0.749   2.705
14399TIP3    H143142   1.217   0.775   2.779
14399TIP3    H243143   1.250   0.811   2.635
14400TIP3   OH243144   2.201   1.282   6.458
14400TIP3    H143145   2.169   1.200   6.495
14400TIP3    H243146   2.246   1.325   6.531
14401TIP3   OH243147   4.707   0.862   1.894
14401TIP3    H143148   4.761   0.927   1.939
14401TIP3    H243149   4.756   0.840   1.815
14402TIP3   OH243150   0.146   1.499   6.297
14402TIP3    H143151   0.239   1.514   6.313
14402TIP3    H243152   0.145   1.429   6.232
14403TIP3   OH243153   3.801   0.032   5.597
14403TIP3    H143154   3.791  -0.053   5.556
14403TIP3    H243155   3.798   0.095   5.525
14404TIP3   OH243156   0.857   7.030   0.102
14404TIP3    H143157   0.765   7.054   0.094
14404TIP3    H243158   0.904   7.109   0.077
14405TIP3   OH243159   1.745   1.022   3.715
14405TIP3    H143160   1.687   0.953   3.749
14405TIP3    H243161   1.793   0.980   3.644
14406TIP3   OH243162   5.298   7.282   5.040
14406TIP3    H143163   5.227   7.223   5.064
14406TIP3    H243164   5.378   7.230   5.051
14407TIP3   OH243165   5.350   0.050   1.764
14407TIP3    H143166   5.289  -0.012   1.723
14407TIP3    H243167   5.396   0.090   1.691
14408TIP3   OH243168   1.430   5.061   2.518
14408TIP3    H143169   1.502   5.113   2.554
14408TIP3    H243170   1.382   5.122   2.462
14409TIP3   OH243171   6.657   2.345   3.949
14409TIP3    H143172   6.644   2.301   4.033
14409TIP3    H243173   6.570   2.374   3.923
14410TIP3   OH243174   0.043   1.175   0.891
14410TIP3    H143175   0.037   1.250   0.832
14410TIP3    H243176   0.063   1.214   0.976
14411TIP3   OH243177   5.782   5.124   5.145
14411TIP3    H143178   5.775   5.189   5.214
14411TIP3    H243179   5.871   5.089   5.153
14412TIP3   OH243180   6.973   5.677   2.944
14412TIP3    H143181   6.882   5.692   2.968
14412TIP3    H243182   6.969   5.614   2.872
14413TIP3   OH243183   7.731   6.791   5.758
14413TIP3    H143184   7.738   6.836   5.674
14413TIP3    H243185   7.794   6.836   5.814
14414TIP3   OH243186   7.530   5.178   2.852
14414TIP3    H143187   7.455   5.235   2.834
14414TIP3    H243188   7.490   5.093   2.874
14415TIP3   OH243189   7.584   0.090   2.493
14415TIP3    H143190   7.547   0.004   2.470
14415TIP3    H243191   7.644   0.110   2.421
14416TIP3   OH243192   3.935   5.471   2.149
14416TIP3    H143193   3.883   5.497   2.073
14416TIP3    H243194   4.025   5.491   2.124
14417TIP3   OH243195   6.085   4.077   0.457
14417TIP3    H143196   6.012   4.106   0.510
14417TIP3    H243197   6.130   4.012   0.512
14418TIP3   OH243198   4.164   0.486   4.136
14418TIP3    H143199   4.221   0.533   4.198
14418TIP3    H243200   4.081   0.534   4.139
14419TIP3   OH243201   6.784   3.151   1.935
14419TIP3    H143202   6.828   3.087   1.991
14419TIP3    H243203   6.845   3.225   1.932
14420TIP3   OH243204   6.071   7.204   4.846
14420TIP3    H143205   6.063   7.109   4.851
14420TIP3    H243206   6.130   7.220   4.773
14421TIP3   OH243207   6.575   1.795   3.184
14421TIP3    H143208   6.586   1.889   3.199
14421TIP3    H243209   6.658   1.756   3.212
14422TIP3   OH243210   7.837   3.555   5.099
14422TIP3    H143211   7.768   3.490   5.084
14422TIP3    H243212   7.791   3.639   5.102
14423TIP3   OH243213   4.829   3.488   5.238
14423TIP3    H143214   4.830   3.549   5.312
14423TIP3    H243215   4.862   3.538   5.164
14424TIP3   OH243216   5.893   4.611   4.430
14424TIP3    H143217   5.821   4.568   4.477
14424TIP3    H243218   5.947   4.649   4.498
14425TIP3   OH243219   6.620   4.248   3.613
14425TIP3    H143220   6.539   4.295   3.594
14425TIP3    H243221   6.602   4.201   3.695
14426TIP3   OH243222   0.853   0.164   6.379
14426TIP3    H143223   0.844   0.213   6.297
14426TIP3    H243224   0.835   0.228   6.447
14427TIP3   OH243225   3.130   0.041   1.897
14427TIP3    H143226   3.093  -0.012   1.826
14427TIP3    H243227   3.087   0.008   1.976
14428TIP3   OH243228   0.955   1.192   2.128
14428TIP3    H143229   0.968   1.287   2.120
14428TIP3    H243230   0.964   1.174   2.221
14429TIP3   OH243231   4.445   7.674   5.232
14429TIP3    H143232   4.396   7.731   5.173
14429TIP3    H243233   4.487   7.734   5.293
14430TIP3   OH243234   5.651   3.268   0.252
14430TIP3    H143235   5.661   3.293   0.344
14430TIP3    H243236   5.602   3.340   0.213
14431TIP3   OH243237   4.075   0.032   2.072
14431TIP3    H143238   4.083   0.044   1.978
14431TIP3    H243239   3.983   0.012   2.087
14432TIP3   OH243240   1.121   0.530   3.412
14432TIP3    H143241   1.091   0.442   3.390
14432TIP3    H243242   1.072   0.553   3.491
14433TIP3   OH243243   5.197   3.719   5.142
14433TIP3    H143244   5.158   3.633   5.127
14433TIP3    H243245   5.153   3.776   5.080
14434TIP3   OH243246   3.439   1.765   1.680
14434TIP3    H143247   3.532   1.754   1.660
14434TIP3    H243248   3.395   1.759   1.595
14435TIP3   OH243249   8.052   0.838   0.121
14435TIP3    H143250   8.137   0.794   0.122
14435TIP3    H243251   8.005   0.798   0.048
14436TIP3   OH243252   5.783   3.773   6.600
14436TIP3    H143253   5.727   3.832   6.549
14436TIP3    H243254   5.807   3.823   6.678
14437TIP3   OH243255   7.770   6.326   6.476
14437TIP3    H143256   7.783   6.401   6.418
14437TIP3    H243257   7.729   6.259   6.421
14438TIP3   OH243258   5.815   0.947   6.127
14438TIP3    H143259   5.804   0.896   6.207
14438TIP3    H243260   5.908   0.938   6.105
14439TIP3   OH243261   4.703   3.988   3.159
14439TIP3    H143262   4.730   3.921   3.222
14439TIP3    H243263   4.608   3.974   3.150
14440TIP3   OH243264   7.339   0.683   3.634
14440TIP3    H143265   7.258   0.713   3.593
14440TIP3    H243266   7.386   0.638   3.563
14441TIP3   OH243267   0.708   6.619   4.359
14441TIP3    H143268   0.713   6.580   4.446
14441TIP3    H243269   0.701   6.543   4.300
14442TIP3   OH243270   3.815   5.956   4.311
14442TIP3    H143271   3.760   5.901   4.367
14442TIP3    H243272   3.781   6.045   4.324
14443TIP3   OH243273   6.493   0.845   1.591
14443TIP3    H143274   6.514   0.924   1.541
14443TIP3    H243275   6.400   0.830   1.574
14444TIP3   OH243276   1.067   6.096   6.479
14444TIP3    H143277   1.019   6.072   6.400
14444TIP3    H243278   1.107   6.180   6.458
14445TIP3   OH243279   0.572   3.244   5.514
14445TIP3    H143280   0.622   3.311   5.467
14445TIP3    H243281   0.617   3.235   5.598
14446TIP3   OH243282   7.493   7.506   3.485
14446TIP3    H143283   7.505   7.598   3.463
14446TIP3    H243284   7.403   7.500   3.516
14447TIP3   OH243285   5.660   0.744   5.295
14447TIP3    H143286   5.670   0.675   5.228
14447TIP3    H243287   5.632   0.821   5.245
14448TIP3   OH243288   1.655   1.534   3.111
14448TIP3    H143289   1.684   1.540   3.019
14448TIP3    H243290   1.642   1.625   3.137
14449TIP3   OH243291   5.777   7.403   6.029
14449TIP3    H143292   5.857   7.430   6.075
14449TIP3    H243293   5.738   7.336   6.086
14450TIP3   OH243294   4.303   4.385   1.386
14450TIP3    H143295   4.251   4.328   1.330
14450TIP3    H243296   4.280   4.474   1.359
14451TIP3   OH243297   6.753   6.393   6.584
14451TIP3    H143298   6.724   6.483   6.599
14451TIP3    H243299   6.735   6.377   6.491
14452TIP3   OH243300   4.807   2.730   2.207
14452TIP3    H143301   4.793   2.636   2.199
14452TIP3    H243302   4.751   2.769   2.140
14453TIP3   OH243303   2.865   5.210   6.669
14453TIP3    H143304   2.822   5.291   6.694
14453TIP3    H243305   2.945   5.237   6.625
14454TIP3   OH243306   5.802   0.115   6.751
14454TIP3    H143307   5.887   0.156   6.767
14454TIP3    H243308   5.739   0.187   6.758
14455TIP3   OH243309   4.086   2.234   5.363
14455TIP3    H143310   4.109   2.160   5.419
14455TIP3    H243311   4.000   2.213   5.329
14456TIP3   OH243312   4.012   0.369   4.697
14456TIP3    H143313   3.925   0.404   4.680
14456TIP3    H243314   4.033   0.398   4.785
14457TIP3   OH243315   0.631   7.778   0.161
14457TIP3    H143316   0.685   7.851   0.188
14457TIP3    H243317   0.645   7.771   0.066
14458TIP3   OH243318   3.334   7.260   0.410
14458TIP3    H143319   3.264   7.281   0.470
14458TIP3    H243320   3.402   7.325   0.428
14459TIP3   OH243321   1.448   7.814   4.446
14459TIP3    H143322   1.470   7.901   4.479
14459TIP3    H243323   1.509   7.756   4.492
14460TIP3   OH243324   1.540   1.133   2.509
14460TIP3    H143325   1.574   1.183   2.435
14460TIP3    H243326   1.513   1.199   2.573
14461TIP3   OH243327   4.898   1.195   3.859
14461TIP3    H143328   4.815   1.220   3.899
14461TIP3    H243329   4.962   1.204   3.930
14462TIP3   OH243330   2.927   2.496   4.933
14462TIP3    H143331   2.876   2.481   5.013
14462TIP3    H243332   2.918   2.590   4.917
14463TIP3   OH243333   3.716   2.526   0.613
14463TIP3    H143334   3.725   2.440   0.654
14463TIP3    H243335   3.791   2.576   0.645
14464TIP3   OH243336   2.957   4.888   5.051
14464TIP3    H143337   2.950   4.969   5.102
14464TIP3    H243338   3.049   4.864   5.056
14465TIP3   OH243339   4.614   0.363   3.472
14465TIP3    H143340   4.554   0.436   3.489
14465TIP3    H243341   4.695   0.388   3.516
14466TIP3   OH243342   4.681   6.891   4.598
14466TIP3    H143343   4.688   6.916   4.690
14466TIP3    H243344   4.688   6.795   4.599
14467TIP3   OH243345   0.534   3.576   3.981
14467TIP3    H143346   0.455   3.616   4.017
14467TIP3    H243347   0.550   3.623   3.899
14468TIP3   OH243348   7.648   6.528   5.659
14468TIP3    H143349   7.720   6.541   5.598
14468TIP3    H243350   7.647   6.608   5.712
14469TIP3   OH243351   4.595   2.237   5.768
14469TIP3    H143352   4.687   2.262   5.771
14469TIP3    H243353   4.595   2.143   5.749
14470TIP3   OH243354   0.841   5.301   0.469
14470TIP3    H143355   0.852   5.396   0.473
14470TIP3    H243356   0.803   5.285   0.382
14471TIP3   OH243357   0.343   1.508   2.013
14471TIP3    H143358   0.348   1.439   1.946
14471TIP3    H243359   0.339   1.460   2.096
14472TIP3   OH243360   1.832   4.044   1.840
14472TIP3    H143361   1.769   3.976   1.817
14472TIP3    H243362   1.791   4.090   1.914
14473TIP3   OH243363   1.590   2.792   6.294
14473TIP3    H143364   1.645   2.753   6.226
14473TIP3    H243365   1.514   2.734   6.298
14474TIP3   OH243366   3.215   7.484   5.854
14474TIP3    H143367   3.262   7.528   5.783
14474TIP3    H243368   3.234   7.536   5.932
14475TIP3   OH243369   6.132   0.423   4.175
14475TIP3    H143370   6.073   0.362   4.130
14475TIP3    H243371   6.219   0.386   4.162
14476TIP3   OH243372   0.263   5.174   5.080
14476TIP3    H143373   0.346   5.176   5.127
14476TIP3    H243374   0.251   5.081   5.057
14477TIP3   OH243375   7.744   5.215   6.221
14477TIP3    H143376   7.840   5.214   6.225
14477TIP3    H243377   7.724   5.184   6.133
14478TIP3   OH243378   8.059   4.113   5.667
14478TIP3    H143379   8.131   4.119   5.604
14478TIP3    H243380   8.094   4.062   5.740
14479TIP3   OH243381  -0.017   2.841   2.643
14479TIP3    H143382   0.040   2.917   2.655
14479TIP3    H243383  -0.002   2.814   2.552
14480TIP3   OH243384   6.998   6.883   3.112
14480TIP3    H143385   6.978   6.790   3.125
14480TIP3    H243386   6.960   6.904   3.027
14481TIP3   OH243387   2.913   2.820   6.745
14481TIP3    H143388   2.920   2.891   6.682
14481TIP3    H243389   3.002   2.811   6.781
14482TIP3   OH243390   0.664   2.132   4.689
14482TIP3    H143391   0.605   2.150   4.762
14482TIP3    H243392   0.609   2.089   4.624
14483TIP3   OH243393   7.017   6.830   3.487
14483TIP3    H143394   6.961   6.753   3.479
14483TIP3    H243395   6.972   6.886   3.551
14484TIP3   OH243396   7.253   0.479   1.774
14484TIP3    H143397   7.218   0.446   1.691
14484TIP3    H243398   7.322   0.416   1.797
14485TIP3   OH243399   2.571   2.630   1.556
14485TIP3    H143400   2.571   2.554   1.497
14485TIP3    H243401   2.629   2.693   1.513
14486TIP3   OH243402   5.488   0.723   1.951
14486TIP3    H143403   5.436   0.685   1.881
14486TIP3    H243404   5.519   0.806   1.915
14487TIP3   OH243405   7.061   5.926   4.970
14487TIP3    H143406   7.105   5.855   4.923
14487TIP3    H243407   6.980   5.941   4.921
14488TIP3   OH243408   7.429   2.067   2.856
14488TIP3    H143409   7.373   2.009   2.907
14488TIP3    H243410   7.495   2.009   2.818
14489TIP3   OH243411   4.645   5.087   3.002
14489TIP3    H143412   4.677   5.058   2.916
14489TIP3    H243413   4.673   5.178   3.009
14490TIP3   OH243414   2.332   0.775   6.611
14490TIP3    H143415   2.334   0.682   6.592
14490TIP3    H243416   2.323   0.817   6.525
14491TIP3   OH243417   2.220   5.523   1.069
14491TIP3    H143418   2.188   5.514   1.159
14491TIP3    H243419   2.316   5.520   1.078
14492TIP3   OH243420   7.443   3.035   4.069
14492TIP3    H143421   7.352   3.012   4.053
14492TIP3    H243422   7.480   3.050   3.982
14493TIP3   OH243423   7.455   6.761   5.720
14493TIP3    H143424   7.407   6.718   5.791
14493TIP3    H243425   7.535   6.794   5.762
14494TIP3   OH243426   7.116   2.570   1.944
14494TIP3    H143427   7.158   2.565   1.858
14494TIP3    H243428   7.189   2.581   2.006
14495TIP3   OH243429   5.735   7.253   3.638
14495TIP3    H143430   5.650   7.278   3.675
14495TIP3    H243431   5.714   7.187   3.572
14496TIP3   OH243432   5.705   3.758   2.547
14496TIP3    H143433   5.667   3.722   2.467
14496TIP3    H243434   5.729   3.682   2.599
14497TIP3   OH243435   8.196   5.774   3.191
14497TIP3    H143436   8.269   5.761   3.130
14497TIP3    H243437   8.237   5.797   3.274
14498TIP3   OH243438   6.735   4.028   3.488
14498TIP3    H143439   6.681   3.962   3.531
14498TIP3    H243440   6.692   4.111   3.507
14499TIP3   OH243441   5.375   0.707   2.685
14499TIP3    H143442   5.467   0.724   2.664
14499TIP3    H243443   5.345   0.788   2.727
14500TIP3   OH243444   7.708   2.173   5.989
14500TIP3    H143445   7.746   2.086   5.999
14500TIP3    H243446   7.709   2.211   6.077
14501TIP3   OH243447   4.067   2.657   0.141
14501TIP3    H143448   4.013   2.628   0.068
14501TIP3    H243449   4.021   2.626   0.219
14502TIP3   OH243450   6.396   0.696   3.184
14502TIP3    H143451   6.311   0.723   3.219
14502TIP3    H243452   6.414   0.757   3.112
14503TIP3   OH243453   7.930   6.140   4.749
14503TIP3    H143454   7.916   6.209   4.684
14503TIP3    H243455   7.850   6.140   4.801
14504TIP3   OH243456   0.956   4.025   0.719
14504TIP3    H143457   1.003   3.949   0.684
14504TIP3    H243458   0.961   4.091   0.650
14505TIP3   OH243459   8.261   5.042   3.541
14505TIP3    H143460   8.353   5.047   3.515
14505TIP3    H243461   8.257   5.083   3.627
14506TIP3   OH243462   0.263   6.976   2.625
14506TIP3    H143463   0.180   6.948   2.587
14506TIP3    H243464   0.291   6.901   2.679
14507TIP3   OH243465   2.011   3.373   5.625
14507TIP3    H143466   1.965   3.388   5.708
14507TIP3    H243467   2.047   3.459   5.602
14508TIP3   OH243468   6.588   7.090   2.147
14508TIP3    H143469   6.593   7.165   2.207
14508TIP3    H243470   6.542   7.124   2.070
14509TIP3   OH243471   7.564   0.500   5.547
14509TIP3    H143472   7.556   0.405   5.543
14509TIP3    H243473   7.619   0.516   5.624
14510TIP3   OH243474   2.002   7.663   0.695
14510TIP3    H143475   2.016   7.660   0.601
14510TIP3    H243476   1.991   7.756   0.715
14511TIP3   OH243477   1.864   4.014   5.991
14511TIP3    H143478   1.941   3.957   5.991
14511TIP3    H243479   1.820   3.995   6.073
14512TIP3   OH243480   5.293   6.509   5.294
14512TIP3    H143481   5.276   6.602   5.280
14512TIP3    H243482   5.385   6.497   5.273
14513TIP3   OH243483   2.823   1.440   5.071
14513TIP3    H143484   2.789   1.512   5.124
14513TIP3    H243485   2.747   1.409   5.022
14514TIP3   OH243486   5.060   2.072   5.827
14514TIP3    H143487   5.085   2.067   5.920
14514TIP3    H243488   5.141   2.051   5.779
14515TIP3   OH243489   6.689   7.399   3.314
14515TIP3    H143490   6.606   7.350   3.308
14515TIP3    H243491   6.756   7.333   3.295
14516TIP3   OH243492   2.117   1.762   4.381
14516TIP3    H143493   2.110   1.854   4.356
14516TIP3    H243494   2.029   1.727   4.366
14517TIP3   OH243495   0.311   3.075   2.307
14517TIP3    H143496   0.237   3.114   2.262
14517TIP3    H243497   0.350   3.147   2.358
14518TIP3   OH243498   2.775   7.781   6.773
14518TIP3    H143499   2.781   7.686   6.782
14518TIP3    H243500   2.733   7.794   6.688
14519TIP3   OH243501   2.691   1.954   5.243
14519TIP3    H143502   2.724   2.036   5.280
14519TIP3    H243503   2.661   1.904   5.319
14520TIP3   OH243504   1.513   4.423   3.095
14520TIP3    H143505   1.520   4.332   3.066
14520TIP3    H243506   1.419   4.437   3.108
14521TIP3   OH243507   7.421   5.722   0.825
14521TIP3    H143508   7.398   5.629   0.833
14521TIP3    H243509   7.417   5.739   0.730
14522TIP3   OH243510   4.314   2.048   4.391
14522TIP3    H143511   4.246   2.111   4.417
14522TIP3    H243512   4.360   2.091   4.319
14523TIP3   OH243513   7.904   5.374   3.537
14523TIP3    H143514   7.899   5.468   3.519
14523TIP3    H243515   7.915   5.334   3.450
14524TIP3   OH243516   4.233   1.685   0.291
14524TIP3    H143517   4.188   1.635   0.361
14524TIP3    H243518   4.315   1.714   0.331
14525TIP3   OH243519   7.996   1.360   4.859
14525TIP3    H143520   7.946   1.280   4.874
14525TIP3    H243521   8.034   1.382   4.944
14526TIP3   OH243522   7.439   7.822   5.857
14526TIP3    H143523   7.365   7.880   5.837
14526TIP3    H243524   7.407   7.735   5.834
14527TIP3   OH243525   6.415   1.786   5.580
14527TIP3    H143526   6.413   1.853   5.648
14527TIP3    H243527   6.504   1.752   5.583
14528TIP3   OH243528   6.992   0.131   4.550
14528TIP3    H143529   7.033   0.166   4.629
14528TIP3    H243530   6.898   0.130   4.569
14529TIP3   OH243531   3.380   3.116   4.982
14529TIP3    H143532   3.402   3.025   4.961
14529TIP3    H243533   3.429   3.135   5.062
14530TIP3   OH243534   6.837   3.196   3.456
14530TIP3    H143535   6.853   3.195   3.550
14530TIP3    H243536   6.792   3.279   3.440
14531TIP3   OH243537   3.457   3.625   4.889
14531TIP3    H143538   3.444   3.542   4.937
14531TIP3    H243539   3.374   3.671   4.899
14532TIP3   OH243540   0.298   4.321   4.523
14532TIP3    H143541   0.367   4.375   4.485
14532TIP3    H243542   0.285   4.357   4.611
14533TIP3   OH243543   5.573   0.870   4.430
14533TIP3    H143544   5.647   0.930   4.428
14533TIP3    H243545   5.565   0.844   4.522
14534TIP3   OH243546   0.039   7.679   0.061
14534TIP3    H143547   0.112   7.667  -0.001
14534TIP3    H243548   0.057   7.762   0.104
14535TIP3   OH243549   6.950   6.435   4.021
14535TIP3    H143550   6.884   6.424   3.954
14535TIP3    H243551   7.001   6.354   4.019
14536TIP3   OH243552   0.448   0.360   1.035
14536TIP3    H143553   0.383   0.293   1.010
14536TIP3    H243554   0.488   0.325   1.114
14537TIP3   OH243555   3.837   7.491   5.420
14537TIP3    H143556   3.897   7.537   5.362
14537TIP3    H243557   3.824   7.406   5.378
14538TIP3   OH243558   1.456   2.943   3.552
14538TIP3    H143559   1.496   3.021   3.591
14538TIP3    H243560   1.365   2.968   3.537
14539TIP3   OH243561   5.771   4.000   5.571
14539TIP3    H143562   5.831   3.933   5.538
14539TIP3    H243563   5.700   4.003   5.507
14540TIP3   OH243564   3.691   7.369   4.521
14540TIP3    H143565   3.742   7.390   4.599
14540TIP3    H243566   3.650   7.452   4.496
14541TIP3   OH243567   0.853   0.309   5.428
14541TIP3    H143568   0.759   0.300   5.410
14541TIP3    H243569   0.888   0.351   5.350
14542TIP3   OH243570   2.722   2.946   1.197
14542TIP3    H143571   2.650   2.918   1.253
14542TIP3    H243572   2.769   2.866   1.176
14543TIP3   OH243573   2.706   1.275   6.035
14543TIP3    H143574   2.773   1.289   5.968
14543TIP3    H243575   2.646   1.212   5.996
14544TIP3   OH243576   4.605   4.311   2.148
14544TIP3    H143577   4.648   4.315   2.234
14544TIP3    H243578   4.624   4.397   2.109
14545TIP3   OH243579   3.385   6.021   1.374
14545TIP3    H143580   3.474   5.986   1.377
14545TIP3    H243581   3.395   6.114   1.391
14546TIP3   OH243582  -0.019   1.103   6.433
14546TIP3    H143583   0.004   1.027   6.487
14546TIP3    H243584   0.055   1.163   6.443
14547TIP3   OH243585   8.081   6.803   1.941
14547TIP3    H143586   8.112   6.893   1.940
14547TIP3    H243587   8.157   6.751   1.918
14548TIP3   OH243588   7.948   3.478   3.096
14548TIP3    H143589   7.863   3.509   3.063
14548TIP3    H243590   8.013   3.522   3.041
14549TIP3   OH243591   7.539   5.902   4.710
14549TIP3    H143592   7.590   5.834   4.666
14549TIP3    H243593   7.478   5.933   4.643
14550TIP3   OH243594   1.229   0.896   3.435
14550TIP3    H143595   1.263   0.824   3.382
14550TIP3    H243596   1.212   0.857   3.521
14551TIP3   OH243597   3.060   0.583   0.413
14551TIP3    H143598   3.015   0.641   0.475
14551TIP3    H243599   3.141   0.558   0.459
14552TIP3   OH243600   4.860   2.282   4.533
14552TIP3    H143601   4.905   2.366   4.520
14552TIP3    H243602   4.911   2.219   4.482
14553TIP3   OH243603   1.973   5.238   4.742
14553TIP3    H143604   2.022   5.225   4.661
14553TIP3    H243605   1.996   5.163   4.796
14554TIP3   OH243606   5.780   1.617   6.144
14554TIP3    H143607   5.737   1.558   6.207
14554TIP3    H243608   5.755   1.581   6.058
14555TIP3   OH243609   6.043   2.784   5.830
14555TIP3    H143610   6.094   2.856   5.866
14555TIP3    H243611   5.984   2.758   5.900
14556TIP3   OH243612   0.709   3.006   6.588
14556TIP3    H143613   0.725   3.097   6.562
14556TIP3    H243614   0.796   2.972   6.612
14557TIP3   OH243615   6.084   5.087   1.419
14557TIP3    H143616   6.038   5.168   1.397
14557TIP3    H243617   6.061   5.027   1.348
14558TIP3   OH243618   7.541   5.415   1.103
14558TIP3    H143619   7.575   5.360   1.173
14558TIP3    H243620   7.619   5.438   1.051
14559TIP3   OH243621   7.996   4.550   5.370
14559TIP3    H143622   8.081   4.513   5.346
14559TIP3    H243623   7.947   4.475   5.404
14560TIP3   OH243624   2.548   5.884   3.267
14560TIP3    H143625   2.470   5.888   3.323
14560TIP3    H243626   2.616   5.929   3.318
14561TIP3   OH243627   6.565   5.740   4.849
14561TIP3    H143628   6.625   5.812   4.869
14561TIP3    H243629   6.487   5.759   4.902
14562TIP3   OH243630   2.744   4.688   0.995
14562TIP3    H143631   2.699   4.618   1.043
14562TIP3    H243632   2.777   4.646   0.916
14563TIP3   OH243633   7.796   4.809   1.601
14563TIP3    H143634   7.720   4.790   1.545
14563TIP3    H243635   7.822   4.724   1.636
14564TIP3   OH243636   6.675   1.709   5.571
14564TIP3    H143637   6.666   1.660   5.653
14564TIP3    H243638   6.767   1.699   5.547
14565TIP3   OH243639   4.240   5.282   6.488
14565TIP3    H143640   4.282   5.361   6.453
14565TIP3    H243641   4.308   5.215   6.486
14566TIP3   OH243642   5.602   2.900   0.830
14566TIP3    H143643   5.629   2.985   0.865
14566TIP3    H243644   5.547   2.922   0.755
14567TIP3   OH243645   2.035   7.319   5.555
14567TIP3    H143646   2.029   7.321   5.459
14567TIP3    H243647   2.043   7.410   5.581
14568TIP3   OH243648   4.927   0.281   6.184
14568TIP3    H143649   4.942   0.292   6.278
14568TIP3    H243650   4.978   0.204   6.161
14569TIP3   OH243651   2.167   2.773   4.372
14569TIP3    H143652   2.227   2.840   4.341
14569TIP3    H243653   2.184   2.768   4.466
14570TIP3   OH243654   8.311   5.744   0.242
14570TIP3    H143655   8.339   5.673   0.185
14570TIP3    H243656   8.242   5.706   0.296
14571TIP3   OH243657   1.149   5.617   4.334
14571TIP3    H143658   1.226   5.666   4.306
14571TIP3    H243659   1.170   5.589   4.423
14572TIP3   OH243660   0.844   3.351   2.398
14572TIP3    H143661   0.921   3.383   2.446
14572TIP3    H243662   0.782   3.423   2.400
14573TIP3   OH243663   0.204   6.347   0.106
14573TIP3    H143664   0.129   6.385   0.153
14573TIP3    H243665   0.248   6.422   0.066
14574TIP3   OH243666   1.443   2.158   2.809
14574TIP3    H143667   1.496   2.236   2.788
14574TIP3    H243668   1.454   2.147   2.903
14575TIP3   OH243669   6.111   0.976   5.913
14575TIP3    H143670   6.197   0.959   5.951
14575TIP3    H243671   6.125   0.973   5.818
14576TIP3   OH243672   5.904   3.060   2.790
14576TIP3    H143673   5.968   2.994   2.765
14576TIP3    H243674   5.827   3.011   2.818
14577TIP3   OH243675   5.982   2.066   5.514
14577TIP3    H143676   5.960   2.109   5.597
14577TIP3    H243677   6.041   1.995   5.539
14578TIP3   OH243678   0.679   1.302   0.654
14578TIP3    H143679   0.736   1.277   0.581
14578TIP3    H243680   0.619   1.229   0.664
14579TIP3   OH243681   4.326   1.736   3.089
14579TIP3    H143682   4.233   1.715   3.093
14579TIP3    H243683   4.369   1.652   3.071
14580TIP3   OH243684   4.884   3.732   6.162
14580TIP3    H143685   4.817   3.701   6.101
14580TIP3    H243686   4.938   3.792   6.110
14581TIP3   OH243687   8.235   1.827   3.231
14581TIP3    H143688   8.238   1.784   3.146
14581TIP3    H243689   8.243   1.920   3.211
14582TIP3   OH243690   3.996   5.634   0.269
14582TIP3    H143691   3.925   5.663   0.326
14582TIP3    H243692   4.023   5.713   0.222
14583TIP3   OH243693   8.239   0.076   4.973
14583TIP3    H143694   8.247   0.087   5.067
14583TIP3    H243695   8.318   0.030   4.946
14584TIP3   OH243696   7.370   7.309   6.491
14584TIP3    H143697   7.371   7.283   6.399
14584TIP3    H243698   7.456   7.348   6.506
14585TIP3   OH243699   6.313   3.685   4.064
14585TIP3    H143700   6.359   3.611   4.104
14585TIP3    H243701   6.287   3.740   4.139
14586TIP3   OH243702   5.549   6.068   6.578
14586TIP3    H143703   5.462   6.088   6.544
14586TIP3    H243704   5.579   6.151   6.617
14587TIP3   OH243705   7.425   6.380   5.650
14587TIP3    H143706   7.511   6.423   5.655
14587TIP3    H243707   7.367   6.438   5.699
14588TIP3   OH243708   1.918   3.703   6.446
14588TIP3    H143709   1.936   3.795   6.463
14588TIP3    H243710   1.927   3.694   6.351
14589TIP3   OH243711   3.042   2.328   2.947
14589TIP3    H143712   3.071   2.418   2.958
14589TIP3    H243713   2.959   2.324   2.995
14590TIP3   OH243714   6.605   3.646   2.102
14590TIP3    H143715   6.637   3.731   2.069
14590TIP3    H243716   6.683   3.591   2.103
14591TIP3   OH243717   0.544   7.359   2.061
14591TIP3    H143718   0.627   7.313   2.046
14591TIP3    H243719   0.566   7.428   2.123
14592TIP3   OH243720   3.473   5.846   1.062
14592TIP3    H143721   3.562   5.818   1.086
14592TIP3    H243722   3.416   5.790   1.114
14593TIP3   OH243723   8.235   1.919   5.353
14593TIP3    H143724   8.294   1.843   5.360
14593TIP3    H243725   8.279   1.978   5.291
14594TIP3   OH243726   2.354   6.754   0.350
14594TIP3    H143727   2.435   6.711   0.378
14594TIP3    H243728   2.345   6.729   0.258
14595TIP3   OH243729   0.626   2.226   1.984
14595TIP3    H143730   0.700   2.202   1.928
14595TIP3    H243731   0.646   2.186   2.068
14596TIP3   OH243732   4.614   0.408   0.158
14596TIP3    H143733   4.574   0.381   0.241
14596TIP3    H243734   4.699   0.443   0.184
14597TIP3   OH243735   0.493   2.430   1.302
14597TIP3    H143736   0.457   2.348   1.337
14597TIP3    H243737   0.426   2.496   1.321
14598TIP3   OH243738   3.580   6.117   6.320
14598TIP3    H143739   3.542   6.067   6.248
14598TIP3    H243740   3.588   6.206   6.285
14599TIP3   OH243741   6.088   4.651   4.211
14599TIP3    H143742   6.094   4.732   4.159
14599TIP3    H243743   6.016   4.667   4.272
14600TIP3   OH243744   1.069   4.793   5.098
14600TIP3    H143745   1.155   4.799   5.140
14600TIP3    H243746   1.043   4.702   5.109
14601TIP3   OH243747   0.309   2.411   4.607
14601TIP3    H143748   0.235   2.414   4.668
14601TIP3    H243749   0.352   2.496   4.619
14602TIP3   OH243750   4.263   6.278   5.024
14602TIP3    H143751   4.282   6.298   4.933
14602TIP3    H243752   4.255   6.364   5.066
14603TIP3   OH243753   3.338   2.101   5.404
14603TIP3    H143754   3.249   2.133   5.390
14603TIP3    H243755   3.369   2.075   5.318
14604TIP3   OH243756   7.531   0.058   6.198
14604TIP3    H143757   7.581   0.022   6.125
14604TIP3    H243758   7.565   0.014   6.276
14605TIP3   OH243759   5.084   2.493   4.911
14605TIP3    H143760   5.149   2.536   4.966
14605TIP3    H243761   5.135   2.451   4.842
14606TIP3   OH243762   0.570   5.454   6.460
14606TIP3    H143763   0.660   5.424   6.475
14606TIP3    H243764   0.561   5.531   6.517
14607TIP3   OH243765   6.004   7.706   3.160
14607TIP3    H143766   5.921   7.669   3.131
14607TIP3    H243767   6.020   7.780   3.101
14608TIP3   OH243768   8.059   4.655   4.827
14608TIP3    H143769   8.023   4.570   4.852
14608TIP3    H243770   8.063   4.704   4.909
14609TIP3   OH243771   0.564   7.096   4.555
14609TIP3    H143772   0.522   7.175   4.519
14609TIP3    H243773   0.652   7.097   4.518
14610TIP3   OH243774  -0.002   2.530   0.280
14610TIP3    H143775   0.082   2.540   0.234
14610TIP3    H243776  -0.065   2.575   0.224
14611TIP3   OH243777   6.298   6.794   2.307
14611TIP3    H143778   6.232   6.760   2.246
14611TIP3    H243779   6.370   6.732   2.301
14612TIP3   OH243780   7.933   4.804   0.018
14612TIP3    H143781   7.863   4.756   0.061
14612TIP3    H243782   7.940   4.764  -0.069
14613TIP3   OH243783   1.546   0.139   2.859
14613TIP3    H143784   1.478   0.199   2.828
14613TIP3    H243785   1.499   0.075   2.912
14614TIP3   OH243786   7.093   1.969   2.153
14614TIP3    H143787   7.110   1.876   2.136
14614TIP3    H243788   7.005   1.970   2.192
14615TIP3   OH243789   2.181   5.973   5.018
14615TIP3    H143790   2.219   6.059   5.033
14615TIP3    H243791   2.181   5.963   4.923
14616TIP3   OH243792   4.754   1.937   3.033
14616TIP3    H143793   4.793   1.861   3.077
14616TIP3    H243794   4.699   1.978   3.100
14617TIP3   OH243795   3.503   3.462   2.786
14617TIP3    H143796   3.481   3.549   2.752
14617TIP3    H243797   3.423   3.410   2.773
14618TIP3   OH243798   8.262   6.732   0.573
14618TIP3    H143799   8.308   6.660   0.529
14618TIP3    H243800   8.238   6.792   0.502
14619TIP3   OH243801   1.556   0.736   2.974
14619TIP3    H143802   1.563   0.724   2.880
14619TIP3    H243803   1.616   0.808   2.994
14620TIP3   OH243804   0.163   3.413   5.225
14620TIP3    H143805   0.201   3.325   5.217
14620TIP3    H243806   0.180   3.439   5.315
14621TIP3   OH243807   5.679   4.182   1.184
14621TIP3    H143808   5.589   4.197   1.213
14621TIP3    H243809   5.731   4.186   1.265
14622TIP3   OH243810   8.116   5.931   4.689
14622TIP3    H143811   8.100   5.919   4.595
14622TIP3    H243812   8.051   5.995   4.717
14623TIP3   OH243813   2.401   3.041   6.291
14623TIP3    H143814   2.352   3.121   6.309
14623TIP3    H243815   2.337   2.983   6.249
14624TIP3   OH243816   0.975   5.109   1.132
14624TIP3    H143817   1.021   5.079   1.054
14624TIP3    H243818   0.994   5.042   1.198
14625TIP3   OH243819   1.617   4.110   1.137
14625TIP3    H143820   1.711   4.108   1.159
14625TIP3    H243821   1.606   4.192   1.089
14626TIP3   OH243822   2.038   1.889   3.562
14626TIP3    H143823   2.049   1.916   3.654
14626TIP3    H243824   2.066   1.798   3.561
14627TIP3   OH243825   5.980   2.633   6.390
14627TIP3    H143826   5.934   2.704   6.437
14627TIP3    H243827   5.912   2.592   6.337
14628TIP3   OH243828   4.930   5.910   4.022
14628TIP3    H143829   4.955   5.932   3.933
14628TIP3    H243830   4.864   5.841   4.012
14629TIP3   OH243831   6.029   3.380   3.168
14629TIP3    H143832   6.091   3.327   3.119
14629TIP3    H243833   6.036   3.467   3.129
14630TIP3   OH243834   4.432   6.546   6.274
14630TIP3    H143835   4.415   6.452   6.262
14630TIP3    H243836   4.484   6.551   6.354
14631TIP3   OH243837   1.561   7.407   1.378
14631TIP3    H143838   1.500   7.404   1.304
14631TIP3    H243839   1.601   7.494   1.372
14632TIP3   OH243840   6.253   0.480   1.610
14632TIP3    H143841   6.274   0.460   1.519
14632TIP3    H243842   6.331   0.524   1.643
14633TIP3   OH243843   5.544   0.276   2.505
14633TIP3    H143844   5.639   0.287   2.501
14633TIP3    H243845   5.510   0.366   2.510
14634TIP3   OH243846   3.945   7.516   4.644
14634TIP3    H143847   3.882   7.505   4.716
14634TIP3    H243848   3.956   7.428   4.608
14635TIP3   OH243849   3.902   5.338   0.645
14635TIP3    H143850   3.945   5.384   0.573
14635TIP3    H243851   3.847   5.272   0.601
14636TIP3   OH243852   3.593   4.616   1.236
14636TIP3    H143853   3.525   4.594   1.172
14636TIP3    H243854   3.619   4.705   1.212
14637TIP3   OH243855   0.843   3.614   4.380
14637TIP3    H143856   0.777   3.582   4.318
14637TIP3    H243857   0.799   3.686   4.425
14638TIP3   OH243858   4.879   0.639   6.305
14638TIP3    H143859   4.908   0.579   6.236
14638TIP3    H243860   4.818   0.587   6.358
14639TIP3   OH243861   8.008   0.677   3.850
14639TIP3    H143862   8.031   0.730   3.927
14639TIP3    H243863   7.978   0.741   3.785
14640TIP3   OH243864   5.582   5.940   3.116
14640TIP3    H143865   5.494   5.902   3.111
14640TIP3    H243866   5.612   5.918   3.204
14641TIP3   OH243867   0.296   6.802   0.413
14641TIP3    H143868   0.365   6.867   0.401
14641TIP3    H243869   0.216   6.848   0.389
14642TIP3   OH243870   2.449   5.306   6.491
14642TIP3    H143871   2.383   5.374   6.478
14642TIP3    H243872   2.505   5.312   6.413
14643TIP3   OH243873   6.090   7.056   2.135
14643TIP3    H143874   6.080   6.983   2.196
14643TIP3    H243875   6.074   7.018   2.049
14644TIP3   OH243876   0.499   4.442   5.906
14644TIP3    H143877   0.504   4.349   5.881
14644TIP3    H243878   0.455   4.484   5.832
14645TIP3   OH243879   4.915   6.312   5.381
14645TIP3    H143880   4.823   6.331   5.400
14645TIP3    H243881   4.949   6.393   5.343
14646TIP3   OH243882   0.933   1.247   4.183
14646TIP3    H143883   0.905   1.323   4.131
14646TIP3    H243884   0.859   1.228   4.240
14647TIP3   OH243885   2.168   7.133   0.618
14647TIP3    H143886   2.241   7.092   0.666
14647TIP3    H243887   2.117   7.178   0.686
14648TIP3   OH243888   0.695   2.361   3.517
14648TIP3    H143889   0.765   2.406   3.565
14648TIP3    H243890   0.728   2.272   3.503
14649TIP3   OH243891   3.665   7.394   4.253
14649TIP3    H143892   3.695   7.481   4.229
14649TIP3    H243893   3.701   7.379   4.340
14650TIP3   OH243894   2.280   5.839   4.797
14650TIP3    H143895   2.357   5.883   4.763
14650TIP3    H243896   2.288   5.748   4.767
14651TIP3   OH243897   3.876   2.790   0.735
14651TIP3    H143898   3.838   2.712   0.775
14651TIP3    H243899   3.955   2.807   0.785
14652TIP3   OH243900   0.768   4.587   2.417
14652TIP3    H143901   0.691   4.642   2.403
14652TIP3    H243902   0.740   4.499   2.393
14653TIP3   OH243903   2.472   2.672   5.798
14653TIP3    H143904   2.484   2.759   5.760
14653TIP3    H243905   2.495   2.611   5.727
14654TIP3   OH243906   6.921   5.125   2.412
14654TIP3    H143907   6.996   5.067   2.425
14654TIP3    H243908   6.885   5.099   2.327
14655TIP3   OH243909   2.406   2.885   2.060
14655TIP3    H143910   2.497   2.906   2.043
14655TIP3    H243911   2.408   2.828   2.137
14656TIP3   OH243912   6.936   1.340   2.824
14656TIP3    H143913   6.934   1.434   2.809
14656TIP3    H243914   6.983   1.304   2.748
14657TIP3   OH243915   4.424   3.004   5.290
14657TIP3    H143916   4.442   3.004   5.196
14657TIP3    H243917   4.365   2.931   5.303
14658TIP3   OH243918   5.234   4.651   5.149
14658TIP3    H143919   5.215   4.573   5.097
14658TIP3    H243920   5.330   4.653   5.153
14659TIP3   OH243921   1.335   1.415   2.075
14659TIP3    H143922   1.314   1.420   1.982
14659TIP3    H243923   1.430   1.403   2.078
14660TIP3   OH243924   8.150   4.143   5.966
14660TIP3    H143925   8.109   4.068   6.010
14660TIP3    H243926   8.194   4.191   6.036
14661TIP3   OH243927   8.219   4.921   0.023
14661TIP3    H143928   8.186   4.994  -0.028
14661TIP3    H243929   8.141   4.871   0.048
14662TIP3   OH243930   5.797   4.946   3.407
14662TIP3    H143931   5.721   4.966   3.462
14662TIP3    H243932   5.770   4.870   3.355
14663TIP3   OH243933   1.195   3.965   0.444
14663TIP3    H143934   1.164   3.900   0.507
14663TIP3    H243935   1.214   3.915   0.365
14664TIP3   OH243936   7.013   4.918   0.206
14664TIP3    H143937   6.954   4.945   0.276
14664TIP3    H243938   6.974   4.954   0.126
14665TIP3   OH243939   2.847   5.931   4.119
14665TIP3    H143940   2.864   6.022   4.143
14665TIP3    H243941   2.920   5.906   4.063
14666TIP3   OH243942   1.222   6.218   1.270
14666TIP3    H143943   1.139   6.201   1.227
14666TIP3    H243944   1.227   6.314   1.275
14667TIP3   OH243945   1.995   1.066   3.363
14667TIP3    H143946   1.973   0.986   3.412
14667TIP3    H243947   1.912   1.094   3.325
14668TIP3   OH243948   2.468   0.508   6.341
14668TIP3    H143949   2.394   0.540   6.289
14668TIP3    H243950   2.530   0.580   6.342
14669TIP3   OH243951   0.473   6.709   2.002
14669TIP3    H143952   0.421   6.788   2.010
14669TIP3    H243953   0.470   6.687   1.909
14670TIP3   OH243954   2.153   5.400   1.332
14670TIP3    H143955   2.115   5.312   1.324
14670TIP3    H243956   2.213   5.394   1.406
14671TIP3   OH243957   2.363   0.448   5.418
14671TIP3    H143958   2.434   0.385   5.421
14671TIP3    H243959   2.340   0.463   5.510
14672TIP3   OH243960   4.208   7.628   3.210
14672TIP3    H143961   4.220   7.534   3.198
14672TIP3    H243962   4.217   7.665   3.122
14673TIP3   OH243963   1.205   2.082   6.662
14673TIP3    H143964   1.195   2.163   6.711
14673TIP3    H243965   1.218   2.014   6.728
14674TIP3   OH243966   6.372   0.023   3.590
14674TIP3    H143967   6.324   0.106   3.582
14674TIP3    H243968   6.308  -0.038   3.628
14675TIP3   OH243969   7.074   4.201   3.105
14675TIP3    H143970   7.092   4.275   3.047
14675TIP3    H243971   6.996   4.227   3.153
14676TIP3   OH243972   3.759   0.623   0.951
14676TIP3    H143973   3.758   0.576   1.035
14676TIP3    H243974   3.806   0.704   0.969
14677TIP3   OH243975   3.612   2.472   6.565
14677TIP3    H143976   3.615   2.386   6.607
14677TIP3    H243977   3.656   2.460   6.481
14678TIP3   OH243978   2.452   0.230   6.312
14678TIP3    H143979   2.428   0.317   6.344
14678TIP3    H243980   2.414   0.170   6.377
14679TIP3   OH243981   2.957   2.318   3.416
14679TIP3    H143982   3.014   2.242   3.431
14679TIP3    H243983   3.011   2.379   3.366
14680TIP3   OH243984   0.320   1.394   2.491
14680TIP3    H143985   0.320   1.485   2.462
14680TIP3    H243986   0.241   1.356   2.452
14681TIP3   OH243987   4.004   3.382   0.404
14681TIP3    H143988   3.911   3.364   0.414
14681TIP3    H243989   4.040   3.302   0.366
14682TIP3   OH243990   7.878   7.710   1.306
14682TIP3    H143991   7.942   7.732   1.374
14682TIP3    H243992   7.815   7.782   1.308
14683TIP3   OH243993   7.785   0.120   6.447
14683TIP3    H143994   7.729   0.198   6.441
14683TIP3    H243995   7.872   0.152   6.426
14684TIP3   OH243996   6.940   5.461   4.826
14684TIP3    H143997   7.000   5.469   4.900
14684TIP3    H243998   6.855   5.488   4.860
14685TIP3   OH243999   6.599   7.472   5.900
14685TIP3    H144000   6.537   7.408   5.864
14685TIP3    H244001   6.676   7.420   5.922
14686TIP3   OH244002   1.381   5.749   4.367
14686TIP3    H144003   1.439   5.796   4.307
14686TIP3    H244004   1.388   5.797   4.449
14687TIP3   OH244005   0.536   4.199   0.070
14687TIP3    H144006   0.547   4.226   0.161
14687TIP3    H244007   0.591   4.120   0.062
14688TIP3   OH244008   0.746   3.481   0.687
14688TIP3    H144009   0.757   3.537   0.610
14688TIP3    H244010   0.653   3.489   0.709
14689TIP3   OH244011   8.273   0.882   3.819
14689TIP3    H144012   8.343   0.946   3.824
14689TIP3    H244013   8.202   0.920   3.872
14690TIP3   OH244014   7.662   6.984   2.927
14690TIP3    H144015   7.745   6.985   2.880
14690TIP3    H244016   7.602   7.033   2.870
14691TIP3   OH244017   3.628   2.467   3.380
14691TIP3    H144018   3.639   2.496   3.471
14691TIP3    H244019   3.641   2.373   3.383
14692TIP3   OH244020   2.426   5.332   2.824
14692TIP3    H144021   2.337   5.307   2.800
14692TIP3    H244022   2.481   5.263   2.787
14693TIP3   OH244023   7.413   2.221   1.079
14693TIP3    H144024   7.506   2.197   1.076
14693TIP3    H244025   7.411   2.304   1.127
14694TIP3   OH244026   6.458   6.534   6.772
14694TIP3    H144027   6.435   6.476   6.699
14694TIP3    H244028   6.530   6.587   6.737
14695TIP3   OH244029   4.284   2.631   1.767
14695TIP3    H144030   4.369   2.634   1.813
14695TIP3    H244031   4.305   2.595   1.681
14696TIP3   OH244032   4.130   0.988   3.272
14696TIP3    H144033   4.160   1.074   3.241
14696TIP3    H244034   4.114   0.938   3.192
14697TIP3   OH244035   1.780   6.216   2.072
14697TIP3    H144036   1.752   6.187   1.985
14697TIP3    H244037   1.872   6.189   2.078
14698TIP3   OH244038   7.501   1.714   0.277
14698TIP3    H144039   7.465   1.769   0.347
14698TIP3    H244040   7.427   1.698   0.218
14699TIP3   OH244041   2.637   5.661   6.101
14699TIP3    H144042   2.649   5.605   6.178
14699TIP3    H244043   2.702   5.730   6.112
14700TIP3   OH244044   7.739   5.151   3.980
14700TIP3    H144045   7.821   5.201   3.982
14700TIP3    H244046   7.762   5.070   3.933
14701TIP3   OH244047   7.604   5.772   1.170
14701TIP3    H144048   7.586   5.781   1.264
14701TIP3    H244049   7.602   5.677   1.155
14702TIP3   OH244050   7.305   7.437   1.670
14702TIP3    H144051   7.376   7.409   1.728
14702TIP3    H244052   7.246   7.487   1.726
14703TIP3   OH244053   4.455   4.789   0.482
14703TIP3    H144054   4.476   4.850   0.552
14703TIP3    H244055   4.514   4.715   0.496
14704TIP3   OH244056   6.082   0.031   0.009
14704TIP3    H144057   6.149   0.014   0.075
14704TIP3    H244058   6.089  -0.043  -0.051
14705TIP3   OH244059   1.978   5.570   5.718
14705TIP3    H144060   1.902   5.622   5.743
14705TIP3    H244061   2.002   5.522   5.797
14706TIP3   OH244062   3.322   7.693   5.721
14706TIP3    H144063   3.370   7.776   5.721
14706TIP3    H244064   3.283   7.689   5.633
14707TIP3   OH244065   7.730   4.382   5.874
14707TIP3    H144066   7.796   4.371   5.942
14707TIP3    H244067   7.648   4.396   5.922
14708TIP3   OH244068   7.822   2.550   4.796
14708TIP3    H144069   7.908   2.558   4.753
14708TIP3    H244070   7.773   2.626   4.765
14709TIP3   OH244071   1.233   2.224   3.278
14709TIP3    H144072   1.181   2.149   3.249
14709TIP3    H244073   1.294   2.187   3.342
14710TIP3   OH244074   6.676   1.961   1.642
14710TIP3    H144075   6.626   2.040   1.665
14710TIP3    H244076   6.765   1.992   1.631
14711TIP3   OH244077   4.158   6.666   1.096
14711TIP3    H144078   4.103   6.633   1.025
14711TIP3    H244079   4.246   6.668   1.059
14712TIP3   OH244080   6.854   0.977   1.603
14712TIP3    H144081   6.824   0.908   1.544
14712TIP3    H244082   6.940   1.002   1.569
14713TIP3   OH244083   8.103   1.331   2.662
14713TIP3    H144084   8.092   1.268   2.733
14713TIP3    H244085   8.175   1.387   2.690
14714TIP3   OH244086   7.302   5.842   2.601
14714TIP3    H144087   7.240   5.798   2.543
14714TIP3    H244088   7.353   5.770   2.640
14715TIP3   OH244089   2.969   5.205   3.219
14715TIP3    H144090   3.054   5.179   3.184
14715TIP3    H244091   2.983   5.292   3.255
14716TIP3   OH244092   7.571   6.174   4.393
14716TIP3    H144093   7.567   6.228   4.472
14716TIP3    H244094   7.641   6.111   4.411
14717TIP3   OH244095   4.287   5.318   0.970
14717TIP3    H144096   4.279   5.239   0.917
14717TIP3    H244097   4.332   5.381   0.913
14718TIP3   OH244098   5.071   3.448   1.284
14718TIP3    H144099   4.993   3.482   1.239
14718TIP3    H244100   5.063   3.479   1.374
14719TIP3   OH244101   5.094   7.575   2.592
14719TIP3    H144102   5.068   7.647   2.649
14719TIP3    H244103   5.151   7.520   2.647
14720TIP3   OH244104   1.683   7.155   6.031
14720TIP3    H144105   1.635   7.237   6.018
14720TIP3    H244106   1.755   7.160   5.967
14721TIP3   OH244107   6.647   3.827   1.162
14721TIP3    H144108   6.730   3.787   1.134
14721TIP3    H244109   6.594   3.753   1.192
14722TIP3   OH244110   8.236   1.504   4.304
14722TIP3    H144111   8.220   1.541   4.391
14722TIP3    H244112   8.300   1.434   4.318
14723TIP3   OH244113   0.656   1.866   0.955
14723TIP3    H144114   0.564   1.885   0.934
14723TIP3    H244115   0.656   1.854   1.050
14724TIP3   OH244116   5.983   3.760   4.302
14724TIP3    H144117   5.962   3.705   4.378
14724TIP3    H244118   6.068   3.798   4.323
14725TIP3   OH244119   3.984   2.671   2.336
14725TIP3    H144120   4.075   2.673   2.366
14725TIP3    H244121   3.988   2.704   2.246
14726TIP3   OH244122   3.136   0.713   5.272
14726TIP3    H144123   3.059   0.663   5.296
14726TIP3    H244124   3.116   0.803   5.299
14727TIP3   OH244125   7.985   4.693   1.951
14727TIP3    H144126   7.928   4.645   1.890
14727TIP3    H244127   8.057   4.724   1.896
14728TIP3   OH244128   1.093   1.871   4.465
14728TIP3    H144129   1.021   1.811   4.446
14728TIP3    H244130   1.141   1.878   4.383
14729TIP3   OH244131   3.965   6.745   2.064
14729TIP3    H144132   3.915   6.663   2.062
14729TIP3    H244133   4.021   6.740   1.987
14730TIP3   OH244134   4.007   2.265   0.886
14730TIP3    H144135   3.998   2.228   0.973
14730TIP3    H244136   4.039   2.194   0.832
14731TIP3   OH244137   6.269   4.707   4.452
14731TIP3    H144138   6.341   4.764   4.424
14731TIP3    H244139   6.252   4.651   4.376
14732TIP3   OH244140   6.730   0.411   5.958
14732TIP3    H144141   6.730   0.330   6.010
14732TIP3    H244142   6.670   0.394   5.886
14733TIP3   OH244143   3.504   5.378   5.017
14733TIP3    H144144   3.535   5.367   4.927
14733TIP3    H244145   3.584   5.389   5.068
14734TIP3   OH244146   5.910   7.167   0.257
14734TIP3    H144147   5.929   7.178   0.164
14734TIP3    H244148   5.986   7.206   0.301
14735TIP3   OH244149   2.610   5.718   2.844
14735TIP3    H144150   2.575   5.806   2.859
14735TIP3    H244151   2.601   5.674   2.928
14736TIP3   OH244152   1.335   1.472   1.789
14736TIP3    H144153   1.246   1.449   1.817
14736TIP3    H244154   1.340   1.567   1.803
14737TIP3   OH244155   2.076   6.419   3.455
14737TIP3    H144156   1.998   6.376   3.420
14737TIP3    H244157   2.140   6.414   3.384
14738TIP3   OH244158   5.443   0.217   1.530
14738TIP3    H144159   5.482   0.257   1.608
14738TIP3    H244160   5.517   0.203   1.471
14739TIP3   OH244161   5.341   1.794   0.425
14739TIP3    H144162   5.387   1.834   0.351
14739TIP3    H244163   5.336   1.702   0.402
14740TIP3   OH244164   8.290   6.566   2.686
14740TIP3    H144165   8.205   6.529   2.709
14740TIP3    H244166   8.354   6.507   2.725
14741TIP3   OH244167   4.484   0.308   0.424
14741TIP3    H144168   4.427   0.385   0.431
14741TIP3    H244169   4.477   0.265   0.509
14742TIP3   OH244170   6.868   1.511   4.116
14742TIP3    H144171   6.796   1.573   4.106
14742TIP3    H244172   6.939   1.562   4.155
14743TIP3   OH244173   5.591   6.142   4.359
14743TIP3    H144174   5.589   6.174   4.268
14743TIP3    H244175   5.504   6.162   4.393
14744TIP3   OH244176   3.406   5.650   6.165
14744TIP3    H144177   3.458   5.621   6.090
14744TIP3    H244178   3.423   5.584   6.232
14745TIP3   OH244179   0.268   3.899   1.915
14745TIP3    H144180   0.184   3.855   1.929
14745TIP3    H244181   0.254   3.987   1.951
14746TIP3   OH244182   8.030   2.079   5.142
14746TIP3    H144183   7.998   2.086   5.052
14746TIP3    H244184   8.008   1.989   5.168
14747TIP3   OH244185   0.700   5.710   6.549
14747TIP3    H144186   0.730   5.770   6.618
14747TIP3    H244187   0.738   5.745   6.469
14748TIP3   OH244188   1.189   7.198   3.589
14748TIP3    H144189   1.192   7.112   3.631
14748TIP3    H244190   1.165   7.258   3.659
14749TIP3   OH244191   1.690   5.023   4.492
14749TIP3    H144192   1.687   4.967   4.570
14749TIP3    H244193   1.649   5.105   4.519
14750TIP3   OH244194   7.314   2.560   5.230
14750TIP3    H144195   7.332   2.608   5.149
14750TIP3    H244196   7.251   2.615   5.277
14751TIP3   OH244197   6.302   6.782   4.220
14751TIP3    H144198   6.269   6.707   4.269
14751TIP3    H244199   6.385   6.804   4.262
14752TIP3   OH244200   6.250   5.870   2.924
14752TIP3    H144201   6.222   5.924   2.998
14752TIP3    H244202   6.344   5.887   2.917
14753TIP3   OH244203   0.530   3.990   5.086
14753TIP3    H144204   0.536   4.054   5.016
14753TIP3    H244205   0.604   4.010   5.143
14754TIP3   OH244206   3.850   0.448   5.468
14754TIP3    H144207   3.830   0.372   5.414
14754TIP3    H244208   3.764   0.485   5.490
14755TIP3   OH244209   1.170   6.545   0.370
14755TIP3    H144210   1.153   6.631   0.408
14755TIP3    H244211   1.241   6.509   0.423
14756TIP3   OH244212   7.747   0.236   0.381
14756TIP3    H144213   7.654   0.248   0.360
14756TIP3    H244214   7.747   0.199   0.469
14757TIP3   OH244215   7.020   4.831   5.717
14757TIP3    H144216   7.034   4.856   5.625
14757TIP3    H244217   6.926   4.841   5.730
14758TIP3   OH244218   2.892   4.375   0.596
14758TIP3    H144219   2.831   4.443   0.568
14758TIP3    H244220   2.837   4.299   0.614
14759TIP3   OH244221   4.151   2.602   6.310
14759TIP3    H144222   4.219   2.638   6.366
14759TIP3    H244223   4.090   2.560   6.371
14760TIP3   OH244224   5.890   4.707   0.826
14760TIP3    H144225   5.975   4.746   0.804
14760TIP3    H244226   5.868   4.743   0.911
14761TIP3   OH244227   1.913   0.865   2.790
14761TIP3    H144228   1.927   0.927   2.862
14761TIP3    H244229   1.870   0.917   2.722
14762TIP3   OH244230   3.364   0.061   4.824
14762TIP3    H144231   3.444   0.105   4.851
14762TIP3    H244232   3.301   0.080   4.893
14763TIP3   OH244233   6.746   6.016   2.216
14763TIP3    H144234   6.689   6.055   2.150
14763TIP3    H244235   6.686   5.986   2.285
14764TIP3   OH244236   3.666   5.189   3.204
14764TIP3    H144237   3.614   5.111   3.187
14764TIP3    H244238   3.613   5.241   3.265
14765TIP3   OH244239   8.107   2.990   1.099
14765TIP3    H144240   8.118   2.945   1.183
14765TIP3    H244241   8.195   3.000   1.065
14766TIP3   OH244242   8.231   6.181   3.861
14766TIP3    H144243   8.272   6.129   3.930
14766TIP3    H244244   8.138   6.180   3.881
14767TIP3   OH244245   5.104   6.569   1.798
14767TIP3    H144246   5.082   6.657   1.766
14767TIP3    H244247   5.073   6.511   1.729
14768TIP3   OH244248   4.837   0.620   2.354
14768TIP3    H144249   4.817   0.712   2.373
14768TIP3    H244250   4.889   0.623   2.274
14769TIP3   OH244251   4.200   3.332   4.236
14769TIP3    H144252   4.237   3.385   4.306
14769TIP3    H244253   4.106   3.351   4.237
14770TIP3   OH244254   0.833   5.042   2.239
14770TIP3    H144255   0.876   5.122   2.209
14770TIP3    H244256   0.775   5.071   2.310
14771TIP3   OH244257   3.335   7.790   4.834
14771TIP3    H144258   3.287   7.734   4.895
14771TIP3    H244259   3.374   7.858   4.889
14772TIP3   OH244260   1.886   0.650   1.100
14772TIP3    H144261   1.822   0.677   1.034
14772TIP3    H244262   1.906   0.559   1.079
14773TIP3   OH244263   1.909   5.732   6.677
14773TIP3    H144264   1.885   5.723   6.769
14773TIP3    H244265   1.896   5.824   6.657
14774TIP3   OH244266   5.314   5.908   0.589
14774TIP3    H144267   5.356   5.947   0.665
14774TIP3    H244268   5.341   5.964   0.516
14775TIP3   OH244269   0.856   5.758   1.684
14775TIP3    H144270   0.800   5.830   1.712
14775TIP3    H244271   0.930   5.760   1.746
14776TIP3   OH244272   5.158   7.578   6.618
14776TIP3    H144273   5.127   7.498   6.575
14776TIP3    H244274   5.202   7.547   6.697
14777TIP3   OH244275   5.104   6.872   4.344
14777TIP3    H144276   5.020   6.826   4.343
14777TIP3    H244277   5.104   6.921   4.426
14778TIP3   OH244278   1.154   4.893   0.267
14778TIP3    H144279   1.133   4.928   0.181
14778TIP3    H244280   1.078   4.840   0.291
14779TIP3   OH244281   7.584   2.884   5.453
14779TIP3    H144282   7.642   2.928   5.514
14779TIP3    H244283   7.541   2.955   5.405
14780TIP3   OH244284   8.137   7.461   1.748
14780TIP3    H144285   8.086   7.442   1.827
14780TIP3    H244286   8.137   7.378   1.699
14781TIP3   OH244287   1.946   0.484   5.856
14781TIP3    H144288   1.874   0.434   5.894
14781TIP3    H244289   2.023   0.457   5.904
14782TIP3   OH244290   4.017   0.568   2.722
14782TIP3    H144291   4.022   0.487   2.672
14782TIP3    H244292   4.098   0.571   2.772
14783TIP3   OH244293   3.917   3.365   1.839
14783TIP3    H144294   3.841   3.350   1.896
14783TIP3    H244295   3.975   3.421   1.891
14784TIP3   OH244296   5.557   1.739   5.700
14784TIP3    H144297   5.587   1.763   5.612
14784TIP3    H244298   5.462   1.728   5.691
14785TIP3   OH244299   4.375   3.321   6.512
14785TIP3    H144300   4.428   3.393   6.479
14785TIP3    H244301   4.329   3.357   6.587
14786TIP3   OH244302   2.188   6.185   3.970
14786TIP3    H144303   2.124   6.217   3.906
14786TIP3    H244304   2.273   6.204   3.931
14787TIP3   OH244305   4.722   0.081   2.610
14787TIP3    H144306   4.815   0.099   2.625
14787TIP3    H244307   4.720  -0.008   2.575
14788TIP3   OH244308   0.029   7.500   0.933
14788TIP3    H144309   0.106   7.446   0.914
14788TIP3    H244310   0.032   7.515   1.027
14789TIP3   OH244311   3.735   7.762   2.101
14789TIP3    H144312   3.648   7.802   2.111
14789TIP3    H244313   3.720   7.669   2.119
14790TIP3   OH244314   5.216   7.706   1.592
14790TIP3    H144315   5.272   7.753   1.653
14790TIP3    H244316   5.249   7.616   1.593
14791TIP3   OH244317   6.360   2.831   4.856
14791TIP3    H144318   6.287   2.770   4.863
14791TIP3    H244319   6.364   2.873   4.943
14792TIP3   OH244320   4.398   0.602   6.537
14792TIP3    H144321   4.335   0.641   6.598
14792TIP3    H244322   4.443   0.677   6.499
14793TIP3   OH244323   6.643   3.720   3.216
14793TIP3    H144324   6.550   3.746   3.213
14793TIP3    H244325   6.641   3.625   3.227
14794TIP3   OH244326   4.152   5.828   0.566
14794TIP3    H144327   4.088   5.883   0.611
14794TIP3    H244328   4.106   5.745   0.551
14795TIP3   OH244329   2.060   3.803   1.219
14795TIP3    H144330   2.038   3.785   1.310
14795TIP3    H244331   1.982   3.780   1.170
14796TIP3   OH244332   1.414   5.424   3.387
14796TIP3    H144333   1.387   5.470   3.308
14796TIP3    H244334   1.398   5.332   3.368
14797TIP3   OH244335   2.326   1.392   6.673
14797TIP3    H144336   2.285   1.416   6.756
14797TIP3    H244337   2.413   1.361   6.697
14798TIP3   OH244338   6.445   5.640   5.197
14798TIP3    H144339   6.449   5.736   5.189
14798TIP3    H244340   6.356   5.618   5.167
14799TIP3   OH244341   7.263   7.606   0.411
14799TIP3    H144342   7.208   7.567   0.342
14799TIP3    H244343   7.347   7.621   0.369
14800TIP3   OH244344   3.702   5.574   0.803
14800TIP3    H144345   3.770   5.508   0.795
14800TIP3    H244346   3.643   5.541   0.870
14801TIP3   OH244347   2.044   7.425   6.377
14801TIP3    H144348   2.029   7.366   6.303
14801TIP3    H244349   2.081   7.504   6.337
14802TIP3   OH244350   1.882   4.083   1.042
14802TIP3    H144351   1.903   4.175   1.053
14802TIP3    H244352   1.943   4.052   0.975
14803TIP3   OH244353   5.786   3.682   1.930
14803TIP3    H144354   5.707   3.664   1.879
14803TIP3    H244355   5.834   3.747   1.879
14804TIP3   OH244356   6.913   7.132   4.666
14804TIP3    H144357   6.969   7.132   4.588
14804TIP3    H244358   6.829   7.100   4.634
14805TIP3   OH244359   3.372   7.583   0.191
14805TIP3    H144360   3.296   7.568   0.135
14805TIP3    H244361   3.438   7.521   0.159
14806TIP3   OH244362   7.845   5.576   4.435
14806TIP3    H144363   7.899   5.538   4.505
14806TIP3    H244364   7.873   5.531   4.356
14807TIP3   OH244365   2.046   0.073   1.758
14807TIP3    H144366   2.018   0.122   1.681
14807TIP3    H244367   1.998   0.112   1.831
14808TIP3   OH244368   3.998   5.497   4.801
14808TIP3    H144369   4.066   5.540   4.749
14808TIP3    H244370   4.047   5.450   4.869
14809TIP3   OH244371   4.929   4.542   4.128
14809TIP3    H144372   4.966   4.487   4.198
14809TIP3    H244373   4.867   4.600   4.173
14810TIP3   OH244374   0.368   1.029   1.413
14810TIP3    H144375   0.414   0.949   1.390
14810TIP3    H244376   0.294   1.000   1.466
14811TIP3   OH244377   6.558   4.963   6.502
14811TIP3    H144378   6.502   5.030   6.463
14811TIP3    H244379   6.611   5.010   6.566
14812TIP3   OH244380   0.772   1.089   2.609
14812TIP3    H144381   0.822   1.158   2.651
14812TIP3    H244382   0.815   1.008   2.636
14813TIP3   OH244383   7.177   1.521   6.108
14813TIP3    H144384   7.237   1.595   6.122
14813TIP3    H244385   7.184   1.502   6.015
14814TIP3   OH244386   5.235   2.922   4.459
14814TIP3    H144387   5.319   2.947   4.499
14814TIP3    H244388   5.260   2.880   4.377
14815TIP3   OH244389   7.549   1.441   1.969
14815TIP3    H144390   7.492   1.474   2.039
14815TIP3    H244391   7.612   1.512   1.955
14816TIP3   OH244392   1.496   2.760   5.217
14816TIP3    H144393   1.522   2.763   5.309
14816TIP3    H244394   1.407   2.725   5.218
14817TIP3   OH244395   6.656   7.522   1.571
14817TIP3    H144396   6.602   7.509   1.493
14817TIP3    H244397   6.594   7.523   1.643
14818TIP3   OH244398   2.201   1.189   1.133
14818TIP3    H144399   2.251   1.127   1.186
14818TIP3    H244400   2.119   1.201   1.180
14819TIP3   OH244401   2.879   4.133   1.695
14819TIP3    H144402   2.913   4.218   1.665
14819TIP3    H244403   2.944   4.102   1.757
14820TIP3   OH244404   5.976   1.544   3.945
14820TIP3    H144405   6.063   1.515   3.917
14820TIP3    H244406   5.988   1.571   4.036
14821TIP3   OH244407   0.129   5.616   4.550
14821TIP3    H144408   0.174   5.635   4.632
14821TIP3    H244409   0.130   5.698   4.502
14822TIP3   OH244410   0.047   3.505   1.912
14822TIP3    H144411  -0.020   3.453   1.955
14822TIP3    H244412   0.092   3.550   1.983
14823TIP3   OH244413   4.242   2.795   5.285
14823TIP3    H144414   4.286   2.731   5.340
14823TIP3    H244415   4.220   2.747   5.205
14824TIP3   OH244416   6.255   6.188   3.082
14824TIP3    H144417   6.299   6.179   3.167
14824TIP3    H244418   6.183   6.125   3.086
14825TIP3   OH244419   6.256   3.832   4.276
14825TIP3    H144420   6.276   3.922   4.251
14825TIP3    H244421   6.283   3.826   4.368
14826TIP3   OH244422   3.292   2.952   0.564
14826TIP3    H144423   3.355   3.010   0.607
14826TIP3    H244424   3.219   3.009   0.540
14827TIP3   OH244425   0.621   1.006   3.753
14827TIP3    H144426   0.615   1.083   3.697
14827TIP3    H244427   0.704   1.016   3.800
14828TIP3   OH244428   4.377   3.625   2.560
14828TIP3    H144429   4.443   3.681   2.521
14828TIP3    H244430   4.309   3.618   2.494
14829TIP3   OH244431   2.210   1.939   5.362
14829TIP3    H144432   2.129   1.981   5.391
14829TIP3    H244433   2.200   1.847   5.388
14830TIP3   OH244434   5.953   5.917   2.035
14830TIP3    H144435   6.004   5.988   2.073
14830TIP3    H244436   5.914   5.955   1.956
14831TIP3   OH244437   1.581   4.147   3.145
14831TIP3    H144438   1.545   4.129   3.232
14831TIP3    H244439   1.669   4.182   3.163
14832TIP3   OH244440   3.314   6.404   4.481
14832TIP3    H144441   3.380   6.336   4.494
14832TIP3    H244442   3.351   6.460   4.412
14833TIP3   OH244443   6.043   2.131   6.015
14833TIP3    H144444   5.980   2.137   5.943
14833TIP3    H244445   6.080   2.043   6.007
14834TIP3   OH244446   2.682   5.798   1.724
14834TIP3    H144447   2.597   5.787   1.679
14834TIP3    H244448   2.698   5.713   1.765
14835TIP3   OH244449   0.070   4.975   4.816
14835TIP3    H144450   0.161   4.995   4.793
14835TIP3    H244451   0.030   5.061   4.829
14836TIP3   OH244452   1.159   1.977   3.647
14836TIP3    H144453   1.239   1.978   3.593
14836TIP3    H244454   1.099   2.037   3.602
14837TIP3   OH244455   0.723   0.379   6.608
14837TIP3    H144456   0.650   0.439   6.592
14837TIP3    H244457   0.690   0.293   6.581
14838TIP3   OH244458   0.703   6.361   0.127
14838TIP3    H144459   0.692   6.266   0.124
14838TIP3    H244460   0.677   6.385   0.216
14839TIP3   OH244461   2.875   7.543   6.294
14839TIP3    H144462   2.938   7.612   6.315
14839TIP3    H244463   2.886   7.529   6.200
   8.29943   7.82478   6.77645   0.00000   0.00000  -2.76647   0.00000  -2.76647  -3.91239
