;;
;; Generated by CHARMM-GUI FF-Converter
;;
;; Correspondance:
;; jul316@lehigh.edu or wonpil@lehigh.edu
;;
;; GROMACS topology file for PROA
;;


[ moleculetype ]
; name	nrexcl
PROA	     3

[ atoms ]
; nr	type	resnr	residu	atom	cgnr	charge	mass
     1        NH3      1      GLY      N      1    -0.300000    14.0070   ; qtot -0.300
     2         HC      1      GLY    HT1      2     0.330000     1.0080   ; qtot  0.030
     3         HC      1      GLY    HT2      3     0.330000     1.0080   ; qtot  0.360
     4         HC      1      GLY    HT3      4     0.330000     1.0080   ; qtot  0.690
     5        CT2      1      GLY     CA      5     0.130000    12.0110   ; qtot  0.820
     6        HB2      1      GLY    HA1      6     0.090000     1.0080   ; qtot  0.910
     7        HB2      1      GLY    HA2      7     0.090000     1.0080   ; qtot  1.000
     8          C      1      GLY      C      8     0.510000    12.0110   ; qtot  1.510
     9          O      1      GLY      O      9    -0.510000    15.9994   ; qtot  1.000
    10        NH1      2      SER      N     10    -0.470000    14.0070   ; qtot  0.530
    11          H      2      SER     HN     11     0.310000     1.0080   ; qtot  0.840
    12        CT1      2      SER     CA     12     0.070000    12.0110   ; qtot  0.910
    13        HB1      2      SER     HA     13     0.090000     1.0080   ; qtot  1.000
    14        CT2      2      SER     CB     14     0.050000    12.0110   ; qtot  1.050
    15        HA2      2      SER    HB1     15     0.090000     1.0080   ; qtot  1.140
    16        HA2      2      SER    HB2     16     0.090000     1.0080   ; qtot  1.230
    17        OH1      2      SER     OG     17    -0.660000    15.9994   ; qtot  0.570
    18          H      2      SER    HG1     18     0.430000     1.0080   ; qtot  1.000
    19          C      2      SER      C     19     0.510000    12.0110   ; qtot  1.510
    20          O      2      SER      O     20    -0.510000    15.9994   ; qtot  1.000
    21        NH1      3      GLY      N     21    -0.470000    14.0070   ; qtot  0.530
    22          H      3      GLY     HN     22     0.310000     1.0080   ; qtot  0.840
    23        CT2      3      GLY     CA     23    -0.020000    12.0110   ; qtot  0.820
    24        HB2      3      GLY    HA1     24     0.090000     1.0080   ; qtot  0.910
    25        HB2      3      GLY    HA2     25     0.090000     1.0080   ; qtot  1.000
    26          C      3      GLY      C     26     0.510000    12.0110   ; qtot  1.510
    27          O      3      GLY      O     27    -0.510000    15.9994   ; qtot  1.000
    28        NH1      4      ASP      N     28    -0.470000    14.0070   ; qtot  0.530
    29          H      4      ASP     HN     29     0.310000     1.0080   ; qtot  0.840
    30        CT1      4      ASP     CA     30     0.070000    12.0110   ; qtot  0.910
    31        HB1      4      ASP     HA     31     0.090000     1.0080   ; qtot  1.000
    32       CT2A      4      ASP     CB     32    -0.280000    12.0110   ; qtot  0.720
    33        HA2      4      ASP    HB1     33     0.090000     1.0080   ; qtot  0.810
    34        HA2      4      ASP    HB2     34     0.090000     1.0080   ; qtot  0.900
    35         CC      4      ASP     CG     35     0.620000    12.0110   ; qtot  1.520
    36         OC      4      ASP    OD1     36    -0.760000    15.9994   ; qtot  0.760
    37         OC      4      ASP    OD2     37    -0.760000    15.9994   ; qtot  0.000
    38          C      4      ASP      C     38     0.510000    12.0110   ; qtot  0.510
    39          O      4      ASP      O     39    -0.510000    15.9994   ; qtot  0.000
    40          N      5      PRO      N     40    -0.290000    14.0070   ; qtot -0.290
    41        CP3      5      PRO     CD     41     0.000000    12.0110   ; qtot -0.290
    42        HA2      5      PRO    HD1     42     0.090000     1.0080   ; qtot -0.200
    43        HA2      5      PRO    HD2     43     0.090000     1.0080   ; qtot -0.110
    44        CP1      5      PRO     CA     44     0.020000    12.0110   ; qtot -0.090
    45        HB1      5      PRO     HA     45     0.090000     1.0080   ; qtot  0.000
    46        CP2      5      PRO     CB     46    -0.180000    12.0110   ; qtot -0.180
    47        HA2      5      PRO    HB1     47     0.090000     1.0080   ; qtot -0.090
    48        HA2      5      PRO    HB2     48     0.090000     1.0080   ; qtot  0.000
    49        CP2      5      PRO     CG     49    -0.180000    12.0110   ; qtot -0.180
    50        HA2      5      PRO    HG1     50     0.090000     1.0080   ; qtot -0.090
    51        HA2      5      PRO    HG2     51     0.090000     1.0080   ; qtot  0.000
    52          C      5      PRO      C     52     0.510000    12.0110   ; qtot  0.510
    53          O      5      PRO      O     53    -0.510000    15.9994   ; qtot  0.000
    54        NH1      6      GLY      N     54    -0.470000    14.0070   ; qtot -0.470
    55          H      6      GLY     HN     55     0.310000     1.0080   ; qtot -0.160
    56        CT2      6      GLY     CA     56    -0.020000    12.0110   ; qtot -0.180
    57        HB2      6      GLY    HA1     57     0.090000     1.0080   ; qtot -0.090
    58        HB2      6      GLY    HA2     58     0.090000     1.0080   ; qtot  0.000
    59          C      6      GLY      C     59     0.510000    12.0110   ; qtot  0.510
    60          O      6      GLY      O     60    -0.510000    15.9994   ; qtot  0.000
    61        NH1      7      ASN      N     61    -0.470000    14.0070   ; qtot -0.470
    62          H      7      ASN     HN     62     0.310000     1.0080   ; qtot -0.160
    63        CT1      7      ASN     CA     63     0.070000    12.0110   ; qtot -0.090
    64        HB1      7      ASN     HA     64     0.090000     1.0080   ; qtot  0.000
    65        CT2      7      ASN     CB     65    -0.180000    12.0110   ; qtot -0.180
    66        HA2      7      ASN    HB1     66     0.090000     1.0080   ; qtot -0.090
    67        HA2      7      ASN    HB2     67     0.090000     1.0080   ; qtot  0.000
    68         CC      7      ASN     CG     68     0.550000    12.0110   ; qtot  0.550
    69          O      7      ASN    OD1     69    -0.550000    15.9994   ; qtot  0.000
    70        NH2      7      ASN    ND2     70    -0.620000    14.0070   ; qtot -0.620
    71          H      7      ASN   HD21     71     0.320000     1.0080   ; qtot -0.300
    72          H      7      ASN   HD22     72     0.300000     1.0080   ; qtot  0.000
    73          C      7      ASN      C     73     0.510000    12.0110   ; qtot  0.510
    74          O      7      ASN      O     74    -0.510000    15.9994   ; qtot  0.000
    75        NH1      8      GLY      N     75    -0.470000    14.0070   ; qtot -0.470
    76          H      8      GLY     HN     76     0.310000     1.0080   ; qtot -0.160
    77        CT2      8      GLY     CA     77    -0.020000    12.0110   ; qtot -0.180
    78        HB2      8      GLY    HA1     78     0.090000     1.0080   ; qtot -0.090
    79        HB2      8      GLY    HA2     79     0.090000     1.0080   ; qtot  0.000
    80          C      8      GLY      C     80     0.510000    12.0110   ; qtot  0.510
    81          O      8      GLY      O     81    -0.510000    15.9994   ; qtot  0.000
    82        NH1      9      ASP      N     82    -0.470000    14.0070   ; qtot -0.470
    83          H      9      ASP     HN     83     0.310000     1.0080   ; qtot -0.160
    84        CT1      9      ASP     CA     84     0.070000    12.0110   ; qtot -0.090
    85        HB1      9      ASP     HA     85     0.090000     1.0080   ; qtot  0.000
    86       CT2A      9      ASP     CB     86    -0.280000    12.0110   ; qtot -0.280
    87        HA2      9      ASP    HB1     87     0.090000     1.0080   ; qtot -0.190
    88        HA2      9      ASP    HB2     88     0.090000     1.0080   ; qtot -0.100
    89         CC      9      ASP     CG     89     0.620000    12.0110   ; qtot  0.520
    90         OC      9      ASP    OD1     90    -0.760000    15.9994   ; qtot -0.240
    91         OC      9      ASP    OD2     91    -0.760000    15.9994   ; qtot -1.000
    92          C      9      ASP      C     92     0.510000    12.0110   ; qtot -0.490
    93          O      9      ASP      O     93    -0.510000    15.9994   ; qtot -1.000
    94          N     10      PRO      N     94    -0.290000    14.0070   ; qtot -1.290
    95        CP3     10      PRO     CD     95     0.000000    12.0110   ; qtot -1.290
    96        HA2     10      PRO    HD1     96     0.090000     1.0080   ; qtot -1.200
    97        HA2     10      PRO    HD2     97     0.090000     1.0080   ; qtot -1.110
    98        CP1     10      PRO     CA     98     0.020000    12.0110   ; qtot -1.090
    99        HB1     10      PRO     HA     99     0.090000     1.0080   ; qtot -1.000
   100        CP2     10      PRO     CB    100    -0.180000    12.0110   ; qtot -1.180
   101        HA2     10      PRO    HB1    101     0.090000     1.0080   ; qtot -1.090
   102        HA2     10      PRO    HB2    102     0.090000     1.0080   ; qtot -1.000
   103        CP2     10      PRO     CG    103    -0.180000    12.0110   ; qtot -1.180
   104        HA2     10      PRO    HG1    104     0.090000     1.0080   ; qtot -1.090
   105        HA2     10      PRO    HG2    105     0.090000     1.0080   ; qtot -1.000
   106          C     10      PRO      C    106     0.510000    12.0110   ; qtot -0.490
   107          O     10      PRO      O    107    -0.510000    15.9994   ; qtot -1.000
   108        NH1     11      GLY      N    108    -0.470000    14.0070   ; qtot -1.470
   109          H     11      GLY     HN    109     0.310000     1.0080   ; qtot -1.160
   110        CT2     11      GLY     CA    110    -0.020000    12.0110   ; qtot -1.180
   111        HB2     11      GLY    HA1    111     0.090000     1.0080   ; qtot -1.090
   112        HB2     11      GLY    HA2    112     0.090000     1.0080   ; qtot -1.000
   113          C     11      GLY      C    113     0.510000    12.0110   ; qtot -0.490
   114          O     11      GLY      O    114    -0.510000    15.9994   ; qtot -1.000
   115        NH1     12      SER      N    115    -0.470000    14.0070   ; qtot -1.470
   116          H     12      SER     HN    116     0.310000     1.0080   ; qtot -1.160
   117        CT1     12      SER     CA    117     0.070000    12.0110   ; qtot -1.090
   118        HB1     12      SER     HA    118     0.090000     1.0080   ; qtot -1.000
   119        CT2     12      SER     CB    119     0.050000    12.0110   ; qtot -0.950
   120        HA2     12      SER    HB1    120     0.090000     1.0080   ; qtot -0.860
   121        HA2     12      SER    HB2    121     0.090000     1.0080   ; qtot -0.770
   122        OH1     12      SER     OG    122    -0.660000    15.9994   ; qtot -1.430
   123          H     12      SER    HG1    123     0.430000     1.0080   ; qtot -1.000
   124          C     12      SER      C    124     0.510000    12.0110   ; qtot -0.490
   125          O     12      SER      O    125    -0.510000    15.9994   ; qtot -1.000
   126        NH1     13      GLY      N    126    -0.470000    14.0070   ; qtot -1.470
   127          H     13      GLY     HN    127     0.310000     1.0080   ; qtot -1.160
   128        CT2     13      GLY     CA    128    -0.020000    12.0110   ; qtot -1.180
   129        HB2     13      GLY    HA1    129     0.090000     1.0080   ; qtot -1.090
   130        HB2     13      GLY    HA2    130     0.090000     1.0080   ; qtot -1.000
   131         CC     13      GLY      C    131     0.340000    12.0110   ; qtot -0.660
   132         OC     13      GLY    OT1    132    -0.670000    15.9994   ; qtot -1.330
   133         OC     13      GLY    OT2    133    -0.670000    15.9994   ; qtot -2.000

[ bonds ]
; ai	aj	funct	b0	Kb
    2     1     1
    3     1     1
    4     1     1
    1     5     1
    5     6     1
    5     7     1
    8     5     1
    9     8     1
    8    10     1
   10    11     1
   10    12     1
   12    13     1
   14    12     1
   19    12     1
   14    15     1
   14    16     1
   17    14     1
   17    18     1
   20    19     1
   19    21     1
   21    22     1
   21    23     1
   23    24     1
   23    25     1
   26    23     1
   27    26     1
   26    28     1
   28    29     1
   28    30     1
   30    31     1
   32    30     1
   38    30     1
   32    33     1
   32    34     1
   35    32     1
   35    36     1
   37    35     1
   39    38     1
   38    40     1
   40    41     1
   40    44     1
   42    41     1
   43    41     1
   49    41     1
   45    44     1
   44    46     1
   52    44     1
   47    46     1
   48    46     1
   46    49     1
   50    49     1
   51    49     1
   53    52     1
   52    54     1
   54    55     1
   54    56     1
   56    57     1
   56    58     1
   59    56     1
   60    59     1
   59    61     1
   61    62     1
   61    63     1
   63    64     1
   65    63     1
   73    63     1
   65    66     1
   65    67     1
   68    65     1
   68    69     1
   70    68     1
   70    71     1
   70    72     1
   73    74     1
   73    75     1
   75    76     1
   75    77     1
   77    78     1
   77    79     1
   80    77     1
   81    80     1
   80    82     1
   82    83     1
   82    84     1
   84    85     1
   86    84     1
   92    84     1
   86    87     1
   86    88     1
   89    86     1
   89    90     1
   91    89     1
   93    92     1
   92    94     1
   94    95     1
   94    98     1
   96    95     1
   97    95     1
  103    95     1
   99    98     1
   98   100     1
  106    98     1
  101   100     1
  102   100     1
  100   103     1
  104   103     1
  105   103     1
  107   106     1
  106   108     1
  108   109     1
  108   110     1
  110   111     1
  110   112     1
  113   110     1
  114   113     1
  113   115     1
  115   116     1
  115   117     1
  117   118     1
  119   117     1
  124   117     1
  119   120     1
  119   121     1
  122   119     1
  122   123     1
  125   124     1
  124   126     1
  126   127     1
  126   128     1
  128   129     1
  128   130     1
  131   128     1
  131   132     1
  131   133     1

[ pairs ]
; ai	aj	funct	c6	c12 or
; ai	aj	funct	fudgeQQ	q1	q2	c6	c12
    1     9     1
    1    10     1
    2     6     1
    2     7     1
    2     8     1
    3     6     1
    3     7     1
    3     8     1
    4     6     1
    4     7     1
    4     8     1
    5    11     1
    5    12     1
    6     9     1
    6    10     1
    7     9     1
    7    10     1
    8    13     1
    8    14     1
    8    19     1
    9    11     1
    9    12     1
   10    15     1
   10    16     1
   10    17     1
   10    20     1
   10    21     1
   11    13     1
   11    14     1
   11    19     1
   12    18     1
   12    22     1
   12    23     1
   13    15     1
   13    16     1
   13    17     1
   13    20     1
   13    21     1
   14    20     1
   14    21     1
   15    18     1
   15    19     1
   16    18     1
   16    19     1
   17    19     1
   19    24     1
   19    25     1
   19    26     1
   20    22     1
   20    23     1
   21    27     1
   21    28     1
   22    24     1
   22    25     1
   22    26     1
   23    29     1
   23    30     1
   24    27     1
   24    28     1
   25    27     1
   25    28     1
   26    31     1
   26    32     1
   26    38     1
   27    29     1
   27    30     1
   28    33     1
   28    34     1
   28    35     1
   28    39     1
   28    40     1
   29    31     1
   29    32     1
   29    38     1
   30    36     1
   30    37     1
   30    41     1
   30    44     1
   31    33     1
   31    34     1
   31    35     1
   31    39     1
   31    40     1
   32    39     1
   32    40     1
   33    36     1
   33    37     1
   33    38     1
   34    36     1
   34    37     1
   34    38     1
   35    38     1
   38    42     1
   38    43     1
   38    45     1
   38    46     1
   38    49     1
   38    52     1
   39    41     1
   39    44     1
   40    47     1
   40    48     1
   40    50     1
   40    51     1
   40    53     1
   40    54     1
   41    45     1
   41    47     1
   41    48     1
   41    52     1
   42    44     1
   42    46     1
   42    50     1
   42    51     1
   43    44     1
   43    46     1
   43    50     1
   43    51     1
   44    50     1
   44    51     1
   44    55     1
   44    56     1
   45    47     1
   45    48     1
   45    49     1
   45    53     1
   45    54     1
   46    53     1
   46    54     1
   47    50     1
   47    51     1
   47    52     1
   48    50     1
   48    51     1
   48    52     1
   49    52     1
   52    57     1
   52    58     1
   52    59     1
   53    55     1
   53    56     1
   54    60     1
   54    61     1
   55    57     1
   55    58     1
   55    59     1
   56    62     1
   56    63     1
   57    60     1
   57    61     1
   58    60     1
   58    61     1
   59    64     1
   59    65     1
   59    73     1
   60    62     1
   60    63     1
   61    66     1
   61    67     1
   61    68     1
   61    74     1
   61    75     1
   62    64     1
   62    65     1
   62    73     1
   63    69     1
   63    70     1
   63    76     1
   63    77     1
   64    66     1
   64    67     1
   64    68     1
   64    74     1
   64    75     1
   65    71     1
   65    72     1
   65    74     1
   65    75     1
   66    69     1
   66    70     1
   66    73     1
   67    69     1
   67    70     1
   67    73     1
   68    73     1
   69    71     1
   69    72     1
   73    78     1
   73    79     1
   73    80     1
   74    76     1
   74    77     1
   75    81     1
   75    82     1
   76    78     1
   76    79     1
   76    80     1
   77    83     1
   77    84     1
   78    81     1
   78    82     1
   79    81     1
   79    82     1
   80    85     1
   80    86     1
   80    92     1
   81    83     1
   81    84     1
   82    87     1
   82    88     1
   82    89     1
   82    93     1
   82    94     1
   83    85     1
   83    86     1
   83    92     1
   84    90     1
   84    91     1
   84    95     1
   84    98     1
   85    87     1
   85    88     1
   85    89     1
   85    93     1
   85    94     1
   86    93     1
   86    94     1
   87    90     1
   87    91     1
   87    92     1
   88    90     1
   88    91     1
   88    92     1
   89    92     1
   92    96     1
   92    97     1
   92    99     1
   92   100     1
   92   103     1
   92   106     1
   93    95     1
   93    98     1
   94   101     1
   94   102     1
   94   104     1
   94   105     1
   94   107     1
   94   108     1
   95    99     1
   95   101     1
   95   102     1
   95   106     1
   96    98     1
   96   100     1
   96   104     1
   96   105     1
   97    98     1
   97   100     1
   97   104     1
   97   105     1
   98   104     1
   98   105     1
   98   109     1
   98   110     1
   99   101     1
   99   102     1
   99   103     1
   99   107     1
   99   108     1
  100   107     1
  100   108     1
  101   104     1
  101   105     1
  101   106     1
  102   104     1
  102   105     1
  102   106     1
  103   106     1
  106   111     1
  106   112     1
  106   113     1
  107   109     1
  107   110     1
  108   114     1
  108   115     1
  109   111     1
  109   112     1
  109   113     1
  110   116     1
  110   117     1
  111   114     1
  111   115     1
  112   114     1
  112   115     1
  113   118     1
  113   119     1
  113   124     1
  114   116     1
  114   117     1
  115   120     1
  115   121     1
  115   122     1
  115   125     1
  115   126     1
  116   118     1
  116   119     1
  116   124     1
  117   123     1
  117   127     1
  117   128     1
  118   120     1
  118   121     1
  118   122     1
  118   125     1
  118   126     1
  119   125     1
  119   126     1
  120   123     1
  120   124     1
  121   123     1
  121   124     1
  122   124     1
  124   129     1
  124   130     1
  124   131     1
  125   127     1
  125   128     1
  126   132     1
  126   133     1
  127   129     1
  127   130     1
  127   131     1
  129   132     1
  129   133     1
  130   132     1
  130   133     1

[ angles ] 
; ai	aj	ak	funct	th0	cth	S0	Kub
    2     1     3     5
    2     1     4     5
    2     1     5     5
    3     1     4     5
    3     1     5     5
    4     1     5     5
    1     5     6     5
    1     5     7     5
    1     5     8     5
    6     5     7     5
    6     5     8     5
    7     5     8     5
    5     8     9     5
    5     8    10     5
    9     8    10     5
    8    10    11     5
    8    10    12     5
   11    10    12     5
   10    12    13     5
   10    12    14     5
   10    12    19     5
   13    12    14     5
   13    12    19     5
   14    12    19     5
   12    14    15     5
   12    14    16     5
   12    14    17     5
   15    14    16     5
   15    14    17     5
   16    14    17     5
   14    17    18     5
   12    19    20     5
   12    19    21     5
   20    19    21     5
   19    21    22     5
   19    21    23     5
   22    21    23     5
   21    23    24     5
   21    23    25     5
   21    23    26     5
   24    23    25     5
   24    23    26     5
   25    23    26     5
   23    26    27     5
   23    26    28     5
   27    26    28     5
   26    28    29     5
   26    28    30     5
   29    28    30     5
   28    30    31     5
   28    30    32     5
   28    30    38     5
   31    30    32     5
   31    30    38     5
   32    30    38     5
   30    32    33     5
   30    32    34     5
   30    32    35     5
   33    32    34     5
   33    32    35     5
   34    32    35     5
   32    35    36     5
   32    35    37     5
   36    35    37     5
   30    38    39     5
   30    38    40     5
   39    38    40     5
   38    40    41     5
   38    40    44     5
   41    40    44     5
   40    41    42     5
   40    41    43     5
   40    41    49     5
   42    41    43     5
   42    41    49     5
   43    41    49     5
   40    44    45     5
   40    44    46     5
   40    44    52     5
   45    44    46     5
   45    44    52     5
   46    44    52     5
   44    46    47     5
   44    46    48     5
   44    46    49     5
   47    46    48     5
   47    46    49     5
   48    46    49     5
   41    49    46     5
   41    49    50     5
   41    49    51     5
   46    49    50     5
   46    49    51     5
   50    49    51     5
   44    52    53     5
   44    52    54     5
   53    52    54     5
   52    54    55     5
   52    54    56     5
   55    54    56     5
   54    56    57     5
   54    56    58     5
   54    56    59     5
   57    56    58     5
   57    56    59     5
   58    56    59     5
   56    59    60     5
   56    59    61     5
   60    59    61     5
   59    61    62     5
   59    61    63     5
   62    61    63     5
   61    63    64     5
   61    63    65     5
   61    63    73     5
   64    63    65     5
   64    63    73     5
   65    63    73     5
   63    65    66     5
   63    65    67     5
   63    65    68     5
   66    65    67     5
   66    65    68     5
   67    65    68     5
   65    68    69     5
   65    68    70     5
   69    68    70     5
   68    70    71     5
   68    70    72     5
   71    70    72     5
   63    73    74     5
   63    73    75     5
   74    73    75     5
   73    75    76     5
   73    75    77     5
   76    75    77     5
   75    77    78     5
   75    77    79     5
   75    77    80     5
   78    77    79     5
   78    77    80     5
   79    77    80     5
   77    80    81     5
   77    80    82     5
   81    80    82     5
   80    82    83     5
   80    82    84     5
   83    82    84     5
   82    84    85     5
   82    84    86     5
   82    84    92     5
   85    84    86     5
   85    84    92     5
   86    84    92     5
   84    86    87     5
   84    86    88     5
   84    86    89     5
   87    86    88     5
   87    86    89     5
   88    86    89     5
   86    89    90     5
   86    89    91     5
   90    89    91     5
   84    92    93     5
   84    92    94     5
   93    92    94     5
   92    94    95     5
   92    94    98     5
   95    94    98     5
   94    95    96     5
   94    95    97     5
   94    95   103     5
   96    95    97     5
   96    95   103     5
   97    95   103     5
   94    98    99     5
   94    98   100     5
   94    98   106     5
   99    98   100     5
   99    98   106     5
  100    98   106     5
   98   100   101     5
   98   100   102     5
   98   100   103     5
  101   100   102     5
  101   100   103     5
  102   100   103     5
   95   103   100     5
   95   103   104     5
   95   103   105     5
  100   103   104     5
  100   103   105     5
  104   103   105     5
   98   106   107     5
   98   106   108     5
  107   106   108     5
  106   108   109     5
  106   108   110     5
  109   108   110     5
  108   110   111     5
  108   110   112     5
  108   110   113     5
  111   110   112     5
  111   110   113     5
  112   110   113     5
  110   113   114     5
  110   113   115     5
  114   113   115     5
  113   115   116     5
  113   115   117     5
  116   115   117     5
  115   117   118     5
  115   117   119     5
  115   117   124     5
  118   117   119     5
  118   117   124     5
  119   117   124     5
  117   119   120     5
  117   119   121     5
  117   119   122     5
  120   119   121     5
  120   119   122     5
  121   119   122     5
  119   122   123     5
  117   124   125     5
  117   124   126     5
  125   124   126     5
  124   126   127     5
  124   126   128     5
  127   126   128     5
  126   128   129     5
  126   128   130     5
  126   128   131     5
  129   128   130     5
  129   128   131     5
  130   128   131     5
  128   131   132     5
  128   131   133     5
  132   131   133     5

[ dihedrals ]
; ai	aj	ak	al	funct	phi0	cp	mult
    2     1     5     6     9
    2     1     5     7     9
    2     1     5     8     9
    3     1     5     6     9
    3     1     5     7     9
    3     1     5     8     9
    4     1     5     6     9
    4     1     5     7     9
    4     1     5     8     9
    1     5     8     9     9
    1     5     8    10     9
    6     5     8     9     9
    6     5     8    10     9
    7     5     8     9     9
    7     5     8    10     9
    5     8    10    11     9
    5     8    10    12     9
    9     8    10    11     9
    9     8    10    12     9
    8    10    12    13     9
    8    10    12    14     9
    8    10    12    19     9
   11    10    12    13     9
   11    10    12    14     9
   11    10    12    19     9
   10    12    14    15     9
   10    12    14    16     9
   10    12    14    17     9
   13    12    14    15     9
   13    12    14    16     9
   13    12    14    17     9
   10    12    19    20     9
   10    12    19    21     9
   13    12    19    20     9
   13    12    19    21     9
   14    12    19    20     9
   14    12    19    21     9
   15    14    12    19     9
   16    14    12    19     9
   17    14    12    19     9
   12    14    17    18     9
   15    14    17    18     9
   16    14    17    18     9
   12    19    21    22     9
   12    19    21    23     9
   20    19    21    22     9
   20    19    21    23     9
   19    21    23    24     9
   19    21    23    25     9
   19    21    23    26     9
   22    21    23    24     9
   22    21    23    25     9
   22    21    23    26     9
   21    23    26    27     9
   21    23    26    28     9
   24    23    26    27     9
   24    23    26    28     9
   25    23    26    27     9
   25    23    26    28     9
   23    26    28    29     9
   23    26    28    30     9
   27    26    28    29     9
   27    26    28    30     9
   26    28    30    31     9
   26    28    30    32     9
   26    28    30    38     9
   29    28    30    31     9
   29    28    30    32     9
   29    28    30    38     9
   28    30    32    33     9
   28    30    32    34     9
   28    30    32    35     9
   31    30    32    33     9
   31    30    32    34     9
   31    30    32    35     9
   28    30    38    39     9
   28    30    38    40     9
   31    30    38    39     9
   31    30    38    40     9
   32    30    38    39     9
   32    30    38    40     9
   33    32    30    38     9
   34    32    30    38     9
   35    32    30    38     9
   30    32    35    36     9
   30    32    35    37     9
   33    32    35    36     9
   33    32    35    37     9
   34    32    35    36     9
   34    32    35    37     9
   30    38    40    41     9
   30    38    40    44     9
   39    38    40    41     9
   39    38    40    44     9
   38    40    41    42     9
   38    40    41    43     9
   38    40    41    49     9
   44    40    41    49     9
   38    40    44    45     9
   38    40    44    46     9
   38    40    44    52     9
   41    40    44    45     9
   41    40    44    46     9
   41    40    44    52     9
   42    41    40    44     9
   43    41    40    44     9
   40    41    49    46     9
   40    41    49    50     9
   40    41    49    51     9
   42    41    49    46     9
   42    41    49    50     9
   42    41    49    51     9
   43    41    49    46     9
   43    41    49    50     9
   43    41    49    51     9
   40    44    46    47     9
   40    44    46    48     9
   40    44    46    49     9
   45    44    46    47     9
   45    44    46    48     9
   45    44    46    49     9
   40    44    52    53     9
   40    44    52    54     9
   45    44    52    53     9
   45    44    52    54     9
   46    44    52    53     9
   46    44    52    54     9
   47    46    44    52     9
   48    46    44    52     9
   49    46    44    52     9
   44    46    49    50     9
   44    46    49    51     9
   47    46    49    50     9
   47    46    49    51     9
   48    46    49    50     9
   48    46    49    51     9
   41    49    46    44     9
   41    49    46    47     9
   41    49    46    48     9
   44    52    54    55     9
   44    52    54    56     9
   53    52    54    55     9
   53    52    54    56     9
   52    54    56    57     9
   52    54    56    58     9
   52    54    56    59     9
   55    54    56    57     9
   55    54    56    58     9
   55    54    56    59     9
   54    56    59    60     9
   54    56    59    61     9
   57    56    59    60     9
   57    56    59    61     9
   58    56    59    60     9
   58    56    59    61     9
   56    59    61    62     9
   56    59    61    63     9
   60    59    61    62     9
   60    59    61    63     9
   59    61    63    64     9
   59    61    63    65     9
   59    61    63    73     9
   62    61    63    64     9
   62    61    63    65     9
   62    61    63    73     9
   61    63    65    66     9
   61    63    65    67     9
   61    63    65    68     9
   64    63    65    66     9
   64    63    65    67     9
   64    63    65    68     9
   61    63    73    74     9
   61    63    73    75     9
   64    63    73    74     9
   64    63    73    75     9
   65    63    73    74     9
   65    63    73    75     9
   66    65    63    73     9
   67    65    63    73     9
   68    65    63    73     9
   63    65    68    69     9
   63    65    68    70     9
   66    65    68    69     9
   66    65    68    70     9
   67    65    68    69     9
   67    65    68    70     9
   65    68    70    71     9
   65    68    70    72     9
   69    68    70    71     9
   69    68    70    72     9
   63    73    75    76     9
   63    73    75    77     9
   74    73    75    76     9
   74    73    75    77     9
   73    75    77    78     9
   73    75    77    79     9
   73    75    77    80     9
   76    75    77    78     9
   76    75    77    79     9
   76    75    77    80     9
   75    77    80    81     9
   75    77    80    82     9
   78    77    80    81     9
   78    77    80    82     9
   79    77    80    81     9
   79    77    80    82     9
   77    80    82    83     9
   77    80    82    84     9
   81    80    82    83     9
   81    80    82    84     9
   80    82    84    85     9
   80    82    84    86     9
   80    82    84    92     9
   83    82    84    85     9
   83    82    84    86     9
   83    82    84    92     9
   82    84    86    87     9
   82    84    86    88     9
   82    84    86    89     9
   85    84    86    87     9
   85    84    86    88     9
   85    84    86    89     9
   82    84    92    93     9
   82    84    92    94     9
   85    84    92    93     9
   85    84    92    94     9
   86    84    92    93     9
   86    84    92    94     9
   87    86    84    92     9
   88    86    84    92     9
   89    86    84    92     9
   84    86    89    90     9
   84    86    89    91     9
   87    86    89    90     9
   87    86    89    91     9
   88    86    89    90     9
   88    86    89    91     9
   84    92    94    95     9
   84    92    94    98     9
   93    92    94    95     9
   93    92    94    98     9
   92    94    95    96     9
   92    94    95    97     9
   92    94    95   103     9
   98    94    95   103     9
   92    94    98    99     9
   92    94    98   100     9
   92    94    98   106     9
   95    94    98    99     9
   95    94    98   100     9
   95    94    98   106     9
   96    95    94    98     9
   97    95    94    98     9
   94    95   103   100     9
   94    95   103   104     9
   94    95   103   105     9
   96    95   103   100     9
   96    95   103   104     9
   96    95   103   105     9
   97    95   103   100     9
   97    95   103   104     9
   97    95   103   105     9
   94    98   100   101     9
   94    98   100   102     9
   94    98   100   103     9
   99    98   100   101     9
   99    98   100   102     9
   99    98   100   103     9
   94    98   106   107     9
   94    98   106   108     9
   99    98   106   107     9
   99    98   106   108     9
  100    98   106   107     9
  100    98   106   108     9
  101   100    98   106     9
  102   100    98   106     9
  103   100    98   106     9
   98   100   103   104     9
   98   100   103   105     9
  101   100   103   104     9
  101   100   103   105     9
  102   100   103   104     9
  102   100   103   105     9
   95   103   100    98     9
   95   103   100   101     9
   95   103   100   102     9
   98   106   108   109     9
   98   106   108   110     9
  107   106   108   109     9
  107   106   108   110     9
  106   108   110   111     9
  106   108   110   112     9
  106   108   110   113     9
  109   108   110   111     9
  109   108   110   112     9
  109   108   110   113     9
  108   110   113   114     9
  108   110   113   115     9
  111   110   113   114     9
  111   110   113   115     9
  112   110   113   114     9
  112   110   113   115     9
  110   113   115   116     9
  110   113   115   117     9
  114   113   115   116     9
  114   113   115   117     9
  113   115   117   118     9
  113   115   117   119     9
  113   115   117   124     9
  116   115   117   118     9
  116   115   117   119     9
  116   115   117   124     9
  115   117   119   120     9
  115   117   119   121     9
  115   117   119   122     9
  118   117   119   120     9
  118   117   119   121     9
  118   117   119   122     9
  115   117   124   125     9
  115   117   124   126     9
  118   117   124   125     9
  118   117   124   126     9
  119   117   124   125     9
  119   117   124   126     9
  120   119   117   124     9
  121   119   117   124     9
  122   119   117   124     9
  117   119   122   123     9
  120   119   122   123     9
  121   119   122   123     9
  117   124   126   127     9
  117   124   126   128     9
  125   124   126   127     9
  125   124   126   128     9
  124   126   128   129     9
  124   126   128   130     9
  124   126   128   131     9
  127   126   128   129     9
  127   126   128   130     9
  127   126   128   131     9
  126   128   131   132     9
  126   128   131   133     9
  129   128   131   132     9
  129   128   131   133     9
  130   128   131   132     9
  130   128   131   133     9

[ dihedrals ]
; ai	aj	ak	al	funct	q0	cq
    8     5    10     9     2
   10     8    12    11     2
   19    12    21    20     2
   21    19    23    22     2
   26    23    28    27     2
   28    26    30    29     2
   35    32    37    36     2
   38    30    40    39     2
   40    38    44    41     2
   52    44    54    53     2
   54    52    56    55     2
   59    56    61    60     2
   61    59    63    62     2
   68    65    70    69     2
   68    70    65    69     2
   70    68    72    71     2
   70    68    71    72     2
   73    63    75    74     2
   75    73    77    76     2
   80    77    82    81     2
   82    80    84    83     2
   89    86    91    90     2
   92    84    94    93     2
   94    92    98    95     2
  106    98   108   107     2
  108   106   110   109     2
  113   110   115   114     2
  115   113   117   116     2
  124   117   126   125     2
  126   124   128   127     2
  131   128   133   132     2

[ cmap ] 
; ai	aj	ak	al	am	funct
    8    10    12    19    21     1
   19    21    23    26    28     1
   26    28    30    38    40     1
   38    40    44    52    54     1
   52    54    56    59    61     1
   59    61    63    73    75     1
   73    75    77    80    82     1
   80    82    84    92    94     1
   92    94    98   106   108     1
  106   108   110   113   115     1
  113   115   117   124   126     1

#ifdef POSRES
[ position_restraints ]
    1     1    POSRES_FC_BB    POSRES_FC_BB    POSRES_FC_BB   
    5     1    POSRES_FC_BB    POSRES_FC_BB    POSRES_FC_BB   
    8     1    POSRES_FC_BB    POSRES_FC_BB    POSRES_FC_BB   
    9     1    POSRES_FC_BB    POSRES_FC_BB    POSRES_FC_BB   
   10     1    POSRES_FC_BB    POSRES_FC_BB    POSRES_FC_BB   
   12     1    POSRES_FC_BB    POSRES_FC_BB    POSRES_FC_BB   
   14     1    POSRES_FC_SC    POSRES_FC_SC    POSRES_FC_SC   
   17     1    POSRES_FC_SC    POSRES_FC_SC    POSRES_FC_SC   
   19     1    POSRES_FC_BB    POSRES_FC_BB    POSRES_FC_BB   
   20     1    POSRES_FC_BB    POSRES_FC_BB    POSRES_FC_BB   
   21     1    POSRES_FC_BB    POSRES_FC_BB    POSRES_FC_BB   
   23     1    POSRES_FC_BB    POSRES_FC_BB    POSRES_FC_BB   
   26     1    POSRES_FC_BB    POSRES_FC_BB    POSRES_FC_BB   
   27     1    POSRES_FC_BB    POSRES_FC_BB    POSRES_FC_BB   
   28     1    POSRES_FC_BB    POSRES_FC_BB    POSRES_FC_BB   
   30     1    POSRES_FC_BB    POSRES_FC_BB    POSRES_FC_BB   
   32     1    POSRES_FC_SC    POSRES_FC_SC    POSRES_FC_SC   
   35     1    POSRES_FC_SC    POSRES_FC_SC    POSRES_FC_SC   
   36     1    POSRES_FC_SC    POSRES_FC_SC    POSRES_FC_SC   
   37     1    POSRES_FC_SC    POSRES_FC_SC    POSRES_FC_SC   
   38     1    POSRES_FC_BB    POSRES_FC_BB    POSRES_FC_BB   
   39     1    POSRES_FC_BB    POSRES_FC_BB    POSRES_FC_BB   
   40     1    POSRES_FC_BB    POSRES_FC_BB    POSRES_FC_BB   
   41     1    POSRES_FC_SC    POSRES_FC_SC    POSRES_FC_SC   
   44     1    POSRES_FC_BB    POSRES_FC_BB    POSRES_FC_BB   
   46     1    POSRES_FC_SC    POSRES_FC_SC    POSRES_FC_SC   
   49     1    POSRES_FC_SC    POSRES_FC_SC    POSRES_FC_SC   
   52     1    POSRES_FC_BB    POSRES_FC_BB    POSRES_FC_BB   
   53     1    POSRES_FC_BB    POSRES_FC_BB    POSRES_FC_BB   
   54     1    POSRES_FC_BB    POSRES_FC_BB    POSRES_FC_BB   
   56     1    POSRES_FC_BB    POSRES_FC_BB    POSRES_FC_BB   
   59     1    POSRES_FC_BB    POSRES_FC_BB    POSRES_FC_BB   
   60     1    POSRES_FC_BB    POSRES_FC_BB    POSRES_FC_BB   
   61     1    POSRES_FC_BB    POSRES_FC_BB    POSRES_FC_BB   
   63     1    POSRES_FC_BB    POSRES_FC_BB    POSRES_FC_BB   
   65     1    POSRES_FC_SC    POSRES_FC_SC    POSRES_FC_SC   
   68     1    POSRES_FC_SC    POSRES_FC_SC    POSRES_FC_SC   
   69     1    POSRES_FC_SC    POSRES_FC_SC    POSRES_FC_SC   
   70     1    POSRES_FC_SC    POSRES_FC_SC    POSRES_FC_SC   
   73     1    POSRES_FC_BB    POSRES_FC_BB    POSRES_FC_BB   
   74     1    POSRES_FC_BB    POSRES_FC_BB    POSRES_FC_BB   
   75     1    POSRES_FC_BB    POSRES_FC_BB    POSRES_FC_BB   
   77     1    POSRES_FC_BB    POSRES_FC_BB    POSRES_FC_BB   
   80     1    POSRES_FC_BB    POSRES_FC_BB    POSRES_FC_BB   
   81     1    POSRES_FC_BB    POSRES_FC_BB    POSRES_FC_BB   
   82     1    POSRES_FC_BB    POSRES_FC_BB    POSRES_FC_BB   
   84     1    POSRES_FC_BB    POSRES_FC_BB    POSRES_FC_BB   
   86     1    POSRES_FC_SC    POSRES_FC_SC    POSRES_FC_SC   
   89     1    POSRES_FC_SC    POSRES_FC_SC    POSRES_FC_SC   
   90     1    POSRES_FC_SC    POSRES_FC_SC    POSRES_FC_SC   
   91     1    POSRES_FC_SC    POSRES_FC_SC    POSRES_FC_SC   
   92     1    POSRES_FC_BB    POSRES_FC_BB    POSRES_FC_BB   
   93     1    POSRES_FC_BB    POSRES_FC_BB    POSRES_FC_BB   
   94     1    POSRES_FC_BB    POSRES_FC_BB    POSRES_FC_BB   
   95     1    POSRES_FC_SC    POSRES_FC_SC    POSRES_FC_SC   
   98     1    POSRES_FC_BB    POSRES_FC_BB    POSRES_FC_BB   
  100     1    POSRES_FC_SC    POSRES_FC_SC    POSRES_FC_SC   
  103     1    POSRES_FC_SC    POSRES_FC_SC    POSRES_FC_SC   
  106     1    POSRES_FC_BB    POSRES_FC_BB    POSRES_FC_BB   
  107     1    POSRES_FC_BB    POSRES_FC_BB    POSRES_FC_BB   
  108     1    POSRES_FC_BB    POSRES_FC_BB    POSRES_FC_BB   
  110     1    POSRES_FC_BB    POSRES_FC_BB    POSRES_FC_BB   
  113     1    POSRES_FC_BB    POSRES_FC_BB    POSRES_FC_BB   
  114     1    POSRES_FC_BB    POSRES_FC_BB    POSRES_FC_BB   
  115     1    POSRES_FC_BB    POSRES_FC_BB    POSRES_FC_BB   
  117     1    POSRES_FC_BB    POSRES_FC_BB    POSRES_FC_BB   
  119     1    POSRES_FC_SC    POSRES_FC_SC    POSRES_FC_SC   
  122     1    POSRES_FC_SC    POSRES_FC_SC    POSRES_FC_SC   
  124     1    POSRES_FC_BB    POSRES_FC_BB    POSRES_FC_BB   
  125     1    POSRES_FC_BB    POSRES_FC_BB    POSRES_FC_BB   
  126     1    POSRES_FC_BB    POSRES_FC_BB    POSRES_FC_BB   
  128     1    POSRES_FC_BB    POSRES_FC_BB    POSRES_FC_BB   
  131     1    POSRES_FC_BB    POSRES_FC_BB    POSRES_FC_BB   
  132     1    POSRES_FC_SC    POSRES_FC_SC    POSRES_FC_SC   
  133     1    POSRES_FC_SC    POSRES_FC_SC    POSRES_FC_SC   
#endif
