Title
44434
    1GLY      N    1   4.393   3.555   5.939 -0.4951  0.7866  0.4434
    1GLY    HT1    2   4.348   3.468   5.975 -0.7822  0.6489 -0.2197
    1GLY    HT2    3   4.330   3.589   5.863  0.4303 -0.6192 -1.0265
    1GLY    HT3    4   4.405   3.623   6.016 -0.0123 -0.3100  1.3656
    1GLY     CA    5   4.520   3.513   5.869 -0.1552  0.2947  0.0318
    1GLY    HA1    6   4.479   3.432   5.809 -2.1455  2.5566 -1.8666
    1GLY    HA2    7   4.602   3.497   5.937 -0.0578 -2.1146 -0.5628
    1GLY      C    8   4.569   3.626   5.780  1.2415 -0.6300 -0.6801
    1GLY      O    9   4.521   3.736   5.800 -0.4773  0.7319 -0.0322
    2PRO      N   10   4.657   3.615   5.691  0.2279  0.2660 -0.1685
    2PRO     CD   11   4.722   3.482   5.665 -0.1049 -0.3583  0.7197
    2PRO    HD1   12   4.650   3.416   5.610 -0.4071 -1.1034  1.9787
    2PRO    HD2   13   4.753   3.427   5.756  2.8842  0.1619  0.1102
    2PRO     CA   14   4.709   3.721   5.601 -0.0892 -0.1939 -0.1232
    2PRO     HA   15   4.765   3.785   5.667 -3.0252  0.5354  1.8791
    2PRO     CB   16   4.797   3.646   5.496  0.0451  0.0870 -0.2723
    2PRO    HB1   17   4.879   3.712   5.461 -0.5701  1.2408  0.4210
    2PRO    HB2   18   4.738   3.607   5.411  0.5524 -0.5689 -0.3345
    2PRO     CG   19   4.845   3.520   5.578  0.4439 -0.4289  0.1376
    2PRO    HG1   20   4.875   3.431   5.518 -0.2162 -1.7308  1.6684
    2PRO    HG2   21   4.919   3.542   5.657 -0.3278  0.7626  0.5456
    2PRO      C   22   4.605   3.808   5.526 -0.3576  0.2501 -0.2760
    2PRO      O   23   4.505   3.744   5.485 -0.0414 -0.1709 -0.1805
    3GLY      N   24   4.634   3.944   5.511  0.2821 -0.3781 -0.4722
    3GLY     HN   25   4.715   3.977   5.557 -1.1464  2.0757  0.5022
    3GLY     CA   26   4.558   4.034   5.427 -0.4369  0.2615  0.0563
    3GLY    HA1   27   4.585   4.138   5.440  1.0099 -0.2689  1.7753
    3GLY    HA2   28   4.454   4.019   5.452 -0.1390 -0.2654  1.0336
    3GLY      C   29   4.563   3.994   5.281  0.5580  0.4742  0.4044
    3GLY      O   30   4.641   3.903   5.252 -0.6860  0.2837 -0.2491
    4ASP      N   31   4.475   4.047   5.194 -0.1536 -0.2302  0.7200
    4ASP     HN   32   4.416   4.124   5.218  0.6014 -0.0213  1.9585
    4ASP     CA   33   4.468   4.012   5.046  0.3051 -0.2367 -0.2357
    4ASP     HA   34   4.451   3.905   5.050 -0.4480 -0.1340 -0.4140
    4ASP     CB   35   4.355   4.100   4.995 -0.4516  0.5439  0.2577
    4ASP    HB1   36   4.354   4.104   4.884  0.5399 -2.2787  0.0864
    4ASP    HB2   37   4.361   4.208   5.021  0.6227  0.6666 -0.4512
    4ASP     CG   38   4.227   4.046   5.034 -0.4013 -0.5436  0.6806
    4ASP    OD1   39   4.220   3.922   5.053 -0.8232 -0.2086  0.6343
    4ASP    OD2   40   4.123   4.116   5.041 -0.2722 -0.5509 -0.1460
    4ASP      C   41   4.596   4.033   4.962  0.5772 -0.4507  0.2702
    4ASP      O   42   4.666   4.131   4.977 -0.2107  0.2731  0.1761
    5PRO      N   43   4.611   3.946   4.862  0.6322 -0.4302  0.8821
    5PRO     CD   44   4.509   3.854   4.811 -0.5653  0.5312 -0.4574
    5PRO    HD1   45   4.414   3.911   4.806 -0.8649  0.1056  0.1046
    5PRO    HD2   46   4.490   3.763   4.873 -1.7069  0.9267 -0.1903
    5PRO     CA   47   4.710   3.965   4.762 -0.1953  0.1325  0.1926
    5PRO     HA   48   4.810   3.961   4.801 -0.6018 -1.7949  1.1266
    5PRO     CB   49   4.695   3.844   4.672 -0.2851 -0.9132  0.1430
    5PRO    HB1   50   4.746   3.766   4.732  0.6117  0.4383  1.2237
    5PRO    HB2   51   4.740   3.857   4.571 -0.3917 -0.4556  0.1531
    5PRO     CG   52   4.551   3.810   4.671  0.8420  0.2403  0.1931
    5PRO    HG1   53   4.490   3.868   4.598  0.5473  0.0070  0.2528
    5PRO    HG2   54   4.522   3.704   4.654 -1.0315  0.5772  0.9978
    5PRO      C   55   4.702   4.099   4.678 -0.4421  0.2033  0.0529
    5PRO      O   56   4.590   4.140   4.647 -0.5335  0.2310 -0.1782
    6GLY      N   57   4.812   4.179   4.638 -0.2526 -0.5377  0.4891
    6GLY     HN   58   4.898   4.149   4.680 -0.0014  0.3606  0.6424
    6GLY     CA   59   4.804   4.304   4.571 -0.1932 -0.0878 -0.5044
    6GLY    HA1   60   4.902   4.348   4.566  0.8208 -2.1605 -0.1207
    6GLY    HA2   61   4.743   4.370   4.631  1.9380  2.7795 -1.2787
    6GLY      C   62   4.752   4.305   4.425  0.2288  0.2534 -0.5205
    6GLY      O   63   4.738   4.206   4.354 -1.0294  0.0029  0.4542
    7SER      N   64   4.719   4.428   4.378 -0.2377 -0.4870  0.1779
    7SER     HN   65   4.730   4.506   4.439  0.3491  0.0196 -0.5585
    7SER     CA   66   4.678   4.463   4.242  0.3707 -0.6203 -0.0874
    7SER     HA   67   4.598   4.395   4.217  0.1414 -1.7749  3.2181
    7SER     CB   68   4.636   4.614   4.219  0.3165  0.5711 -0.5782
    7SER    HB1   69   4.597   4.628   4.116 -0.9005  0.5488 -0.1479
    7SER    HB2   70   4.718   4.684   4.244 -0.7195  1.5440  0.2321
    7SER     OG   71   4.526   4.648   4.305  0.7209  1.0811  0.8994
    7SER    HG1   72   4.503   4.740   4.288  0.1439  0.6958 -0.5392
    7SER      C   73   4.791   4.430   4.144  0.2821 -0.0835 -0.1394
    7SER      O   74   4.911   4.437   4.172  0.4309  0.0550  0.2500
    8GLY      N   75   4.749   4.390   4.023  0.8336  0.1604  0.0253
    8GLY     HN   76   4.654   4.391   3.994  1.7996 -1.5826 -3.7974
    8GLY     CA   77   4.835   4.349   3.909  0.3974 -0.2888  0.0454
    8GLY    HA1   78   4.769   4.315   3.830  2.2335  0.5056 -1.9179
    8GLY    HA2   79   4.900   4.271   3.945  1.3256  0.8629  0.9190
    8GLY      C   80   4.920   4.460   3.859  0.1269  0.3694  0.1369
    8GLY      O   81   4.891   4.577   3.875  0.3352 -0.0345 -0.1669
    9ASN      N   82   5.030   4.423   3.796 -0.2853 -1.1794  0.1864
    9ASN     HN   83   5.045   4.326   3.778 -1.8889 -1.0901 -2.0042
    9ASN     CA   84   5.131   4.517   3.744 -0.3443 -0.7427 -0.8804
    9ASN     HA   85   5.116   4.615   3.787 -1.0405 -1.3671  0.3583
    9ASN     CB   86   5.266   4.458   3.789 -0.4179  0.0676 -0.4340
    9ASN    HB1   87   5.304   4.374   3.727 -0.9454 -0.2344 -0.3455
    9ASN    HB2   88   5.270   4.422   3.894  3.6510  1.8154  0.2169
    9ASN     CG   89   5.376   4.565   3.773 -0.1596 -0.2428 -0.4136
    9ASN    OD1   90   5.346   4.684   3.751  0.5053 -0.3568 -0.3684
    9ASN    ND2   91   5.505   4.514   3.761  0.9766 -0.3236 -0.6686
    9ASN   HD21   92   5.585   4.573   3.771  1.3271 -1.0040  0.8030
    9ASN   HD22   93   5.520   4.415   3.756  1.0728 -0.2702 -1.8406
    9ASN      C   94   5.120   4.513   3.595 -0.2915  0.2948  0.4083
    9ASN      O   95   5.156   4.408   3.534 -0.0838  0.3845 -0.0970
   10PRO      N   96   5.063   4.619   3.531 -0.4163  0.0966  1.3450
   10PRO     CD   97   5.031   4.750   3.591 -0.0722 -0.1092  0.1170
   10PRO    HD1   98   5.126   4.796   3.627  0.7917 -2.0299  0.4321
   10PRO    HD2   99   4.966   4.720   3.675 -0.5207  2.3093  0.7147
   10PRO     CA  100   5.065   4.633   3.383 -0.1189 -0.4948  0.5317
   10PRO     HA  101   4.998   4.560   3.341 -0.4735 -0.3038  0.7659
   10PRO     CB  102   5.039   4.785   3.358  0.1450 -0.0349  0.3404
   10PRO    HB1  103   4.998   4.809   3.258  3.5407  1.4769 -0.8249
   10PRO    HB2  104   5.137   4.835   3.374 -0.1898  1.1541 -1.0904
   10PRO     CG  105   4.963   4.830   3.475  0.2964 -0.2533 -0.3891
   10PRO    HG1  106   4.974   4.937   3.502 -0.3178 -0.4259  0.5816
   10PRO    HG2  107   4.856   4.804   3.460 -0.0117  1.5508 -1.5576
   10PRO      C  108   5.197   4.596   3.318  0.2789  0.3224  0.2536
   10PRO      O  109   5.300   4.639   3.373 -0.1890 -0.0180  0.0365
   11GLY      N  110   5.200   4.513   3.208 -0.2713  0.0604 -0.3047
   11GLY     HN  111   5.120   4.467   3.170  0.5942 -1.9324  0.1485
   11GLY     CA  112   5.319   4.495   3.133 -0.1658 -0.3298 -0.6094
   11GLY    HA1  113   5.291   4.415   3.065 -1.5478 -2.1474  1.9005
   11GLY    HA2  114   5.401   4.468   3.198 -0.0330 -2.1413 -1.4473
   11GLY      C  115   5.355   4.610   3.044 -1.4079  0.2299  0.0767
   11GLY      O  116   5.287   4.714   3.036  0.4391  0.2845 -0.0296
   12SER      N  117   5.463   4.592   2.972 -0.0075 -0.0876  0.0984
   12SER     HN  118   5.516   4.510   2.992  0.1537  0.2817  1.2687
   12SER     CA  119   5.532   4.695   2.895 -0.0406 -0.4989  0.3528
   12SER     HA  120   5.469   4.721   2.811 -1.4440 -1.1551  1.1724
   12SER     CB  121   5.569   4.825   2.973 -0.3801 -0.2499 -0.3156
   12SER    HB1  122   5.641   4.804   3.054  0.9177 -0.6409 -1.5317
   12SER    HB2  123   5.478   4.880   3.005  0.1897 -1.3538  3.6241
   12SER     OG  124   5.635   4.923   2.890  0.4769  0.0253 -0.1356
   12SER    HG1  125   5.725   4.890   2.883 -0.0816 -1.4544 -0.8823
   12SER      C  126   5.659   4.630   2.833  0.1111  0.0514 -0.9949
   12SER      O  127   5.748   4.592   2.908 -0.6825  0.1249  0.1049
   13GLY      N  128   5.664   4.599   2.703  0.1691 -0.9462 -0.7996
   13GLY     HN  129   5.578   4.609   2.652 -0.0704 -0.5974 -0.3304
   13GLY     CA  130   5.767   4.527   2.631  0.1431  0.0040  0.0708
   13GLY    HA1  131   5.738   4.520   2.528  2.2346  1.2031 -0.6678
   13GLY    HA2  132   5.782   4.428   2.671  1.2943 -0.1681 -0.7494
   13GLY      C  133   5.900   4.599   2.632 -0.6450  0.0675 -0.4383
   13GLY      O  134   5.923   4.702   2.692  0.1600 -0.3480  0.2105
   14ASP      N  135   5.993   4.549   2.553 -0.0916 -0.3122 -0.0268
   14ASP     HN  136   5.969   4.461   2.512  1.8924 -0.9465  0.0368
   14ASP     CA  137   6.129   4.605   2.522 -0.2332 -0.3272 -0.1050
   14ASP     HA  138   6.169   4.623   2.621  1.9964  0.6254 -1.1020
   14ASP     CB  139   6.217   4.507   2.446 -0.3041  0.4436  0.0935
   14ASP    HB1  140   6.316   4.552   2.424 -0.6005  1.7369  1.2461
   14ASP    HB2  141   6.166   4.470   2.354  1.9662 -0.8107 -0.7304
   14ASP     CG  142   6.252   4.390   2.531  0.4232  0.4040  1.0293
   14ASP    OD1  143   6.306   4.286   2.480 -0.2548 -0.4073 -0.3152
   14ASP    OD2  144   6.243   4.410   2.655  0.2056 -0.4697 -0.3581
   14ASP      C  145   6.135   4.736   2.445  0.6780 -0.7964  0.1326
   14ASP      O  146   6.053   4.753   2.355 -0.4104  0.1648  0.6668
   15PRO      N  147   6.232   4.827   2.464 -0.5930 -0.1120 -0.1577
   15PRO     CD  148   6.307   4.844   2.581 -0.3749 -0.0016 -0.6562
   15PRO    HD1  149   6.389   4.769   2.581 -0.0189  0.3813 -0.3533
   15PRO    HD2  150   6.240   4.835   2.669 -1.4309  0.0234 -1.4408
   15PRO     CA  151   6.235   4.948   2.381  0.0169 -0.3976 -0.1681
   15PRO     HA  152   6.142   5.002   2.386  1.4806  2.5308 -1.8122
   15PRO     CB  153   6.346   5.039   2.428 -0.3766  0.1620  0.4148
   15PRO    HB1  154   6.331   5.149   2.419  1.8761  0.4774  0.1179
   15PRO    HB2  155   6.442   5.010   2.380  0.0760 -1.9650  2.4218
   15PRO     CG  156   6.369   4.986   2.570 -0.7921 -0.6396 -0.4223
   15PRO    HG1  157   6.479   4.972   2.583 -0.3124  1.1894 -2.0418
   15PRO    HG2  158   6.323   5.059   2.640 -1.8877 -2.6739  1.0864
   15PRO      C  159   6.256   4.911   2.239 -0.4162 -0.3786 -1.2693
   15PRO    OT1  160   6.362   4.848   2.208  0.4146  0.7640 -0.4618
   15PRO    OT2  161   6.185   4.961   2.152 -0.3977 -0.0459 -0.1680
   16LIT    LIT  162   4.064   3.972   5.166  0.3476  0.3459 -0.0072
   17LIT    LIT  163   4.909   3.944   2.926  0.3144 -0.1681 -0.0561
   18LIT    LIT  164   6.621   2.609   0.838 -0.5373 -0.2991 -0.2393
   19LIT    LIT  165   2.835   4.529   5.751  0.1211 -0.1634 -1.3120
   20LIT    LIT  166   6.584   4.326   3.668 -0.0977  0.3671 -0.1247
   21LIT    LIT  167   4.551   0.553   1.960  0.0870 -0.3235 -1.1509
   22LIT    LIT  168   3.941   6.526   0.505  0.4273  1.1708 -0.2404
   23LIT    LIT  169   6.518   1.108   2.911  0.3667  0.1539  0.2129
   24LIT    LIT  170   7.162   5.282   4.785 -0.2369 -1.1072  0.7749
   25LIT    LIT  171   4.980   7.802   4.210 -0.0436  0.4204  0.4058
   26LIT    LIT  172   1.865   3.935   3.086  0.2494  0.1554  0.0718
   27LIT    LIT  173   0.149   6.476   3.784  0.4050 -0.3024 -0.5578
   28LIT    LIT  174   7.497   2.677   1.919  1.2939 -0.8029  0.4772
   29LIT    LIT  175   7.504   1.113   2.676  0.0760  0.0836 -0.3100
   30LIT    LIT  176   4.625   7.457   4.868 -0.2851  0.8837 -0.6753
   31LIT    LIT  177   7.190   7.120   0.635  0.0674  0.1809  0.7236
   32LIT    LIT  178   3.181   3.694   5.016 -1.5275 -0.6132 -0.1387
   33LIT    LIT  179   4.872   0.101   1.931  0.2860 -0.3474 -0.0251
   34LIT    LIT  180   7.855   5.434   2.187  0.9892 -0.0029 -0.1380
   35LIT    LIT  181   4.052   5.220   0.392  1.1020 -0.3301  0.3026
   36LIT    LIT  182   5.659   5.688   0.686  0.7770 -0.1848 -0.6454
   37LIT    LIT  183   0.176   5.256   4.500  1.0448  0.5620  0.0177
   38LIT    LIT  184   8.272   7.625   1.122  0.6489  0.0296 -0.0227
   39LIT    LIT  185   2.346   0.861   5.785 -0.3366 -1.0111  0.0716
   40LIT    LIT  186   6.566   5.851   4.279 -0.2426 -0.4496  0.3301
   41LIT    LIT  187   6.293   4.858   2.033 -1.0564 -0.3961  0.6687
   42LIT    LIT  188   2.923   2.315   6.471 -0.7066 -1.0740 -1.1470
   43LIT    LIT  189   0.920   1.277   1.331 -0.4613  0.6578  0.7117
   44LIT    LIT  190   5.655   7.577   2.314  0.0469 -0.9862 -0.2356
   45LIT    LIT  191   0.146   1.757   2.006  0.1103 -0.1304 -0.6620
   46LIT    LIT  192   7.078   6.796   5.786 -0.0264 -0.2288 -1.1857
   47LIT    LIT  193   3.115   1.470   0.479  0.4450 -0.1809 -0.2070
   48LIT    LIT  194   7.654   5.946   5.960  0.8762 -0.1674 -0.6798
   49LIT    LIT  195   6.302   4.465   2.817  2.2040  0.4970  0.7523
   50LIT    LIT  196   4.943   2.313   3.241 -0.5232  1.0298 -0.2784
   51LIT    LIT  197   4.691   0.585   0.427  0.5909 -0.0532 -0.2729
   52LIT    LIT  198   8.229   2.908   5.935  0.2499  0.1194 -0.9446
   53LIT    LIT  199   2.667   4.694   4.306 -0.1441  0.6434 -0.2818
   54LIT    LIT  200   0.506   6.730   3.681  0.3981  0.6206  0.5871
   55LIT    LIT  201   0.846   1.619   5.264 -0.6213  0.8583 -0.8774
   56LIT    LIT  202   8.283   6.912   2.542 -0.5529  0.0499 -0.7845
   57LIT    LIT  203   6.092   1.704   1.810  0.6890  0.1802  0.0212
   58LIT    LIT  204   4.377   0.701   6.680  0.1938 -0.6229 -0.7307
   59LIT    LIT  205   5.168   5.022   1.744  1.0977 -0.1631  0.2248
   60CLA    CLA  206   1.944   1.353   4.513  0.2572 -0.4206  0.3610
   61CLA    CLA  207   6.766   4.234   5.994  0.1832 -0.0935 -0.1241
   62CLA    CLA  208   5.832   4.583   1.768 -0.1976  0.3111 -0.0412
   63CLA    CLA  209   1.756   3.343   1.839  0.0883  0.1586 -0.1110
   64CLA    CLA  210   7.977   0.651   6.493  0.2272  0.3784 -0.6307
   65CLA    CLA  211   5.681   0.323   1.768 -0.1313 -0.1814 -0.1332
   66CLA    CLA  212   4.670   1.727   5.696 -0.2593 -0.0100  0.1345
   67CLA    CLA  213   2.088   7.055   2.157  0.0374  0.2632 -0.0325
   68CLA    CLA  214   8.283   1.117   2.933 -0.0467  0.1003  0.4271
   69CLA    CLA  215   7.739   2.227   3.962 -0.0532 -0.5565  0.3283
   70CLA    CLA  216   5.303   5.879   0.474 -0.1231  0.0017  0.1124
   71CLA    CLA  217   1.596   1.985   6.493  0.1628  0.1020 -0.2066
   72CLA    CLA  218   5.501   3.505   3.670  0.1705  0.1244  0.2006
   73CLA    CLA  219   4.066   4.241   5.562 -0.3766  0.3081  0.3917
   74CLA    CLA  220   4.109   5.342   1.657 -0.2385  0.2564 -0.1505
   75CLA    CLA  221   5.654   0.542   5.147 -0.1912 -0.0245  0.1952
   76CLA    CLA  222   0.737   4.931   4.835  0.1090 -0.6370 -0.2681
   77CLA    CLA  223   3.444   2.392   5.452  0.2426 -0.1138 -0.0481
   78CLA    CLA  224   2.266   6.655   5.905 -0.1197 -0.1685 -0.4387
   79CLA    CLA  225   7.370   6.794   1.981 -0.0193  0.2401 -0.2458
   80CLA    CLA  226   0.691   6.563   6.732 -0.2734 -0.2539 -0.3585
   81CLA    CLA  227   6.257   1.556   1.753 -0.3725  0.3399  0.2626
   82CLA    CLA  228   0.737   1.602   5.949 -0.1545 -0.3372 -0.0275
   83CLA    CLA  229   1.502   4.247   4.184 -0.4872 -0.3286  0.0394
   84CLA    CLA  230   6.991   1.433   4.381 -0.0976 -0.3408 -0.0227
   85CLA    CLA  231   5.650   0.540   0.236 -0.1395 -0.1253  0.6209
   86CLA    CLA  232   6.601   3.147   1.912  0.2544  0.2047 -0.2558
   87CLA    CLA  233   7.073   5.711   2.844 -0.3656  0.2434 -0.0928
   88CLA    CLA  234   8.235   4.443   3.127 -0.2846  0.3270  0.2981
   89CLA    CLA  235   2.921   1.079   0.041 -0.1045  0.0653  0.0561
   90CLA    CLA  236   6.697   6.421   2.440 -0.0649  0.1197 -0.0676
   91CLA    CLA  237   1.888   5.710   6.448 -0.1568  0.1208  0.0602
   92CLA    CLA  238   6.432   7.417   0.314  0.4486  0.3152  0.2746
   93CLA    CLA  239   2.782   0.813   2.382  0.1810  0.2260  0.4245
   94CLA    CLA  240   5.352   6.336   6.392 -0.4902  0.0325 -0.2008
   95CLA    CLA  241   4.214   0.530   6.663 -0.2074  0.0397  0.0658
   96CLA    CLA  242   5.056   7.762   4.431  0.0024 -0.1485 -0.2048
   97CLA    CLA  243   6.769   5.459   4.454 -0.0373  0.1868  0.0750
   98CLA    CLA  244   2.607   3.109   4.761 -0.0147  0.2343  0.1248
   99CLA    CLA  245   6.091   7.036   4.979 -0.1991 -0.0886  0.0560
  100CLA    CLA  246   3.492   3.852   2.055  0.0334 -0.0689 -0.4878
  101CLA    CLA  247   0.911   0.837   0.872 -0.1184 -0.3319  0.5314
  102TIP3   OH2  248   3.963   1.650   4.190  0.4675 -0.3670  0.4703
  102TIP3    H1  249   3.978   1.665   4.284  0.7852  0.5003  0.2963
  102TIP3    H2  250   3.950   1.556   4.182 -0.8098 -0.3079  1.5578
  103TIP3   OH2  251   2.101   2.941   0.341 -0.5288 -0.4490  0.0131
  103TIP3    H1  252   2.179   2.886   0.350  0.1678  0.3626 -0.8419
  103TIP3    H2  253   2.038   2.887   0.293  0.2986 -0.3910 -1.1851
  104TIP3   OH2  254   5.022   5.164   1.087  0.0039 -0.6884  0.0071
  104TIP3    H1  255   4.940   5.125   1.117 -0.6311  0.7895  0.2628
  104TIP3    H2  256   5.081   5.089   1.075 -0.9144 -1.6483  1.2333
  105TIP3   OH2  257   5.222   6.324   2.187 -0.3903 -0.5416 -0.4457
  105TIP3    H1  258   5.240   6.235   2.154 -1.8425 -1.3656  0.8381
  105TIP3    H2  259   5.300   6.347   2.237  0.2362 -0.8383 -1.2526
  106TIP3   OH2  260   4.948   5.513   0.333 -0.1946  0.0941  0.4661
  106TIP3    H1  261   5.029   5.516   0.282 -0.0110  0.8861  0.7861
  106TIP3    H2  262   4.976   5.525   0.424 -0.2233 -3.9032  1.1842
  107TIP3   OH2  263   2.585   2.207   5.569  0.0997 -0.3196 -0.3923
  107TIP3    H1  264   2.490   2.212   5.566  0.0500  0.3655  1.4055
  107TIP3    H2  265   2.609   2.158   5.490 -1.7334 -0.6164 -0.8011
  108TIP3   OH2  266   3.243   6.064   6.510 -0.0847 -0.1447 -0.4147
  108TIP3    H1  267   3.336   6.086   6.514 -0.4801  1.6638  3.1866
  108TIP3    H2  268   3.216   6.091   6.422  2.7168 -0.7050 -1.5664
  109TIP3   OH2  269   4.474   1.291   1.528  0.0876  0.4990 -0.5033
  109TIP3    H1  270   4.489   1.314   1.436  2.0467  1.3517 -0.0427
  109TIP3    H2  271   4.449   1.373   1.569 -1.8885 -0.0916 -0.4183
  110TIP3   OH2  272   6.676   1.943   1.639  0.8481 -0.5546  0.5860
  110TIP3    H1  273   6.749   1.884   1.661  0.5642 -1.2581 -0.2761
  110TIP3    H2  274   6.617   1.888   1.587 -0.1797  0.0793  1.0746
  111TIP3   OH2  275   4.291   6.103   0.930 -0.1655  0.0330  0.1482
  111TIP3    H1  276   4.282   6.178   0.989 -1.3716 -0.4144  0.5542
  111TIP3    H2  277   4.250   6.030   0.977 -0.1799 -0.5816 -0.7960
  112TIP3   OH2  278   3.898   3.084   6.248 -0.5225  0.3021  0.6182
  112TIP3    H1  279   3.902   3.037   6.332 -1.6104 -0.2427  0.3831
  112TIP3    H2  280   3.922   3.174   6.270 -2.5255  0.5989  1.8844
  113TIP3   OH2  281   6.211   5.978   0.098 -0.1505 -0.0252  0.0793
  113TIP3    H1  282   6.191   5.894   0.138 -2.5739  1.4000  2.1984
  113TIP3    H2  283   6.263   5.957   0.021  0.1879 -3.3434  1.0845
  114TIP3   OH2  284   1.066   2.860   2.648 -0.1729 -0.4501  0.2114
  114TIP3    H1  285   1.116   2.941   2.656 -0.9568  0.1244 -0.5260
  114TIP3    H2  286   1.051   2.850   2.554  0.2537 -1.6713  0.2543
  115TIP3   OH2  287   7.721   4.820   1.674 -0.1091  0.1603 -0.5783
  115TIP3    H1  288   7.804   4.773   1.665 -0.3921 -0.7019  0.9887
  115TIP3    H2  289   7.697   4.809   1.766 -2.4176 -0.3839 -1.2002
  116TIP3   OH2  290   1.898   1.541   2.362  0.0687 -0.0834 -0.2767
  116TIP3    H1  291   1.990   1.567   2.371  0.8977 -2.1760 -1.9293
  116TIP3    H2  292   1.888   1.467   2.422 -0.9964  0.9884  0.9535
  117TIP3   OH2  293   1.776   5.461   5.641  0.3948  0.2990  0.3438
  117TIP3    H1  294   1.773   5.510   5.559 -0.7411 -1.3531 -0.6622
  117TIP3    H2  295   1.760   5.527   5.709  0.1733  1.5155 -0.8448
  118TIP3   OH2  296   2.054   0.796   6.338  0.0262 -0.7312 -0.1629
  118TIP3    H1  297   2.019   0.747   6.412 -0.6292  0.7668  0.5641
  118TIP3    H2  298   2.140   0.825   6.367 -0.0277 -0.5626 -0.1680
  119TIP3   OH2  299   2.139   6.115   0.995 -0.4381 -0.2850  0.4374
  119TIP3    H1  300   2.171   6.090   0.908  2.1517 -1.1916  1.5573
  119TIP3    H2  301   2.194   6.189   1.020 -1.8849  0.6655  0.9155
  120TIP3   OH2  302   0.938   4.834   3.531  0.1039 -0.7192  0.0164
  120TIP3    H1  303   0.905   4.774   3.464 -1.2599 -3.0151  2.5089
  120TIP3    H2  304   0.871   4.902   3.537  0.1767 -0.5621 -0.8135
  121TIP3   OH2  305   4.763   7.625   0.929 -0.4414 -0.2898 -0.2673
  121TIP3    H1  306   4.674   7.639   0.895  0.8680 -0.9579 -4.5986
  121TIP3    H2  307   4.799   7.713   0.938 -1.0382 -0.0756  0.1179
  122TIP3   OH2  308   4.444   0.028   6.122  0.2775 -0.1253 -0.2667
  122TIP3    H1  309   4.531  -0.011   6.128  0.9148  1.2426 -0.4003
  122TIP3    H2  310   4.411   0.028   6.212  1.0877  0.8225  0.0458
  123TIP3   OH2  311   4.995   7.033   2.262 -0.3495 -0.4231 -0.3094
  123TIP3    H1  312   4.981   6.953   2.314  1.1121 -0.3708  0.2175
  123TIP3    H2  313   4.927   7.094   2.293 -0.9025 -1.1456 -0.0611
  124TIP3   OH2  314   5.113   6.971   0.402  0.7555 -0.7175  0.2141
  124TIP3    H1  315   5.121   6.927   0.486 -0.3824  0.3269  0.8966
  124TIP3    H2  316   5.024   7.006   0.401  1.6465  1.7020 -0.2213
  125TIP3   OH2  317   5.462   7.005   3.222  0.3803 -0.3264  0.6865
  125TIP3    H1  318   5.548   7.013   3.262 -0.2116 -0.4230  2.0334
  125TIP3    H2  319   5.430   6.919   3.250  0.1984 -0.6859 -0.5531
  126TIP3   OH2  320   1.816   4.673   6.691 -0.3771 -0.2550 -0.2118
  126TIP3    H1  321   1.744   4.692   6.752  0.1374  1.4592 -0.0897
  126TIP3    H2  322   1.880   4.742   6.707  2.0128 -2.5590  0.6918
  127TIP3   OH2  323   6.985   0.277   3.979  0.1209 -0.2222  0.3886
  127TIP3    H1  324   7.015   0.272   4.070 -0.7449  0.6270  0.7429
  127TIP3    H2  325   6.970   0.371   3.965  0.1025 -0.3689 -0.5798
  128TIP3   OH2  326   1.855   0.357   4.127 -0.0621  0.0144  0.1792
  128TIP3    H1  327   1.784   0.331   4.186  1.0625 -1.0477  1.1137
  128TIP3    H2  328   1.931   0.309   4.158  1.2869  1.7566 -0.2876
  129TIP3   OH2  329   4.789   1.999   5.862 -0.1107 -0.0924  0.2905
  129TIP3    H1  330   4.751   1.919   5.826 -0.7672 -0.1523  1.1033
  129TIP3    H2  331   4.871   1.971   5.903 -1.2507 -0.6950  2.2453
  130TIP3   OH2  332   1.844   7.273   4.397 -0.4812  0.3650 -0.0631
  130TIP3    H1  333   1.848   7.222   4.316 -0.9584  1.2312 -0.6468
  130TIP3    H2  334   1.750   7.284   4.414 -0.4841  2.7491 -1.0921
  131TIP3   OH2  335   7.892   0.527   4.066 -0.6934  0.0690 -0.3421
  131TIP3    H1  336   7.885   0.616   4.101 -2.7815 -0.6991  1.4349
  131TIP3    H2  337   7.929   0.538   3.979 -0.7530  2.6592 -0.1144
  132TIP3   OH2  338   2.458   1.695   1.803 -0.7679  0.4168 -0.1213
  132TIP3    H1  339   2.474   1.664   1.892 -1.7055 -0.7433 -0.3261
  132TIP3    H2  340   2.363   1.690   1.792 -0.7167  1.0215 -1.0262
  133TIP3   OH2  341   7.258   1.365   4.954 -0.3058  0.3430  0.4870
  133TIP3    H1  342   7.315   1.364   4.877 -0.1785 -0.9054  0.5852
  133TIP3    H2  343   7.284   1.444   5.002 -0.0073  0.8339 -0.4604
  134TIP3   OH2  344   2.830   1.796   6.093  0.0753  0.6223 -0.2455
  134TIP3    H1  345   2.844   1.724   6.155  1.2495  0.6533 -0.4474
  134TIP3    H2  346   2.784   1.863   6.144 -0.5166 -0.0405  0.1015
  135TIP3   OH2  347   2.712   6.643   1.116  0.3909 -0.2633 -0.8846
  135TIP3    H1  348   2.710   6.549   1.097 -0.1386 -0.6026  0.6692
  135TIP3    H2  349   2.758   6.682   1.042 -1.2412 -1.4699 -2.5973
  136TIP3   OH2  350   1.464   5.252   4.975 -0.3335 -0.4090 -0.0444
  136TIP3    H1  351   1.420   5.171   5.003 -0.3973 -0.2538  0.3030
  136TIP3    H2  352   1.426   5.320   5.029 -1.2025  0.0691 -1.2099
  137TIP3   OH2  353   7.667   3.079   4.242  0.5550  0.1281 -0.2662
  137TIP3    H1  354   7.620   3.005   4.280 -0.6045  0.7890 -0.3509
  137TIP3    H2  355   7.756   3.071   4.276  0.5079 -1.3971 -0.4318
  138TIP3   OH2  356   0.389   6.251   5.079 -0.3853 -0.2831 -0.3824
  138TIP3    H1  357   0.454   6.250   5.009 -0.3095  0.2238 -0.3266
  138TIP3    H2  358   0.305   6.260   5.034 -0.3159  0.3197 -0.4031
  139TIP3   OH2  359   6.453   2.497   4.629 -0.5401  0.1619 -0.2227
  139TIP3    H1  360   6.548   2.497   4.616 -0.5450 -0.0590 -0.2565
  139TIP3    H2  361   6.442   2.514   4.723 -0.4239 -1.3150  0.0874
  140TIP3   OH2  362   0.350   5.626   5.159 -0.2524 -0.3200 -0.1207
  140TIP3    H1  363   0.314   5.540   5.179  1.9471 -1.4618 -0.7865
  140TIP3    H2  364   0.444   5.617   5.173  0.0059  2.0612  0.0295
  141TIP3   OH2  365   3.115   6.763   1.809  0.3483  0.5416 -0.2060
  141TIP3    H1  366   3.157   6.849   1.802  0.1026  0.5983 -1.0455
  141TIP3    H2  367   3.085   6.744   1.720  0.1359 -0.2801  0.0393
  142TIP3   OH2  368   4.044   2.344   2.160  0.0289  0.3263  0.1604
  142TIP3    H1  369   4.120   2.368   2.106 -0.2148  2.7944  0.7760
  142TIP3    H2  370   3.989   2.422   2.158 -0.9700 -0.2726  2.3177
  143TIP3   OH2  371   1.312   6.628   2.434 -0.5505  0.5209  0.2818
  143TIP3    H1  372   1.323   6.635   2.339 -0.8866  0.3815  0.2314
  143TIP3    H2  373   1.388   6.673   2.470  1.1273 -1.8197 -0.0527
  144TIP3   OH2  374   5.897   4.426   5.915 -0.0248  0.0188 -0.1058
  144TIP3    H1  375   5.985   4.464   5.924  0.1226 -0.1401 -0.8430
  144TIP3    H2  376   5.880   4.388   6.001 -0.3992  2.1697  0.8564
  145TIP3   OH2  377   3.205   7.028   1.892  0.0707  0.3858 -0.5246
  145TIP3    H1  378   3.176   7.105   1.942 -1.8964 -0.1507 -0.7543
  145TIP3    H2  379   3.238   7.065   1.810  2.2704  1.1850  0.6382
  146TIP3   OH2  380   1.479   5.689   2.743  0.0160 -0.4457  0.5462
  146TIP3    H1  381   1.510   5.618   2.800  1.0180 -0.7268 -0.3212
  146TIP3    H2  382   1.489   5.654   2.655  0.9587  0.9276  0.0726
  147TIP3   OH2  383   3.818   0.666   2.747  0.2335 -0.2032  0.1021
  147TIP3    H1  384   3.826   0.759   2.726  1.4424 -0.5145 -0.9502
  147TIP3    H2  385   3.854   0.621   2.670  1.7113 -1.4852  1.4678
  148TIP3   OH2  386   6.643   7.363   5.285  0.1277  0.1816  0.3029
  148TIP3    H1  387   6.733   7.360   5.251  0.0307 -1.2023  0.1284
  148TIP3    H2  388   6.644   7.306   5.362 -1.3860 -2.9182 -1.7688
  149TIP3   OH2  389   5.328   4.775   4.189  0.0891 -0.3140  0.6027
  149TIP3    H1  390   5.299   4.797   4.100  0.3659 -1.3459  0.2482
  149TIP3    H2  391   5.401   4.715   4.176  1.6361  1.3033  1.5082
  150TIP3   OH2  392   2.404   2.482   3.153 -0.2342  0.1137 -0.6570
  150TIP3    H1  393   2.438   2.557   3.201  1.5745 -0.4531 -0.9851
  150TIP3    H2  394   2.331   2.518   3.102 -1.2772  1.0165  1.3500
  151TIP3   OH2  395   8.211   0.313   0.122 -0.0094 -0.2020  0.7366
  151TIP3    H1  396   8.181   0.302   0.032  0.6136 -2.3573  0.7246
  151TIP3    H2  397   8.220   0.407   0.134 -0.9914  0.1785 -1.1417
  152TIP3   OH2  398   1.338   7.540   0.558  0.2150 -0.1203  0.1871
  152TIP3    H1  399   1.393   7.464   0.578  0.1516  0.3712  2.4017
  152TIP3    H2  400   1.397   7.602   0.516  0.6464 -0.7234 -0.1263
  153TIP3   OH2  401   5.261   1.727   1.923 -0.3280 -0.2922 -0.1575
  153TIP3    H1  402   5.274   1.802   1.865 -1.5824 -0.2726 -0.4401
  153TIP3    H2  403   5.196   1.673   1.879 -0.8137 -0.6182  0.9081
  154TIP3   OH2  404   7.125   5.017   1.696 -0.2781 -0.4719 -0.2801
  154TIP3    H1  405   7.043   4.989   1.735 -0.3567 -0.3058 -0.3264
  154TIP3    H2  406   7.189   4.953   1.726 -0.1055  0.2845  1.0622
  155TIP3   OH2  407   2.669   6.710   4.034  0.4182  0.1429 -0.1049
  155TIP3    H1  408   2.607   6.751   3.974  0.2211 -1.6366 -1.2285
  155TIP3    H2  409   2.754   6.749   4.012  0.0708  0.7780 -0.3169
  156TIP3   OH2  410   3.083   7.696   6.263 -0.1338 -0.5714 -0.7794
  156TIP3    H1  411   3.037   7.614   6.281 -2.5047  0.9911  0.7212
  156TIP3    H2  412   3.107   7.730   6.349 -2.5616  2.0663 -0.9783
  157TIP3   OH2  413   0.355   1.346   3.736  0.5460  0.4180  0.2519
  157TIP3    H1  414   0.365   1.252   3.753  0.0267  0.5786  1.5389
  157TIP3    H2  415   0.308   1.350   3.652  1.8008 -0.4331 -0.5239
  158TIP3   OH2  416   3.527   7.628   3.943  0.0723 -0.4289 -0.1847
  158TIP3    H1  417   3.446   7.602   3.900 -1.3285  1.8831  0.8464
  158TIP3    H2  418   3.540   7.563   4.012 -0.5388 -1.1713 -0.7526
  159TIP3   OH2  419   0.527   0.468   2.133  0.2856 -0.0186 -0.0926
  159TIP3    H1  420   0.560   0.387   2.093  0.8356  0.2998 -0.2964
  159TIP3    H2  421   0.432   0.464   2.120  0.5001  0.4399 -2.1365
  160TIP3   OH2  422   5.850   1.729   2.195  0.1775  0.1630 -0.3472
  160TIP3    H1  423   5.780   1.766   2.250  0.2867  0.6101 -0.5003
  160TIP3    H2  424   5.825   1.755   2.106  0.7297  0.6380 -0.3658
  161TIP3   OH2  425   3.830   2.231   5.627 -0.0164  0.1658 -0.2014
  161TIP3    H1  426   3.904   2.186   5.669 -0.5768 -1.2475 -0.6491
  161TIP3    H2  427   3.757   2.218   5.688 -0.2483  0.2231 -0.4662
  162TIP3   OH2  428   7.107   7.752   2.036  0.0058  0.2693  0.1063
  162TIP3    H1  429   7.047   7.789   2.101 -0.4097  1.0795 -0.7219
  162TIP3    H2  430   7.053   7.737   1.959  0.8198  0.7903 -0.5731
  163TIP3   OH2  431   3.432   4.245   4.042  0.3883  0.0212  0.0145
  163TIP3    H1  432   3.472   4.165   4.076  0.8733  0.7236  1.1603
  163TIP3    H2  433   3.338   4.226   4.039  0.5875 -0.9367 -0.7339
  164TIP3   OH2  434   4.615   2.066   0.742  0.3580 -0.0713  0.0775
  164TIP3    H1  435   4.540   2.054   0.801  0.3272 -0.7589 -0.0901
  164TIP3    H2  436   4.586   2.027   0.659 -0.0374  1.9227 -0.7744
  165TIP3   OH2  437   3.080   7.017   6.309 -0.4308 -0.0077  0.7528
  165TIP3    H1  438   3.029   6.945   6.346  0.3107 -1.3292 -0.6066
  165TIP3    H2  439   3.105   6.985   6.222  1.2329  1.2809  0.7050
  166TIP3   OH2  440   7.594   5.141   5.840  0.0872 -0.0591  0.2714
  166TIP3    H1  441   7.515   5.095   5.811 -0.6462  1.1259  0.3109
  166TIP3    H2  442   7.666   5.088   5.806 -0.6138 -2.6276  2.3698
  167TIP3   OH2  443   0.919   0.293   1.423 -0.4644 -0.2304 -0.3533
  167TIP3    H1  444   0.832   0.268   1.455 -1.1317  1.2947 -0.9073
  167TIP3    H2  445   0.936   0.378   1.464  0.6620 -0.3881 -0.4588
  168TIP3   OH2  446   5.373   5.386   0.683  0.0744  0.7531 -0.0489
  168TIP3    H1  447   5.382   5.449   0.611 -0.1843 -1.2794 -1.9568
  168TIP3    H2  448   5.368   5.301   0.640  1.5272 -0.7152  2.4880
  169TIP3   OH2  449   6.043   1.359   6.263  0.1627  0.3771 -0.1328
  169TIP3    H1  450   6.018   1.404   6.343 -0.1360  0.6461 -0.3770
  169TIP3    H2  451   5.961   1.322   6.229  0.4364 -0.5478  0.1856
  170TIP3   OH2  452   5.649   3.344   1.484 -0.3777  0.3676 -0.4806
  170TIP3    H1  453   5.696   3.396   1.550  0.0354  0.9611 -1.2333
  170TIP3    H2  454   5.709   3.272   1.464 -0.4758  0.2233 -0.2571
  171TIP3   OH2  455   3.765   1.455   5.082  0.0142  0.0308 -0.1654
  171TIP3    H1  456   3.688   1.468   5.026 -0.0635  0.6573  0.0710
  171TIP3    H2  457   3.736   1.484   5.168 -0.5631 -2.9498  0.7453
  172TIP3   OH2  458   7.234   7.676   3.863  0.0378  0.2760  0.9087
  172TIP3    H1  459   7.204   7.680   3.772  1.1277 -1.5697  0.3930
  172TIP3    H2  460   7.325   7.645   3.856 -0.6407 -2.4504  2.6853
  173TIP3   OH2  461   6.179   1.307   2.497  0.1126 -0.0704  0.5224
  173TIP3    H1  462   6.224   1.222   2.492  1.9171  0.8572  0.3339
  173TIP3    H2  463   6.100   1.295   2.444  0.4017 -1.5787  0.3822
  174TIP3   OH2  464   5.304   0.611   4.164 -1.0650 -0.2132 -0.0291
  174TIP3    H1  465   5.292   0.539   4.226 -1.3869  0.3171  0.5412
  174TIP3    H2  466   5.322   0.568   4.081 -0.8541 -0.9456  0.3826
  175TIP3   OH2  467   4.535   4.680   3.133 -0.1212 -0.5479 -0.2543
  175TIP3    H1  468   4.469   4.739   3.097  0.8634  0.3767 -0.5765
  175TIP3    H2  469   4.578   4.642   3.056 -2.1091 -3.3490 -0.1278
  176TIP3   OH2  470   1.451   7.369   4.106  0.1182 -0.3025  0.3520
  176TIP3    H1  471   1.453   7.460   4.138  0.5916 -0.0395 -0.4012
  176TIP3    H2  472   1.381   7.328   4.157  1.5129 -0.1877  2.4856
  177TIP3   OH2  473   7.590   3.505   0.480  0.3997  0.5516  0.6717
  177TIP3    H1  474   7.534   3.448   0.534 -1.5401  1.5110 -0.2183
  177TIP3    H2  475   7.543   3.589   0.478  1.3477  1.0801 -0.9902
  178TIP3   OH2  476   5.049   2.786  -0.005  0.5664 -0.3391  0.2773
  178TIP3    H1  477   5.043   2.881  -0.001 -0.5234 -0.3798 -0.1708
  178TIP3    H2  478   5.008   2.755   0.076 -0.9362 -0.4762 -0.5139
  179TIP3   OH2  479   2.897   7.557   1.350 -0.1460 -0.4711  0.4527
  179TIP3    H1  480   2.821   7.501   1.342 -0.2587 -0.0900 -1.8807
  179TIP3    H2  481   2.866   7.633   1.400 -1.5456  0.0012 -1.0378
  180TIP3   OH2  482   0.159   1.434   6.019  0.5388 -0.4215 -0.2605
  180TIP3    H1  483   0.224   1.501   6.041 -0.5822  0.0248  1.9734
  180TIP3    H2  484   0.092   1.443   6.087 -1.8497 -0.8907 -2.4366
  181TIP3   OH2  485   3.097   6.298   2.980 -0.5991 -0.2414 -0.2239
  181TIP3    H1  486   3.007   6.271   2.998 -0.3543 -0.8710  0.0921
  181TIP3    H2  487   3.108   6.380   3.027 -1.2152  0.1940 -0.8186
  182TIP3   OH2  488   5.411   3.233   3.098  0.0519  0.5514 -0.3602
  182TIP3    H1  489   5.400   3.188   3.015  2.8521  2.2258 -1.7807
  182TIP3    H2  490   5.426   3.325   3.075  1.0445  1.0697  1.9635
  183TIP3   OH2  491   4.107   0.341   0.641  0.2505  0.3605  0.2098
  183TIP3    H1  492   4.041   0.394   0.686  0.4237 -0.6090  1.6827
  183TIP3    H2  493   4.073   0.252   0.646  1.7133 -0.1806  1.1285
  184TIP3   OH2  494   2.699   5.404   3.546  0.6001  0.0871  0.2030
  184TIP3    H1  495   2.770   5.439   3.599 -0.6746  1.5901  0.9967
  184TIP3    H2  496   2.660   5.335   3.600  0.0058  0.8566  0.7742
  185TIP3   OH2  497   1.336   6.137   4.825 -0.2646  0.1672 -0.5339
  185TIP3    H1  498   1.396   6.169   4.757 -1.7945  0.3049 -1.8746
  185TIP3    H2  499   1.387   6.141   4.906  1.1676  1.3229 -1.4503
  186TIP3   OH2  500   4.496   3.039   2.209  0.6611  0.3910  0.0858
  186TIP3    H1  501   4.486   2.945   2.193 -0.7826  0.2390  1.6974
  186TIP3    H2  502   4.448   3.081   2.138 -0.5380 -0.1357  0.5751
  187TIP3   OH2  503   2.865   7.595   3.288  0.4099  0.1333 -0.0488
  187TIP3    H1  504   2.831   7.684   3.297  0.8622  0.3231 -0.2266
  187TIP3    H2  505   2.791   7.545   3.253  0.4574  0.6581 -0.9212
  188TIP3   OH2  506   3.169   1.875   2.824  0.2162 -0.4733 -0.4916
  188TIP3    H1  507   3.110   1.834   2.888  0.3289 -0.5799 -0.4570
  188TIP3    H2  508   3.252   1.830   2.835  0.9367  1.0859  0.9418
  189TIP3   OH2  509   0.862   6.151   0.731  0.3005 -0.4680  0.3770
  189TIP3    H1  510   0.871   6.182   0.641  0.0387  0.8300  0.7878
  189TIP3    H2  511   0.796   6.082   0.726 -1.6867  1.3642 -0.0541
  190TIP3   OH2  512   0.875   6.303   0.180  0.5629  0.1342  0.6096
  190TIP3    H1  513   0.809   6.278   0.115  0.0945  2.3606  0.1408
  190TIP3    H2  514   0.957   6.307   0.131  0.5316  0.1460  0.5586
  191TIP3   OH2  515   0.359   4.851   0.223 -0.2991 -0.4966  0.1139
  191TIP3    H1  516   0.277   4.824   0.265 -1.1861 -1.2990 -1.9745
  191TIP3    H2  517   0.384   4.931   0.269 -1.3930 -1.0796  1.8466
  192TIP3   OH2  518   7.058   3.697   0.448  0.3591 -0.4492 -0.8067
  192TIP3    H1  519   7.115   3.758   0.401 -0.0957  0.0854 -0.6840
  192TIP3    H2  520   6.973   3.706   0.405  0.3499 -1.1998 -0.9539
  193TIP3   OH2  521   0.171   6.585   2.792 -0.2161 -0.2816  0.1864
  193TIP3    H1  522   0.173   6.505   2.845 -0.7258  0.0853  0.7723
  193TIP3    H2  523   0.092   6.577   2.738  0.5255 -0.8494 -0.8497
  194TIP3   OH2  524   5.754   3.494   4.343 -0.0951 -0.1941 -0.6099
  194TIP3    H1  525   5.767   3.440   4.421 -1.1570 -0.8006 -0.8202
  194TIP3    H2  526   5.834   3.546   4.336  0.0655 -0.1958  0.8187
  195TIP3   OH2  527   0.870   3.563   6.503 -0.1632  0.1162  0.6301
  195TIP3    H1  528   0.865   3.570   6.598  0.3404 -0.8648  0.7470
  195TIP3    H2  529   0.938   3.497   6.488 -1.7351 -1.3545 -0.3533
  196TIP3   OH2  530   0.091   2.620   5.166  0.1792  0.2506  0.2557
  196TIP3    H1  531   0.057   2.682   5.101  2.0412  1.6932  0.5456
  196TIP3    H2  532   0.056   2.535   5.140  1.5660  0.5885 -3.2519
  197TIP3   OH2  533   3.756   0.213   5.405  0.3021 -0.6665 -0.3802
  197TIP3    H1  534   3.719   0.260   5.480  0.7132 -1.4853  0.3631
  197TIP3    H2  535   3.680   0.176   5.360  0.1036 -0.9272  0.1610
  198TIP3   OH2  536   5.256   6.195   5.855  0.1542 -0.4382  0.1795
  198TIP3    H1  537   5.282   6.129   5.791 -0.4710  0.1478 -0.6987
  198TIP3    H2  538   5.207   6.147   5.921 -1.9276 -0.6070 -1.4108
  199TIP3   OH2  539   0.433   6.963   4.046 -0.1888 -0.2015  0.8298
  199TIP3    H1  540   0.490   7.036   4.069 -1.1980  0.8868  0.0046
  199TIP3    H2  541   0.421   6.914   4.127  0.3432  0.6607  1.4357
  200TIP3   OH2  542   2.271   3.591   5.794  0.5205 -0.0508  0.1035
  200TIP3    H1  543   2.243   3.517   5.849 -1.1342 -0.3936 -1.1207
  200TIP3    H2  544   2.195   3.649   5.791  0.3859 -0.2612 -2.1408
  201TIP3   OH2  545   2.819   6.241   4.564 -0.4409 -0.1279  0.5319
  201TIP3    H1  546   2.902   6.220   4.522 -1.0117 -0.1067 -0.6352
  201TIP3    H2  547   2.771   6.159   4.564 -0.7448  0.0501  0.4623
  202TIP3   OH2  548   7.166   1.595   5.145 -0.2427 -0.3194  0.3334
  202TIP3    H1  549   7.115   1.675   5.158  1.2847  0.9921 -1.2285
  202TIP3    H2  550   7.133   1.534   5.213 -2.4081  1.1063  0.6745
  203TIP3   OH2  551   5.680   4.383   1.981 -0.0768 -0.6665 -0.0270
  203TIP3    H1  552   5.722   4.403   2.065 -2.9842  4.5537  0.6395
  203TIP3    H2  553   5.723   4.442   1.919 -1.9626  0.0413 -0.7264
  204TIP3   OH2  554   2.403   6.206   5.841  0.0187 -0.4199  0.0912
  204TIP3    H1  555   2.313   6.232   5.822  0.5891  1.0466 -0.8077
  204TIP3    H2  556   2.435   6.271   5.903  0.4240 -0.9966  0.4981
  205TIP3   OH2  557   1.843   7.782   3.497  0.2734  0.1725 -0.6436
  205TIP3    H1  558   1.771   7.841   3.517  0.3898 -0.1064  0.7146
  205TIP3    H2  559   1.805   7.717   3.438 -0.7154 -0.1618  0.3139
  206TIP3   OH2  560   5.865   2.320   5.516  0.0705 -0.8974  0.1892
  206TIP3    H1  561   5.844   2.320   5.609 -1.0064  0.1646 -0.0305
  206TIP3    H2  562   5.805   2.255   5.478 -1.8316  0.9838 -0.2005
  207TIP3   OH2  563   6.020   1.828   4.956 -0.6147 -0.2768 -0.0742
  207TIP3    H1  564   6.104   1.841   4.912  0.3239  3.1477  2.3068
  207TIP3    H2  565   6.042   1.829   5.049 -3.2131 -0.3990  0.6215
  208TIP3   OH2  566   4.021   7.323   3.385 -0.2238 -0.1006  0.2713
  208TIP3    H1  567   3.961   7.250   3.399  0.8601 -1.2673 -0.8964
  208TIP3    H2  568   4.085   7.317   3.456 -0.9650  0.6255  1.0202
  209TIP3   OH2  569   3.567   2.635   4.245 -0.3543  0.1636 -0.3096
  209TIP3    H1  570   3.603   2.624   4.333 -2.3859  1.4943  0.7960
  209TIP3    H2  571   3.635   2.603   4.186  0.9271 -1.1210  1.7516
  210TIP3   OH2  572   1.979   3.854   6.501  0.1488 -0.7610  0.1464
  210TIP3    H1  573   1.901   3.862   6.555 -0.5820 -1.6954 -0.7231
  210TIP3    H2  574   1.946   3.827   6.415  1.3105  0.1540 -0.6316
  211TIP3   OH2  575   2.795   1.045   5.206 -0.2004  0.5100 -0.2751
  211TIP3    H1  576   2.780   1.140   5.204 -0.8231  0.4869  1.4796
  211TIP3    H2  577   2.830   1.028   5.293  1.9853 -0.6376 -1.3070
  212TIP3   OH2  578   7.345   0.295   4.229 -0.4846  0.0462  0.1834
  212TIP3    H1  579   7.365   0.246   4.308 -0.6126  1.2045  0.9527
  212TIP3    H2  580   7.397   0.375   4.236  0.1087 -0.1748 -1.2865
  213TIP3   OH2  581   7.712   4.767   2.614  0.5061 -0.1869  0.1755
  213TIP3    H1  582   7.763   4.732   2.687  0.8078 -0.9923 -0.4100
  213TIP3    H2  583   7.776   4.782   2.544 -0.0365 -1.2830 -0.5952
  214TIP3   OH2  584   4.004   2.854   3.299 -0.0333  0.2219 -0.4812
  214TIP3    H1  585   3.919   2.813   3.281  1.1061 -2.0194 -1.1303
  214TIP3    H2  586   3.989   2.904   3.379 -1.6284 -1.2607  0.2296
  215TIP3   OH2  587   8.101   3.043   1.775 -0.2091 -0.1616  0.6615
  215TIP3    H1  588   8.026   2.987   1.753  1.5229 -2.0526 -0.9612
  215TIP3    H2  589   8.085   3.125   1.729 -0.5440 -1.1530 -1.0803
  216TIP3   OH2  590   2.615   1.926   3.560 -0.3695 -0.1357 -0.8119
  216TIP3    H1  591   2.609   1.988   3.633  0.7628 -0.1279 -0.7036
  216TIP3    H2  592   2.590   1.977   3.483 -2.6679 -0.4247 -0.3341
  217TIP3   OH2  593   1.888   3.416   1.100 -0.0570 -0.2732  0.3411
  217TIP3    H1  594   1.938   3.335   1.094 -0.0060 -0.2198  0.0073
  217TIP3    H2  595   1.907   3.462   1.018 -0.8342 -0.3559  0.1076
  218TIP3   OH2  596   3.911   0.096   2.753  0.1920  0.1524 -0.1239
  218TIP3    H1  597   3.898   0.189   2.770  1.6582  1.1986 -3.7822
  218TIP3    H2  598   4.000   0.079   2.784  0.5523  0.4249 -0.9990
  219TIP3   OH2  599   1.071   7.635   0.245 -0.2501 -0.4967  0.0776
  219TIP3    H1  600   0.986   7.681   0.245 -1.8446 -3.2184 -0.7410
  219TIP3    H2  601   1.119   7.675   0.173 -0.6620  1.2692  0.7022
  220TIP3   OH2  602   8.029   0.736   0.033  0.1184 -0.1611  0.0384
  220TIP3    H1  603   8.019   0.828   0.010  0.1985 -0.3401 -0.7436
  220TIP3    H2  604   7.946   0.711   0.072  0.1886  0.3106  0.4906
  221TIP3   OH2  605   4.142   1.506   4.673 -0.0214 -0.3045 -0.7610
  221TIP3    H1  606   4.172   1.482   4.585 -0.6262 -0.1275 -1.0243
  221TIP3    H2  607   4.120   1.422   4.714 -1.7555 -0.2768 -1.5428
  222TIP3   OH2  608   4.417   1.741   2.575 -0.4735  0.1605  0.5489
  222TIP3    H1  609   4.402   1.785   2.492  1.0840  0.9004  0.6384
  222TIP3    H2  610   4.332   1.700   2.596 -0.9204  0.0580 -1.3108
  223TIP3   OH2  611   4.951   5.675   4.720  0.7742  0.0666 -0.1078
  223TIP3    H1  612   4.994   5.637   4.644  0.6567 -1.8772  0.7528
  223TIP3    H2  613   4.976   5.619   4.793 -1.7933 -0.1118  0.7353
  224TIP3   OH2  614   1.051   0.610   2.401  0.0276 -0.2563  0.2566
  224TIP3    H1  615   1.118   0.652   2.348  0.4897  1.6301  2.2035
  224TIP3    H2  616   1.096   0.540   2.447  1.0630  1.7002  2.4132
  225TIP3   OH2  617   2.500   3.629   1.672 -0.1634  0.2302 -0.6497
  225TIP3    H1  618   2.438   3.694   1.641 -0.5669  0.4316  0.5242
  225TIP3    H2  619   2.554   3.676   1.736 -0.4072 -0.5505  0.1510
  226TIP3   OH2  620   6.923   1.859   4.741 -0.5542 -0.1264  0.4746
  226TIP3    H1  621   6.927   1.766   4.718 -0.5178 -0.2631  1.0308
  226TIP3    H2  622   6.837   1.888   4.710 -0.9456 -0.5726  1.1398
  227TIP3   OH2  623   3.422   4.623   0.204  0.2148  0.0555  0.1879
  227TIP3    H1  624   3.485   4.560   0.240  0.6715  0.2379 -0.2851
  227TIP3    H2  625   3.443   4.705   0.248  1.9130  0.7021 -1.6835
  228TIP3   OH2  626   4.055   6.854   0.045 -0.6828  0.2823 -0.6207
  228TIP3    H1  627   4.100   6.937   0.024 -0.0889 -0.0483 -0.6905
  228TIP3    H2  628   3.986   6.879   0.106  1.7007  0.3991  2.2624
  229TIP3   OH2  629   3.619   0.955   2.960  0.0967 -0.2285 -0.5488
  229TIP3    H1  630   3.596   0.892   3.029 -1.7566  0.8762 -0.0657
  229TIP3    H2  631   3.709   0.982   2.981  0.4789 -1.7900 -0.0662
  230TIP3   OH2  632   1.316   6.117   5.736  0.1118  0.0416  1.5157
  230TIP3    H1  633   1.252   6.185   5.760 -0.6831 -0.9194  2.1781
  230TIP3    H2  634   1.305   6.049   5.803 -0.4681 -1.6328 -0.2122
  231TIP3   OH2  635   6.569   1.957   0.204  0.1687  0.0144 -0.0031
  231TIP3    H1  636   6.527   2.037   0.236  1.6262 -0.2212  2.7302
  231TIP3    H2  637   6.656   1.986   0.175 -0.4571 -0.1019 -2.1549
  232TIP3   OH2  638   4.738   7.169   1.821 -0.5300 -0.3315 -0.6174
  232TIP3    H1  639   4.820   7.128   1.849 -1.0949 -1.9846 -1.2889
  232TIP3    H2  640   4.765   7.234   1.756  0.1744 -1.7366 -1.7742
  233TIP3   OH2  641   2.428   7.108   0.193 -0.3109 -0.3068  0.7064
  233TIP3    H1  642   2.351   7.130   0.140 -0.5774 -1.5254  0.5507
  233TIP3    H2  643   2.391   7.073   0.274  0.0970  1.0867  1.5276
  234TIP3   OH2  644   4.414   0.820   6.534 -0.1834  0.2562  0.6782
  234TIP3    H1  645   4.394   0.798   6.443  0.6956  3.3755 -0.3988
  234TIP3    H2  646   4.499   0.863   6.530 -0.9438  2.0978  2.6823
  235TIP3   OH2  647   5.452   5.507   3.162 -0.0350  0.1813  0.0145
  235TIP3    H1  648   5.418   5.576   3.219 -1.0158  0.6427 -1.0847
  235TIP3    H2  649   5.439   5.426   3.212 -1.0340  0.5501  0.3773
  236TIP3   OH2  650   8.034   4.316   5.125 -0.0712 -0.3210  0.1222
  236TIP3    H1  651   8.119   4.294   5.087 -0.1382 -1.3957  0.5703
  236TIP3    H2  652   7.983   4.235   5.119 -1.6971  0.7520 -1.7370
  237TIP3   OH2  653   4.125   3.403   6.012  0.2792 -0.5865 -0.4273
  237TIP3    H1  654   4.166   3.432   6.094 -1.4833 -0.6948  0.5348
  237TIP3    H2  655   4.035   3.381   6.037 -0.0520 -1.4257 -2.2467
  238TIP3   OH2  656   1.650   6.070   4.876 -0.0876 -0.2185  0.5381
  238TIP3    H1  657   1.715   6.027   4.820  0.1515  2.2127 -1.2088
  238TIP3    H2  658   1.697   6.143   4.916 -1.2954  0.5519  0.6123
  239TIP3   OH2  659   8.194   1.625   2.484 -0.3324 -0.2735  0.1055
  239TIP3    H1  660   8.121   1.569   2.460 -0.2875 -1.0238  1.6046
  239TIP3    H2  661   8.160   1.681   2.554 -0.0181  0.7239 -0.5176
  240TIP3   OH2  662   2.201   5.203   1.856 -0.0449 -0.4845  0.0064
  240TIP3    H1  663   2.110   5.174   1.851  0.2050 -1.2917 -0.0895
  240TIP3    H2  664   2.242   5.167   1.776  0.7128 -1.4849  0.8066
  241TIP3   OH2  665   3.615   4.976   2.606 -0.4788  0.2459  0.1707
  241TIP3    H1  666   3.660   4.952   2.687 -0.5370  1.8245  0.7068
  241TIP3    H2  667   3.566   5.055   2.628 -0.9593  0.3818 -1.2622
  242TIP3   OH2  668   7.618   2.003   0.976  0.5118 -0.0593  0.4863
  242TIP3    H1  669   7.618   2.097   0.996 -3.7578  0.2899 -0.0918
  242TIP3    H2  670   7.678   1.995   0.901  1.0423  2.1849  0.5802
  243TIP3   OH2  671   0.968   7.431   0.485 -0.0139  0.5432  0.0023
  243TIP3    H1  672   1.017   7.513   0.474 -0.9587  1.2398  0.8413
  243TIP3    H2  673   0.966   7.417   0.580  0.5815 -0.7448 -0.1558
  244TIP3   OH2  674   2.788   0.162   2.989 -0.2432  0.1314 -0.3780
  244TIP3    H1  675   2.818   0.081   3.030 -0.5191  0.6460  0.8965
  244TIP3    H2  676   2.858   0.225   3.006 -0.8212  0.6300  0.2762
  245TIP3   OH2  677   4.510   6.319   5.329  0.5189 -0.0634 -0.5903
  245TIP3    H1  678   4.442   6.382   5.353  0.8762  1.0166 -2.2828
  245TIP3    H2  679   4.569   6.320   5.405 -0.3664  0.3627  0.1227
  246TIP3   OH2  680   1.892   2.811   2.177 -0.2149  0.3022 -0.1376
  246TIP3    H1  681   1.949   2.862   2.120 -3.6377  2.5403 -1.8333
  246TIP3    H2  682   1.913   2.841   2.266  0.7234  1.5846 -0.7724
  247TIP3   OH2  683   0.129   6.886   5.320  0.2424  0.8994 -0.2340
  247TIP3    H1  684   0.163   6.921   5.403  0.1737  1.8187 -0.5826
  247TIP3    H2  685   0.132   6.961   5.260  2.2177 -0.2380 -1.6585
  248TIP3   OH2  686   2.129   3.219   1.839 -0.0743  0.3669 -0.3077
  248TIP3    H1  687   2.222   3.196   1.836  0.5255  2.5548 -0.9080
  248TIP3    H2  688   2.111   3.259   1.754 -1.8689 -0.9437 -0.5960
  249TIP3   OH2  689   1.013   5.152   1.577  0.1450  0.1251  0.1584
  249TIP3    H1  690   1.095   5.196   1.598  1.5113 -0.0367 -3.9464
  249TIP3    H2  691   0.957   5.222   1.544  0.1139 -0.3069 -0.7328
  250TIP3   OH2  692   0.538   6.118   4.375  0.1935  0.0403  0.3352
  250TIP3    H1  693   0.602   6.046   4.375  1.3492  1.0272  0.3519
  250TIP3    H2  694   0.573   6.180   4.310 -1.2337  0.2101 -0.3051
  251TIP3   OH2  695   7.491   3.991   1.999 -0.0276  0.3353 -0.0026
  251TIP3    H1  696   7.523   3.904   1.973 -0.7506 -0.0532  0.3743
  251TIP3    H2  697   7.554   4.052   1.960  1.0817 -0.3895  0.5632
  252TIP3   OH2  698   2.318   5.801   3.974  0.6898  0.0505  0.8241
  252TIP3    H1  699   2.357   5.732   3.920  0.8425  0.6196  0.2044
  252TIP3    H2  700   2.263   5.851   3.914 -0.8098 -0.5733  1.6269
  253TIP3   OH2  701   4.753   2.035   5.576  0.5262  0.1521  0.1989
  253TIP3    H1  702   4.754   2.039   5.480  0.3732  1.7904  0.2341
  253TIP3    H2  703   4.728   1.945   5.596 -0.1875 -0.0171 -1.3060
  254TIP3   OH2  704   7.190   4.443   1.135 -0.1970 -0.6200  0.6304
  254TIP3    H1  705   7.232   4.372   1.087  1.1980  1.8758 -2.1326
  254TIP3    H2  706   7.253   4.467   1.203  0.4166 -0.5018  0.0314
  255TIP3   OH2  707   3.370   5.184   5.037  0.1662 -0.2838 -0.1342
  255TIP3    H1  708   3.293   5.204   5.090  0.3590  0.3865 -0.0968
  255TIP3    H2  709   3.377   5.089   5.040 -1.4205 -0.4806 -1.2007
  256TIP3   OH2  710   5.589   6.886   1.687 -0.4497  0.8536 -0.2115
  256TIP3    H1  711   5.675   6.927   1.675  0.0921 -0.6479 -2.0638
  256TIP3    H2  712   5.595   6.804   1.637 -2.8622  0.5684 -0.1366
  257TIP3   OH2  713   3.438   0.861   5.838  0.2306  0.1132 -0.3168
  257TIP3    H1  714   3.448   0.956   5.823  0.9184  0.3385  1.3633
  257TIP3    H2  715   3.402   0.828   5.756  0.9546  1.6758 -1.3262
  258TIP3   OH2  716   2.411   5.792   5.980 -0.1288 -0.1427  0.4080
  258TIP3    H1  717   2.503   5.791   5.953 -0.5051 -0.6266 -0.9525
  258TIP3    H2  718   2.367   5.737   5.916 -1.6466  1.4725 -0.0096
  259TIP3   OH2  719   8.010   4.853   1.108  0.5294  0.2404  0.9381
  259TIP3    H1  720   7.986   4.801   1.031  0.1034 -0.7077  1.6892
  259TIP3    H2  721   8.101   4.829   1.125  0.2589 -0.4700  1.4297
  260TIP3   OH2  722   1.737   2.403   3.812  0.0065  0.1525  0.0662
  260TIP3    H1  723   1.687   2.483   3.822  1.6461  1.9044 -3.8039
  260TIP3    H2  724   1.819   2.419   3.859  0.3682  0.8583 -0.7758
  261TIP3   OH2  725   4.236   2.915   0.414 -0.1869 -0.0261  0.1523
  261TIP3    H1  726   4.256   2.888   0.503  2.0158 -1.0554 -0.5703
  261TIP3    H2  727   4.221   2.833   0.367 -1.4472  0.5072 -0.4328
  262TIP3   OH2  728   3.571   7.503   0.103  0.0648 -0.5244 -0.3148
  262TIP3    H1  729   3.478   7.504   0.125 -0.1157  1.0792 -1.0058
  262TIP3    H2  730   3.588   7.590   0.066  1.9469 -0.6150  0.2334
  263TIP3   OH2  731   4.317   2.986   4.340  0.0985 -0.1658  0.2168
  263TIP3    H1  732   4.317   3.059   4.279  0.6826 -0.5273 -0.2297
  263TIP3    H2  733   4.398   2.997   4.391  0.8062 -1.1278 -0.6488
  264TIP3   OH2  734   7.097   7.773   0.301 -0.1368  0.1520  0.0566
  264TIP3    H1  735   7.028   7.707   0.293 -0.4149  0.4174  0.2368
  264TIP3    H2  736   7.124   7.792   0.211  0.1137 -0.3800  0.0163
  265TIP3   OH2  737   4.840   3.984   3.805 -0.3710 -0.4487  0.2368
  265TIP3    H1  738   4.850   3.890   3.820 -0.1620 -0.2694  1.3619
  265TIP3    H2  739   4.746   3.999   3.810 -0.3595 -0.5102  0.7110
  266TIP3   OH2  740   7.662   1.632   4.424  0.2468  0.1648 -0.5376
  266TIP3    H1  741   7.703   1.717   4.441  2.2195 -0.8919  0.4363
  266TIP3    H2  742   7.725   1.569   4.459 -0.8469 -1.7300 -1.8405
  267TIP3   OH2  743   7.222   4.278   4.233 -0.4222 -0.0580 -0.5250
  267TIP3    H1  744   7.304   4.271   4.184 -0.8363 -3.8738 -1.0019
  267TIP3    H2  745   7.247   4.264   4.324 -0.5192 -2.2719 -0.7744
  268TIP3   OH2  746   0.012   5.182   2.946 -0.1002  0.3028 -0.2896
  268TIP3    H1  747  -0.077   5.148   2.947  0.0272 -0.0325 -0.0413
  268TIP3    H2  748   0.066   5.107   2.920  0.1017  0.5234 -0.5134
  269TIP3   OH2  749   3.625   1.981   6.610  0.5652  0.1957 -0.7454
  269TIP3    H1  750   3.569   1.914   6.571 -0.6170 -0.2078  1.5086
  269TIP3    H2  751   3.607   2.061   6.559  0.9098 -0.8011 -2.5159
  270TIP3   OH2  752   1.025   6.810   5.684 -0.2084 -0.2733 -0.4437
  270TIP3    H1  753   0.982   6.895   5.672 -0.5924 -0.1260  1.6020
  270TIP3    H2  754   1.026   6.772   5.597 -4.8550 -0.4347 -0.6760
  271TIP3   OH2  755   5.906   1.059   0.966 -0.3283 -0.2097  0.3516
  271TIP3    H1  756   5.941   1.124   0.905 -2.6329 -0.2557 -1.1699
  271TIP3    H2  757   5.952   0.978   0.944  0.5612  0.2896  0.3283
  272TIP3   OH2  758   2.349   7.496   3.418  0.4668 -0.0733  0.1032
  272TIP3    H1  759   2.360   7.582   3.458  0.5575 -0.3677  0.7166
  272TIP3    H2  760   2.391   7.504   3.332  2.2252 -0.0745  0.9196
  273TIP3   OH2  761   7.993   2.592   1.700  0.5697  0.4364  0.2598
  273TIP3    H1  762   8.044   2.546   1.633 -0.4508 -0.0946 -0.1862
  273TIP3    H2  763   7.972   2.524   1.764 -0.7254  0.3049 -0.2680
  274TIP3   OH2  764   4.876   5.221   3.456  0.0202  0.6151 -0.2464
  274TIP3    H1  765   4.903   5.197   3.545 -0.0878 -1.6139 -0.7463
  274TIP3    H2  766   4.951   5.268   3.419  0.7074  0.1072  0.4842
  275TIP3   OH2  767   6.456   1.698   6.103 -0.1224 -0.2525  0.3373
  275TIP3    H1  768   6.521   1.734   6.043  1.0648 -3.0644 -0.2202
  275TIP3    H2  769   6.416   1.626   6.054 -1.4075 -0.5821  1.8039
  276TIP3   OH2  770   1.835   2.463   4.876 -0.0094 -0.0064 -0.2209
  276TIP3    H1  771   1.829   2.543   4.928 -0.6667 -1.5852  2.3048
  276TIP3    H2  772   1.777   2.401   4.920 -0.3749 -1.5672 -2.7352
  277TIP3   OH2  773   5.193   7.233   4.106 -0.4791  0.1266  0.0676
  277TIP3    H1  774   5.283   7.262   4.123 -0.4361  0.0119  0.0425
  277TIP3    H2  775   5.175   7.262   4.017  0.3134 -1.7089 -0.7526
  278TIP3   OH2  776   6.806   1.529   5.148  0.6289  0.8093 -0.2507
  278TIP3    H1  777   6.737   1.571   5.098  0.0371  0.2375  0.0795
  278TIP3    H2  778   6.788   1.553   5.239 -0.3888 -1.0490  0.0824
  279TIP3   OH2  779   4.686   2.327   2.195 -0.7987  0.3311 -0.4939
  279TIP3    H1  780   4.702   2.413   2.234  0.9478 -0.5797  0.9224
  279TIP3    H2  781   4.749   2.269   2.237 -2.3958 -1.8178 -0.8760
  280TIP3   OH2  782   1.002   7.233   4.157 -0.3425  0.2720 -0.1243
  280TIP3    H1  783   1.013   7.159   4.097  2.5696  0.5961 -0.1719
  280TIP3    H2  784   0.967   7.303   4.102 -1.8393 -0.6569 -0.3878
  281TIP3   OH2  785   1.360   5.134   5.804  0.6292  0.1917  0.3717
  281TIP3    H1  786   1.265   5.137   5.791  0.5938 -1.8526 -0.0654
  281TIP3    H2  787   1.387   5.226   5.801 -0.7941  0.6864 -3.5767
  282TIP3   OH2  788   1.107   4.969   5.029 -0.0063 -0.1342  0.2625
  282TIP3    H1  789   1.142   4.891   4.987 -0.8574  0.2344 -1.2213
  282TIP3    H2  790   1.156   5.042   4.990 -0.3321  0.1729  0.4129
  283TIP3   OH2  791   1.094   0.892   1.799  0.5986  0.2334 -0.4497
  283TIP3    H1  792   1.023   0.865   1.856  0.8461 -0.0173 -0.2543
  283TIP3    H2  793   1.138   0.810   1.776  0.9442  0.4051 -0.4082
  284TIP3   OH2  794   8.233   0.787   4.266 -0.3057 -0.4507 -0.2420
  284TIP3    H1  795   8.303   0.841   4.303 -0.9427 -1.1513  2.1288
  284TIP3    H2  796   8.271   0.700   4.258  0.2627 -0.0768 -2.7302
  285TIP3   OH2  797   2.502   3.958   0.338  0.1584  0.0356 -0.1102
  285TIP3    H1  798   2.498   3.939   0.431  2.5257  0.4409  0.1486
  285TIP3    H2  799   2.579   3.910   0.307  0.8717  1.8284 -1.3106
  286TIP3   OH2  800   5.435   5.879   6.086 -0.4137  0.5308 -0.6629
  286TIP3    H1  801   5.373   5.806   6.088  0.1445 -0.0280 -2.1923
  286TIP3    H2  802   5.398   5.944   6.146 -0.9117 -0.9981  0.7646
  287TIP3   OH2  803   1.895   6.553   6.228 -0.4295 -0.4034 -0.5290
  287TIP3    H1  804   1.919   6.643   6.252  0.9933  0.0304 -3.1623
  287TIP3    H2  805   1.800   6.556   6.215 -0.6409  0.2783  0.9963
  288TIP3   OH2  806   6.192   3.612   6.353  0.1215  0.0524  0.2871
  288TIP3    H1  807   6.263   3.551   6.331 -0.1253 -0.4592  0.8658
  288TIP3    H2  808   6.151   3.633   6.269  0.1671 -0.6429  0.0845
  289TIP3   OH2  809   6.624   6.833   0.899 -0.0391 -0.7733 -0.2860
  289TIP3    H1  810   6.584   6.890   0.964  0.5801  0.5000 -0.9651
  289TIP3    H2  811   6.718   6.846   0.912  0.1008  0.1407 -1.9135
  290TIP3   OH2  812   7.137   3.908   3.961  0.5373 -0.4391  0.0192
  290TIP3    H1  813   7.220   3.948   3.988 -0.2356  1.0641  0.2703
  290TIP3    H2  814   7.157   3.867   3.876  1.9062 -1.4871  0.7975
  291TIP3   OH2  815   6.945   4.501   0.585  0.2775  0.1337  0.4148
  291TIP3    H1  816   7.007   4.570   0.608  1.8614 -0.2910 -2.2060
  291TIP3    H2  817   6.991   4.420   0.608  0.1281 -0.1451 -0.2635
  292TIP3   OH2  818   1.428   0.963   5.630  0.2153  0.1949 -0.4897
  292TIP3    H1  819   1.347   1.003   5.599  0.2182  1.3518  0.8764
  292TIP3    H2  820   1.437   0.884   5.577 -1.4800  0.3498 -1.0920
  293TIP3   OH2  821   0.806   4.928   2.586 -0.2612 -0.1302 -0.2101
  293TIP3    H1  822   0.751   5.006   2.582  0.9595  0.8111  0.5502
  293TIP3    H2  823   0.812   4.897   2.496  0.4057  1.5045 -0.7506
  294TIP3   OH2  824   7.640   2.717   5.147  0.0363  0.0403  0.2370
  294TIP3    H1  825   7.635   2.630   5.106  3.0974 -0.7722  1.3296
  294TIP3    H2  826   7.607   2.703   5.236  0.7803 -0.0910  0.4976
  295TIP3   OH2  827   3.853   0.466   4.270  0.1278  0.5796  0.2162
  295TIP3    H1  828   3.901   0.383   4.269  1.7657  1.4941 -0.2583
  295TIP3    H2  829   3.769   0.446   4.228  0.7838 -0.6636 -0.5553
  296TIP3   OH2  830   5.546   1.719   1.770 -0.0548  0.0103  0.0507
  296TIP3    H1  831   5.455   1.700   1.745 -0.0038 -0.4263  0.1918
  296TIP3    H2  832   5.573   1.643   1.823  0.5155 -0.0339 -0.3006
  297TIP3   OH2  833   1.324   6.748   0.371 -0.3566 -0.9084 -0.2016
  297TIP3    H1  834   1.295   6.800   0.446 -0.7999 -0.4199 -0.6954
  297TIP3    H2  835   1.249   6.691   0.351 -0.7111 -0.1801 -1.0127
  298TIP3   OH2  836   2.128   5.441   5.360 -0.5249  0.6981  0.1690
  298TIP3    H1  837   2.044   5.395   5.362  0.1075 -0.4593  0.9398
  298TIP3    H2  838   2.123   5.502   5.433 -1.8405  2.8345 -1.5587
  299TIP3   OH2  839   3.580   3.568   4.887 -0.0028 -0.2359  0.4133
  299TIP3    H1  840   3.631   3.582   4.966  0.5700 -0.1328  0.0314
  299TIP3    H2  841   3.489   3.582   4.914  0.2785  0.9249  0.7913
  300TIP3   OH2  842   4.009   1.779   4.483 -0.1392  0.6248  0.6463
  300TIP3    H1  843   3.996   1.716   4.555  0.4776 -0.0249  0.2045
  300TIP3    H2  844   4.102   1.773   4.464 -0.2967  0.8124 -0.1927
  301TIP3   OH2  845   4.108   1.321   0.847  0.8894  0.1075 -0.3600
  301TIP3    H1  846   4.099   1.347   0.755  0.8398  1.3582 -0.0124
  301TIP3    H2  847   4.044   1.374   0.894  0.4082 -1.0455  0.3193
  302TIP3   OH2  848   3.087   5.538   1.154  0.2897  0.6005 -0.4981
  302TIP3    H1  849   3.066   5.553   1.062  0.6255  0.6115 -0.5742
  302TIP3    H2  850   3.161   5.478   1.153 -0.2819 -0.1242 -0.2136
  303TIP3   OH2  851   4.985   5.002   5.259 -0.7550 -0.3349 -0.1578
  303TIP3    H1  852   5.036   5.075   5.224 -0.8867  0.1611  0.6532
  303TIP3    H2  853   4.918   5.044   5.313  0.1151 -1.0823  1.5901
  304TIP3   OH2  854   5.460   6.545   4.939  0.2653  0.0244 -0.5078
  304TIP3    H1  855   5.426   6.633   4.955  2.4563  1.1576 -1.6619
  304TIP3    H2  856   5.409   6.489   4.998 -0.3062  2.2366  1.2601
  305TIP3   OH2  857   4.332   1.003   0.597  0.3133 -0.0418 -0.3589
  305TIP3    H1  858   4.334   1.096   0.618  0.5335  0.4521 -2.4255
  305TIP3    H2  859   4.249   0.990   0.550 -0.2395 -1.1445  0.8259
  306TIP3   OH2  860   8.300   2.233   1.178  0.1761 -0.5189  0.3994
  306TIP3    H1  861   8.241   2.294   1.135 -0.2446  0.4886  2.2852
  306TIP3    H2  862   8.257   2.148   1.171 -0.2475 -0.2422 -0.4385
  307TIP3   OH2  863   1.026   2.966   5.938  0.3020 -0.1296 -0.0578
  307TIP3    H1  864   1.088   3.037   5.956 -1.4732  1.6073 -0.3981
  307TIP3    H2  865   1.070   2.887   5.969  2.7933  0.9536 -0.5901
  308TIP3   OH2  866   7.577   5.248   5.336  0.4786  0.7109  0.0413
  308TIP3    H1  867   7.559   5.338   5.310 -0.6819  0.5904  0.3656
  308TIP3    H2  868   7.517   5.195   5.283  0.2331  0.2413  0.7641
  309TIP3   OH2  869   4.957   0.405   1.491  0.2398  0.0620  0.4944
  309TIP3    H1  870   4.923   0.494   1.498  1.2206  0.5922 -0.9497
  309TIP3    H2  871   5.053   0.415   1.493  0.3899 -0.8266 -0.6981
  310TIP3   OH2  872   7.628   5.645   2.825  0.3198 -0.8143  0.0618
  310TIP3    H1  873   7.563   5.714   2.815 -0.2116 -1.1938  0.7751
  310TIP3    H2  874   7.608   5.582   2.756 -0.1324 -0.9704  0.3311
  311TIP3   OH2  875   3.140   5.355   2.692  0.2946  0.0932 -0.2639
  311TIP3    H1  876   3.068   5.389   2.639  1.8622  3.2110 -0.6522
  311TIP3    H2  877   3.215   5.353   2.632  1.6000  1.5730  1.2320
  312TIP3   OH2  878   2.619   2.691   3.536  0.1889  0.0615 -0.5795
  312TIP3    H1  879   2.559   2.752   3.494 -1.1290 -0.5009  0.4207
  312TIP3    H2  880   2.562   2.628   3.581  1.5196 -0.4714  0.4304
  313TIP3   OH2  881   2.615   5.541   3.315  0.0352 -0.3796 -0.3120
  313TIP3    H1  882   2.589   5.472   3.376  0.1487  0.9491  1.2783
  313TIP3    H2  883   2.711   5.538   3.315  0.0419 -0.1071 -0.1243
  314TIP3   OH2  884   6.145   0.447   6.175  0.2308 -0.0742  0.6657
  314TIP3    H1  885   6.201   0.438   6.098  1.1949  2.1628  1.0335
  314TIP3    H2  886   6.164   0.369   6.227  2.1401  0.0357  0.2111
  315TIP3   OH2  887   0.040  -0.020   5.754 -0.1940 -0.0695 -0.0503
  315TIP3    H1  888  -0.045  -0.045   5.791 -1.6540  1.3242 -2.2158
  315TIP3    H2  889   0.045   0.075   5.767  1.4080 -0.2186  0.6737
  316TIP3   OH2  890   6.586   3.998   5.321  0.1724  0.1358 -0.4263
  316TIP3    H1  891   6.548   4.042   5.245 -0.8525 -0.1802 -0.1255
  316TIP3    H2  892   6.561   3.906   5.310 -1.1316  0.2922  0.9320
  317TIP3   OH2  893   1.999   5.579   5.885 -0.3159 -0.6091 -0.2962
  317TIP3    H1  894   1.985   5.669   5.856 -0.0023 -0.8177 -1.1279
  317TIP3    H2  895   2.059   5.542   5.820  0.2873 -1.1487  0.5421
  318TIP3   OH2  896   4.838   1.123  -0.011  0.2424 -0.7740 -0.2240
  318TIP3    H1  897   4.868   1.044   0.034  0.7104 -0.3358  0.2586
  318TIP3    H2  898   4.895   1.192   0.022 -1.3693  0.1264  0.8517
  319TIP3   OH2  899   6.970   5.696   5.622  0.2496 -1.0699 -0.5842
  319TIP3    H1  900   6.997   5.689   5.531 -1.3650  1.5826 -1.3818
  319TIP3    H2  901   6.894   5.638   5.629 -1.0213  0.3559 -1.6488
  320TIP3   OH2  902   7.256   5.881   5.635  0.3985 -0.0119  0.0452
  320TIP3    H1  903   7.304   5.950   5.589  1.6180 -0.7879  0.1263
  320TIP3    H2  904   7.164   5.908   5.629  0.9482  2.6632  1.7769
  321TIP3   OH2  905   4.332   7.241   2.397  0.1796  0.0769  0.3662
  321TIP3    H1  906   4.414   7.288   2.380  0.6481 -1.1235 -1.0160
  321TIP3    H2  907   4.337   7.165   2.339 -1.0032 -1.1158  1.7526
  322TIP3   OH2  908   3.556   6.117   5.137  0.2683  0.1841  0.3236
  322TIP3    H1  909   3.560   6.170   5.217  1.4252 -0.6646  0.8635
  322TIP3    H2  910   3.503   6.169   5.076 -1.6808  0.3221  2.0263
  323TIP3   OH2  911   2.787   5.541   4.162 -0.0513 -0.7587  0.2596
  323TIP3    H1  912   2.747   5.541   4.075 -1.2879  0.9997  0.7700
  323TIP3    H2  913   2.844   5.465   4.162  2.0427  0.6074 -3.0286
  324TIP3   OH2  914   5.845   3.902   1.728 -0.5171 -0.6245  0.2800
  324TIP3    H1  915   5.926   3.889   1.777  0.4634 -0.6602 -1.2966
  324TIP3    H2  916   5.829   3.818   1.685  0.8101  0.4694 -2.5628
  325TIP3   OH2  917   0.098   1.145   6.637  0.4105 -0.0427 -0.0036
  325TIP3    H1  918   0.192   1.164   6.640  0.7031 -1.2368 -0.8173
  325TIP3    H2  919   0.093   1.050   6.628 -0.8759  0.0348 -0.3242
  326TIP3   OH2  920   5.837   0.814   0.243  0.0845  0.4330  0.0512
  326TIP3    H1  921   5.842   0.849   0.154 -1.3526  1.3476  0.3017
  326TIP3    H2  922   5.786   0.733   0.235  2.0151 -0.8319 -0.2759
  327TIP3   OH2  923   2.469   1.161   1.744  0.0010  0.4532 -0.0755
  327TIP3    H1  924   2.481   1.132   1.653  0.8400 -2.0830  0.7614
  327TIP3    H2  925   2.542   1.123   1.791 -2.0195 -0.9119  2.2021
  328TIP3   OH2  926   2.301   0.550   2.030  0.1441  0.1720 -0.7910
  328TIP3    H1  927   2.365   0.524   2.096 -1.6747 -0.4853  0.7944
  328TIP3    H2  928   2.217   0.550   2.076 -0.8526  2.4419 -2.4079
  329TIP3   OH2  929   6.441   5.454   6.016 -0.5764 -0.1173 -0.2271
  329TIP3    H1  930   6.393   5.394   5.958 -0.0141  0.0522 -0.8791
  329TIP3    H2  931   6.373   5.511   6.053 -1.1977 -1.5380  0.8875
  330TIP3   OH2  932   6.921   1.268   3.606  0.4125  0.2725 -0.0309
  330TIP3    H1  933   6.942   1.184   3.648  1.9838  0.2664 -0.7711
  330TIP3    H2  934   6.879   1.319   3.676  0.3519 -0.7514  0.7154
  331TIP3   OH2  935   0.610   6.787   5.692 -0.7662 -0.2507  0.7798
  331TIP3    H1  936   0.635   6.856   5.754 -0.1460 -0.7524  1.0992
  331TIP3    H2  937   0.641   6.818   5.607 -2.4846  0.8997  0.5249
  332TIP3   OH2  938   1.932   5.422   0.857  0.3341 -0.0399  0.2023
  332TIP3    H1  939   1.851   5.450   0.899  0.7173  1.1854  0.1771
  332TIP3    H2  940   1.924   5.327   0.849 -0.3706 -0.1373  1.7124
  333TIP3   OH2  941   5.302   5.005   1.053 -0.5355  0.0479  0.3414
  333TIP3    H1  942   5.373   5.003   0.989 -0.0215  3.1793  0.6439
  333TIP3    H2  943   5.292   4.914   1.081  2.7982 -0.6441 -0.3197
  334TIP3   OH2  944   6.236   1.714   1.485 -0.5403  0.3064 -0.1084
  334TIP3    H1  945   6.150   1.704   1.445 -3.2495  2.5471  4.3850
  334TIP3    H2  946   6.231   1.664   1.566  3.1901 -1.0061 -0.5251
  335TIP3   OH2  947   2.698   5.669   6.033 -0.5993  0.1007 -0.1216
  335TIP3    H1  948   2.723   5.727   6.105  2.1928 -1.9902  0.7613
  335TIP3    H2  949   2.724   5.717   5.954  1.0354  0.3627  0.5458
  336TIP3   OH2  950   7.234   2.509   6.112 -0.4147  0.3732 -0.2508
  336TIP3    H1  951   7.327   2.531   6.105 -0.4443  1.5412  2.0389
  336TIP3    H2  952   7.190   2.593   6.124 -1.4066 -0.3428  1.5432
  337TIP3   OH2  953   8.235   4.513   1.853 -0.2373 -0.1500  0.3573
  337TIP3    H1  954   8.141   4.517   1.838 -0.6890 -1.5501  2.4039
  337TIP3    H2  955   8.272   4.581   1.796 -2.4507  0.3693 -0.5433
  338TIP3   OH2  956   6.363   0.465   3.850  1.1060  0.6556  0.1161
  338TIP3    H1  957   6.389   0.394   3.909 -0.0965  0.6727  0.6877
  338TIP3    H2  958   6.291   0.428   3.798  0.4589  1.4417  0.4278
  339TIP3   OH2  959   2.035   0.739   1.872 -0.2228 -0.3124  0.3370
  339TIP3    H1  960   2.056   0.649   1.846 -1.8461 -1.4617  2.6547
  339TIP3    H2  961   2.117   0.775   1.904  0.1611 -1.4529  0.6600
  340TIP3   OH2  962   5.830   6.154   2.206  0.0198 -0.0260  0.5088
  340TIP3    H1  963   5.846   6.069   2.166 -1.0669 -1.0015  2.0782
  340TIP3    H2  964   5.909   6.171   2.258 -0.2489 -0.6167  1.1131
  341TIP3   OH2  965   0.531   5.252   6.495 -0.1763 -0.2802  0.0067
  341TIP3    H1  966   0.517   5.343   6.518  0.3378  0.2919 -1.8100
  341TIP3    H2  967   0.476   5.237   6.418  0.8187 -1.0830 -0.5838
  342TIP3   OH2  968   7.244   3.830   5.804  0.5561  0.2173  0.3307
  342TIP3    H1  969   7.156   3.795   5.821  0.8439 -0.1217  1.2015
  342TIP3    H2  970   7.229   3.902   5.743 -0.3298  0.1306  0.4209
  343TIP3   OH2  971   7.224   1.319   4.157  0.0916 -0.8092  0.2463
  343TIP3    H1  972   7.182   1.331   4.242 -0.4667  0.5207 -0.2000
  343TIP3    H2  973   7.207   1.400   4.110  2.5905 -0.4734 -0.2184
  344TIP3   OH2  974   1.427   1.121   6.183  0.1333  0.1176  0.1489
  344TIP3    H1  975   1.426   1.165   6.268  0.2358  1.4196 -0.4994
  344TIP3    H2  976   1.336   1.099   6.166  0.2893 -1.5780  1.2829
  345TIP3   OH2  977   6.706   3.650   0.873  0.2100 -0.2924  0.3086
  345TIP3    H1  978   6.730   3.604   0.953 -1.1537 -0.4124  0.6790
  345TIP3    H2  979   6.610   3.651   0.874  0.1536  2.8686  0.4972
  346TIP3   OH2  980   0.942   2.009   6.158  0.0543  0.2374 -0.0019
  346TIP3    H1  981   1.036   2.024   6.170 -0.3704  1.7162  2.0711
  346TIP3    H2  982   0.918   1.948   6.227 -0.6341  0.4899 -0.0050
  347TIP3   OH2  983   6.131   3.843   2.072  0.0362  0.1013 -0.0065
  347TIP3    H1  984   6.123   3.839   1.977 -0.6594  0.8138  0.0091
  347TIP3    H2  985   6.058   3.897   2.100 -0.0066 -0.4364  0.9781
  348TIP3   OH2  986   1.889   7.792   4.933  0.4838 -0.1746 -0.2188
  348TIP3    H1  987   1.819   7.815   4.871  0.4529 -1.8000 -0.8329
  348TIP3    H2  988   1.851   7.809   5.019 -0.8476 -1.3972 -0.5191
  349TIP3   OH2  989   7.871   3.484   3.369  0.3125  0.1600 -0.7456
  349TIP3    H1  990   7.820   3.425   3.423  1.9345  0.6981  1.5263
  349TIP3    H2  991   7.889   3.434   3.289 -0.7804 -1.2945 -0.1251
  350TIP3   OH2  992   1.906   3.227   5.238 -0.0920  0.0171 -0.7811
  350TIP3    H1  993   1.924   3.134   5.232 -2.2435 -0.4355 -1.1146
  350TIP3    H2  994   1.896   3.243   5.332  0.1429 -0.1065 -0.7339
  351TIP3   OH2  995   7.693   6.547   3.586 -0.0692  0.1507 -0.0266
  351TIP3    H1  996   7.734   6.543   3.673 -1.4944 -1.3376  0.6279
  351TIP3    H2  997   7.757   6.505   3.528 -0.6065 -2.2981  1.0023
  352TIP3   OH2  998   6.602   6.140   6.547  0.0804  0.2257  0.4598
  352TIP3    H1  999   6.585   6.109   6.458  0.4712  0.1342  0.4187
  352TIP3    H2 1000   6.574   6.232   6.545 -1.2795 -0.1592  0.6420
  353TIP3   OH2 1001   5.997   1.305   0.081  0.2844 -0.2329  0.0074
  353TIP3    H1 1002   5.948   1.300  -0.002  0.4319  0.3259 -0.1163
  353TIP3    H2 1003   6.006   1.399   0.098  2.6396 -0.2592 -0.7635
  354TIP3   OH2 1004   0.358   5.244   1.988 -0.2185  0.3255  0.6717
  354TIP3    H1 1005   0.390   5.157   2.013 -2.9664 -1.0582 -0.2449
  354TIP3    H2 1006   0.406   5.304   2.045  0.4327 -1.9273  2.6698
  355TIP3   OH2 1007   8.007   2.153   3.693 -0.4793 -0.4171 -0.8771
  355TIP3    H1 1008   7.943   2.157   3.623  0.4694 -1.2024 -1.8216
  355TIP3    H2 1009   7.993   2.068   3.735 -1.6084  0.3898  0.4873
  356TIP3   OH2 1010   7.434   1.389   2.407  0.1817  0.4053 -0.0293
  356TIP3    H1 1011   7.373   1.463   2.408 -0.5204 -0.1823  1.0395
  356TIP3    H2 1012   7.384   1.317   2.367 -0.2318 -0.3924  1.8502
  357TIP3   OH2 1013   0.922   2.503   4.865 -0.5005  0.1288  0.2227
  357TIP3    H1 1014   0.984   2.473   4.798  1.4342  2.3400  0.8784
  357TIP3    H2 1015   0.935   2.443   4.938 -1.4005 -1.2734 -0.7200
  358TIP3   OH2 1016   3.277   2.467   4.014 -0.2383  0.1981  0.5630
  358TIP3    H1 1017   3.272   2.454   3.919  1.4241 -1.1901  0.6250
  358TIP3    H2 1018   3.201   2.523   4.034 -1.7488 -1.0450 -1.2805
  359TIP3   OH2 1019   0.724   2.388   0.616 -0.2055  0.1488  0.1432
  359TIP3    H1 1020   0.811   2.426   0.625 -1.1135  2.1600  1.1727
  359TIP3    H2 1021   0.718   2.323   0.686  1.2821 -1.8915 -1.4809
  360TIP3   OH2 1022   3.551   1.945   3.561 -0.4412 -0.9172 -0.4044
  360TIP3    H1 1023   3.495   1.933   3.637 -1.0248  2.8155 -0.0565
  360TIP3    H2 1024   3.491   1.968   3.490  0.4291  0.4202 -0.7332
  361TIP3   OH2 1025   5.600   2.881   0.621  0.0443  0.0898  0.6761
  361TIP3    H1 1026   5.613   2.942   0.549  1.0739  0.4464  1.1396
  361TIP3    H2 1027   5.603   2.935   0.700 -0.9403 -0.3134  1.0024
  362TIP3   OH2 1028   5.578   5.649   5.707  0.4787  0.0052 -0.4032
  362TIP3    H1 1029   5.573   5.651   5.612  1.2676  3.2285 -0.5024
  362TIP3    H2 1030   5.506   5.704   5.736  1.6645  1.0411  0.7016
  363TIP3   OH2 1031   3.641   3.161   3.929 -0.3656  0.4539  0.3955
  363TIP3    H1 1032   3.569   3.206   3.885 -0.5383 -0.2763 -0.0820
  363TIP3    H2 1033   3.617   3.068   3.925  2.6186 -0.4443 -3.8090
  364TIP3   OH2 1034   3.878   5.051   2.153  0.2427  0.1454  0.0860
  364TIP3    H1 1035   3.872   4.956   2.158  0.2961  0.1040 -0.5891
  364TIP3    H2 1036   3.846   5.082   2.238 -0.1628 -0.4551  0.1530
  365TIP3   OH2 1037   3.310   6.546   2.231 -0.0732  0.0434  0.3778
  365TIP3    H1 1038   3.272   6.545   2.143 -0.6536  0.2471  0.6214
  365TIP3    H2 1039   3.293   6.635   2.264  0.9249  0.2522  0.3643
  366TIP3   OH2 1040   2.025   0.464   0.345  0.5964  0.0188  0.4338
  366TIP3    H1 1041   2.114   0.444   0.316  0.7500  0.5547  0.5330
  366TIP3    H2 1042   1.975   0.473   0.265  0.7110  0.0778  0.3686
  367TIP3   OH2 1043   0.983   6.510   1.895  0.7712  0.2594  0.2573
  367TIP3    H1 1044   1.048   6.468   1.951 -0.5072  1.1178  2.4799
  367TIP3    H2 1045   1.005   6.603   1.896 -0.2171  0.5002  0.6769
  368TIP3   OH2 1046   1.082   1.713   4.370  0.4461  0.3032 -0.4574
  368TIP3    H1 1047   1.111   1.794   4.329  0.4277  0.0235 -1.0199
  368TIP3    H2 1048   1.025   1.671   4.306 -0.3292  0.3049  0.2012
  369TIP3   OH2 1049   2.520   5.209   1.114 -0.0555  0.4718  0.2409
  369TIP3    H1 1050   2.527   5.136   1.054 -0.0570 -0.7437  1.6546
  369TIP3    H2 1051   2.434   5.247   1.096 -1.2152 -1.5218  1.2075
  370TIP3   OH2 1052   7.839   6.911   0.032 -0.6613 -0.7400 -0.2310
  370TIP3    H1 1053   7.891   6.984  -0.001  0.3157  0.4061  3.3447
  370TIP3    H2 1054   7.890   6.833   0.010 -0.9039 -0.2758 -2.6601
  371TIP3   OH2 1055   2.447   2.485   2.856 -0.8184  0.0718 -0.2537
  371TIP3    H1 1056   2.507   2.474   2.929  0.1911  3.3012 -0.4545
  371TIP3    H2 1057   2.369   2.525   2.894 -0.3818  1.5530 -0.8312
  372TIP3   OH2 1058   6.310   7.369   5.382 -0.2898 -0.0621  0.4392
  372TIP3    H1 1059   6.243   7.351   5.316 -0.4395 -0.8904  0.8051
  372TIP3    H2 1060   6.283   7.318   5.458  0.8099 -0.5047  0.5528
  373TIP3   OH2 1061   2.509   1.628   4.760  0.1759 -0.1813 -0.0765
  373TIP3    H1 1062   2.554   1.645   4.843  1.2872 -0.1196 -0.6673
  373TIP3    H2 1063   2.575   1.646   4.694 -0.0433 -2.2445 -0.9156
  374TIP3   OH2 1064   1.743   1.633   5.981 -0.0981  0.3613 -0.4394
  374TIP3    H1 1065   1.666   1.683   6.007 -1.1781 -0.9836 -0.9830
  374TIP3    H2 1066   1.790   1.691   5.921 -0.8156  1.0915 -0.3122
  375TIP3   OH2 1067   1.541   4.710   2.019 -0.0854 -0.5215  0.4115
  375TIP3    H1 1068   1.578   4.748   1.940  0.2136 -0.0512  0.7778
  375TIP3    H2 1069   1.489   4.780   2.058 -4.1962 -1.9899 -1.7825
  376TIP3   OH2 1070   7.778   6.802   3.831 -0.2426 -1.0284  0.4935
  376TIP3    H1 1071   7.722   6.869   3.871  0.9842 -1.3220  2.9058
  376TIP3    H2 1072   7.854   6.850   3.798 -0.8977 -0.8794 -0.8514
  377TIP3   OH2 1073  -0.021   2.082   2.178 -0.2629 -0.7283 -0.4181
  377TIP3    H1 1074  -0.028   2.039   2.263  0.9712  1.7964  1.1051
  377TIP3    H2 1075   0.071   2.072   2.153 -0.4645 -0.8614 -1.1319
  378TIP3   OH2 1076   8.020   6.696   0.056  0.2978 -0.2620  0.1792
  378TIP3    H1 1077   8.077   6.690  -0.021 -0.4236 -1.3163 -0.3043
  378TIP3    H2 1078   8.080   6.704   0.130  0.9993  1.9482 -0.5516
  379TIP3   OH2 1079   5.678   1.242   5.861  0.0228  0.1908 -0.4282
  379TIP3    H1 1080   5.765   1.279   5.848  0.0906  0.4679  0.6556
  379TIP3    H2 1081   5.643   1.230   5.773  1.1900 -0.0205 -0.8849
  380TIP3   OH2 1082   7.516   3.467   2.504  0.6199 -0.2788 -0.0816
  380TIP3    H1 1083   7.471   3.450   2.587  3.8467 -1.9152  1.5018
  380TIP3    H2 1084   7.529   3.562   2.503  0.4714 -0.2182  1.2986
  381TIP3   OH2 1085   5.133   4.140   5.913 -0.3703  0.1634 -0.2577
  381TIP3    H1 1086   5.046   4.175   5.933 -0.1222  0.2244  0.7804
  381TIP3    H2 1087   5.185   4.216   5.888 -0.0666  0.4461  1.1527
  382TIP3   OH2 1088   1.925   5.464   2.590  0.5005  0.0495  0.3687
  382TIP3    H1 1089   1.925   5.371   2.612  2.5263 -0.5222 -1.6624
  382TIP3    H2 1090   1.852   5.500   2.641 -0.9570 -2.7924  0.5335
  383TIP3   OH2 1091   7.215   1.720   2.223 -0.4420  0.5174 -0.2067
  383TIP3    H1 1092   7.239   1.676   2.305  0.5218 -0.2382 -0.8629
  383TIP3    H2 1093   7.173   1.801   2.251  0.8741  0.8210  1.0445
  384TIP3   OH2 1094   5.295   7.249   0.415  0.0595  0.1029 -0.0540
  384TIP3    H1 1095   5.299   7.157   0.442 -1.4433 -0.6041 -1.9723
  384TIP3    H2 1096   5.209   7.279   0.445  1.2098  1.4915  2.1087
  385TIP3   OH2 1097   1.005   6.568   5.095  0.7274 -0.4274 -0.2229
  385TIP3    H1 1098   1.023   6.649   5.144  0.8373 -1.2040  1.0843
  385TIP3    H2 1099   0.911   6.570   5.079  0.6966 -0.1351 -0.0153
  386TIP3   OH2 1100   2.690   5.300   5.777 -0.2623 -0.5306 -0.8838
  386TIP3    H1 1101   2.771   5.350   5.771  0.3894 -1.5331 -0.7476
  386TIP3    H2 1102   2.684   5.275   5.869 -1.0799  0.1021 -0.7598
  387TIP3   OH2 1103   6.687   7.343   6.491 -0.4851 -0.7906 -0.6256
  387TIP3    H1 1104   6.612   7.393   6.460  0.2228 -0.3275 -1.6550
  387TIP3    H2 1105   6.652   7.256   6.508 -1.7890  0.0538  1.4113
  388TIP3   OH2 1106   3.838   6.331   2.816 -0.1796 -0.5098  0.7493
  388TIP3    H1 1107   3.851   6.403   2.754 -0.7313 -2.0971 -1.3213
  388TIP3    H2 1108   3.786   6.369   2.886  0.9330  1.5059  0.5461
  389TIP3   OH2 1109   5.144   4.591   0.151  0.2549  0.3238  0.0173
  389TIP3    H1 1110   5.159   4.679   0.118  0.6486  0.1996 -0.1528
  389TIP3    H2 1111   5.232   4.554   0.160  0.0842 -1.0379 -2.6275
  390TIP3   OH2 1112   1.061   1.327   1.742  0.2902  0.6554 -0.0545
  390TIP3    H1 1113   1.103   1.247   1.710 -1.0602 -0.0575 -0.1231
  390TIP3    H2 1114   1.024   1.302   1.827 -2.0196  0.5307 -1.0340
  391TIP3   OH2 1115   0.107   4.208   4.757 -0.0253  0.2632 -0.3966
  391TIP3    H1 1116   0.183   4.149   4.757  0.2060  0.5610 -0.3636
  391TIP3    H2 1117   0.133   4.282   4.702  0.6066  1.5004  1.4688
  392TIP3   OH2 1118   6.393   2.483   3.690 -0.1544 -0.2747 -0.0078
  392TIP3    H1 1119   6.373   2.563   3.739  1.3949 -0.2060  0.5872
  392TIP3    H2 1120   6.458   2.438   3.744 -1.6445 -2.4163  0.1133
  393TIP3   OH2 1121   1.935   0.155   5.143  0.2732  0.7588  0.1876
  393TIP3    H1 1122   2.000   0.214   5.105 -0.3571  1.3853  0.0767
  393TIP3    H2 1123   1.852   0.202   5.137 -0.1954 -0.0202  0.3566
  394TIP3   OH2 1124   3.310   4.970   4.419 -0.1708  0.2352  0.3529
  394TIP3    H1 1125   3.400   4.985   4.450  0.1733 -1.3319  0.1769
  394TIP3    H2 1126   3.319   4.952   4.325 -0.6245 -0.2632  0.3983
  395TIP3   OH2 1127   5.546   4.415   4.974  0.1767 -0.1075  0.3195
  395TIP3    H1 1128   5.453   4.436   4.971  0.0012 -0.5675  1.7947
  395TIP3    H2 1129   5.588   4.486   4.924 -0.9165  0.3003 -0.0576
  396TIP3   OH2 1130   6.259   6.169   0.993  0.1482 -0.5984  0.1148
  396TIP3    H1 1131   6.169   6.172   1.025  0.0125 -0.0259 -0.2978
  396TIP3    H2 1132   6.308   6.222   1.056  0.0726 -0.3490 -0.0357
  397TIP3   OH2 1133   0.203   0.398   4.132  0.2087  0.0696 -0.1373
  397TIP3    H1 1134   0.246   0.354   4.059  1.1932  1.9353 -0.7389
  397TIP3    H2 1135   0.110   0.400   4.108  0.5689  1.0630 -1.6123
  398TIP3   OH2 1136   5.125   0.466   2.062 -0.3998 -0.0628  0.2628
  398TIP3    H1 1137   5.209   0.426   2.044 -0.9762 -0.7650 -1.0276
  398TIP3    H2 1138   5.134   0.556   2.030 -0.0965 -0.0881  0.2771
  399TIP3   OH2 1139   0.668   0.992   4.523  0.8931 -0.3402 -0.6315
  399TIP3    H1 1140   0.619   1.015   4.602  0.3844 -0.6608 -0.8476
  399TIP3    H2 1141   0.602   0.955   4.464  1.2180  0.1574 -1.3173
  400TIP3   OH2 1142   6.747   2.932   5.536 -0.7042 -0.1596 -0.6294
  400TIP3    H1 1143   6.809   2.859   5.530  2.7010  2.5381 -1.4229
  400TIP3    H2 1144   6.753   2.961   5.627 -2.4596 -1.1070 -0.1749
  401TIP3   OH2 1145   6.067   5.510   4.638  0.2132 -0.1427  0.1533
  401TIP3    H1 1146   6.059   5.486   4.731  0.7937 -0.9257  0.0165
  401TIP3    H2 1147   5.977   5.528   4.610  0.2017  1.7396  1.2695
  402TIP3   OH2 1148   6.023   6.747   5.035 -0.8011  0.1462 -0.2272
  402TIP3    H1 1149   5.998   6.710   4.950  0.9879 -2.2686  0.1832
  402TIP3    H2 1150   6.050   6.836   5.016 -1.0748 -0.1277 -2.0676
  403TIP3   OH2 1151   6.416   2.940   3.131 -0.5326  0.1161 -0.3361
  403TIP3    H1 1152   6.485   2.990   3.175 -1.6840  1.8784 -0.4066
  403TIP3    H2 1153   6.368   2.898   3.202 -0.1258 -0.1196 -0.1974
  404TIP3   OH2 1154   5.628   1.431   1.119  0.2026  0.0254  0.0133
  404TIP3    H1 1155   5.622   1.469   1.206 -0.0148 -1.0654  0.4822
  404TIP3    H2 1156   5.565   1.481   1.067 -0.2189  0.1791  0.6606
  405TIP3   OH2 1157   3.455   0.522   5.733 -0.4037  0.9049 -0.0415
  405TIP3    H1 1158   3.380   0.539   5.789  0.4162  1.2158  0.9869
  405TIP3    H2 1159   3.530   0.523   5.792  0.2161 -1.6116 -0.6504
  406TIP3   OH2 1160   2.065   7.409   4.402 -0.0220 -0.2577 -0.2432
  406TIP3    H1 1161   1.983   7.363   4.422 -0.2943  0.9547  1.6899
  406TIP3    H2 1162   2.126   7.381   4.470  0.9872 -0.5804 -1.2409
  407TIP3   OH2 1163   1.118   2.520   3.302  0.1873  0.3845  0.3657
  407TIP3    H1 1164   1.187   2.586   3.311 -0.1294  0.7422  0.2053
  407TIP3    H2 1165   1.138   2.455   3.370  0.2859  0.8429  0.7852
  408TIP3   OH2 1166   1.826   2.442   1.806 -0.2385  0.6954  0.2252
  408TIP3    H1 1167   1.804   2.532   1.830  0.6243  0.7614  0.8154
  408TIP3    H2 1168   1.921   2.439   1.808 -0.2619 -0.6383  1.8051
  409TIP3   OH2 1169   7.711   5.543   0.556  0.0381 -0.2742  0.2578
  409TIP3    H1 1170   7.650   5.471   0.540  3.1500 -2.8166 -1.3154
  409TIP3    H2 1171   7.721   5.544   0.652 -0.7954 -1.2527  0.3735
  410TIP3   OH2 1172   5.791   5.579   1.612 -0.3711 -0.0199  0.0458
  410TIP3    H1 1173   5.736   5.554   1.537 -0.0580 -2.3304  0.4893
  410TIP3    H2 1174   5.752   5.659   1.646 -2.5128 -0.7245 -0.6139
  411TIP3   OH2 1175   6.352   2.872   5.188 -0.6206  0.9390 -0.2136
  411TIP3    H1 1176   6.261   2.844   5.180 -0.5976  0.9702 -0.6091
  411TIP3    H2 1177   6.377   2.849   5.278 -0.3282 -1.1315 -0.7631
  412TIP3   OH2 1178   5.438   6.148   0.154  0.1938  0.0274  0.0430
  412TIP3    H1 1179   5.405   6.168   0.242 -3.0056  1.8651 -1.3940
  412TIP3    H2 1180   5.474   6.231   0.123 -0.6205 -0.0344 -1.1030
  413TIP3   OH2 1181   5.131   3.319   0.147  0.7417 -0.1753  0.0534
  413TIP3    H1 1182   5.161   3.386   0.208  0.3148  0.1429 -0.0859
  413TIP3    H2 1183   5.111   3.243   0.202 -1.6407  0.7603  0.5873
  414TIP3   OH2 1184   5.033   4.819   5.641  0.1599 -0.1439  0.6057
  414TIP3    H1 1185   5.044   4.909   5.612 -0.9347  0.2042  1.2070
  414TIP3    H2 1186   5.060   4.766   5.567 -2.2147  0.7016 -0.9684
  415TIP3   OH2 1187   4.121   3.557   1.027  0.0022 -0.3503  0.1815
  415TIP3    H1 1188   4.169   3.480   1.058  0.9652  1.1834  2.7677
  415TIP3    H2 1189   4.047   3.565   1.087  0.2247  1.0413  0.2869
  416TIP3   OH2 1190   6.407   3.333   6.703 -0.1802  0.1945  0.8111
  416TIP3    H1 1191   6.393   3.239   6.713 -0.5410  0.1648  0.0405
  416TIP3    H2 1192   6.397   3.368   6.792  1.6852 -0.7003  1.4384
  417TIP3   OH2 1193   7.944   0.704   3.111 -0.5882 -0.2983  0.4859
  417TIP3    H1 1194   7.969   0.794   3.134 -0.4910  0.2038 -1.3817
  417TIP3    H2 1195   7.989   0.688   3.028 -0.5351 -2.1230  0.8385
  418TIP3   OH2 1196   3.331   1.386   4.861 -0.2021 -0.0445  0.4075
  418TIP3    H1 1197   3.337   1.303   4.814  0.9881  1.1834 -1.8262
  418TIP3    H2 1198   3.287   1.445   4.799  1.1623  1.5820  0.9101
  419TIP3   OH2 1199   3.331   7.411   1.269  0.6229 -0.2303  0.3126
  419TIP3    H1 1200   3.301   7.402   1.179  0.9292  0.1416  0.1698
  419TIP3    H2 1201   3.280   7.484   1.304  1.2757  0.3304  0.1029
  420TIP3   OH2 1202   2.928   1.795   2.155  0.9181  0.5945 -0.4423
  420TIP3    H1 1203   2.990   1.820   2.224  1.3485 -1.2703 -0.0985
  420TIP3    H2 1204   2.850   1.848   2.174  0.9208 -0.0686  1.6893
  421TIP3   OH2 1205   3.633   3.157   0.466 -0.1314 -0.1254 -0.2524
  421TIP3    H1 1206   3.639   3.099   0.390  0.1185 -0.4747  0.0329
  421TIP3    H2 1207   3.640   3.098   0.541 -1.5326  0.0744  0.0597
  422TIP3   OH2 1208   2.149   0.884   5.764 -0.3438  0.3844  0.2940
  422TIP3    H1 1209   2.072   0.934   5.791 -0.4156  0.0325  0.7463
  422TIP3    H2 1210   2.117   0.826   5.695 -1.1668 -1.7819  2.3578
  423TIP3   OH2 1211   1.373   6.418   3.006  0.3793 -0.5687 -0.0378
  423TIP3    H1 1212   1.294   6.472   3.005 -0.3406 -1.5968 -1.4951
  423TIP3    H2 1213   1.351   6.341   2.955  2.5519 -0.5749 -1.0953
  424TIP3   OH2 1214   6.823   3.046   0.479  0.0112 -0.3601  0.0026
  424TIP3    H1 1215   6.862   3.049   0.567 -1.8517  0.2865  0.8822
  424TIP3    H2 1216   6.732   3.020   0.495 -1.5648  3.5684 -1.1827
  425TIP3   OH2 1217   4.075   3.852   0.256  0.4708  0.2635  0.2330
  425TIP3    H1 1218   4.050   3.916   0.322  0.4800  1.2947 -0.7289
  425TIP3    H2 1219   4.022   3.875   0.180 -1.0375 -2.1462  0.4635
  426TIP3   OH2 1220   6.853   7.191   0.884  0.3350 -0.4261  0.5426
  426TIP3    H1 1221   6.763   7.174   0.857  0.0825  1.6712 -0.0771
  426TIP3    H2 1222   6.870   7.281   0.858  2.7123 -0.8334  0.4294
  427TIP3   OH2 1223   0.422   7.230   5.412  0.0927 -0.3791 -0.0933
  427TIP3    H1 1224   0.429   7.149   5.362  2.1635 -0.2158 -0.1694
  427TIP3    H2 1225   0.470   7.211   5.493  1.6522  1.0764 -0.6111
  428TIP3   OH2 1226   7.699   5.707   3.553  0.0340  0.2030  0.1718
  428TIP3    H1 1227   7.637   5.685   3.483  0.1404 -0.3336  0.2381
  428TIP3    H2 1228   7.749   5.626   3.566  0.6907  0.6046  0.1768
  429TIP3   OH2 1229   1.866   0.184   4.512 -0.9522 -0.0915  0.0159
  429TIP3    H1 1230   1.932   0.171   4.579 -2.2267  0.5149  1.4384
  429TIP3    H2 1231   1.890   0.122   4.442  1.5686  0.7139  0.0868
  430TIP3   OH2 1232   7.406   7.415   6.199  0.0834  0.4597  0.4180
  430TIP3    H1 1233   7.480   7.373   6.245  0.1632  2.4039  2.1707
  430TIP3    H2 1234   7.387   7.355   6.127  1.6792 -1.4150  1.4392
  431TIP3   OH2 1235   8.201   4.195   4.536 -0.2843 -0.2635  0.9399
  431TIP3    H1 1236   8.173   4.111   4.500  2.6570 -0.4609 -1.2523
  431TIP3    H2 1237   8.148   4.260   4.489 -0.1043 -0.7878 -0.0222
  432TIP3   OH2 1238   7.971   0.552   5.063 -0.2290  0.0367  0.6638
  432TIP3    H1 1239   7.960   0.647   5.056 -1.6746 -0.2087 -0.8144
  432TIP3    H2 1240   8.021   0.528   4.985 -1.3139 -0.6175  0.1594
  433TIP3   OH2 1241   8.085   5.737   5.249  0.0657 -0.0508  0.7783
  433TIP3    H1 1242   8.098   5.665   5.312  1.4003  0.2196  0.8549
  433TIP3    H2 1243   8.042   5.806   5.300  1.0308  0.1223  1.4008
  434TIP3   OH2 1244   5.697   1.791   3.044 -0.1698 -0.0881 -0.4229
  434TIP3    H1 1245   5.637   1.827   3.109  0.5811  1.1468 -0.3902
  434TIP3    H2 1246   5.721   1.866   2.989  1.7408 -0.4172 -0.1204
  435TIP3   OH2 1247   6.051   5.868   5.978  0.0873 -0.3526 -0.1233
  435TIP3    H1 1248   5.982   5.927   6.006 -1.0457 -2.1378  1.0809
  435TIP3    H2 1249   6.026   5.841   5.889 -0.6485 -0.7889  0.2090
  436TIP3   OH2 1250   6.231   2.376   6.710  0.1451  0.5904  0.1071
  436TIP3    H1 1251   6.226   2.429   6.630  0.8576  1.3582  0.5589
  436TIP3    H2 1252   6.167   2.305   6.696 -0.5641  1.3563 -0.6620
  437TIP3   OH2 1253   5.782   1.061   0.381  0.2262 -0.0957 -0.7276
  437TIP3    H1 1254   5.796   0.973   0.345 -1.2343  0.0901 -1.8535
  437TIP3    H2 1255   5.727   1.105   0.315 -0.6316  1.0318  0.6844
  438TIP3   OH2 1256   4.983   0.979   4.644  0.5146 -0.4883 -0.2459
  438TIP3    H1 1257   4.947   0.928   4.716 -2.5291 -2.4095 -2.8290
  438TIP3    H2 1258   5.027   0.915   4.588 -0.1995  0.2875 -1.7727
  439TIP3   OH2 1259   2.535   3.964   1.406 -0.5326 -0.3491 -0.8060
  439TIP3    H1 1260   2.552   4.030   1.339 -0.2635 -1.2831 -1.6759
  439TIP3    H2 1261   2.599   3.895   1.389 -0.5245 -0.6514  0.3530
  440TIP3   OH2 1262   1.530   3.761   6.591  0.3162 -0.6341  0.2367
  440TIP3    H1 1263   1.585   3.839   6.594 -0.2113 -0.2716  0.6433
  440TIP3    H2 1264   1.590   3.689   6.608  1.0019 -0.4327 -1.1582
  441TIP3   OH2 1265   7.995   7.686   3.913  0.4703  0.2261  0.0006
  441TIP3    H1 1266   7.936   7.761   3.906 -0.3914 -0.4016  0.4155
  441TIP3    H2 1267   8.050   7.691   3.835  1.5315  2.2007  0.7954
  442TIP3   OH2 1268   7.279   2.936   2.512 -0.0180 -0.1700  0.1139
  442TIP3    H1 1269   7.212   2.897   2.568 -0.6478  0.8635  0.1125
  442TIP3    H2 1270   7.253   2.910   2.423 -1.8799  2.1929 -0.1348
  443TIP3   OH2 1271   3.855   1.198   2.767  0.2383  0.2621  0.4372
  443TIP3    H1 1272   3.951   1.200   2.768  0.2371  1.7322 -0.1163
  443TIP3    H2 1273   3.830   1.211   2.858  0.5611  0.6801  0.4678
  444TIP3   OH2 1274   7.081   7.342   3.370  0.1084 -0.1677  0.3026
  444TIP3    H1 1275   6.989   7.324   3.392  0.3156 -0.9418  0.5635
  444TIP3    H2 1276   7.123   7.256   3.371  0.9789  0.2488  0.8408
  445TIP3   OH2 1277   2.871   6.811   1.998  0.2343 -0.4764 -0.4545
  445TIP3    H1 1278   2.820   6.853   1.929 -0.5005 -0.3892  0.1291
  445TIP3    H2 1279   2.954   6.859   2.000 -0.0925  0.0987 -0.6725
  446TIP3   OH2 1280   3.095   1.644   6.666 -0.0228 -0.4789  0.2347
  446TIP3    H1 1281   3.036   1.651   6.741  0.5422  0.5048  0.6070
  446TIP3    H2 1282   3.070   1.717   6.609  0.7599 -0.1175  0.3470
  447TIP3   OH2 1283   6.341   7.151   0.785  0.1580 -1.0769 -0.1304
  447TIP3    H1 1284   6.273   7.092   0.751  1.8218 -2.2186 -1.6370
  447TIP3    H2 1285   6.415   7.094   0.805  1.3629  0.3523 -0.3569
  448TIP3   OH2 1286   4.293   2.582   2.283 -0.2404 -0.3973  0.0534
  448TIP3    H1 1287   4.325   2.605   2.370 -0.6799  0.5507 -0.0296
  448TIP3    H2 1288   4.305   2.487   2.278 -0.2441 -0.4693  1.1546
  449TIP3   OH2 1289   3.600   7.036   6.327 -0.9214 -0.5264  0.2909
  449TIP3    H1 1290   3.590   7.004   6.417 -0.4361  0.1155  0.5814
  449TIP3    H2 1291   3.537   7.108   6.321  1.7601  2.1088  1.4415
  450TIP3   OH2 1292   3.887   1.471   0.946  0.1064  0.1878  0.5760
  450TIP3    H1 1293   3.893   1.561   0.914 -0.4755  0.3439  0.8939
  450TIP3    H2 1294   3.879   1.480   1.041  1.4353 -0.2585  0.7412
  451TIP3   OH2 1295   4.342   7.130   4.997 -0.3834  0.3283 -0.2721
  451TIP3    H1 1296   4.366   7.214   4.958  0.6409 -0.7693 -2.1418
  451TIP3    H2 1297   4.290   7.086   4.930 -2.0333 -0.0304  1.1908
  452TIP3   OH2 1298   6.547   4.367   2.379  0.3864 -0.1131 -0.3096
  452TIP3    H1 1299   6.469   4.328   2.420  0.6497 -0.0305  0.2811
  452TIP3    H2 1300   6.523   4.459   2.365  1.1275  0.4766  1.9131
  453TIP3   OH2 1301   3.450   1.339   1.704  0.2032  0.0558 -0.0860
  453TIP3    H1 1302   3.474   1.323   1.795 -0.1998  0.8796  0.1688
  453TIP3    H2 1303   3.443   1.251   1.666  1.1689 -0.2708  0.4580
  454TIP3   OH2 1304   4.857   5.761   1.662 -0.0756  0.1802 -0.4146
  454TIP3    H1 1305   4.840   5.813   1.740 -1.4937  1.7405 -1.6786
  454TIP3    H2 1306   4.782   5.700   1.658 -0.0005  0.0958 -0.5448
  455TIP3   OH2 1307   2.275   5.900   3.469  0.5073  0.0512  0.1696
  455TIP3    H1 1308   2.204   5.858   3.518  0.3400  1.6893  1.4051
  455TIP3    H2 1309   2.340   5.922   3.535  0.2466  2.3826 -0.2804
  456TIP3   OH2 1310   5.980   0.634   2.253  0.0455  0.1727 -0.1589
  456TIP3    H1 1311   5.971   0.588   2.336  4.2611 -0.9363 -0.0754
  456TIP3    H2 1312   5.955   0.725   2.272  2.0505  0.2448  2.7676
  457TIP3   OH2 1313   7.531   7.590   3.860 -0.4159  0.3043 -0.0311
  457TIP3    H1 1314   7.603   7.527   3.860 -0.5941  0.0792 -1.0685
  457TIP3    H2 1315   7.543   7.641   3.780 -0.1736  1.7371  0.8716
  458TIP3   OH2 1316   3.048   4.097   2.450 -0.0965 -0.7600 -0.2279
  458TIP3    H1 1317   2.963   4.069   2.416  0.2434 -1.9140 -0.1915
  458TIP3    H2 1318   3.101   4.114   2.372 -0.2407 -0.4132 -0.2518
  459TIP3   OH2 1319   0.267   6.818   1.659  0.0718  0.1228  0.1140
  459TIP3    H1 1320   0.344   6.875   1.655 -1.2533  1.9063 -1.7065
  459TIP3    H2 1321   0.237   6.826   1.750  1.0834  0.6860  0.4224
  460TIP3   OH2 1322   0.748   0.046   0.439  0.2514  0.5639  0.0013
  460TIP3    H1 1323   0.708  -0.035   0.406 -0.3898 -0.0940  2.2209
  460TIP3    H2 1324   0.688   0.077   0.506  2.1722  0.9692  1.6434
  461TIP3   OH2 1325   2.741   3.110   1.258  0.2337 -0.2025 -0.5754
  461TIP3    H1 1326   2.712   3.198   1.282 -0.5547 -0.1023 -1.8076
  461TIP3    H2 1327   2.669   3.053   1.285 -0.3745 -0.1597 -2.0243
  462TIP3   OH2 1328   4.159   2.207   4.619  0.2417  0.2301  0.3779
  462TIP3    H1 1329   4.137   2.240   4.532 -0.4885 -0.3657  0.3171
  462TIP3    H2 1330   4.174   2.113   4.606  0.0432  0.1204  0.9000
  463TIP3   OH2 1331   7.101   5.441   0.367 -0.0952  0.6476 -0.1858
  463TIP3    H1 1332   7.132   5.403   0.449 -0.2629 -0.9018 -0.7980
  463TIP3    H2 1333   7.178   5.440   0.310 -0.5854 -0.7236 -0.8584
  464TIP3   OH2 1334   6.135   4.831   1.914 -0.0983  0.2300 -0.0904
  464TIP3    H1 1335   6.068   4.871   1.859 -0.7668 -2.5054 -1.5034
  464TIP3    H2 1336   6.087   4.786   1.983  0.4425  0.0867  0.2045
  465TIP3   OH2 1337   3.127   1.365   3.899  0.0059  0.3836 -0.2505
  465TIP3    H1 1338   3.202   1.407   3.939  0.0991 -0.0971  0.0910
  465TIP3    H2 1339   3.163   1.313   3.827  0.0739 -0.2686  0.2432
  466TIP3   OH2 1340   6.106   1.541   0.690  0.1794  0.4976 -0.9277
  466TIP3    H1 1341   6.089   1.601   0.763 -0.5334 -1.6218  0.8032
  466TIP3    H2 1342   6.201   1.529   0.690  0.0753 -1.0629  1.1689
  467TIP3   OH2 1343   7.408   4.833   0.151 -0.5942 -0.3613  0.2033
  467TIP3    H1 1344   7.482   4.867   0.100  0.7327  0.5352  2.5873
  467TIP3    H2 1345   7.342   4.811   0.085  0.8028  1.2254 -1.8526
  468TIP3   OH2 1346   0.911   3.976   5.941  0.3705 -0.9388  0.1254
  468TIP3    H1 1347   0.900   4.054   5.888  3.0529  0.4375  1.3978
  468TIP3    H2 1348   0.826   3.963   5.984 -0.1160  1.3026 -0.0724
  469TIP3   OH2 1349   3.062   2.510   5.754 -0.3183 -0.1057  0.5005
  469TIP3    H1 1350   3.065   2.416   5.767  0.0203 -0.2785 -0.7022
  469TIP3    H2 1351   3.076   2.522   5.660 -2.7394  1.0191  0.2158
  470TIP3   OH2 1352   1.895   3.547   2.872 -0.1495  0.2436 -0.1730
  470TIP3    H1 1353   1.946   3.568   2.794 -3.1655  0.6850 -2.1800
  470TIP3    H2 1354   1.896   3.451   2.875  1.0149  0.2436  0.0358
  471TIP3   OH2 1355   3.370   4.284   5.988 -0.0563  1.0501  0.0267
  471TIP3    H1 1356   3.455   4.329   5.985  0.3305  0.3353  0.1807
  471TIP3    H2 1357   3.390   4.197   6.023 -0.4797  0.0465 -2.0554
  472TIP3   OH2 1358   0.010   7.819   0.435  0.1845 -0.3614  0.4581
  472TIP3    H1 1359   0.015   7.761   0.360  0.8228  0.8187 -0.4525
  472TIP3    H2 1360   0.082   7.881   0.423 -0.3000  0.4596  1.5195
  473TIP3   OH2 1361   3.528   2.013   1.864  0.8078 -0.3040  0.0257
  473TIP3    H1 1362   3.462   1.963   1.911 -1.1185  1.1664 -0.9867
  473TIP3    H2 1363   3.491   2.101   1.857  3.2900  0.8295  0.1939
  474TIP3   OH2 1364   0.207   1.242   1.205 -0.5765 -0.3123 -0.1806
  474TIP3    H1 1365   0.244   1.330   1.211 -1.7234  0.3280 -1.8084
  474TIP3    H2 1366   0.272   1.192   1.156  0.7050 -0.7948  1.9035
  475TIP3   OH2 1367   3.691   3.688   4.661  0.4153  0.1032 -0.0971
  475TIP3    H1 1368   3.783   3.701   4.683  0.5081 -0.1066 -0.3512
  475TIP3    H2 1369   3.654   3.640   4.735  0.5771 -0.0613 -0.1238
  476TIP3   OH2 1370   5.225   6.292   1.237 -0.2910  0.0978  0.0305
  476TIP3    H1 1371   5.297   6.299   1.175 -1.6718 -1.3545 -1.8824
  476TIP3    H2 1372   5.259   6.238   1.308  0.8937  0.5688 -0.1674
  477TIP3   OH2 1373   5.240   3.823   5.079  0.2318  0.0792 -1.1052
  477TIP3    H1 1374   5.330   3.794   5.093 -0.2512 -0.9985  0.0525
  477TIP3    H2 1375   5.192   3.789   5.156 -1.2671  0.0734 -1.9988
  478TIP3   OH2 1376   7.330   3.355   1.835 -0.3580 -0.1246  0.0208
  478TIP3    H1 1377   7.406   3.367   1.777 -2.8401  1.4457 -3.1910
  478TIP3    H2 1378   7.313   3.442   1.870 -1.1465 -0.2901  0.0598
  479TIP3   OH2 1379   7.398   1.239   4.749 -0.2161  0.2941  0.2563
  479TIP3    H1 1380   7.359   1.263   4.665 -2.3246  0.2043  1.1568
  479TIP3    H2 1381   7.387   1.144   4.754  1.4774  0.0397 -0.0764
  480TIP3   OH2 1382   8.175   7.144   2.828  0.3167 -0.5658  0.3479
  480TIP3    H1 1383   8.173   7.055   2.864 -0.4839 -1.1799 -1.1349
  480TIP3    H2 1384   8.085   7.162   2.804  0.5942  0.3738 -0.0290
  481TIP3   OH2 1385   1.910   4.001   3.516  0.3430 -0.0365  0.4980
  481TIP3    H1 1386   1.971   3.961   3.578 -0.7101 -1.9691  0.3446
  481TIP3    H2 1387   1.824   3.971   3.544 -0.4783  1.8214  0.0904
  482TIP3   OH2 1388   5.515   2.788   3.746  0.2553  0.0480 -0.2259
  482TIP3    H1 1389   5.433   2.743   3.724 -0.2519  0.0269  1.5756
  482TIP3    H2 1390   5.538   2.835   3.666 -2.0728  0.8633 -0.4962
  483TIP3   OH2 1391   4.647   6.398   0.834  0.1433  0.0623 -0.0104
  483TIP3    H1 1392   4.702   6.322   0.820  0.5621  0.3961 -0.2044
  483TIP3    H2 1393   4.675   6.461   0.767 -1.0061 -0.0589 -0.6392
  484TIP3   OH2 1394   5.542   0.835   3.149 -0.2361  0.3671 -0.3623
  484TIP3    H1 1395   5.496   0.766   3.103 -0.8693  1.0897 -0.8468
  484TIP3    H2 1396   5.605   0.790   3.205 -1.4103 -0.6385  0.1782
  485TIP3   OH2 1397   5.112   4.808   4.987  0.1450  0.0756 -0.4862
  485TIP3    H1 1398   5.083   4.817   5.078 -1.0182 -2.2802 -0.5178
  485TIP3    H2 1399   5.031   4.818   4.935  0.2257 -1.5399 -0.9859
  486TIP3   OH2 1400   2.983   2.153   6.567  0.4465 -0.6727 -0.5115
  486TIP3    H1 1401   2.954   2.103   6.643  0.2107 -2.1636 -1.5378
  486TIP3    H2 1402   3.069   2.117   6.545  0.7703  0.1359 -0.6161
  487TIP3   OH2 1403   5.649   6.641   1.802  0.0221  0.6487  0.2143
  487TIP3    H1 1404   5.706   6.718   1.797  1.4875 -0.3748  0.2983
  487TIP3    H2 1405   5.601   6.651   1.884  1.3973  0.7267  1.0536
  488TIP3   OH2 1406   6.657   3.472   1.446  0.3117  0.5254 -0.1418
  488TIP3    H1 1407   6.606   3.539   1.491 -0.0837 -0.2526  0.6068
  488TIP3    H2 1408   6.747   3.503   1.451  0.1343  1.0002  0.1921
  489TIP3   OH2 1409   1.300   5.078   3.274  0.3855 -0.2346  0.2864
  489TIP3    H1 1410   1.348   5.161   3.270 -0.8155  0.5028  0.5596
  489TIP3    H2 1411   1.362   5.017   3.314  1.1398  0.6403  0.5184
  490TIP3   OH2 1412   1.208   2.774   4.542 -0.7951  0.1442  0.6646
  490TIP3    H1 1413   1.191   2.851   4.488 -1.3773 -0.9337 -0.7451
  490TIP3    H2 1414   1.133   2.769   4.601 -1.9378 -0.6199 -0.7997
  491TIP3   OH2 1415   2.741   3.825   0.985  0.1660 -0.2991 -0.5359
  491TIP3    H1 1416   2.691   3.758   1.032  2.8435 -2.8224 -1.0124
  491TIP3    H2 1417   2.716   3.907   1.028 -1.1321 -1.8894  2.0446
  492TIP3   OH2 1418   4.535   2.434   1.984  0.3488  0.2150 -0.0342
  492TIP3    H1 1419   4.578   2.389   2.057 -0.0359 -2.1428 -1.1574
  492TIP3    H2 1420   4.597   2.426   1.911 -0.3043  0.2949 -0.6141
  493TIP3   OH2 1421   6.064   6.701   2.861 -0.0659  0.0831  0.1646
  493TIP3    H1 1422   6.048   6.607   2.850  1.2622 -0.3601  1.4879
  493TIP3    H2 1423   6.033   6.720   2.950  0.6426  0.6236  0.3126
  494TIP3   OH2 1424   2.380   6.600   3.432 -0.0057  0.3000 -0.4495
  494TIP3    H1 1425   2.392   6.531   3.497  0.7399  1.0883  0.2828
  494TIP3    H2 1426   2.325   6.665   3.476 -0.2483  0.4183 -0.9296
  495TIP3   OH2 1427   1.003   0.181   0.508  0.0651  0.4847  0.0669
  495TIP3    H1 1428   0.960   0.262   0.535 -0.5105  1.0097 -2.2566
  495TIP3    H2 1429   0.932   0.123   0.480  0.6401  0.2046 -0.8619
  496TIP3   OH2 1430   1.423   7.748   3.917 -0.2513  0.1595 -0.1752
  496TIP3    H1 1431   1.373   7.794   3.850 -0.5079  0.9375  0.5366
  496TIP3    H2 1432   1.484   7.693   3.867 -1.2408 -0.1826 -1.0395
  497TIP3   OH2 1433   4.973   2.288   1.103  0.6726 -0.1591  0.3966
  497TIP3    H1 1434   4.930   2.314   1.184 -1.1266  0.9532 -0.8386
  497TIP3    H2 1435   4.912   2.227   1.061  0.6220  0.8272 -1.0367
  498TIP3   OH2 1436   6.511   1.571   6.371  0.0354 -0.2630 -0.0635
  498TIP3    H1 1437   6.490   1.569   6.278 -1.3379 -0.4649  0.2256
  498TIP3    H2 1438   6.460   1.644   6.406  1.9493  0.9895  0.2407
  499TIP3   OH2 1439   4.326   4.783   1.172 -0.0607  0.4041 -0.3230
  499TIP3    H1 1440   4.264   4.844   1.212  1.2904  0.9311  1.0923
  499TIP3    H2 1441   4.274   4.705   1.152 -1.6245  1.6642 -1.3165
  500TIP3   OH2 1442   1.306   4.074   1.778  0.3300 -0.0388  0.3758
  500TIP3    H1 1443   1.256   3.994   1.793 -0.9874  0.3608 -1.5558
  500TIP3    H2 1444   1.354   4.057   1.696  1.9485  0.2973  1.2056
  501TIP3   OH2 1445   2.865   5.346   3.320 -0.0779  0.1648  0.1993
  501TIP3    H1 1446   2.839   5.254   3.321  0.7222 -0.0678  1.4161
  501TIP3    H2 1447   2.832   5.381   3.403  2.0929  0.2109  1.1221
  502TIP3   OH2 1448   0.864   5.543   5.463  0.0796 -0.2261 -0.0929
  502TIP3    H1 1449   0.897   5.628   5.492  1.0035 -0.9635  1.1026
  502TIP3    H2 1450   0.893   5.536   5.372  0.0295  0.7154 -0.1935
  503TIP3   OH2 1451   5.330   6.709   1.136  0.7243 -0.2572  0.0632
  503TIP3    H1 1452   5.416   6.703   1.095  1.3433  1.1682  1.0772
  503TIP3    H2 1453   5.333   6.789   1.188  0.4072 -2.4320  3.7933
  504TIP3   OH2 1454   1.487   1.426   1.628 -0.0285 -0.5255  0.3304
  504TIP3    H1 1455   1.580   1.419   1.607  0.1649  0.3224  0.8544
  504TIP3    H2 1456   1.450   1.342   1.599  1.0093 -1.1476  0.7191
  505TIP3   OH2 1457   1.746   5.100   6.793 -0.1206  0.5619 -0.0632
  505TIP3    H1 1458   1.830   5.055   6.805 -0.1807  1.0831  3.0727
  505TIP3    H2 1459   1.764   5.168   6.728  0.9662 -1.3932 -1.9507
  506TIP3   OH2 1460   4.320   6.877   3.918 -0.1779  0.3157  0.1129
  506TIP3    H1 1461   4.293   6.927   3.996 -0.7162 -1.4996  1.1513
  506TIP3    H2 1462   4.311   6.939   3.846  0.4081  2.0991  1.4851
  507TIP3   OH2 1463   5.640   1.541   6.607  0.7044  0.0241 -0.1267
  507TIP3    H1 1464   5.590   1.610   6.564  0.4443 -0.3288 -0.3858
  507TIP3    H2 1465   5.668   1.483   6.537  0.5872 -0.3552  0.1393
  508TIP3   OH2 1466   1.190   7.269   1.575 -0.0074  0.2435  0.5760
  508TIP3    H1 1467   1.276   7.231   1.594  0.2989 -0.1907 -1.4470
  508TIP3    H2 1468   1.158   7.302   1.659  1.2378 -1.4258  1.7389
  509TIP3   OH2 1469   4.277   7.754   4.293  0.0951 -0.2823  0.1150
  509TIP3    H1 1470   4.189   7.719   4.277 -0.0055 -0.8972  1.7434
  509TIP3    H2 1471   4.335   7.701   4.240 -0.5793  0.7690 -1.7559
  510TIP3   OH2 1472   2.145   1.131   6.119  0.0294  0.7460  0.7284
  510TIP3    H1 1473   2.222   1.084   6.152  1.1335  0.9973 -1.2962
  510TIP3    H2 1474   2.089   1.064   6.081  1.1843  0.8444 -1.3482
  511TIP3   OH2 1475   6.020   3.514   4.615 -0.7993  0.0756 -0.3023
  511TIP3    H1 1476   6.088   3.528   4.681 -0.7505 -0.7559 -0.1732
  511TIP3    H2 1477   5.985   3.602   4.599  0.3816  0.5432 -0.4648
  512TIP3   OH2 1478   4.609   6.812   6.707  0.5240 -0.0335 -0.5001
  512TIP3    H1 1479   4.639   6.886   6.653  0.7751  0.7162  0.6229
  512TIP3    H2 1480   4.630   6.734   6.654  2.1009  0.5929 -0.8740
  513TIP3   OH2 1481   7.235   5.126   1.217  0.3456 -0.1885  0.0077
  513TIP3    H1 1482   7.186   5.140   1.297  1.9743  2.1859  0.7110
  513TIP3    H2 1483   7.175   5.152   1.147  0.2697  1.9682  0.7941
  514TIP3   OH2 1484   0.513   4.896   0.995  0.1543  0.2605  1.0677
  514TIP3    H1 1485   0.580   4.963   1.006  0.4385 -0.0087  0.9728
  514TIP3    H2 1486   0.441   4.941   0.950  0.3562  0.4951  0.9786
  515TIP3   OH2 1487   5.223   5.718   6.084 -0.1436 -0.5187 -0.8122
  515TIP3    H1 1488   5.233   5.629   6.049 -0.9496 -0.9586  0.0232
  515TIP3    H2 1489   5.133   5.742   6.063 -1.3360 -1.5477  2.4649
  516TIP3   OH2 1490   2.948   6.025   5.657 -0.1696 -0.1315  0.5038
  516TIP3    H1 1491   2.945   6.119   5.671  0.6626 -0.3277  2.2362
  516TIP3    H2 1492   2.991   5.990   5.735 -0.0759 -1.9105 -0.2882
  517TIP3   OH2 1493   4.708   3.661   5.125 -0.0787  0.2938 -0.0133
  517TIP3    H1 1494   4.702   3.729   5.192 -1.4358  0.5694 -0.3985
  517TIP3    H2 1495   4.778   3.691   5.067  1.0578  0.0928  1.1931
  518TIP3   OH2 1496   7.062   5.379   5.341 -0.0073  0.5812  0.0820
  518TIP3    H1 1497   7.041   5.293   5.305 -1.8024  1.1116 -0.2463
  518TIP3    H2 1498   7.089   5.431   5.265 -2.9748  1.4544 -0.5049
  519TIP3   OH2 1499   0.505   3.285   5.906 -0.1057  0.1030  0.1420
  519TIP3    H1 1500   0.566   3.339   5.957 -0.1285 -0.2391  0.5382
  519TIP3    H2 1501   0.446   3.348   5.864 -1.0176  0.3626  1.7117
  520TIP3   OH2 1502   0.978   6.647   2.389 -0.4663  0.0122  0.5573
  520TIP3    H1 1503   0.947   6.738   2.382 -1.4827 -0.4143 -0.8082
  520TIP3    H2 1504   1.053   6.643   2.329  2.1073  0.8908  3.4314
  521TIP3   OH2 1505   3.439   2.006   3.043 -0.1941  0.1548  0.2639
  521TIP3    H1 1506   3.358   2.004   2.992 -0.2435  0.0116  0.3462
  521TIP3    H2 1507   3.482   2.088   3.018 -1.0470  0.9459  1.2800
  522TIP3   OH2 1508   2.977   0.939   2.157 -0.2147 -0.4368  0.2714
  522TIP3    H1 1509   2.925   0.869   2.198 -0.7892  0.1060  0.4764
  522TIP3    H2 1510   2.958   1.017   2.209 -0.5630  0.1535 -0.7202
  523TIP3   OH2 1511   1.472   0.506   0.547 -0.1989  0.3943 -0.2278
  523TIP3    H1 1512   1.494   0.515   0.640 -0.2241  1.0880 -0.2873
  523TIP3    H2 1513   1.386   0.464   0.546  1.2864 -3.0643  0.0160
  524TIP3   OH2 1514   5.104   4.211   3.205  0.6348  0.2752 -0.2461
  524TIP3    H1 1515   5.116   4.142   3.270 -2.3476  0.2222  0.4279
  524TIP3    H2 1516   5.025   4.257   3.234  0.2696  1.4520 -2.8057
  525TIP3   OH2 1517   5.956   2.647   2.608  0.1588 -0.1802  0.3461
  525TIP3    H1 1518   5.934   2.568   2.658  2.4999 -0.3957  1.1496
  525TIP3    H2 1519   5.962   2.716   2.674 -0.0442  0.2670 -0.1028
  526TIP3   OH2 1520   0.883   6.034   5.456 -1.0729 -0.0073 -0.3314
  526TIP3    H1 1521   0.932   6.004   5.379 -0.0531  0.2107  0.2189
  526TIP3    H2 1522   0.819   6.097   5.422  0.1263  0.9428 -0.8676
  527TIP3   OH2 1523   2.543   6.255   0.957  0.0668 -0.2613 -0.1964
  527TIP3    H1 1524   2.478   6.320   0.984 -0.0806 -0.8051  0.8244
  527TIP3    H2 1525   2.505   6.213   0.880 -0.9437 -0.7525  0.5367
  528TIP3   OH2 1526   0.012   7.663   3.997  1.0679  0.1451 -0.0003
  528TIP3    H1 1527   0.065   7.653   3.917  0.0825 -1.0873 -0.5398
  528TIP3    H2 1528  -0.027   7.750   3.989 -0.9988 -0.8731 -2.1655
  529TIP3   OH2 1529   5.358   3.817   3.074  0.5054 -0.4755 -0.2298
  529TIP3    H1 1530   5.446   3.806   3.111  0.5622  0.5523 -0.0329
  529TIP3    H2 1531   5.337   3.909   3.088 -1.3685 -1.0720  1.4230
  530TIP3   OH2 1532   6.966   6.629   5.115  0.8366 -0.0554 -0.4439
  530TIP3    H1 1533   7.041   6.572   5.100  0.3420 -1.0962  0.8248
  530TIP3    H2 1534   6.981   6.705   5.058  2.4793 -0.5652 -0.7338
  531TIP3   OH2 1535   6.572   6.869   5.637  0.0161 -0.4359 -0.5360
  531TIP3    H1 1536   6.644   6.811   5.612  1.0495  0.6830 -0.2223
  531TIP3    H2 1537   6.612   6.935   5.694 -1.1085  0.6782 -0.9862
  532TIP3   OH2 1538   4.972   6.281   4.792  0.8193 -0.2672 -0.3977
  532TIP3    H1 1539   4.919   6.257   4.868  1.2576  1.1785  0.4117
  532TIP3    H2 1540   5.035   6.210   4.782 -0.3550 -1.3138 -0.5031
  533TIP3   OH2 1541   3.230   5.988   3.487 -0.0346  0.7045  0.1833
  533TIP3    H1 1542   3.230   6.042   3.408  0.4802  0.6368  0.1336
  533TIP3    H2 1543   3.262   5.902   3.457 -1.1395  0.2703  0.1942
  534TIP3   OH2 1544   0.937   4.369   5.362 -0.3915 -0.3002  0.2746
  534TIP3    H1 1545   0.981   4.451   5.337 -0.7084 -0.1431  0.2308
  534TIP3    H2 1546   1.008   4.304   5.364 -0.0568  0.0760  0.7923
  535TIP3   OH2 1547   0.681   0.730   3.658  0.1776  0.2526 -0.5010
  535TIP3    H1 1548   0.589   0.735   3.632  0.3491 -0.6135 -1.3168
  535TIP3    H2 1549   0.730   0.741   3.577  0.7726 -0.0213 -0.1860
  536TIP3   OH2 1550   6.718   0.570   6.510  0.5039  0.0178  0.0837
  536TIP3    H1 1551   6.670   0.488   6.505  0.5912  0.0013 -0.5944
  536TIP3    H2 1552   6.755   0.582   6.423  1.6183  0.0968  0.5415
  537TIP3   OH2 1553   4.871   2.800   0.985  0.6221 -0.3603 -0.1775
  537TIP3    H1 1554   4.811   2.796   0.911  0.2268 -0.3919  0.1403
  537TIP3    H2 1555   4.958   2.782   0.947  0.5262  0.3565 -0.7439
  538TIP3   OH2 1556   8.089   3.038   0.395  0.7166 -0.0892  0.0639
  538TIP3    H1 1557   8.112   3.097   0.323 -0.1982 -0.6664 -0.7208
  538TIP3    H2 1558   8.129   2.954   0.371  0.8975 -0.1398  0.5235
  539TIP3   OH2 1559   7.066   2.517   0.431  0.1277  0.2848  0.0718
  539TIP3    H1 1560   7.071   2.601   0.478  1.9542 -0.0920  0.6416
  539TIP3    H2 1561   7.146   2.471   0.457  0.0845 -0.8667 -1.7133
  540TIP3   OH2 1562   3.536   6.687   4.461 -0.5050 -0.5883 -0.3178
  540TIP3    H1 1563   3.512   6.765   4.511 -0.0604 -1.2771  1.0048
  540TIP3    H2 1564   3.622   6.708   4.424 -0.3577 -0.4709  0.0864
  541TIP3   OH2 1565   8.041   7.812   2.315  0.3075 -0.2880  0.1090
  541TIP3    H1 1566   8.052   7.861   2.233  0.4111 -0.2778  0.1281
  541TIP3    H2 1567   7.974   7.747   2.295  0.3659 -0.3164  0.0015
  542TIP3   OH2 1568   2.630   4.473   6.078  1.2236 -0.0357 -0.3720
  542TIP3    H1 1569   2.544   4.484   6.037  0.0102 -0.9512  1.7276
  542TIP3    H2 1570   2.625   4.388   6.121  2.8393  0.3142  0.5841
  543TIP3   OH2 1571   4.481   5.977   0.647 -0.5511 -1.0154  0.1621
  543TIP3    H1 1572   4.479   5.969   0.743  0.6737 -0.6759  0.2372
  543TIP3    H2 1573   4.496   5.888   0.617 -0.2495 -1.0244  0.3296
  544TIP3   OH2 1574   3.205   0.150   2.295 -0.2723  0.0489  0.0356
  544TIP3    H1 1575   3.282   0.199   2.268  0.5674 -1.4080 -0.2887
  544TIP3    H2 1576   3.235   0.094   2.366 -1.4713  0.7505  1.1483
  545TIP3   OH2 1577   0.059   7.374   3.875 -0.1192 -0.2415 -0.1269
  545TIP3    H1 1578  -0.017   7.326   3.841  0.5223 -0.6569 -0.9899
  545TIP3    H2 1579   0.049   7.463   3.840 -0.3023 -0.2402 -0.0758
  546TIP3   OH2 1580   4.588   5.780   2.795  0.9236 -0.5383  0.2190
  546TIP3    H1 1581   4.536   5.743   2.724  1.4204 -0.4115 -0.2151
  546TIP3    H2 1582   4.527   5.787   2.868 -0.6671  2.7484 -1.2168
  547TIP3   OH2 1583   6.640   4.358   5.484 -0.2439  0.5667  0.3232
  547TIP3    H1 1584   6.567   4.390   5.537 -1.5420  2.4219 -2.3790
  547TIP3    H2 1585   6.660   4.429   5.423  1.0221 -1.4494 -1.8041
  548TIP3   OH2 1586   6.942   5.022   0.425 -0.2058  0.0066  0.2000
  548TIP3    H1 1587   7.010   4.960   0.398 -0.2841 -1.0362  2.2073
  548TIP3    H2 1588   6.922   4.997   0.515 -1.0617  2.2697  0.6838
  549TIP3   OH2 1589   3.696   3.004   4.257  0.1818  0.4907  0.1213
  549TIP3    H1 1590   3.662   2.978   4.172  0.1988  2.2409 -0.4667
  549TIP3    H2 1591   3.783   2.963   4.263 -0.5154 -1.0743  0.0972
  550TIP3   OH2 1592   6.665   4.897   6.527  0.2158  1.0300 -0.2302
  550TIP3    H1 1593   6.625   4.832   6.469 -1.9165 -0.3523  2.5640
  550TIP3    H2 1594   6.611   4.975   6.517  0.4678  1.1372 -0.7991
  551TIP3   OH2 1595   0.981   5.461   3.343 -0.8103 -0.1975 -1.2419
  551TIP3    H1 1596   0.896   5.455   3.386 -0.2159 -0.0264 -0.0030
  551TIP3    H2 1597   1.014   5.371   3.342  0.7761  0.1991  2.1028
  552TIP3   OH2 1598   7.493   0.525   6.376 -0.2703 -0.0389  0.4566
  552TIP3    H1 1599   7.493   0.442   6.423 -0.0595 -0.6703 -0.6174
  552TIP3    H2 1600   7.416   0.571   6.409 -0.6690 -0.8631  0.7193
  553TIP3   OH2 1601   7.576   7.475   1.363  0.3129 -0.0802  0.1475
  553TIP3    H1 1602   7.514   7.490   1.292 -0.0695  0.4502  0.5801
  553TIP3    H2 1603   7.521   7.453   1.438  0.7868 -2.4493 -0.1344
  554TIP3   OH2 1604   4.519   0.951   0.776  0.0389 -0.2656  0.6676
  554TIP3    H1 1605   4.603   0.956   0.730  0.2516  0.7818  1.1340
  554TIP3    H2 1606   4.455   0.981   0.711 -0.1205 -1.9173  0.0195
  555TIP3   OH2 1607   6.268   5.703   5.022  0.1389  0.1209 -0.3456
  555TIP3    H1 1608   6.189   5.716   4.970  1.4192  1.3611 -2.0879
  555TIP3    H2 1609   6.281   5.608   5.023 -1.8972 -0.2020  0.8862
  556TIP3   OH2 1610   0.031   3.281   6.681 -0.2341  0.1710 -0.1271
  556TIP3    H1 1611  -0.064   3.290   6.675 -0.2174  0.2142 -0.3215
  556TIP3    H2 1612   0.062   3.289   6.591 -0.2402 -2.0912 -0.3941
  557TIP3   OH2 1613   0.723   4.348   0.232 -0.2097  0.1443 -0.0714
  557TIP3    H1 1614   0.656   4.290   0.267 -0.0414  0.8103  1.4679
  557TIP3    H2 1615   0.675   4.416   0.185 -0.5460  0.0494  0.1347
  558TIP3   OH2 1616   7.703   7.217   4.062 -0.4186  0.5087  0.5488
  558TIP3    H1 1617   7.748   7.151   4.009 -1.0077  1.0146 -0.6153
  558TIP3    H2 1618   7.749   7.299   4.042  0.5278  0.4460  2.2431
  559TIP3   OH2 1619   2.896   2.703   1.138 -0.2863 -0.5498  0.7320
  559TIP3    H1 1620   2.899   2.797   1.119  1.2607 -0.6184  0.5012
  559TIP3    H2 1621   2.957   2.664   1.075  2.2052 -1.2354  3.3755
  560TIP3   OH2 1622   2.914   6.192   3.585 -0.6947 -0.1181 -0.4343
  560TIP3    H1 1623   2.878   6.270   3.542 -0.4986 -0.3123 -0.9590
  560TIP3    H2 1624   2.840   6.133   3.594 -0.6624 -0.2262 -0.8530
  561TIP3   OH2 1625   7.526   1.312   4.400 -0.1257  0.1473  0.0019
  561TIP3    H1 1626   7.592   1.344   4.339 -1.8608  1.9107 -1.0840
  561TIP3    H2 1627   7.560   1.228   4.431  1.6893  0.0725 -1.9807
  562TIP3   OH2 1628   3.068   6.547   1.115  0.3997  0.2951  0.4582
  562TIP3    H1 1629   3.073   6.486   1.042 -1.2294 -0.5221  0.9712
  562TIP3    H2 1630   2.995   6.514   1.168 -0.8404  2.9080  0.5341
  563TIP3   OH2 1631   6.140   2.074   6.044 -0.2492  0.0268 -0.2947
  563TIP3    H1 1632   6.196   2.005   6.078 -1.1486  0.1551  1.5382
  563TIP3    H2 1633   6.153   2.071   5.949  2.8419  0.0743  0.0427
  564TIP3   OH2 1634   3.069   6.939   4.173 -0.5693 -0.3368 -0.1427
  564TIP3    H1 1635   3.065   7.033   4.155  1.1769 -0.5008 -1.7314
  564TIP3    H2 1636   3.128   6.932   4.248  0.9969 -0.2314 -1.3139
  565TIP3   OH2 1637   0.116   3.330   6.143  0.3932  0.3227  0.6522
  565TIP3    H1 1638   0.110   3.426   6.148  1.3588  0.4925 -0.5718
  565TIP3    H2 1639   0.200   3.315   6.099 -0.0341 -1.0707  0.2772
  566TIP3   OH2 1640   1.802   4.267   3.288  0.0573  0.4106  0.0967
  566TIP3    H1 1641   1.865   4.300   3.224 -1.1705  1.6813 -0.5071
  566TIP3    H2 1642   1.727   4.326   3.280 -0.4762  0.0660  2.0933
  567TIP3   OH2 1643   1.470   2.622   0.653 -0.0400 -0.1286  0.3311
  567TIP3    H1 1644   1.554   2.599   0.692 -0.2652  0.6307  1.3042
  567TIP3    H2 1645   1.420   2.540   0.655  1.1933 -1.0262 -1.7709
  568TIP3   OH2 1646   1.544   1.615   4.277 -0.4264  0.1495  0.3976
  568TIP3    H1 1647   1.592   1.633   4.197 -0.2911 -2.0908 -0.0924
  568TIP3    H2 1648   1.521   1.702   4.312  0.7922  1.1867 -1.2534
  569TIP3   OH2 1649   7.839   0.323   0.049 -0.5736  0.0017 -0.3881
  569TIP3    H1 1650   7.802   0.312  -0.038  0.5041  2.0306 -1.1864
  569TIP3    H2 1651   7.928   0.287   0.042 -0.1887  0.9245 -0.4042
  570TIP3   OH2 1652   2.351   2.279   3.651  0.7051 -0.0609 -0.5124
  570TIP3    H1 1653   2.315   2.279   3.740  1.0250  0.8003 -0.3684
  570TIP3    H2 1654   2.441   2.249   3.662 -0.0924 -2.9079 -0.9644
  571TIP3   OH2 1655   7.471   2.674   0.219  0.3952  0.7389  0.1827
  571TIP3    H1 1656   7.454   2.596   0.166  0.3249  0.4262  0.6634
  571TIP3    H2 1657   7.384   2.708   0.241  0.4271  1.2553 -0.4625
  572TIP3   OH2 1658   3.572   1.023   5.460 -0.4517  0.5473  0.1647
  572TIP3    H1 1659   3.643   1.073   5.421 -0.9121  0.2501 -1.1355
  572TIP3    H2 1660   3.612   0.976   5.533  1.5337 -2.0369 -2.2977
  573TIP3   OH2 1661   3.177   3.171   5.965  0.1396 -0.1820  0.1010
  573TIP3    H1 1662   3.203   3.080   5.978 -1.9805 -0.6312  1.7682
  573TIP3    H2 1663   3.085   3.167   5.942  0.2472  1.5289 -0.7840
  574TIP3   OH2 1664   4.301   1.951   1.719 -0.0599  0.4481 -0.4987
  574TIP3    H1 1665   4.355   1.914   1.650 -1.6266 -0.9759 -1.0347
  574TIP3    H2 1666   4.264   2.031   1.681 -0.0606  0.2510 -0.9109
  575TIP3   OH2 1667   5.619   6.331   0.052  0.8799 -0.2524  0.1633
  575TIP3    H1 1668   5.671   6.338  -0.028  0.0743  0.9580 -0.2933
  575TIP3    H2 1669   5.661   6.392   0.113  0.6768 -0.1296  0.1821
  576TIP3   OH2 1670   2.184   3.537   5.284 -0.4439 -0.2001  0.5577
  576TIP3    H1 1671   2.131   3.499   5.213  1.4074 -2.2725  0.1623
  576TIP3    H2 1672   2.181   3.631   5.269 -2.7646 -0.3555 -0.3023
  577TIP3   OH2 1673   4.879   1.024   3.351 -0.4453  0.2239 -0.1300
  577TIP3    H1 1674   4.965   1.056   3.323 -0.0583  1.7596  2.5266
  577TIP3    H2 1675   4.890   0.929   3.360  0.5537  0.2312 -1.0811
  578TIP3   OH2 1676   3.636   1.652   3.584  0.5988 -0.1719 -0.5601
  578TIP3    H1 1677   3.718   1.701   3.583  0.1003  0.6783 -0.6447
  578TIP3    H2 1678   3.575   1.707   3.633  0.0006 -0.6652 -0.7337
  579TIP3   OH2 1679   0.189   2.237   5.680  0.0912 -0.1920 -0.2709
  579TIP3    H1 1680   0.139   2.167   5.723  0.5830 -0.7318 -0.5589
  579TIP3    H2 1681   0.248   2.191   5.621  2.1642  0.2811  1.2994
  580TIP3   OH2 1682   2.919   5.142   4.955 -0.0593  0.1299  0.4978
  580TIP3    H1 1683   2.853   5.198   4.996 -0.1403  1.4319 -1.2726
  580TIP3    H2 1684   2.872   5.061   4.935 -0.8130  0.5867  0.3461
  581TIP3   OH2 1685   7.210   2.885   1.705  0.0041  0.2230  0.0177
  581TIP3    H1 1686   7.282   2.899   1.644 -0.2033 -0.9687 -0.5301
  581TIP3    H2 1687   7.191   2.972   1.740 -0.3114  1.0618 -2.1097
  582TIP3   OH2 1688   0.120   4.045   2.453  0.3681  0.7281 -0.0919
  582TIP3    H1 1689   0.110   3.950   2.445 -1.9488  0.9580 -0.7076
  582TIP3    H2 1690   0.215   4.060   2.450  1.0116 -1.7513  2.6164
  583TIP3   OH2 1691   2.582   7.127   5.738  0.2217  0.0998 -0.3148
  583TIP3    H1 1692   2.646   7.070   5.696 -0.1834 -0.6204  0.0276
  583TIP3    H2 1693   2.611   7.130   5.830  0.3587  0.6122 -0.3739
  584TIP3   OH2 1694   3.965   5.848   4.807  0.4100 -0.0278  0.4633
  584TIP3    H1 1695   4.027   5.809   4.745  0.5905 -0.9444  1.2082
  584TIP3    H2 1696   3.882   5.802   4.789  0.0488  0.8510 -0.1960
  585TIP3   OH2 1697   5.030   6.280   0.619 -0.4740 -0.1461  0.2238
  585TIP3    H1 1698   4.942   6.245   0.628 -0.7368  0.7267  1.2323
  585TIP3    H2 1699   5.050   6.273   0.526 -2.2338  1.0998 -0.2898
  586TIP3   OH2 1700   2.416   1.557   6.582  0.1518 -0.0194  0.1898
  586TIP3    H1 1701   2.342   1.574   6.640  0.3776 -0.5156  0.6404
  586TIP3    H2 1702   2.390   1.593   6.497 -0.0280  1.0579  0.6922
  587TIP3   OH2 1703   0.446   6.677   2.031 -0.8552 -0.0155  0.4793
  587TIP3    H1 1704   0.412   6.619   1.962 -2.0266 -2.5647  2.9930
  587TIP3    H2 1705   0.377   6.742   2.043 -0.5316  0.6057 -0.8608
  588TIP3   OH2 1706   3.365   5.867   1.679  0.3110  0.4633 -0.4615
  588TIP3    H1 1707   3.275   5.894   1.660  0.6935  0.6582 -2.1382
  588TIP3    H2 1708   3.407   5.861   1.593  1.3590 -1.5849  0.1283
  589TIP3   OH2 1709   3.454   3.829   2.439 -0.4449  0.0940 -0.0415
  589TIP3    H1 1710   3.435   3.902   2.379 -0.5272 -0.8846 -1.2399
  589TIP3    H2 1711   3.529   3.859   2.489 -0.9675  1.3231  0.0556
  590TIP3   OH2 1712   8.084   6.239   5.055 -0.4679  0.3348  0.3770
  590TIP3    H1 1713   8.110   6.289   4.977 -0.2396 -1.5438 -0.8143
  590TIP3    H2 1714   8.090   6.302   5.127  2.0621  1.4086 -0.6632
  591TIP3   OH2 1715   4.154   6.839   2.065  0.9950 -0.1375  0.5550
  591TIP3    H1 1716   4.211   6.894   2.119 -1.0150  1.7197  0.9263
  591TIP3    H2 1717   4.120   6.898   1.998 -1.7701 -0.6645  1.3470
  592TIP3   OH2 1718   7.042   3.081   4.391  0.1901 -0.1219  0.2196
  592TIP3    H1 1719   7.071   3.143   4.325 -0.4435  0.4226  0.4433
  592TIP3    H2 1720   6.947   3.088   4.391  0.1891  0.1003  1.3847
  593TIP3   OH2 1721   5.775   5.725   4.361 -0.1203  0.9779 -0.1175
  593TIP3    H1 1722   5.840   5.664   4.396 -0.9866 -0.2401 -0.6081
  593TIP3    H2 1723   5.811   5.812   4.383  0.9102  0.3132  0.9645
  594TIP3   OH2 1724   2.821   5.959   3.004 -0.0891 -0.1065  0.1161
  594TIP3    H1 1725   2.843   6.045   2.968 -0.0061 -0.3992 -0.5463
  594TIP3    H2 1726   2.882   5.899   2.961 -0.8149 -0.6348 -0.1898
  595TIP3   OH2 1727   4.217   1.878   6.022  0.0689 -0.5591 -0.0416
  595TIP3    H1 1728   4.233   1.941   5.952  0.6190 -0.0622  0.5180
  595TIP3    H2 1729   4.298   1.879   6.074 -0.7990  0.0638  1.3616
  596TIP3   OH2 1730   0.658   4.388   0.770 -0.0013  0.3663  0.3360
  596TIP3    H1 1731   0.744   4.407   0.807 -0.3090 -0.1391  1.3755
  596TIP3    H2 1732   0.597   4.441   0.822 -0.5493 -1.1287  1.2982
  597TIP3   OH2 1733   6.266   6.855   3.666 -0.3858 -0.0449  0.1835
  597TIP3    H1 1734   6.269   6.844   3.761  1.0686  0.7922  0.2674
  597TIP3    H2 1735   6.281   6.948   3.651 -0.1214 -0.2365 -0.8795
  598TIP3   OH2 1736   2.113   2.440   1.767 -0.2601 -0.3688  0.0655
  598TIP3    H1 1737   2.153   2.439   1.854 -1.1668  1.4261  0.5577
  598TIP3    H2 1738   2.187   2.435   1.707  0.4381 -0.8270  0.9357
  599TIP3   OH2 1739   4.463   2.015   3.285 -0.1330 -0.4368  0.0731
  599TIP3    H1 1740   4.374   2.024   3.317  0.0715  0.8991  0.3518
  599TIP3    H2 1741   4.457   1.952   3.213 -1.0969 -1.1957  0.7857
  600TIP3   OH2 1742   4.698   4.502   3.476 -0.0872 -0.3978 -0.1198
  600TIP3    H1 1743   4.777   4.448   3.476  0.0540 -0.2735 -2.1997
  600TIP3    H2 1744   4.645   4.468   3.404 -1.6599 -0.0548  0.8271
  601TIP3   OH2 1745   6.722   6.255   4.239  0.0598 -0.1346  0.0667
  601TIP3    H1 1746   6.813   6.253   4.267 -0.6240  1.7422  2.9384
  601TIP3    H2 1747   6.714   6.336   4.188  0.1254 -0.7249 -0.9122
  602TIP3   OH2 1748   1.687   5.985   2.723  0.1029  0.9467 -0.0725
  602TIP3    H1 1749   1.644   6.016   2.803  2.4094  2.5975  0.6322
  602TIP3    H2 1750   1.774   5.958   2.751  0.3364 -0.2167 -1.7659
  603TIP3   OH2 1751   1.787   7.136   5.292 -0.0681 -0.3419 -0.2796
  603TIP3    H1 1752   1.734   7.122   5.213  0.3622 -0.6808 -0.5117
  603TIP3    H2 1753   1.799   7.231   5.296  1.9902 -0.4425 -2.0332
  604TIP3   OH2 1754   2.596   4.260   3.969 -0.1354 -0.0783 -0.2754
  604TIP3    H1 1755   2.561   4.173   3.988 -0.5575  0.5065  1.8715
  604TIP3    H2 1756   2.521   4.319   3.977  0.2446  0.5529 -1.2282
  605TIP3   OH2 1757   4.014   5.216   3.079  0.0887  0.3130  0.1561
  605TIP3    H1 1758   3.954   5.284   3.050 -0.3226 -0.7867 -1.7252
  605TIP3    H2 1759   3.979   5.135   3.042  3.2286 -0.2616 -2.0311
  606TIP3   OH2 1760   0.401   3.919   4.960  0.6007  0.0886 -0.3095
  606TIP3    H1 1761   0.332   3.853   4.963 -0.2828  0.9500 -1.1707
  606TIP3    H2 1762   0.482   3.870   4.978 -0.3480 -0.6794  2.3086
  607TIP3   OH2 1763   2.473   6.927   4.191 -0.0205 -0.0915 -0.2736
  607TIP3    H1 1764   2.495   7.015   4.222 -0.4226 -0.1945  0.3057
  607TIP3    H2 1765   2.512   6.923   4.103  0.9501  0.2723  0.1199
  608TIP3   OH2 1766   0.625   1.432   6.342  0.4717  0.6015  0.7898
  608TIP3    H1 1767   0.608   1.518   6.305  0.7899  0.7206  0.9189
  608TIP3    H2 1768   0.692   1.446   6.409  0.3425  0.2938  0.9917
  609TIP3   OH2 1769   5.168   3.134   4.559  0.1986 -0.5400  0.5144
  609TIP3    H1 1770   5.212   3.097   4.635  0.0535 -0.9948  0.3829
  609TIP3    H2 1771   5.169   3.064   4.494 -2.4744 -1.3537  1.1840
  610TIP3   OH2 1772   7.370   5.604   5.504  0.0568 -0.4648  0.4335
  610TIP3    H1 1773   7.329   5.690   5.513  0.2350 -0.0822 -1.7756
  610TIP3    H2 1774   7.316   5.545   5.556 -2.6759  0.2443 -1.3796
  611TIP3   OH2 1775   5.448   6.788   5.950  0.3368  0.5891  0.0643
  611TIP3    H1 1776   5.508   6.825   6.015  0.7510 -0.7820  0.4891
  611TIP3    H2 1777   5.377   6.751   6.001 -0.3898  1.3150 -0.3909
  612TIP3   OH2 1778   8.105   0.216   6.486 -0.1593  0.2436  0.4654
  612TIP3    H1 1779   8.042   0.263   6.431 -1.1938 -1.3961  0.1688
  612TIP3    H2 1780   8.101   0.262   6.570  1.0176  2.4241 -0.5744
  613TIP3   OH2 1781   6.133   2.511   0.631  0.2688 -0.1189 -0.5002
  613TIP3    H1 1782   6.192   2.437   0.637 -0.8590 -1.2700 -2.4311
  613TIP3    H2 1783   6.181   2.575   0.578  0.8649  0.1615  0.3572
  614TIP3   OH2 1784   7.273   0.747   0.205 -0.4652  0.6112  0.5110
  614TIP3    H1 1785   7.210   0.678   0.182 -0.5357  0.6685  0.5316
  614TIP3    H2 1786   7.357   0.702   0.211  0.0467  0.9649 -2.4002
  615TIP3   OH2 1787   2.373   4.026   2.428  0.0153  0.5645  0.1836
  615TIP3    H1 1788   2.398   3.936   2.405 -0.8498 -0.3676  2.5461
  615TIP3    H2 1789   2.454   4.066   2.459 -0.1897 -0.5595  2.3324
  616TIP3   OH2 1790   7.125   4.875   4.581  0.2885 -0.4366 -0.6103
  616TIP3    H1 1791   7.203   4.879   4.526 -0.2771 -0.8596 -1.4673
  616TIP3    H2 1792   7.076   4.800   4.548 -0.0979 -0.6612  0.4380
  617TIP3   OH2 1793   6.557   7.713   1.618  0.2755  0.1351 -0.1730
  617TIP3    H1 1794   6.490   7.649   1.594  1.4988 -0.4281 -2.3418
  617TIP3    H2 1795   6.552   7.781   1.551  0.5799  1.1176  0.7616
  618TIP3   OH2 1796   2.479   1.171   0.128 -0.0159  0.6215 -0.2883
  618TIP3    H1 1797   2.515   1.245   0.079  1.1567  0.4520  0.2748
  618TIP3    H2 1798   2.469   1.204   0.217 -0.1769  0.3148 -0.1909
  619TIP3   OH2 1799   1.060   4.288   2.970  0.0482  0.0353 -0.0641
  619TIP3    H1 1800   1.115   4.364   2.948  1.4409 -0.5822  1.0959
  619TIP3    H2 1801   1.030   4.255   2.886  0.0547  1.4081 -0.6344
  620TIP3   OH2 1802   0.728   0.302   4.504 -0.4404  0.2772 -0.6247
  620TIP3    H1 1803   0.804   0.246   4.517  0.4989  1.3808 -1.1885
  620TIP3    H2 1804   0.653   0.247   4.529  0.3357 -1.5726 -2.1678
  621TIP3   OH2 1805   7.670   1.854   5.912  0.4318 -0.4027  1.0201
  621TIP3    H1 1806   7.702   1.818   5.829  0.6342  0.7164  0.5995
  621TIP3    H2 1807   7.574   1.845   5.906  0.4466 -0.3674  0.6807
  622TIP3   OH2 1808   2.344   4.646   3.468 -0.4202  0.4097  0.2831
  622TIP3    H1 1809   2.388   4.729   3.449 -0.9450  0.3281 -1.4574
  622TIP3    H2 1810   2.284   4.666   3.540  0.0139  1.3491  0.3970
  623TIP3   OH2 1811   1.641   1.696   3.234 -0.0961  0.0500  0.3303
  623TIP3    H1 1812   1.573   1.715   3.169 -0.6212 -0.3216  0.7559
  623TIP3    H2 1813   1.594   1.690   3.317  0.5261  0.2303  0.7046
  624TIP3   OH2 1814   0.937   6.446   5.453 -0.3679  0.0312  0.0047
  624TIP3    H1 1815   0.981   6.457   5.537 -0.9525  1.0019  0.2081
  624TIP3    H2 1816   0.973   6.516   5.398 -0.0233 -0.5681 -0.5511
  625TIP3   OH2 1817   5.942   1.542   4.891 -0.1380  0.5740  0.0269
  625TIP3    H1 1818   5.938   1.603   4.964 -0.9744 -1.2846  1.6290
  625TIP3    H2 1819   6.028   1.500   4.900  1.1559  2.5341 -2.0430
  626TIP3   OH2 1820   6.578   5.946   1.980 -0.2043  0.3522 -0.1348
  626TIP3    H1 1821   6.592   5.996   1.900 -2.0248  0.9748 -0.1128
  626TIP3    H2 1822   6.628   5.993   2.047  0.0755  0.7247 -0.5983
  627TIP3   OH2 1823   6.250   0.886   6.742  0.0461 -0.0952  0.1063
  627TIP3    H1 1824   6.341   0.873   6.717 -0.1515 -1.5861  0.0504
  627TIP3    H2 1825   6.201   0.886   6.660 -0.2122 -1.4793  0.2230
  628TIP3   OH2 1826   2.470   7.088   1.846  0.0743  0.0088 -0.4401
  628TIP3    H1 1827   2.386   7.109   1.887  0.4192  0.1838  0.1828
  628TIP3    H2 1828   2.446   7.047   1.763 -0.6277 -0.0077 -0.2370
  629TIP3   OH2 1829   1.398   3.254   1.946  0.5314  0.0874  0.4147
  629TIP3    H1 1830   1.430   3.241   2.035  2.4490 -0.4853 -0.2950
  629TIP3    H2 1831   1.464   3.310   1.905  0.0550 -0.2312 -0.8326
  630TIP3   OH2 1832   8.044   0.070   0.119  0.5757  0.0574  0.0123
  630TIP3    H1 1833   8.095   0.045   0.042  2.1028 -0.0986  1.0247
  630TIP3    H2 1834   8.108   0.111   0.177 -0.4701 -0.1302  1.3391
  631TIP3   OH2 1835   5.307   0.578   1.100 -0.4033  0.4144 -0.4968
  631TIP3    H1 1836   5.235   0.520   1.125 -1.2431  1.9072  0.7056
  631TIP3    H2 1837   5.373   0.519   1.062 -0.3643 -1.6307  2.4182
  632TIP3   OH2 1838   4.754   7.702   6.777  0.2606  0.4016 -0.2385
  632TIP3    H1 1839   4.826   7.762   6.798 -1.9235  2.9865  0.3184
  632TIP3    H2 1840   4.749   7.704   6.682  0.3982  0.8847 -0.2406
  633TIP3   OH2 1841   1.539   3.038   5.306  0.1921  0.3243  0.0368
  633TIP3    H1 1842   1.607   2.988   5.351  0.4809 -0.6439 -1.3886
  633TIP3    H2 1843   1.509   2.980   5.236 -1.2544  1.2107 -0.1155
  634TIP3   OH2 1844   3.600   5.448   3.826  0.2981  0.3352  0.3876
  634TIP3    H1 1845   3.510   5.416   3.819  1.0036 -2.3606  1.9676
  634TIP3    H2 1846   3.595   5.523   3.885 -1.0021  0.8729 -0.3625
  635TIP3   OH2 1847   0.509   4.211   2.666  0.2017 -0.4220  0.2860
  635TIP3    H1 1848   0.578   4.232   2.729 -0.3341  1.1882  0.3670
  635TIP3    H2 1849   0.428   4.230   2.712 -0.2373 -0.3466 -0.5011
  636TIP3   OH2 1850   4.585   1.701   5.090  0.1151 -0.2677 -0.2746
  636TIP3    H1 1851   4.674   1.733   5.074  0.8537 -2.2021 -0.2887
  636TIP3    H2 1852   4.597   1.625   5.147 -1.4297 -1.3001 -1.2625
  637TIP3   OH2 1853   6.970   5.741   3.301  0.6273 -0.1861  0.2869
  637TIP3    H1 1854   6.889   5.693   3.283 -0.6131  1.7045  0.5520
  637TIP3    H2 1855   7.021   5.733   3.220  1.0424 -2.9086  0.7264
  638TIP3   OH2 1856   7.525   2.355   6.693 -0.0873  0.6617  0.5729
  638TIP3    H1 1857   7.525   2.360   6.598  0.7348 -0.2082  0.5110
  638TIP3    H2 1858   7.610   2.317   6.715 -0.0625  1.3198  1.6850
  639TIP3   OH2 1859   7.910   7.778   0.676 -0.1191  0.0907  0.3534
  639TIP3    H1 1860   7.958   7.838   0.619 -2.1643  0.2988 -1.2175
  639TIP3    H2 1861   7.864   7.836   0.738  0.0061 -0.0097  0.5421
  640TIP3   OH2 1862   6.059   2.777   0.711  0.9649 -0.2273 -0.0721
  640TIP3    H1 1863   6.085   2.844   0.648  1.1664  1.9502  2.1538
  640TIP3    H2 1864   6.122   2.706   0.698  0.8230 -0.0112 -2.4305
  641TIP3   OH2 1865   1.952   6.194   5.797 -0.4254 -0.9912 -0.3180
  641TIP3    H1 1866   2.011   6.269   5.803 -0.5586 -0.9551  0.8198
  641TIP3    H2 1867   1.994   6.135   5.734  1.1433 -1.2172  0.8641
  642TIP3   OH2 1868   7.788  -0.008   6.434 -0.2137 -0.1927 -0.1102
  642TIP3    H1 1869   7.856   0.003   6.368 -1.2345 -0.3246 -1.2228
  642TIP3    H2 1870   7.792   0.072   6.486  1.7762 -0.8318  0.8365
  643TIP3   OH2 1871   1.735   0.387   1.715 -0.5169 -0.4359  0.0801
  643TIP3    H1 1872   1.667   0.430   1.664 -0.2950 -2.2566 -1.8898
  643TIP3    H2 1873   1.796   0.457   1.737 -1.3053  0.6485 -1.0423
  644TIP3   OH2 1874   2.673   5.810   5.797 -0.6984  0.4340 -0.6093
  644TIP3    H1 1875   2.607   5.871   5.764 -2.3095 -0.5512  0.6466
  644TIP3    H2 1876   2.678   5.742   5.730 -0.3516  0.8981 -1.0709
  645TIP3   OH2 1877   8.186   1.953   1.072  0.0047  0.2453  0.2525
  645TIP3    H1 1878   8.205   1.914   0.987  0.0043  1.0658 -0.1309
  645TIP3    H2 1879   8.142   1.883   1.121 -2.4856  0.5480 -1.3521
  646TIP3   OH2 1880   0.557   2.660   1.466 -0.4983 -0.7342 -0.5483
  646TIP3    H1 1881   0.575   2.751   1.491  1.4992 -1.2683  0.1518
  646TIP3    H2 1882   0.571   2.610   1.547  0.1530 -1.8438 -1.3212
  647TIP3   OH2 1883   7.028   5.390   3.237 -0.4062  0.1274  0.8970
  647TIP3    H1 1884   6.945   5.350   3.264  0.4006 -3.0887 -0.9179
  647TIP3    H2 1885   7.013   5.419   3.147  0.5502 -1.0367  0.3358
  648TIP3   OH2 1886   5.075   2.410   5.385  0.1581  0.3572  0.7609
  648TIP3    H1 1887   5.003   2.368   5.433 -0.3164  0.2261 -0.0477
  648TIP3    H2 1888   5.084   2.496   5.426 -1.5240  1.0004 -0.1262
  649TIP3   OH2 1889   6.794   3.739   0.215  0.2811  0.0217 -0.5058
  649TIP3    H1 1890   6.793   3.834   0.201  0.2753 -0.0649 -1.1120
  649TIP3    H2 1891   6.708   3.719   0.252 -0.5618 -0.0382 -2.3979
  650TIP3   OH2 1892   3.200   2.067   1.383  0.2114  0.1834 -0.2864
  650TIP3    H1 1893   3.240   1.981   1.369 -1.6980 -0.6884 -0.7734
  650TIP3    H2 1894   3.231   2.095   1.469 -1.4080 -2.3958  1.2703
  651TIP3   OH2 1895   4.573   5.254   5.615 -0.1579 -0.0995 -0.4359
  651TIP3    H1 1896   4.500   5.316   5.625  0.0198 -0.0068  0.4384
  651TIP3    H2 1897   4.609   5.247   5.704 -0.9711 -2.4598 -0.2143
  652TIP3   OH2 1898   7.448   1.055   0.537 -0.0216  0.0469  0.3680
  652TIP3    H1 1899   7.499   1.105   0.472  0.8630 -0.2044  0.8578
  652TIP3    H2 1900   7.380   1.011   0.485  1.2346 -0.8942 -0.5372
  653TIP3   OH2 1901   1.331   2.125   2.995  0.3060  0.6110  0.4449
  653TIP3    H1 1902   1.247   2.119   3.042 -1.5428 -0.2722 -2.6912
  653TIP3    H2 1903   1.393   2.081   3.053 -1.4345  1.0034  2.7563
  654TIP3   OH2 1904   2.776   2.296   1.099 -0.1220  0.1425 -0.1594
  654TIP3    H1 1905   2.848   2.310   1.161  0.5541  0.2337 -0.9442
  654TIP3    H2 1906   2.816   2.307   1.013 -0.7092 -1.4696 -0.6750
  655TIP3   OH2 1907   0.233   0.766   2.719 -0.1227  0.2655  0.1585
  655TIP3    H1 1908   0.287   0.703   2.671  1.6581  2.0478 -0.2699
  655TIP3    H2 1909   0.294   0.811   2.778 -1.3242  1.6428  0.4117
  656TIP3   OH2 1910   6.776   2.145   0.472 -0.2532  0.0643 -0.1059
  656TIP3    H1 1911   6.867   2.164   0.492 -0.3073  1.2638 -0.8392
  656TIP3    H2 1912   6.757   2.063   0.516  1.5765 -0.9304 -1.0919
  657TIP3   OH2 1913   1.431   3.339   5.095  0.2657 -0.1970  0.2189
  657TIP3    H1 1914   1.524   3.317   5.104  0.4177 -0.3421 -1.3472
  657TIP3    H2 1915   1.426   3.384   5.010 -1.4823 -2.6215 -1.0714
  658TIP3   OH2 1916   5.535   6.829   5.202  0.2689 -0.0730  0.1969
  658TIP3    H1 1917   5.445   6.797   5.208  0.1645  0.0259 -0.6520
  658TIP3    H2 1918   5.550   6.839   5.108  1.0812  0.1564  0.3453
  659TIP3   OH2 1919   6.281   2.968   6.127  0.5294  0.3586  0.5315
  659TIP3    H1 1920   6.315   3.045   6.081  0.5441 -0.3692 -0.7041
  659TIP3    H2 1921   6.186   2.977   6.120  0.4126  1.5989  2.6745
  660TIP3   OH2 1922   0.450   1.435   0.332  0.4625 -0.2034  0.4524
  660TIP3    H1 1923   0.538   1.432   0.369  0.3502 -0.3170  0.7099
  660TIP3    H2 1924   0.406   1.357   0.366  0.0272  0.2292  0.9164
  661TIP3   OH2 1925   7.041   4.551   2.664  0.5084 -0.1117  0.3213
  661TIP3    H1 1926   7.131   4.583   2.655  0.4498 -0.1400 -0.4100
  661TIP3    H2 1927   6.991   4.627   2.692  0.5094  0.2554 -0.6419
  662TIP3   OH2 1928   3.865   6.307   5.518 -0.2965  0.2861  0.1514
  662TIP3    H1 1929   3.815   6.229   5.541 -1.2504  0.3763 -1.4363
  662TIP3    H2 1930   3.838   6.372   5.584 -0.8395 -0.2189  0.4447
  663TIP3   OH2 1931   5.528   6.262   6.143  0.5105  0.2892  0.2048
  663TIP3    H1 1932   5.469   6.267   6.218 -1.4541 -1.1624 -1.1567
  663TIP3    H2 1933   5.541   6.353   6.116  1.1955  0.8357  2.1902
  664TIP3   OH2 1934   3.029   2.479   3.473 -0.4749  0.8745 -0.7386
  664TIP3    H1 1935   2.954   2.458   3.529  0.8446  0.4299  0.9250
  664TIP3    H2 1936   3.046   2.399   3.424  0.9242 -0.1930  1.3347
  665TIP3   OH2 1937   8.051   5.633   6.553  0.0729 -0.1035  0.5144
  665TIP3    H1 1938   8.057   5.540   6.531 -1.0938 -0.1133  0.1478
  665TIP3    H2 1939   7.989   5.669   6.489 -0.4781  0.6509  1.4366
  666TIP3   OH2 1940   7.841   3.623   2.996  0.1251 -0.1322  0.4127
  666TIP3    H1 1941   7.927   3.616   3.037 -0.3182 -1.0408  1.2308
  666TIP3    H2 1942   7.856   3.675   2.918  1.0142  1.6276  1.6995
  667TIP3   OH2 1943   8.163   2.575   0.223 -0.1167 -0.3225  0.5418
  667TIP3    H1 1944   8.238   2.528   0.186 -0.1317  0.3741 -0.4157
  667TIP3    H2 1945   8.087   2.522   0.197 -0.3355  1.1791 -2.3391
  668TIP3   OH2 1946   3.546   1.624   6.273  0.0671  0.3608  0.0080
  668TIP3    H1 1947   3.576   1.542   6.235  0.6497  0.2996  0.5757
  668TIP3    H2 1948   3.616   1.650   6.333 -0.6207  0.6816  0.6973
  669TIP3   OH2 1949   6.101   5.185   0.183  0.0884 -0.3780 -0.3192
  669TIP3    H1 1950   6.071   5.140   0.104 -0.0761 -3.6314  1.3977
  669TIP3    H2 1951   6.152   5.119   0.230  1.7889  2.0055  1.4337
  670TIP3   OH2 1952   3.859   0.720   3.940  0.2625 -0.2279 -0.3048
  670TIP3    H1 1953   3.926   0.679   3.886 -1.1884  0.2877 -2.6511
  670TIP3    H2 1954   3.777   0.703   3.894 -0.7423  2.7314  0.1451
  671TIP3   OH2 1955   5.082   7.381   0.542 -0.1438 -0.1956  0.1116
  671TIP3    H1 1956   5.071   7.415   0.631 -0.2750  0.5787 -0.1915
  671TIP3    H2 1957   5.056   7.454   0.486 -0.5063 -0.8311 -0.5594
  672TIP3   OH2 1958   0.263   5.983   2.655 -0.0131  0.2484 -0.5133
  672TIP3    H1 1959   0.285   5.920   2.586  0.9270  0.5025 -0.4572
  672TIP3    H2 1960   0.317   6.059   2.637  0.6693  0.1090  0.8130
  673TIP3   OH2 1961   3.183   0.724   1.283 -0.2215  0.2805  0.9075
  673TIP3    H1 1962   3.094   0.728   1.250 -0.3731  0.2281  1.2980
  673TIP3    H2 1963   3.193   0.634   1.315  0.5328 -0.2198 -0.6440
  674TIP3   OH2 1964   0.330   7.817   5.249 -0.6083  0.2919  0.7559
  674TIP3    H1 1965   0.419   7.796   5.222  0.0566  0.6017  2.6170
  674TIP3    H2 1966   0.283   7.733   5.244  0.0623 -0.0925  0.8195
  675TIP3   OH2 1967   6.766   3.930   2.142  0.2302  0.1835 -0.1420
  675TIP3    H1 1968   6.809   3.935   2.228  0.6810 -0.9109 -0.2887
  675TIP3    H2 1969   6.678   3.963   2.158 -0.2213 -1.5056  1.1410
  676TIP3   OH2 1970   2.004   5.465   3.357 -0.0663 -0.1344  0.7217
  676TIP3    H1 1971   2.095   5.446   3.380 -0.2480 -1.2716  0.5504
  676TIP3    H2 1972   2.010   5.531   3.288  0.6291 -0.2183  0.6976
  677TIP3   OH2 1973   3.624   4.729   3.659 -0.5570 -0.5019  0.2722
  677TIP3    H1 1974   3.688   4.778   3.607  1.1699 -3.0025 -0.1140
  677TIP3    H2 1975   3.585   4.667   3.597 -0.9110 -1.2629  1.2354
  678TIP3   OH2 1976   4.602   7.189   0.055 -0.0963 -0.1925  0.4152
  678TIP3    H1 1977   4.580   7.100   0.029  1.4458 -0.4365 -0.1897
  678TIP3    H2 1978   4.640   7.180   0.142 -0.1845 -0.1031  0.4625
  679TIP3   OH2 1979   0.693   2.045   2.796 -0.0871 -0.6023 -0.1335
  679TIP3    H1 1980   0.695   2.081   2.885 -0.0787 -2.4706  0.6648
  679TIP3    H2 1981   0.706   2.121   2.740 -1.5316  0.8762  1.3852
  680TIP3   OH2 1982   0.652   3.987   4.414 -0.7247 -0.2020 -0.1828
  680TIP3    H1 1983   0.606   3.909   4.386  1.5827 -1.4581 -0.7385
  680TIP3    H2 1984   0.737   3.982   4.371  1.5849 -0.2269  3.8441
  681TIP3   OH2 1985   1.864   6.332   4.301  0.4949 -0.3628  0.2265
  681TIP3    H1 1986   1.932   6.398   4.313  0.6488 -0.4163 -0.3204
  681TIP3    H2 1987   1.911   6.248   4.302  0.6674 -0.3282 -1.6870
  682TIP3   OH2 1988   0.300   1.116   2.910 -0.5567 -0.2215  0.0490
  682TIP3    H1 1989   0.205   1.103   2.903 -0.5278 -0.1364 -0.5791
  682TIP3    H2 1990   0.317   1.195   2.859 -0.2781  0.3589  1.0051
  683TIP3   OH2 1991   1.399   3.378   0.351 -0.1699 -0.6516  0.5340
  683TIP3    H1 1992   1.437   3.324   0.282  0.1042 -0.1911  0.3263
  683TIP3    H2 1993   1.375   3.460   0.308 -0.0282 -0.3734  0.9758
  684TIP3   OH2 1994   4.354   6.463   6.697 -0.0750 -0.0955  0.6898
  684TIP3    H1 1995   4.274   6.422   6.664  0.6765 -0.2396 -1.0669
  684TIP3    H2 1996   4.339   6.557   6.687  0.7358 -0.1521 -1.7255
  685TIP3   OH2 1997   3.365   6.409   3.569  0.2515 -0.5747 -0.5314
  685TIP3    H1 1998   3.320   6.429   3.487  0.3188 -0.8324 -0.6346
  685TIP3    H2 1999   3.408   6.324   3.553  1.3719 -0.0028 -0.6838
  686TIP3   OH2 2000   7.359   0.699   1.809 -0.1439 -0.1406 -0.2604
  686TIP3    H1 2001   7.443   0.686   1.766 -1.4087 -1.4097 -2.5916
  686TIP3    H2 2002   7.369   0.659   1.896  2.7031  3.0811  1.1236
  687TIP3   OH2 2003   0.420   0.438   5.710  0.0907  0.4279 -0.6365
  687TIP3    H1 2004   0.342   0.482   5.678  1.0914  3.3792  0.5460
  687TIP3    H2 2005   0.493   0.485   5.668  1.2635  0.6160  1.4254
  688TIP3   OH2 2006   3.535   3.773   3.340  0.2060  0.1475  0.6561
  688TIP3    H1 2007   3.466   3.814   3.393  1.1819  3.9972 -0.7347
  688TIP3    H2 2008   3.520   3.806   3.251  1.6978 -1.9127 -0.4291
  689TIP3   OH2 2009   5.225   0.643   5.247  0.2412 -0.6990  0.1829
  689TIP3    H1 2010   5.202   0.714   5.187  0.1371  0.1495  1.1942
  689TIP3    H2 2011   5.212   0.563   5.196  2.3013  0.0326 -1.6475
  690TIP3   OH2 2012   7.122   0.140   1.897 -0.2801 -0.2824  0.0009
  690TIP3    H1 2013   7.131   0.098   1.983 -1.3834  0.3430  0.4412
  690TIP3    H2 2014   7.075   0.076   1.844 -0.2009 -0.3949  0.0651
  691TIP3   OH2 2015   1.677   2.650   2.305 -0.0370 -0.1372 -0.3714
  691TIP3    H1 2016   1.759   2.654   2.256  0.7113  0.3200  0.8574
  691TIP3    H2 2017   1.621   2.593   2.253  1.4223 -1.3378 -0.7261
  692TIP3   OH2 2018   7.907   2.427   6.291  0.1218  0.0212  0.3864
  692TIP3    H1 2019   7.991   2.414   6.334  0.3428  0.0640 -0.0282
  692TIP3    H2 2020   7.858   2.347   6.308  0.6447 -0.4410 -0.2753
  693TIP3   OH2 2021   1.710   4.510   2.899 -0.0587 -0.5014  0.1526
  693TIP3    H1 2022   1.677   4.594   2.868 -1.2825  0.1743  3.0317
  693TIP3    H2 2023   1.640   4.448   2.880  0.4826 -0.7637 -1.1492
  694TIP3   OH2 2024   1.701   6.474   2.296  0.1318 -0.4410  0.3929
  694TIP3    H1 2025   1.647   6.528   2.240  0.4673 -0.7106 -0.1993
  694TIP3    H2 2026   1.729   6.532   2.367 -1.4385 -0.4603  1.0611
  695TIP3   OH2 2027   1.417   2.601   5.123  0.0481  0.7508  0.6028
  695TIP3    H1 2028   1.366   2.536   5.075  2.5319 -0.7526 -0.1885
  695TIP3    H2 2029   1.402   2.581   5.215 -0.0266 -0.2737  0.3715
  696TIP3   OH2 2030   6.517   4.666   4.132 -0.5135 -0.1338 -0.4275
  696TIP3    H1 2031   6.593   4.611   4.146 -0.4237 -0.0748 -0.6718
  696TIP3    H2 2032   6.442   4.612   4.157 -0.4263 -0.3649 -0.6621
  697TIP3   OH2 2033   6.016   3.342   6.013  0.0419  0.7561 -0.8185
  697TIP3    H1 2034   6.097   3.370   6.056  0.3925  1.7408 -2.0226
  697TIP3    H2 2035   6.023   3.378   5.924 -1.4527  0.3548 -1.1332
  698TIP3   OH2 2036   1.478   3.279   0.105  0.2548  0.2326 -0.2084
  698TIP3    H1 2037   1.476   3.225   0.026 -0.3990 -0.2162  0.1108
  698TIP3    H2 2038   1.553   3.337   0.092  0.6872 -0.4363 -0.7641
  699TIP3   OH2 2039   6.602   0.588   1.893 -0.8278  0.0004 -0.0825
  699TIP3    H1 2040   6.648   0.538   1.825 -1.7317  0.2706 -0.9090
  699TIP3    H2 2041   6.509   0.574   1.876 -1.1036 -0.9449  1.8660
  700TIP3   OH2 2042   7.538   3.048   1.664  0.0774  0.4281 -0.2867
  700TIP3    H1 2043   7.496   3.111   1.604 -2.4888 -0.3663  0.5281
  700TIP3    H2 2044   7.503   2.963   1.637  2.3928 -0.5346 -0.4687
  701TIP3   OH2 2045   1.711   5.728   2.337 -0.6962 -0.5109 -0.7131
  701TIP3    H1 2046   1.761   5.808   2.323  1.9649 -1.8380  0.4742
  701TIP3    H2 2047   1.622   5.758   2.354 -0.0692  2.0816 -1.5788
  702TIP3   OH2 2048   1.846   5.137   4.846  0.3886  0.1209 -0.1375
  702TIP3    H1 2049   1.889   5.058   4.879  0.0829 -0.3782 -0.9113
  702TIP3    H2 2050   1.777   5.105   4.789 -0.8081  0.9279  0.8059
  703TIP3   OH2 2051   2.921   1.789   1.201  0.4726  0.1439  0.0991
  703TIP3    H1 2052   2.869   1.778   1.281 -0.7365  0.7309 -0.5735
  703TIP3    H2 2053   2.875   1.857   1.152  0.7842 -0.6813 -1.4042
  704TIP3   OH2 2054   0.774   1.081   0.997  0.0041  0.6470  0.4728
  704TIP3    H1 2055   0.733   1.111   0.915  0.6975  0.8680  0.1922
  704TIP3    H2 2056   0.824   1.004   0.971 -0.4202  0.2403  0.8571
  705TIP3   OH2 2057   1.376   0.701   0.355 -0.1853  0.1641 -0.2511
  705TIP3    H1 2058   1.354   0.787   0.390  0.6619  0.9998 -1.6599
  705TIP3    H2 2059   1.405   0.650   0.431  0.1507  1.4157  0.4790
  706TIP3   OH2 2060   0.213   6.617   6.443  0.5198  0.2798  0.2261
  706TIP3    H1 2061   0.142   6.554   6.435  1.8491 -1.3313  0.5025
  706TIP3    H2 2062   0.195   6.665   6.524 -0.2558 -0.0821  0.2706
  707TIP3   OH2 2063   6.200   1.041   3.898  0.1280 -0.1753 -0.2063
  707TIP3    H1 2064   6.159   1.100   3.961  0.8773  2.9032 -2.3244
  707TIP3    H2 2065   6.291   1.033   3.927  0.3712  0.9087 -0.6233
  708TIP3   OH2 2066   3.086   4.508   1.509  0.1566  0.1173  0.2810
  708TIP3    H1 2067   3.085   4.413   1.510  0.0604  0.0983  2.1024
  708TIP3    H2 2068   3.179   4.531   1.497  0.0562 -0.1588 -1.2195
  709TIP3   OH2 2069   3.911   1.178   2.333  0.9412  0.2194  0.4644
  709TIP3    H1 2070   4.000   1.146   2.347  1.8067  2.3374  0.2316
  709TIP3    H2 2071   3.912   1.215   2.245 -0.0332  0.7025  0.6377
  710TIP3   OH2 2072   1.975   1.948   2.219 -0.9898 -0.0793  0.4856
  710TIP3    H1 2073   2.017   2.032   2.237 -0.8495  0.1519 -0.8340
  710TIP3    H2 2074   2.041   1.898   2.172 -1.7865 -0.1095 -0.6548
  711TIP3   OH2 2075   3.335   3.192   0.675  0.3142 -0.6452  0.5408
  711TIP3    H1 2076   3.424   3.209   0.707  0.7894  0.2454 -1.1568
  711TIP3    H2 2077   3.280   3.206   0.752  1.4858  0.6166  1.2070
  712TIP3   OH2 2078   4.671   6.964   0.943 -0.5139  0.8861  0.1915
  712TIP3    H1 2079   4.638   7.031   1.002 -0.4601 -0.2800  1.6189
  712TIP3    H2 2080   4.731   6.912   0.997 -0.4884 -0.2454 -0.8755
  713TIP3   OH2 2081   2.764   2.121   5.740 -0.4318 -0.0070 -0.3300
  713TIP3    H1 2082   2.714   2.039   5.745 -1.8983  0.9404  1.5383
  713TIP3    H2 2083   2.703   2.184   5.701  0.1433  0.5822 -0.2895
  714TIP3   OH2 2084   4.184   2.251   6.104 -0.2901 -0.0614 -0.5499
  714TIP3    H1 2085   4.201   2.211   6.018  1.3411 -1.2239  0.2484
  714TIP3    H2 2086   4.270   2.253   6.146 -0.8148  1.8239  0.5206
  715TIP3   OH2 2087   2.788   5.321   5.089  0.3815  0.2679 -0.4903
  715TIP3    H1 2088   2.812   5.412   5.072 -1.0361  0.6050 -0.7965
  715TIP3    H2 2089   2.708   5.327   5.140  0.9939 -0.8119  0.6360
  716TIP3   OH2 2090   2.849   1.249   1.535 -0.0326 -0.1824 -0.4407
  716TIP3    H1 2091   2.755   1.232   1.533 -0.6593  2.5702  0.9030
  716TIP3    H2 2092   2.889   1.163   1.540 -2.5248 -1.3865  0.0818
  717TIP3   OH2 2093   6.586   2.004   0.623  0.0031  0.0012  0.2771
  717TIP3    H1 2094   6.601   1.941   0.552  1.3580  0.1521  0.4147
  717TIP3    H2 2095   6.491   2.016   0.624 -0.0085  0.8674 -2.2919
  718TIP3   OH2 2096   4.261   1.345   5.973 -0.0642  0.8694  0.2736
  718TIP3    H1 2097   4.286   1.361   5.883  0.1223  0.9973  0.3474
  718TIP3    H2 2098   4.304   1.262   5.996 -0.0770  0.8585  0.2584
  719TIP3   OH2 2099   3.019   5.697   5.949 -1.1026 -0.2063  0.2154
  719TIP3    H1 2100   2.956   5.767   5.932 -1.6014 -0.9912 -1.3367
  719TIP3    H2 2101   3.102   5.741   5.964 -1.5886  0.7384  0.1692
  720TIP3   OH2 2102   4.666   5.917   5.568 -0.3630  0.4487 -0.2922
  720TIP3    H1 2103   4.678   5.859   5.643  0.3809 -0.1485 -0.8571
  720TIP3    H2 2104   4.576   5.903   5.541 -0.7190  0.8592  0.6355
  721TIP3   OH2 2105   5.013   5.203   4.327  0.2624  0.1534 -0.2495
  721TIP3    H1 2106   4.926   5.240   4.338  1.0374  2.0002  0.1128
  721TIP3    H2 2107   4.999   5.121   4.279 -1.9064 -1.0752  2.2429
  722TIP3   OH2 2108   4.000   0.247   3.266 -0.2538 -0.3627  0.0663
  722TIP3    H1 2109   4.076   0.252   3.208  0.7661  0.1032  1.4116
  722TIP3    H2 2110   3.939   0.188   3.220  0.8946 -0.7259 -1.0472
  723TIP3   OH2 2111   6.309   3.073   0.024  0.0699  0.0903  0.3817
  723TIP3    H1 2112   6.345   3.043  -0.060 -3.1515 -0.8357 -0.8023
  723TIP3    H2 2113   6.310   2.995   0.080 -0.2493  0.0183  0.2875
  724TIP3   OH2 2114   7.799   4.697   4.070 -0.1956  0.3825 -0.4577
  724TIP3    H1 2115   7.874   4.639   4.082 -0.8066 -0.1854  0.7617
  724TIP3    H2 2116   7.735   4.644   4.023 -0.8613 -0.0678  0.8983
  725TIP3   OH2 2117   4.126   2.062   0.590 -0.1789  0.4908  0.6305
  725TIP3    H1 2118   4.148   1.977   0.552  2.4654 -0.8376  4.5056
  725TIP3    H2 2119   4.036   2.052   0.619 -0.1049 -0.8324  0.5044
  726TIP3   OH2 2120   7.229   7.003   1.521  0.3013  0.0769 -0.0373
  726TIP3    H1 2121   7.231   6.908   1.513  0.4243  0.0116  0.6524
  726TIP3    H2 2122   7.251   7.035   1.434  0.0273 -0.5206 -0.3370
  727TIP3   OH2 2123   6.402   1.022   1.862 -0.5731 -0.6628 -0.5211
  727TIP3    H1 2124   6.388   1.110   1.826  2.0690 -0.5139 -1.4788
  727TIP3    H2 2125   6.424   0.969   1.786  2.6083 -0.9522  0.4484
  728TIP3   OH2 2126   4.665   3.109   6.596  0.0706  0.5137 -0.1425
  728TIP3    H1 2127   4.739   3.059   6.631 -1.2001 -0.2164  1.7127
  728TIP3    H2 2128   4.681   3.199   6.626  0.6510  0.5506 -0.5433
  729TIP3   OH2 2129   5.741   1.467   3.283 -0.7308  0.0667  0.3249
  729TIP3    H1 2130   5.796   1.501   3.213 -0.5663 -0.1759  0.3371
  729TIP3    H2 2131   5.651   1.484   3.253 -0.7422 -1.8356 -0.8756
  730TIP3   OH2 2132   8.140   5.233   0.700  0.3437 -0.4610 -0.3766
  730TIP3    H1 2133   8.126   5.306   0.639  0.3087 -1.7807 -2.0438
  730TIP3    H2 2134   8.147   5.274   0.786  0.9400  1.5622 -1.3183
  731TIP3   OH2 2135   6.641   2.683   5.659  0.1473 -0.1406  0.2943
  731TIP3    H1 2136   6.679   2.636   5.733  0.3058 -1.2135 -0.4540
  731TIP3    H2 2137   6.572   2.737   5.699 -1.3492 -2.4071  1.0121
  732TIP3   OH2 2138   0.897   4.505   4.097  0.1105  0.1072  0.2524
  732TIP3    H1 2139   0.966   4.553   4.143 -1.1121  2.5879 -0.3113
  732TIP3    H2 2140   0.869   4.437   4.158  1.7128  0.3129  1.2481
  733TIP3   OH2 2141   3.611   6.181   3.411 -0.2158  0.1515 -0.6747
  733TIP3    H1 2142   3.674   6.117   3.378 -0.5899 -0.4317 -0.2885
  733TIP3    H2 2143   3.591   6.237   3.336  0.1738 -0.1409 -1.0003
  734TIP3   OH2 2144   7.917   3.653   6.426  0.6009  0.3045  0.5239
  734TIP3    H1 2145   7.972   3.640   6.503  0.5679 -1.2825  0.3283
  734TIP3    H2 2146   7.937   3.742   6.396  2.9815 -0.1520  0.5537
  735TIP3   OH2 2147   3.149   0.732   3.828 -1.2808  0.3708  0.1972
  735TIP3    H1 2148   3.140   0.798   3.897 -0.9600 -0.0773  0.6710
  735TIP3    H2 2149   3.087   0.760   3.760 -0.8065  1.4196  0.1816
  736TIP3   OH2 2150   0.174   3.469   1.166 -0.3799 -0.7255 -0.4041
  736TIP3    H1 2151   0.160   3.449   1.073  0.0339  1.8088 -1.0764
  736TIP3    H2 2152   0.195   3.384   1.205  3.1554 -1.4731 -3.3171
  737TIP3   OH2 2153   6.349   2.987   0.709 -0.2118  0.4090 -0.2549
  737TIP3    H1 2154   6.325   2.992   0.802 -0.5372 -1.2641 -0.2281
  737TIP3    H2 2155   6.338   3.077   0.677  0.2513  1.0879  1.3925
  738TIP3   OH2 2156   3.703   1.614   2.387  0.5939  0.0246  0.4550
  738TIP3    H1 2157   3.642   1.583   2.454 -0.0700 -3.0052 -1.3571
  738TIP3    H2 2158   3.658   1.687   2.346  0.2463  0.7837  2.0779
  739TIP3   OH2 2159   7.029   6.022   2.914 -0.6340  0.5704 -0.1438
  739TIP3    H1 2160   7.044   5.927   2.907 -0.9458  0.4990  0.1362
  739TIP3    H2 2161   7.111   6.056   2.949 -0.6968  0.3328  0.2492
  740TIP3   OH2 2162   4.189   4.655   4.787  0.1819 -0.2996  0.1924
  740TIP3    H1 2163   4.133   4.634   4.862 -1.1390  1.9329 -0.0974
  740TIP3    H2 2164   4.146   4.613   4.712 -1.4414  1.7692 -0.1002
  741TIP3   OH2 2165   3.096   4.900   1.581 -0.3534  0.5209  0.3559
  741TIP3    H1 2166   3.069   4.839   1.650 -0.7693 -0.0345 -0.2874
  741TIP3    H2 2167   3.014   4.928   1.540 -0.0491  0.0624 -0.5785
  742TIP3   OH2 2168   3.890   0.829   5.993  0.0605  0.1534 -0.2376
  742TIP3    H1 2169   3.798   0.810   5.973  0.0104 -0.7214  0.7196
  742TIP3    H2 2170   3.887   0.883   6.072  0.3751 -1.4310  0.9230
  743TIP3   OH2 2171   3.118   1.325   2.394  0.3166 -0.5275 -0.0166
  743TIP3    H1 2172   3.125   1.232   2.413  2.0925 -0.3866  0.2557
  743TIP3    H2 2173   3.037   1.353   2.436  0.6164 -1.6277  1.3462
  744TIP3   OH2 2174   6.136   3.041   2.776 -0.5680  0.8571  0.1020
  744TIP3    H1 2175   6.099   3.130   2.778 -1.2533  0.6958 -2.2998
  744TIP3    H2 2176   6.060   2.985   2.760  0.0819 -0.0123  0.0328
  745TIP3   OH2 2177   6.865   4.136   4.389  0.3891 -0.5472 -0.0321
  745TIP3    H1 2178   6.882   4.229   4.405 -2.7077  0.1087 -0.0525
  745TIP3    H2 2179   6.859   4.129   4.294  1.0848 -0.9173 -0.0618
  746TIP3   OH2 2180   0.092   5.143   2.071 -0.3658  0.3115  0.9425
  746TIP3    H1 2181   0.103   5.153   2.166 -1.4916  2.8325  0.8985
  746TIP3    H2 2182   0.176   5.171   2.034 -0.4476  0.8690  1.1638
  747TIP3   OH2 2183   6.394   1.743   0.586 -0.4962 -0.1213  0.7570
  747TIP3    H1 2184   6.400   1.669   0.646  0.5481 -0.5985  0.0886
  747TIP3    H2 2185   6.484   1.771   0.572 -0.8162  0.7440  0.3387
  748TIP3   OH2 2186   1.023   4.094   1.397 -0.0196  0.0494 -0.3300
  748TIP3    H1 2187   1.046   4.041   1.320 -0.8635 -0.9304  0.0652
  748TIP3    H2 2188   0.929   4.081   1.408 -0.0388  0.7558  0.4487
  749TIP3   OH2 2189   3.072   4.876   3.664  0.5173 -0.2159 -0.1136
  749TIP3    H1 2190   3.128   4.802   3.641  1.0895  0.7919 -2.2797
  749TIP3    H2 2191   3.133   4.948   3.680 -0.0359  0.8345 -2.2664
  750TIP3   OH2 2192   1.461   2.161   2.530  0.2115  0.6081  0.3926
  750TIP3    H1 2193   1.540   2.152   2.477 -0.5785 -0.8465 -0.6055
  750TIP3    H2 2194   1.415   2.236   2.492  1.5170  2.1203  1.6126
  751TIP3   OH2 2195   7.236   1.939   4.215  0.1555  0.0851 -0.1931
  751TIP3    H1 2196   7.214   1.871   4.279  0.5225  0.5120  0.3962
  751TIP3    H2 2197   7.208   1.903   4.131 -0.0757 -0.6017  0.1720
  752TIP3   OH2 2198   5.862   1.406   4.661 -0.2469  0.3059 -0.0267
  752TIP3    H1 2199   5.852   1.490   4.615 -0.7738  0.3173  0.1020
  752TIP3    H2 2200   5.883   1.431   4.751  2.2280  0.2824 -0.5298
  753TIP3   OH2 2201   7.528   3.134   5.665 -0.1137 -0.3663 -0.5533
  753TIP3    H1 2202   7.620   3.143   5.641 -0.3949 -0.4770 -1.7257
  753TIP3    H2 2203   7.503   3.221   5.697  0.0846  0.0294 -1.4279
  754TIP3   OH2 2204   7.909   7.116   0.318  0.4279  0.5205 -0.0147
  754TIP3    H1 2205   7.938   7.116   0.410 -0.0856  1.6328  0.1585
  754TIP3    H2 2206   7.833   7.058   0.317 -0.1564  1.2514  0.4745
  755TIP3   OH2 2207   4.274   6.392   6.303 -0.0643 -0.7153  0.2591
  755TIP3    H1 2208   4.210   6.322   6.322 -0.9276 -0.6537 -2.0946
  755TIP3    H2 2209   4.236   6.470   6.342 -2.1386 -0.4391 -2.0749
  756TIP3   OH2 2210   3.443   6.719   0.112 -0.4421  0.4808 -0.1044
  756TIP3    H1 2211   3.480   6.792   0.063  0.2219  1.0942  1.2589
  756TIP3    H2 2212   3.517   6.659   0.124 -0.1543  1.1094  1.5198
  757TIP3   OH2 2213   4.875   6.664   0.418  0.1008  0.0769 -0.1451
  757TIP3    H1 2214   4.880   6.749   0.374  4.6275  0.6812  1.0230
  757TIP3    H2 2215   4.897   6.683   0.509 -1.5768 -2.0965  0.8002
  758TIP3   OH2 2216   3.526   7.468   3.073  0.2481 -0.1350 -0.4772
  758TIP3    H1 2217   3.542   7.563   3.076 -0.7647  0.0385  0.0964
  758TIP3    H2 2218   3.562   7.436   3.156 -0.3963 -0.0769 -0.1715
  759TIP3   OH2 2219   3.623   4.688   4.378  0.3106  0.7506  0.5411
  759TIP3    H1 2220   3.659   4.759   4.325  2.0772  0.5054  1.3639
  759TIP3    H2 2221   3.601   4.620   4.314  1.7667  0.7234  0.0294
  760TIP3   OH2 2222   0.859   6.974   0.053 -0.1828  0.3305 -0.1678
  760TIP3    H1 2223   0.814   6.988   0.136 -0.9151 -0.4310 -0.4165
  760TIP3    H2 2224   0.859   6.879   0.042  0.6619  0.3781 -0.6278
  761TIP3   OH2 2225   5.504   6.701   4.205 -0.3722 -0.7790  0.1538
  761TIP3    H1 2226   5.442   6.628   4.200 -2.0967  0.5961  0.3353
  761TIP3    H2 2227   5.453   6.777   4.177  1.1835  0.4669  0.5749
  762TIP3   OH2 2228   0.532   5.136   5.925 -0.0037 -0.2625 -0.3811
  762TIP3    H1 2229   0.616   5.100   5.953  0.4849  0.3958 -0.9765
  762TIP3    H2 2230   0.469   5.100   5.988  0.8950  0.2325  0.8578
  763TIP3   OH2 2231   0.471   0.544   1.360 -0.0854 -0.3234  0.3983
  763TIP3    H1 2232   0.457   0.518   1.451  2.7112  1.3214  1.4134
  763TIP3    H2 2233   0.425   0.627   1.350 -2.3041 -1.5724 -0.4629
  764TIP3   OH2 2234   7.005   0.033   5.950 -0.6174 -0.0039 -0.1148
  764TIP3    H1 2235   7.007   0.004   6.041 -1.3283 -0.7896 -0.3274
  764TIP3    H2 2236   7.065   0.107   5.946 -1.2532  0.6003  1.1809
  765TIP3   OH2 2237   1.633   3.273   1.125  0.3676 -0.1362 -0.3837
  765TIP3    H1 2238   1.603   3.304   1.040  0.4663 -0.0376 -0.3832
  765TIP3    H2 2239   1.726   3.298   1.128  0.7802 -1.5184 -0.8938
  766TIP3   OH2 2240   0.524   7.410   1.869  0.0429 -0.0612  0.7402
  766TIP3    H1 2241   0.436   7.392   1.838 -0.2871  0.2640  1.4660
  766TIP3    H2 2242   0.580   7.400   1.791 -0.7581  0.7585  0.0458
  767TIP3   OH2 2243   6.840   1.694   4.285 -0.0545  0.0656  0.0957
  767TIP3    H1 2244   6.897   1.618   4.289  0.5425  0.3873 -1.3610
  767TIP3    H2 2245   6.874   1.754   4.352 -1.1263 -1.2828  1.9231
  768TIP3   OH2 2246   7.751   4.903   6.463 -0.4246 -0.0895  0.1617
  768TIP3    H1 2247   7.824   4.842   6.456 -0.5301 -0.2296  0.2759
  768TIP3    H2 2248   7.737   4.935   6.374 -0.4501 -0.3247  0.0821
  769TIP3   OH2 2249   0.783   3.845   0.540  0.3025  0.2240  0.0821
  769TIP3    H1 2250   0.830   3.916   0.586  1.6977 -0.0485 -0.8490
  769TIP3    H2 2251   0.848   3.776   0.530 -0.7852 -0.8405  0.1598
  770TIP3   OH2 2252   4.446   2.658   3.567  0.7615 -0.7933 -0.1022
  770TIP3    H1 2253   4.377   2.598   3.594  0.6940 -0.8593 -0.4210
  770TIP3    H2 2254   4.486   2.687   3.649  0.0722 -0.4180  0.1107
  771TIP3   OH2 2255   5.889   6.041   4.633  0.5424  0.0748  0.1556
  771TIP3    H1 2256   5.896   6.111   4.697 -0.7456  1.0396 -0.6951
  771TIP3    H2 2257   5.929   6.077   4.554 -2.1812  0.8564 -0.9979
  772TIP3   OH2 2258   2.278   2.831   6.359  1.0388  0.2388  0.5021
  772TIP3    H1 2259   2.265   2.785   6.442 -1.4300  0.8726  0.5406
  772TIP3    H2 2260   2.343   2.899   6.379  0.5687  0.3120  1.9008
  773TIP3   OH2 2261   4.052   4.442   2.654  0.3350 -0.3095  0.3994
  773TIP3    H1 2262   3.965   4.403   2.650  0.8683 -1.4795 -0.5228
  773TIP3    H2 2263   4.098   4.407   2.578  1.9968 -0.6939  1.5135
  774TIP3   OH2 2264   0.369   4.728   3.977 -0.2323 -0.0358 -0.5646
  774TIP3    H1 2265   0.306   4.747   4.047  0.6321  2.5688 -0.3873
  774TIP3    H2 2266   0.449   4.702   4.023 -0.6208 -1.6037 -0.7338
  775TIP3   OH2 2267   4.670   5.066   4.168 -0.5032  0.1781  0.4863
  775TIP3    H1 2268   4.716   5.129   4.223  0.4261 -0.4033  0.3833
  775TIP3    H2 2269   4.622   5.120   4.105  0.0317  0.7878  0.5958
  776TIP3   OH2 2270   0.446   4.565   5.024 -0.0821 -0.5704 -0.2505
  776TIP3    H1 2271   0.498   4.584   4.946 -1.2830 -1.9907 -1.4780
  776TIP3    H2 2272   0.507   4.573   5.097  0.8319  1.8679 -1.1970
  777TIP3   OH2 2273   3.005   5.887   0.887  0.9062 -0.0003 -0.5187
  777TIP3    H1 2274   2.923   5.842   0.909  0.8550  1.1513  1.9400
  777TIP3    H2 2275   3.071   5.817   0.888  0.4610 -0.4369  0.9015
  778TIP3   OH2 2276   8.169   3.620   5.933  0.0213 -0.0461 -0.3764
  778TIP3    H1 2277   8.148   3.528   5.946  0.2630 -0.0321  0.1860
  778TIP3    H2 2278   8.183   3.630   5.839  1.6798 -0.9538 -0.2579
  779TIP3   OH2 2279   5.313   0.312   5.750 -0.7050 -0.2641  0.1893
  779TIP3    H1 2280   5.386   0.258   5.781 -1.2843  0.2416  2.6215
  779TIP3    H2 2281   5.241   0.250   5.740 -0.4733 -0.4560 -0.3289
  780TIP3   OH2 2282   6.904   5.376   6.034 -0.1826  0.2434 -0.5464
  780TIP3    H1 2283   6.864   5.293   6.009 -1.4410  0.8615 -0.7044
  780TIP3    H2 2284   6.844   5.411   6.100  1.7498 -0.2030  1.5523
  781TIP3   OH2 2285   6.308   0.619   0.128  0.2677  0.0688 -0.9206
  781TIP3    H1 2286   6.259   0.561   0.070  0.6787 -1.1861 -0.0524
  781TIP3    H2 2287   6.361   0.673   0.069 -0.0392 -0.5127 -1.7430
  782TIP3   OH2 2288   7.911   6.535   6.346  0.1928  0.0107  0.5560
  782TIP3    H1 2289   7.886   6.507   6.258  1.0113 -2.0704  0.9371
  782TIP3    H2 2290   7.946   6.623   6.334  0.2924 -0.2346 -1.1956
  783TIP3   OH2 2291   7.930   0.781   1.508 -0.1080 -0.5147 -0.1063
  783TIP3    H1 2292   7.931   0.686   1.498 -1.1436 -0.5436  0.0350
  783TIP3    H2 2293   7.963   0.796   1.596  0.2533 -0.7216 -0.2010
  784TIP3   OH2 2294   1.135   5.613   6.727  0.3189 -0.5045 -0.0862
  784TIP3    H1 2295   1.204   5.626   6.792  0.7970 -1.7228 -0.3017
  784TIP3    H2 2296   1.178   5.634   6.643 -1.0868  3.9583  0.0664
  785TIP3   OH2 2297   1.770   7.392   3.035  0.3132 -0.4852  0.6486
  785TIP3    H1 2298   1.725   7.318   3.077 -1.1157  0.6405  1.2012
  785TIP3    H2 2299   1.749   7.382   2.942 -0.7504 -0.2259  0.8436
  786TIP3   OH2 2300   6.976   2.913   2.579  0.3857  0.0228 -0.0895
  786TIP3    H1 2301   7.010   2.843   2.634 -0.1198 -1.0169 -1.0663
  786TIP3    H2 2302   6.898   2.876   2.539 -0.3886  1.4500  0.0330
  787TIP3   OH2 2303   7.280   1.883   4.926 -0.2407 -0.1760 -0.0262
  787TIP3    H1 2304   7.200   1.920   4.888 -0.3217  0.2227  0.5272
  787TIP3    H2 2305   7.275   1.789   4.906 -0.2811  0.0191 -0.9921
  788TIP3   OH2 2306   2.109   1.427   1.121 -0.2631  0.0757 -0.0806
  788TIP3    H1 2307   2.197   1.392   1.132 -0.3424  0.3770  2.0681
  788TIP3    H2 2308   2.093   1.477   1.202 -1.3936  2.2903 -1.5591
  789TIP3   OH2 2309   8.210   5.660   1.359 -0.2483  0.1125  0.0979
  789TIP3    H1 2310   8.244   5.741   1.397  0.4012 -0.1397  0.0751
  789TIP3    H2 2311   8.145   5.688   1.294  0.9777  0.6818 -0.9231
  790TIP3   OH2 2312   7.038   2.596   2.596  0.0183 -0.2099  0.2255
  790TIP3    H1 2313   7.096   2.650   2.649  0.7420 -1.7221  1.0660
  790TIP3    H2 2314   7.004   2.531   2.657  1.5917 -2.5955 -1.2588
  791TIP3   OH2 2315   0.029   4.958   1.246 -0.6994  0.4766 -0.1372
  791TIP3    H1 2316   0.013   5.041   1.202  0.0049 -0.4614 -2.2836
  791TIP3    H2 2317   0.029   4.893   1.176  1.9945 -0.9146  1.0235
  792TIP3   OH2 2318   0.623   3.786   3.295  0.1882  0.1923  0.6931
  792TIP3    H1 2319   0.570   3.783   3.215 -0.7968  0.3377  1.3173
  792TIP3    H2 2320   0.678   3.863   3.284  0.2839  0.0336  0.0181
  793TIP3   OH2 2321   0.244   7.268   3.268  0.0171  0.1475  0.4060
  793TIP3    H1 2322   0.192   7.224   3.202 -0.0622  1.5226 -0.4930
  793TIP3    H2 2323   0.334   7.239   3.252 -0.1650 -0.4661  0.4925
  794TIP3   OH2 2324   0.987   7.243   0.263  0.3345 -0.2982 -0.3369
  794TIP3    H1 2325   0.992   7.320   0.319 -0.4867 -1.2721  1.1299
  794TIP3    H2 2326   1.040   7.266   0.187  1.8201  0.9344  0.9917
  795TIP3   OH2 2327   0.110   6.666   3.744  0.4422  0.2145 -0.4521
  795TIP3    H1 2328   0.029   6.712   3.761 -0.5083 -1.3335 -0.5996
  795TIP3    H2 2329   0.178   6.723   3.780 -0.6588  1.6898 -0.6181
  796TIP3   OH2 2330   3.136   6.104   2.755  0.1444 -0.3967 -0.2880
  796TIP3    H1 2331   3.112   6.165   2.685  1.3533 -0.3745 -0.7108
  796TIP3    H2 2332   3.126   6.155   2.835 -2.0614 -0.6690 -0.3210
  797TIP3   OH2 2333   1.816   1.910   5.292 -0.4973 -0.1033 -0.3369
  797TIP3    H1 2334   1.777   1.842   5.237 -2.0135  1.0108 -0.7135
  797TIP3    H2 2335   1.843   1.978   5.230  0.6129 -0.1506  0.0703
  798TIP3   OH2 2336   5.811   2.134   2.681  0.1779  0.0187 -0.4436
  798TIP3    H1 2337   5.801   2.043   2.708  2.3284 -0.3610 -0.7317
  798TIP3    H2 2338   5.829   2.129   2.587 -1.7702  0.9385 -0.9192
  799TIP3   OH2 2339   7.809   0.364   0.970  0.1320 -0.0012 -0.0393
  799TIP3    H1 2340   7.804   0.283   0.920  0.2850 -0.8563  1.2857
  799TIP3    H2 2341   7.902   0.371   0.995  0.5769  1.6789 -1.8365
  800TIP3   OH2 2342   0.588   5.475   0.805 -0.1236  0.2961  0.1070
  800TIP3    H1 2343   0.544   5.398   0.770  1.0991 -0.4981  0.2628
  800TIP3    H2 2344   0.561   5.479   0.896 -1.7149  1.2034 -0.3574
  801TIP3   OH2 2345   7.574   2.606   2.095 -0.1519  0.3980 -0.4403
  801TIP3    H1 2346   7.660   2.567   2.089 -0.7903 -1.0888 -0.1922
  801TIP3    H2 2347   7.551   2.602   2.188 -0.6921  0.3406 -0.5729
  802TIP3   OH2 2348   7.998   6.119   6.589  0.0500 -0.2047  0.1371
  802TIP3    H1 2349   8.031   6.200   6.627  0.2848  1.1136 -2.6727
  802TIP3    H2 2350   8.056   6.101   6.515 -2.8619 -0.1327 -2.3731
  803TIP3   OH2 2351   3.695   0.906   3.412  0.6146  0.6231 -0.2756
  803TIP3    H1 2352   3.687   0.891   3.506 -0.0257  1.6354 -0.1498
  803TIP3    H2 2353   3.778   0.951   3.402  0.7789  0.3323 -0.2170
  804TIP3   OH2 2354   2.707   5.665   2.244  1.0285 -0.2855 -0.4131
  804TIP3    H1 2355   2.706   5.674   2.339 -0.7375  1.0127 -0.5109
  804TIP3    H2 2356   2.672   5.577   2.228  0.4923 -0.1691  0.1125
  805TIP3   OH2 2357   4.837   6.903   5.964  0.0305 -0.1687  0.3202
  805TIP3    H1 2358   4.894   6.866   6.031  0.8312  0.2487 -0.1104
  805TIP3    H2 2359   4.891   6.969   5.921 -0.7324  0.1206 -0.2123
  806TIP3   OH2 2360   0.985   3.569   2.680 -0.3012 -0.1341 -0.0136
  806TIP3    H1 2361   0.973   3.476   2.659  1.7897 -0.5301  0.3693
  806TIP3    H2 2362   0.985   3.613   2.595 -0.8554 -0.5226 -0.2239
  807TIP3   OH2 2363   1.332   1.281   2.909 -0.6289 -0.6743 -0.6804
  807TIP3    H1 2364   1.374   1.329   2.838 -0.3916 -0.5616 -0.4643
  807TIP3    H2 2365   1.372   1.194   2.905 -2.1064 -1.3593 -2.0176
  808TIP3   OH2 2366   0.030   0.654   2.845  0.2961  0.2466 -0.1578
  808TIP3    H1 2367   0.077   0.707   2.781  2.6705 -1.8398 -0.3015
  808TIP3    H2 2368   0.036   0.565   2.811 -2.0909 -0.3924  0.8936
  809TIP3   OH2 2369   3.262   1.852   6.088 -0.3296 -0.8184  0.0343
  809TIP3    H1 2370   3.302   1.883   6.170  1.0632 -1.4913 -0.3515
  809TIP3    H2 2371   3.300   1.765   6.075  0.7772 -0.0746 -2.1668
  810TIP3   OH2 2372   5.905   1.632   5.829  0.3444  0.7426  0.3260
  810TIP3    H1 2373   5.904   1.538   5.846 -0.2163  0.6946  0.0258
  810TIP3    H2 2374   5.834   1.647   5.768 -0.0974  1.4802  0.9960
  811TIP3   OH2 2375   6.866   4.238   3.368  0.6740 -0.1310  0.1336
  811TIP3    H1 2376   6.808   4.279   3.304  1.6210  1.5463  0.2955
  811TIP3    H2 2377   6.809   4.219   3.443 -0.2122 -1.1118 -0.7448
  812TIP3   OH2 2378   7.019   2.802   4.083 -0.0590 -0.1827  0.4093
  812TIP3    H1 2379   6.989   2.791   4.173 -1.2233  0.0740  0.0771
  812TIP3    H2 2380   7.106   2.841   4.091  0.0309 -0.5727  1.4238
  813TIP3   OH2 2381   3.300   1.615   4.432 -0.0496 -0.1897  0.1901
  813TIP3    H1 2382   3.221   1.660   4.402  0.8398  2.1852  1.1859
  813TIP3    H2 2383   3.337   1.576   4.353 -2.1546 -1.3398 -0.3001
  814TIP3   OH2 2384   6.815   2.734   3.092  0.4263 -0.2804 -0.0188
  814TIP3    H1 2385   6.749   2.757   3.158 -1.5483 -0.5202 -1.7764
  814TIP3    H2 2386   6.893   2.712   3.142  0.0528  2.6149  2.0743
  815TIP3   OH2 2387   4.563   6.229   3.824  0.6171 -0.2290  0.4056
  815TIP3    H1 2388   4.653   6.204   3.805  0.5716 -0.6310  0.6836
  815TIP3    H2 2389   4.546   6.190   3.910 -0.3392 -1.5354 -0.3479
  816TIP3   OH2 2390   6.747   3.113   2.827 -0.1846  0.0264 -0.3162
  816TIP3    H1 2391   6.700   3.030   2.819  0.6691 -0.6383  1.2985
  816TIP3    H2 2392   6.685   3.172   2.871 -1.0808  0.5566 -2.1413
  817TIP3   OH2 2393   1.119   7.722   1.469 -0.2678  0.0410 -0.2381
  817TIP3    H1 2394   1.203   7.729   1.515 -0.4152  1.4512 -0.1414
  817TIP3    H2 2395   1.142   7.739   1.377 -0.1671 -1.5357 -0.5362
  818TIP3   OH2 2396   6.350   4.807   1.429 -0.1489 -0.9546 -0.4341
  818TIP3    H1 2397   6.269   4.846   1.463  2.8570  3.1958  2.9691
  818TIP3    H2 2398   6.345   4.823   1.334 -2.7207  0.3415 -0.1774
  819TIP3   OH2 2399   1.423   4.693   4.263 -0.6041  0.2286  0.4818
  819TIP3    H1 2400   1.516   4.708   4.279 -0.4019 -0.2351 -0.2004
  819TIP3    H2 2401   1.383   4.696   4.350 -0.3685  3.0381  0.5711
  820TIP3   OH2 2402   5.820   5.043   1.120 -0.0067 -0.6427  0.5652
  820TIP3    H1 2403   5.850   4.988   1.192 -2.9671 -1.3889  1.3549
  820TIP3    H2 2404   5.863   5.006   1.043 -1.5128 -3.8967  1.1126
  821TIP3   OH2 2405   5.886   1.578   3.798  0.0109 -0.1899  0.6857
  821TIP3    H1 2406   5.837   1.628   3.733  0.4951  1.2410  1.3910
  821TIP3    H2 2407   5.834   1.499   3.812 -1.7283  0.9399  0.8792
  822TIP3   OH2 2408   6.836   0.476   2.058 -0.0841 -0.3065  0.3838
  822TIP3    H1 2409   6.760   0.510   2.106 -0.3472 -0.3239 -0.0152
  822TIP3    H2 2410   6.858   0.546   1.996 -0.1225 -0.5246  0.1187
  823TIP3   OH2 2411   5.533   7.589   0.865 -0.3488 -0.4558  0.3585
  823TIP3    H1 2412   5.464   7.555   0.809  0.8181 -0.8918 -0.8924
  823TIP3    H2 2413   5.525   7.684   0.859  0.1639 -0.4796 -1.1313
  824TIP3   OH2 2414   2.696   7.421   3.554 -0.6656 -0.3091 -0.7664
  824TIP3    H1 2415   2.712   7.419   3.460 -3.4723 -0.7895 -1.3078
  824TIP3    H2 2416   2.694   7.515   3.575  0.7565 -0.2109 -1.0057
  825TIP3   OH2 2417   0.482   4.580   0.474 -0.3947 -0.0159 -0.1739
  825TIP3    H1 2418   0.428   4.537   0.540 -1.2787 -0.3412 -1.0821
  825TIP3    H2 2419   0.478   4.673   0.497 -0.9597 -0.0889  0.0464
  826TIP3   OH2 2420   4.710   2.019   2.296 -0.1813  0.1210 -0.0469
  826TIP3    H1 2421   4.716   1.936   2.344 -2.0825  0.1392  0.3036
  826TIP3    H2 2422   4.693   1.993   2.205 -0.1604  0.1145 -0.0490
  827TIP3   OH2 2423   1.899   3.223   1.573  0.1341 -0.3751  0.2991
  827TIP3    H1 2424   1.847   3.245   1.495 -0.6868  0.7032  1.1218
  827TIP3    H2 2425   1.847   3.254   1.646  1.3096 -0.5611  1.2415
  828TIP3   OH2 2426   7.730   0.398   2.151 -0.0561  0.3235 -0.4537
  828TIP3    H1 2427   7.671   0.324   2.137  3.0768 -2.4777 -0.0863
  828TIP3    H2 2428   7.761   0.421   2.063  0.0472  0.2227 -0.4440
  829TIP3   OH2 2429   4.214   0.868   1.170  0.1621  0.3411 -0.1984
  829TIP3    H1 2430   4.135   0.815   1.166  1.2768 -1.7751  2.6415
  829TIP3    H2 2431   4.275   0.827   1.109  0.2102 -0.1764  0.1945
  830TIP3   OH2 2432   5.317   0.246   2.819 -0.5051 -0.0697  0.2488
  830TIP3    H1 2433   5.291   0.225   2.729  1.4001 -1.0672 -0.1172
  830TIP3    H2 2434   5.288   0.337   2.831 -2.0603 -0.3700 -0.8366
  831TIP3   OH2 2435   2.845   4.683   0.453 -0.0950 -0.1995 -0.2164
  831TIP3    H1 2436   2.868   4.758   0.508  0.7413 -0.4508 -0.2052
  831TIP3    H2 2437   2.916   4.678   0.389 -0.0899 -1.0375 -0.1576
  832TIP3   OH2 2438   3.958   5.842   3.649  0.0644  0.1614 -0.0298
  832TIP3    H1 2439   4.016   5.837   3.725 -0.3433 -0.6567  0.2345
  832TIP3    H2 2440   3.890   5.905   3.675 -0.7771 -1.0469  0.7805
  833TIP3   OH2 2441   4.969   2.286   0.292  0.0519 -0.3356  0.8535
  833TIP3    H1 2442   5.041   2.346   0.311  0.5720 -0.7939  0.3711
  833TIP3    H2 2443   4.937   2.312   0.206  1.5004 -1.8835 -0.2161
  834TIP3   OH2 2444   1.417   1.326   2.022 -0.1358 -0.4400 -0.7971
  834TIP3    H1 2445   1.396   1.301   2.112  0.5948  2.8923  0.4101
  834TIP3    H2 2446   1.489   1.268   1.998  1.2957  0.1466  1.7073
  835TIP3   OH2 2447   1.353   0.326   6.251 -0.2346  0.5224  0.0671
  835TIP3    H1 2448   1.407   0.285   6.318  0.1228  1.5435  0.4290
  835TIP3    H2 2449   1.312   0.400   6.295 -2.3169 -0.4812 -0.0808
  836TIP3   OH2 2450   7.346   0.565   2.592 -0.0345 -0.4399  0.1810
  836TIP3    H1 2451   7.261   0.584   2.632 -0.4213 -0.4691 -0.6241
  836TIP3    H2 2452   7.363   0.474   2.614  0.8945  0.1585  2.3294
  837TIP3   OH2 2453   0.102   6.386   5.653  0.6498  0.2301  0.7096
  837TIP3    H1 2454   0.139   6.459   5.603 -0.1269  0.1765  0.0296
  837TIP3    H2 2455   0.177   6.347   5.697  1.6920 -0.7066 -1.6795
  838TIP3   OH2 2456   5.881   0.498   0.437 -0.2684  0.2845 -0.2382
  838TIP3    H1 2457   5.894   0.587   0.470  0.6825  0.3240 -0.6714
  838TIP3    H2 2458   5.793   0.498   0.400  0.1617  1.4073 -1.3196
  839TIP3   OH2 2459   0.059   7.266   4.151  0.0366  0.1171 -0.3012
  839TIP3    H1 2460   0.076   7.339   4.091  2.3098  1.6288  1.9704
  839TIP3    H2 2461  -0.002   7.302   4.215 -0.0214 -0.5050 -0.0027
  840TIP3   OH2 2462   0.890   5.665   4.894 -0.7022 -0.2354 -0.0334
  840TIP3    H1 2463   0.970   5.710   4.865 -1.7907  0.8661 -1.4580
  840TIP3    H2 2464   0.909   5.572   4.883  0.6256 -0.0261  0.3345
  841TIP3   OH2 2465   5.584   4.421   4.115 -0.6422  0.5644 -0.7168
  841TIP3    H1 2466   5.490   4.405   4.122 -0.5591  0.3895  0.1383
  841TIP3    H2 2467   5.594   4.515   4.127 -0.5577  0.3477  1.3042
  842TIP3   OH2 2468   4.577   0.394   5.709 -0.1626 -0.1317  0.4522
  842TIP3    H1 2469   4.596   0.325   5.773 -0.2473 -0.3795  0.2097
  842TIP3    H2 2470   4.663   0.432   5.689 -0.0855 -0.3483  0.3765
  843TIP3   OH2 2471   6.140   4.286   6.078 -0.0166  0.5018  0.2150
  843TIP3    H1 2472   6.060   4.313   6.121 -0.3133  1.2015 -0.7353
  843TIP3    H2 2473   6.121   4.199   6.044 -0.0270  0.2538  0.8438
  844TIP3   OH2 2474   5.995   4.092   3.088  0.2375  0.2904  0.1248
  844TIP3    H1 2475   5.949   4.086   3.004  0.1366 -0.8091  0.2522
  844TIP3    H2 2476   5.974   4.180   3.120 -1.4279 -0.0284 -0.0150
  845TIP3   OH2 2477   0.185   3.117   3.153 -0.0171  0.0999  0.3769
  845TIP3    H1 2478   0.267   3.066   3.155  0.1660  0.3803  0.2030
  845TIP3    H2 2479   0.137   3.089   3.231  0.2637 -0.0382  0.5029
  846TIP3   OH2 2480   5.387   5.021   3.372  0.0779  0.6286 -0.5467
  846TIP3    H1 2481   5.407   4.942   3.422 -1.0454  0.9149  0.3900
  846TIP3    H2 2482   5.346   4.989   3.291  0.1235  0.2364 -0.4145
  847TIP3   OH2 2483   5.370   7.320   6.735 -0.3868 -0.0275 -0.0241
  847TIP3    H1 2484   5.322   7.280   6.808  0.5462  1.3132  1.3797
  847TIP3    H2 2485   5.304   7.371   6.689 -0.5464  1.1392  1.4062
  848TIP3   OH2 2486   7.428   7.574   4.351  0.4255  0.0937 -0.0109
  848TIP3    H1 2487   7.483   7.503   4.384  0.1607 -0.8564 -1.5271
  848TIP3    H2 2488   7.342   7.534   4.339  0.2090  0.7259 -0.6687
  849TIP3   OH2 2489   3.479   6.943   6.022 -0.2255 -0.2689 -0.9219
  849TIP3    H1 2490   3.527   7.023   6.042  1.3326 -1.6584  1.4458
  849TIP3    H2 2491   3.387   6.967   6.031  0.1823  1.3735 -0.8448
  850TIP3   OH2 2492   3.068   2.411   1.943  0.0067 -0.3895  0.3538
  850TIP3    H1 2493   3.149   2.435   1.899  0.3271 -0.4413  0.9145
  850TIP3    H2 2494   3.095   2.376   2.028 -0.6636  0.7143  1.0469
  851TIP3   OH2 2495   5.833   3.886   4.136 -0.0598 -0.2123 -0.1771
  851TIP3    H1 2496   5.887   3.947   4.086  0.0948  0.9814  1.3587
  851TIP3    H2 2497   5.744   3.900   4.104 -0.0031  0.7508  0.0474
  852TIP3   OH2 2498   0.329   3.291   4.812 -0.4805 -0.4371  0.1501
  852TIP3    H1 2499   0.279   3.363   4.774 -1.3999 -0.0443  1.9740
  852TIP3    H2 2500   0.411   3.332   4.841 -0.9006 -0.1637  0.9674
  853TIP3   OH2 2501   3.705   5.640   3.483  0.1744 -0.1676  0.4803
  853TIP3    H1 2502   3.678   5.562   3.435 -0.3921 -0.1374  0.7379
  853TIP3    H2 2503   3.754   5.607   3.558  0.0620 -0.2720  0.5079
  854TIP3   OH2 2504   1.732   6.769   1.466 -0.1964 -0.2178  0.1372
  854TIP3    H1 2505   1.825   6.758   1.485 -0.2196  2.2783  2.1044
  854TIP3    H2 2506   1.730   6.822   1.386  0.2511  2.7733  1.9626
  855TIP3   OH2 2507   8.000   4.055   5.007  0.5969 -0.2175  0.0460
  855TIP3    H1 2508   7.984   3.963   5.026  0.0914  0.0134  0.8203
  855TIP3    H2 2509   8.018   4.058   4.913 -2.4659 -0.7534 -0.6639
  856TIP3   OH2 2510   6.917   3.300   0.845 -0.0782 -0.0476  0.4282
  856TIP3    H1 2511   6.981   3.249   0.895  0.4436  1.5367  1.4524
  856TIP3    H2 2512   6.941   3.284   0.753  1.7270  0.4122  0.7853
  857TIP3   OH2 2513   6.750   0.259   2.421 -0.0469 -0.5959  0.1129
  857TIP3    H1 2514   6.728   0.202   2.495  1.1377 -0.1661  0.8297
  857TIP3    H2 2515   6.828   0.306   2.450 -1.4385  2.0395 -0.0688
  858TIP3   OH2 2516   0.751   4.044   0.970 -0.3371  0.0478 -0.6036
  858TIP3    H1 2517   0.824   3.987   0.946 -0.3450  0.4720 -1.6769
  858TIP3    H2 2518   0.679   4.016   0.915 -0.0849  1.6616 -1.8142
  859TIP3   OH2 2519   6.320   7.099   3.572  0.0111 -0.3131 -0.0724
  859TIP3    H1 2520   6.288   7.157   3.641 -0.9731 -0.2563 -0.5710
  859TIP3    H2 2521   6.246   7.088   3.513  0.9241 -0.1498 -1.2792
  860TIP3   OH2 2522   2.649   0.784   5.031 -0.1527 -0.1533  0.0935
  860TIP3    H1 2523   2.571   0.782   4.975 -1.6898  1.9235  1.9615
  860TIP3    H2 2524   2.632   0.717   5.098  0.7667 -1.2744 -0.7664
  861TIP3   OH2 2525   0.085   6.620   6.724  0.0077 -0.2705 -0.3750
  861TIP3    H1 2526  -0.009   6.639   6.730  0.1383 -0.0023  1.2386
  861TIP3    H2 2527   0.092   6.529   6.752  0.3718  0.1493  0.9480
  862TIP3   OH2 2528   6.080   6.261   1.714  0.5478 -0.5910 -0.1089
  862TIP3    H1 2529   6.154   6.308   1.676  0.1245 -0.7611 -1.1746
  862TIP3    H2 2530   6.009   6.326   1.714  0.4369 -0.7139  0.0194
  863TIP3   OH2 2531   8.163   1.067   1.472 -0.0239  0.5747  0.3523
  863TIP3    H1 2532   8.107   1.144   1.479 -0.5317  0.1457  1.1849
  863TIP3    H2 2533   8.140   1.028   1.388 -2.0950 -0.4193  1.3266
  864TIP3   OH2 2534   7.500   5.468   1.128 -0.5618 -0.2495 -0.1968
  864TIP3    H1 2535   7.447   5.494   1.054  0.2348  1.8149 -0.1137
  864TIP3    H2 2536   7.494   5.372   1.131  0.5754 -0.5567 -3.8177
  865TIP3   OH2 2537   7.841   5.019   5.789  0.1363  0.5608  0.3387
  865TIP3    H1 2538   7.866   4.985   5.703  1.1482 -0.0366  0.8586
  865TIP3    H2 2539   7.914   5.074   5.815 -0.2087  0.8192  0.7860
  866TIP3   OH2 2540   5.190   4.415   1.296  0.1043 -0.4043  0.3998
  866TIP3    H1 2541   5.210   4.414   1.202 -2.0395  1.2569 -0.1650
  866TIP3    H2 2542   5.226   4.498   1.328 -0.6832 -0.1429  0.6337
  867TIP3   OH2 2543   3.964   4.506   1.193 -0.3771 -0.1137 -0.0287
  867TIP3    H1 2544   3.890   4.460   1.232  0.6557 -1.5052  0.3738
  867TIP3    H2 2545   4.025   4.436   1.168  1.6022  1.0336  1.3009
  868TIP3   OH2 2546   4.183   7.547   2.445  0.7257 -0.0940 -0.0139
  868TIP3    H1 2547   4.171   7.466   2.395  1.1342 -0.5622  0.6256
  868TIP3    H2 2548   4.150   7.525   2.533  0.3460  0.6047  0.0257
  869TIP3   OH2 2549   3.441   4.852   4.811 -0.7258 -0.4672 -0.0643
  869TIP3    H1 2550   3.431   4.947   4.815  2.5664 -0.0269  0.8111
  869TIP3    H2 2551   3.441   4.823   4.902 -1.6477 -1.3386 -0.3147
  870TIP3   OH2 2552   5.303   3.933   0.619  0.2655 -0.4745  0.4313
  870TIP3    H1 2553   5.322   3.860   0.561  3.8130 -2.0088  3.1437
  870TIP3    H2 2554   5.308   3.896   0.707  2.9947  2.9956  2.0145
  871TIP3   OH2 2555   1.040   6.266   5.094  0.6576 -0.0795  0.4295
  871TIP3    H1 2556   1.085   6.277   5.178 -1.1905  2.3574  1.2636
  871TIP3    H2 2557   1.034   6.355   5.059 -2.3842 -0.3850 -0.1248
  872TIP3   OH2 2558   6.784   2.211   1.970 -0.3257  0.2120 -0.3539
  872TIP3    H1 2559   6.713   2.274   1.980  0.4427  0.7711  2.4956
  872TIP3    H2 2560   6.861   2.255   2.005  0.7715 -1.4604 -0.5196
  873TIP3   OH2 2561   6.235   5.639   0.239 -0.1021  0.0675  0.5465
  873TIP3    H1 2562   6.140   5.627   0.239 -0.2171  0.8927 -0.1624
  873TIP3    H2 2563   6.252   5.696   0.314  0.0371 -1.3803  1.6640
  874TIP3   OH2 2564   5.088   6.307   3.658  0.2084  0.5137  0.5476
  874TIP3    H1 2565   5.162   6.275   3.711  0.1562  0.1365  0.3952
  874TIP3    H2 2566   5.040   6.365   3.717  0.8293  1.0516  0.5389
  875TIP3   OH2 2567   6.537   7.434   4.249  0.7311  0.5097  0.5638
  875TIP3    H1 2568   6.546   7.499   4.179 -0.1436  0.5364  0.4680
  875TIP3    H2 2569   6.452   7.452   4.289 -0.6388 -1.9519 -0.9393
  876TIP3   OH2 2570   6.360   1.902   5.876 -0.3455 -0.6828 -0.0635
  876TIP3    H1 2571   6.302   1.828   5.856  1.0350 -1.5112 -1.1826
  876TIP3    H2 2572   6.319   1.977   5.833 -1.2924 -0.9617  0.3221
  877TIP3   OH2 2573   6.977   2.530   3.245  0.5753  0.1568 -0.6181
  877TIP3    H1 2574   6.974   2.615   3.289  0.9676 -0.2059  0.1199
  877TIP3    H2 2575   7.052   2.537   3.186  0.8164  0.2065 -0.3076
  878TIP3   OH2 2576   2.375   7.698   3.754 -0.8052 -0.3071  0.1562
  878TIP3    H1 2577   2.374   7.739   3.841 -1.6515  1.1236 -0.4953
  878TIP3    H2 2578   2.306   7.632   3.759 -0.2409 -0.8665  0.8394
  879TIP3   OH2 2579   7.349   0.343   3.330  0.1417  0.1051 -0.2263
  879TIP3    H1 2580   7.393   0.363   3.248 -0.2460  1.1552 -0.1827
  879TIP3    H2 2581   7.406   0.381   3.397 -1.3026  2.3887 -0.2225
  880TIP3   OH2 2582   6.327   3.374   2.822 -0.2821 -0.2401 -0.0800
  880TIP3    H1 2583   6.333   3.291   2.774 -1.1944  0.2937 -1.1587
  880TIP3    H2 2584   6.314   3.348   2.913  1.2847 -1.2765 -0.1124
  881TIP3   OH2 2585   3.510   5.336   5.253  0.5630 -0.2780  0.4480
  881TIP3    H1 2586   3.470   5.295   5.177 -0.9783  1.0070  0.5083
  881TIP3    H2 2587   3.584   5.279   5.276 -0.4524 -2.0366 -0.4798
  882TIP3   OH2 2588   1.646   2.511   4.089  0.0948 -0.1875  0.1060
  882TIP3    H1 2589   1.660   2.599   4.053 -1.1247  0.0605  0.2160
  882TIP3    H2 2590   1.721   2.497   4.146  0.2824  0.7981  0.1171
  883TIP3   OH2 2591   2.912   3.692   6.213  0.1138  0.2298 -0.8581
  883TIP3    H1 2592   2.881   3.704   6.124 -2.3674 -0.1624 -0.1230
  883TIP3    H2 2593   2.889   3.774   6.258 -0.6504 -0.3817 -0.0923
  884TIP3   OH2 2594   8.205   3.709   5.627  0.0711  0.0658 -0.0970
  884TIP3    H1 2595   8.165   3.623   5.614 -1.7690  0.5897  1.6601
  884TIP3    H2 2596   8.132   3.767   5.648  1.6618  1.0202  3.6770
  885TIP3   OH2 2597   8.206   5.765   0.980 -0.3528  0.3638  0.2862
  885TIP3    H1 2598   8.251   5.847   0.959  1.1279  0.1174  2.2809
  885TIP3    H2 2599   8.276   5.703   0.997 -1.4315 -0.4497  1.9805
  886TIP3   OH2 2600   8.142   5.370   6.544 -0.2730 -0.2526  0.1016
  886TIP3    H1 2601   8.179   5.315   6.613 -0.3529  0.8515  1.0535
  886TIP3    H2 2602   8.216   5.390   6.487 -0.1305 -0.8800  0.0575
  887TIP3   OH2 2603   0.842   1.737   4.512  0.2723  0.0966  0.0129
  887TIP3    H1 2604   0.930   1.733   4.475  0.4178  2.1297  0.0605
  887TIP3    H2 2605   0.841   1.817   4.564 -1.9280  0.7270 -0.8995
  888TIP3   OH2 2606   2.727   2.331   6.479 -0.3233  0.1010 -0.1091
  888TIP3    H1 2607   2.680   2.388   6.540  0.5421  0.8075 -0.0994
  888TIP3    H2 2608   2.666   2.318   6.406 -1.4058 -0.8121  0.9017
  889TIP3   OH2 2609   0.303   7.481   2.894  0.6515 -0.5584 -0.1694
  889TIP3    H1 2610   0.251   7.538   2.949  0.4934  0.9649 -1.8150
  889TIP3    H2 2611   0.252   7.470   2.814  2.0986 -0.3651 -1.1667
  890TIP3   OH2 2612   7.490   0.366   3.107  0.0363  0.4448 -0.3096
  890TIP3    H1 2613   7.478   0.298   3.041  0.0890 -0.5808  0.7114
  890TIP3    H2 2614   7.568   0.414   3.079 -1.2611  1.5588 -2.2600
  891TIP3   OH2 2615   1.091   0.603   5.056  0.0338  0.4703  0.0534
  891TIP3    H1 2616   1.019   0.636   5.002 -0.6156 -1.8687 -0.6266
  891TIP3    H2 2617   1.118   0.522   5.013  2.0855  0.5105  1.1561
  892TIP3   OH2 2618   3.353   2.350   6.028 -0.4636  0.0234 -0.5588
  892TIP3    H1 2619   3.375   2.307   5.945  1.0620  0.2461 -0.3023
  892TIP3    H2 2620   3.289   2.292   6.069  1.4325 -1.9988 -0.2679
  893TIP3   OH2 2621   8.190   5.121   5.044  0.2463 -0.0704 -0.1186
  893TIP3    H1 2622   8.118   5.167   5.000  0.8030 -0.4469 -1.4548
  893TIP3    H2 2623   8.255   5.189   5.059 -0.2319  0.2038  0.7962
  894TIP3   OH2 2624   1.236   5.624   4.145  0.8475 -0.0157  0.2364
  894TIP3    H1 2625   1.236   5.690   4.075 -3.1939 -0.0117  0.0230
  894TIP3    H2 2626   1.253   5.541   4.099 -1.0637  0.0713 -0.7285
  895TIP3   OH2 2627   3.214   4.715   5.746 -0.0135  0.3592 -0.3491
  895TIP3    H1 2628   3.235   4.808   5.747 -0.7651  0.5338  0.3230
  895TIP3    H2 2629   3.243   4.683   5.832  1.0711 -0.2337 -0.9136
  896TIP3   OH2 2630   8.264   4.575   2.202 -0.2457  0.2248  0.6076
  896TIP3    H1 2631   8.264   4.482   2.228 -1.0841  0.3152  0.9581
  896TIP3    H2 2632   8.205   4.578   2.127 -1.1776  0.6679  1.3449
  897TIP3   OH2 2633   3.790   3.975   2.946  0.3458 -0.1388  0.3330
  897TIP3    H1 2634   3.859   3.932   2.896  2.1710  1.0171  1.7613
  897TIP3    H2 2635   3.762   4.048   2.890 -1.2945 -1.8176 -1.1703
  898TIP3   OH2 2636   0.810   6.109   1.883 -0.3655  0.2689  0.2834
  898TIP3    H1 2637   0.861   6.042   1.837 -1.5433 -0.2983 -0.2434
  898TIP3    H2 2638   0.736   6.126   1.825 -0.6394  1.2597  0.9100
  899TIP3   OH2 2639   1.324   6.500   1.940  0.9414 -0.4986 -0.2833
  899TIP3    H1 2640   1.413   6.469   1.926  1.1380 -0.2600  0.3908
  899TIP3    H2 2641   1.317   6.578   1.886  0.8486 -1.0106 -1.0225
  900TIP3   OH2 2642   7.105   1.236   2.278  0.3809  0.3703  0.3986
  900TIP3    H1 2643   7.195   1.206   2.290  0.2638  0.0411  0.4903
  900TIP3    H2 2644   7.054   1.155   2.276  0.2440  0.4611 -1.0724
  901TIP3   OH2 2645   0.917   6.476   6.536  0.4543  0.0516  0.6451
  901TIP3    H1 2646   0.854   6.516   6.596  2.0174  2.7427  0.6461
  901TIP3    H2 2647   0.928   6.540   6.466  2.4771 -0.7375  0.1606
  902TIP3   OH2 2648   4.139   0.438   0.337  0.1714 -0.4895  0.1093
  902TIP3    H1 2649   4.222   0.421   0.381  0.9572  0.8625 -0.8142
  902TIP3    H2 2650   4.097   0.506   0.389  0.4111  0.0273 -0.3689
  903TIP3   OH2 2651   7.412   5.370   2.328  0.1063 -0.0226 -0.1363
  903TIP3    H1 2652   7.422   5.338   2.239 -0.4061  0.4111 -0.3544
  903TIP3    H2 2653   7.442   5.297   2.383 -0.3982 -0.6245 -0.6404
  904TIP3   OH2 2654   4.057   0.840   2.882 -0.5270  0.3925 -0.0782
  904TIP3    H1 2655   3.996   0.789   2.934  0.0265  0.5978  0.7814
  904TIP3    H2 2656   4.003   0.874   2.810 -1.0536 -0.7849 -0.2679
  905TIP3   OH2 2657   5.199   0.516   5.925 -0.4536  0.0148  0.7745
  905TIP3    H1 2658   5.197   0.432   5.878  1.1580 -0.3950  1.3974
  905TIP3    H2 2659   5.134   0.506   5.994 -1.8588  0.1188 -0.4668
  906TIP3   OH2 2660   7.661   1.397   2.196  0.5540 -0.1195  0.0526
  906TIP3    H1 2661   7.594   1.397   2.265  0.8001  4.0369  0.5312
  906TIP3    H2 2662   7.744   1.396   2.244  0.7246  1.9295 -0.1177
  907TIP3   OH2 2663   2.396   5.527   4.797 -0.2888  0.2264  0.1986
  907TIP3    H1 2664   2.364   5.442   4.826 -1.5164  0.9104  0.9487
  907TIP3    H2 2665   2.491   5.522   4.808 -0.1566 -1.5924 -1.3149
  908TIP3   OH2 2666   8.268   1.976   2.451 -0.2468  0.2470 -0.2344
  908TIP3    H1 2667   8.361   1.980   2.476 -0.1353 -1.3265 -0.2500
  908TIP3    H2 2668   8.222   2.011   2.527  0.2795 -0.9729  0.6798
  909TIP3   OH2 2669   5.722   3.279   6.798  0.0422 -0.1792 -0.0153
  909TIP3    H1 2670   5.659   3.341   6.762 -1.9446 -0.1693  3.1187
  909TIP3    H2 2671   5.699   3.196   6.756 -0.8877  0.1871 -0.2712
  910TIP3   OH2 2672   5.390   2.006   6.417 -0.3383 -0.4573 -0.0241
  910TIP3    H1 2673   5.408   2.005   6.511 -0.8373 -1.0913  0.0705
  910TIP3    H2 2674   5.311   2.060   6.409 -0.4893 -0.6791 -0.0398
  911TIP3   OH2 2675   0.201   1.714   5.754 -0.5289  0.1385  0.5228
  911TIP3    H1 2676   0.283   1.746   5.791 -0.8093 -0.9821  2.2553
  911TIP3    H2 2677   0.226   1.666   5.675  0.4627 -0.0157  0.9255
  912TIP3   OH2 2678   0.596   5.006   4.577 -0.0410 -0.1177 -0.3303
  912TIP3    H1 2679   0.624   4.983   4.666  1.1222 -0.5422 -0.7847
  912TIP3    H2 2680   0.654   5.078   4.552  1.5289 -1.7658 -1.7242
  913TIP3   OH2 2681   7.349   4.228   2.818  0.2301  0.2098  0.3921
  913TIP3    H1 2682   7.379   4.142   2.846 -0.7769 -0.7651 -1.3430
  913TIP3    H2 2683   7.395   4.244   2.735 -1.9269 -0.1555 -0.9567
  914TIP3   OH2 2684   4.665   5.179   1.036  0.0737  0.1501 -0.4455
  914TIP3    H1 2685   4.620   5.099   1.065  1.5659  0.5475  3.6725
  914TIP3    H2 2686   4.732   5.148   0.975 -0.9117 -1.4093 -0.7835
  915TIP3   OH2 2687   5.288   0.237   6.620  0.0819  0.1564 -0.1319
  915TIP3    H1 2688   5.280   0.223   6.715 -1.6149 -0.3627 -0.3097
  915TIP3    H2 2689   5.375   0.205   6.598 -0.4292 -2.1831  0.8891
  916TIP3   OH2 2690   0.858   0.818   2.211  0.4119 -0.7186 -0.6650
  916TIP3    H1 2691   0.822   0.748   2.156  0.1200 -1.4074  0.3898
  916TIP3    H2 2692   0.898   0.773   2.285  2.4207  0.1036 -1.1926
  917TIP3   OH2 2693   0.888   6.187   6.109 -0.0014  0.0112 -0.1213
  917TIP3    H1 2694   0.855   6.256   6.166  1.7366 -0.8012  2.0272
  917TIP3    H2 2695   0.815   6.126   6.099 -1.5239  1.9810 -1.9510
  918TIP3   OH2 2696   1.085   5.243   2.975  0.5504  0.6367  0.7528
  918TIP3    H1 2697   0.991   5.226   2.973  0.6693 -0.0168 -0.9539
  918TIP3    H2 2698   1.102   5.296   2.896  1.6076  0.7718  1.0502
  919TIP3   OH2 2699   0.907   0.725   1.202  0.0817  0.2382  0.1427
  919TIP3    H1 2700   0.811   0.730   1.199  0.1180  0.6640 -0.8722
  919TIP3    H2 2701   0.935   0.767   1.120  1.1529  0.5372  0.6489
  920TIP3   OH2 2702   5.145   3.987   2.339  0.3079  0.0615 -0.5634
  920TIP3    H1 2703   5.148   4.080   2.363 -2.1634  0.3598 -1.1036
  920TIP3    H2 2704   5.236   3.962   2.326  1.1166  2.0995  0.7278
  921TIP3   OH2 2705   1.681   3.410   3.250  0.0049  0.5091  0.2885
  921TIP3    H1 2706   1.746   3.469   3.211 -1.1105  1.4404 -0.2167
  921TIP3    H2 2707   1.725   3.375   3.327  1.5303  0.2027 -0.6697
  922TIP3   OH2 2708   6.696   0.597   1.181  0.4859 -0.1213  0.1150
  922TIP3    H1 2709   6.739   0.640   1.255  0.6661  1.5709 -0.9319
  922TIP3    H2 2710   6.763   0.595   1.112 -0.8025  1.9255 -1.3062
  923TIP3   OH2 2711   7.646   7.182   1.358  0.2836  0.4290 -0.1561
  923TIP3    H1 2712   7.628   7.271   1.329 -0.2846  0.6060  0.7055
  923TIP3    H2 2713   7.734   7.186   1.396  0.4587  0.5084 -0.5670
  924TIP3   OH2 2714   4.610   5.704   4.849  0.6508  0.0322 -0.0549
  924TIP3    H1 2715   4.573   5.774   4.902  1.5446  0.0747  0.5243
  924TIP3    H2 2716   4.534   5.649   4.826  0.5795 -2.5876  5.0123
  925TIP3   OH2 2717   1.454   1.482   3.640  0.1475  0.0694  0.6452
  925TIP3    H1 2718   1.447   1.492   3.735 -2.1997  1.0809  0.4494
  925TIP3    H2 2719   1.496   1.397   3.627 -1.3982 -1.0663  2.6134
  926TIP3   OH2 2720   6.762   5.787   6.694  0.0700 -0.4216  0.1929
  926TIP3    H1 2721   6.852   5.757   6.681 -0.0257 -0.0599 -1.7014
  926TIP3    H2 2722   6.771   5.880   6.714  0.1197 -0.3418 -0.1898
  927TIP3   OH2 2723   0.386   2.657   4.814  0.1139 -0.3539  0.2377
  927TIP3    H1 2724   0.473   2.662   4.776 -0.5752  2.3449 -1.2625
  927TIP3    H2 2725   0.370   2.745   4.850 -2.0512 -0.7050  0.2691
  928TIP3   OH2 2726   3.667   5.747   0.021 -0.2803 -0.3610  0.1217
  928TIP3    H1 2727   3.603   5.818   0.033  0.1416 -0.0927  0.9164
  928TIP3    H2 2728   3.688   5.720   0.111 -0.3081 -1.3802 -0.1764
  929TIP3   OH2 2729   1.993   6.685   0.944  0.1412  0.0875 -0.0979
  929TIP3    H1 2730   1.983   6.780   0.958 -1.2591  0.0300 -0.6109
  929TIP3    H2 2731   2.066   6.661   1.001  0.9691  1.5908 -0.4588
  930TIP3   OH2 2732   4.059   5.269   1.089 -0.2127 -0.2640 -0.3626
  930TIP3    H1 2733   3.998   5.341   1.072 -0.1522 -0.8389 -3.5851
  930TIP3    H2 2734   4.093   5.287   1.177 -0.7899  3.1906 -0.7031
  931TIP3   OH2 2735   2.558   7.347   0.209  0.4392 -0.1588  0.1567
  931TIP3    H1 2736   2.499   7.418   0.235  0.4601  0.1420 -0.5779
  931TIP3    H2 2737   2.530   7.272   0.261  0.4425  0.3990  0.9734
  932TIP3   OH2 2738   6.374   4.687   4.438 -0.2697 -0.3217  0.3632
  932TIP3    H1 2739   6.300   4.743   4.415  0.4045  0.3589 -0.1740
  932TIP3    H2 2740   6.350   4.601   4.403 -1.3947 -0.4514  1.3660
  933TIP3   OH2 2741   8.082   5.037   6.152  0.1028 -0.1797 -0.2413
  933TIP3    H1 2742   8.165   4.991   6.164 -0.6005 -1.4868 -0.1997
  933TIP3    H2 2743   8.083   5.106   6.219 -0.1710 -2.1486  1.9150
  934TIP3   OH2 2744   2.117   1.606   5.883 -0.1495 -0.4070 -0.1643
  934TIP3    H1 2745   2.178   1.553   5.935  0.6513  1.1000  0.5045
  934TIP3    H2 2746   2.080   1.545   5.820 -0.0716 -1.9979  1.2436
  935TIP3   OH2 2747   2.150   2.936   0.620 -0.1771 -0.0971 -0.0262
  935TIP3    H1 2748   2.139   3.029   0.642 -2.6080 -0.6018  1.2664
  935TIP3    H2 2749   2.136   2.932   0.525  1.5461  1.0100 -0.3743
  936TIP3   OH2 2750   2.197   2.208   5.225  0.5507  0.8140 -0.1854
  936TIP3    H1 2751   2.230   2.290   5.188  1.5616  0.4447 -0.1135
  936TIP3    H2 2752   2.112   2.232   5.262  0.8787  1.8584 -0.0687
  937TIP3   OH2 2753   5.233   2.738   1.014 -0.3893  0.0017 -0.4776
  937TIP3    H1 2754   5.167   2.799   0.982 -1.0865  0.0679  0.9954
  937TIP3    H2 2755   5.186   2.655   1.023 -0.0717 -0.1472 -0.1664
  938TIP3   OH2 2756   5.754   0.916   2.674 -0.2713  0.3220  0.2350
  938TIP3    H1 2757   5.828   0.855   2.668 -0.6605 -0.1925  0.6432
  938TIP3    H2 2758   5.679   0.866   2.642 -0.7345  0.3438  1.2689
  939TIP3   OH2 2759   1.305   0.613   4.448  0.3778 -0.4069 -0.3782
  939TIP3    H1 2760   1.346   0.595   4.533 -0.2243 -1.3303 -0.2693
  939TIP3    H2 2761   1.255   0.534   4.428 -0.6138  0.3412 -0.9469
  940TIP3   OH2 2762   7.755   4.845   5.595  0.0309 -0.3154  0.1808
  940TIP3    H1 2763   7.677   4.799   5.563  0.6732 -1.7861  0.6357
  940TIP3    H2 2764   7.826   4.812   5.540  0.4233  0.6452  0.0956
  941TIP3   OH2 2765   2.463   4.169   5.034 -0.0668 -0.2747  0.0303
  941TIP3    H1 2766   2.548   4.194   5.070 -0.1600  0.2684 -0.1254
  941TIP3    H2 2767   2.482   4.143   4.944 -0.2650  1.2730 -0.4917
  942TIP3   OH2 2768   2.777   1.784   1.889 -0.7665  0.5371 -0.1778
  942TIP3    H1 2769   2.816   1.717   1.833  2.9721  1.7118  0.7222
  942TIP3    H2 2770   2.818   1.770   1.975 -0.8224  3.1245  0.3586
  943TIP3   OH2 2771   4.488   0.442   2.841 -0.4268  0.2104  0.1497
  943TIP3    H1 2772   4.437   0.508   2.888  0.5068  0.2463  1.1617
  943TIP3    H2 2773   4.541   0.400   2.909  0.4425 -0.2242 -0.7702
  944TIP3   OH2 2774   0.122   2.931   5.995 -0.2488 -0.9209  0.3712
  944TIP3    H1 2775   0.207   2.887   5.997  0.4237  0.1740 -1.5913
  944TIP3    H2 2776   0.132   3.005   6.055  1.0255  0.5191 -1.5035
  945TIP3   OH2 2777   2.738   0.673   2.094  0.2066  0.1502  0.5112
  945TIP3    H1 2778   2.747   0.697   2.186 -2.1794 -1.4910  1.2662
  945TIP3    H2 2779   2.715   0.754   2.050  3.1126  1.3426  0.9420
  946TIP3   OH2 2780   2.875   0.428   3.675  0.3123  0.1026 -0.1455
  946TIP3    H1 2781   2.819   0.489   3.627 -1.0199 -0.8937  0.0942
  946TIP3    H2 2782   2.960   0.472   3.679 -0.4924  1.7506 -0.3473
  947TIP3   OH2 2783   0.800   7.261   2.267 -0.3560  0.3266 -0.1389
  947TIP3    H1 2784   0.799   7.311   2.349 -1.2071 -2.4801  1.7290
  947TIP3    H2 2785   0.733   7.302   2.213 -0.6205  1.5398  1.0550
  948TIP3   OH2 2786   0.415   6.204   1.505 -0.0101  0.5244  0.1727
  948TIP3    H1 2787   0.439   6.170   1.592 -1.9160  0.0742  0.5729
  948TIP3    H2 2788   0.329   6.165   1.487 -0.5873  2.2337 -1.0180
  949TIP3   OH2 2789   8.052   5.203   6.354 -0.4351  0.2222  0.4891
  949TIP3    H1 2790   8.103   5.263   6.408  1.1812 -1.0878  0.5091
  949TIP3    H2 2791   7.963   5.207   6.390  0.0404  1.2584  1.6042
  950TIP3   OH2 2792   0.840   5.921   1.218 -0.3810  0.4441  0.2104
  950TIP3    H1 2793   0.869   5.936   1.128  0.7799  1.2009  0.6823
  950TIP3    H2 2794   0.788   5.999   1.240  0.4370  0.8964  0.6065
  951TIP3   OH2 2795   3.390   6.583   1.774  0.1000 -0.6455 -0.2539
  951TIP3    H1 2796   3.412   6.540   1.857 -0.2272 -0.7190 -0.2020
  951TIP3    H2 2797   3.397   6.513   1.709 -0.3005 -0.7518 -0.1887
  952TIP3   OH2 2798   3.504   2.144   2.151  0.0012  0.4323 -0.2231
  952TIP3    H1 2799   3.592   2.150   2.113  1.0139 -0.2701  1.8346
  952TIP3    H2 2800   3.462   2.073   2.102  1.6174 -1.1530  0.5420
  953TIP3   OH2 2801   4.312   3.295   3.018  0.6735 -0.1243  0.0846
  953TIP3    H1 2802   4.280   3.211   3.051 -0.8994  0.9857  1.5481
  953TIP3    H2 2803   4.363   3.272   2.940 -1.2608 -2.2916 -0.6805
  954TIP3   OH2 2804   1.966   0.848   2.261  0.0593 -0.0099 -0.4426
  954TIP3    H1 2805   1.930   0.827   2.347 -0.8322 -2.5977 -1.3484
  954TIP3    H2 2806   2.060   0.839   2.272 -0.0687 -0.6804  0.1945
  955TIP3   OH2 2807   5.849   4.945   6.304 -0.3105  0.5212  0.2099
  955TIP3    H1 2808   5.772   4.993   6.274  0.0940  0.8979 -0.2231
  955TIP3    H2 2809   5.826   4.917   6.393 -2.3378 -2.3097 -1.0505
  956TIP3   OH2 2810   7.145   5.307   3.551  0.2999 -0.1315 -0.3710
  956TIP3    H1 2811   7.163   5.241   3.618 -1.2737 -1.3587 -1.1096
  956TIP3    H2 2812   7.117   5.257   3.474 -0.8043  1.3689 -0.9938
  957TIP3   OH2 2813   7.291   6.143   0.860  0.6714 -0.3699 -0.0580
  957TIP3    H1 2814   7.268   6.053   0.884 -1.1567  0.1801  0.4508
  957TIP3    H2 2815   7.246   6.157   0.776  0.9673  0.0657 -0.1456
  958TIP3   OH2 2816   8.120   2.935   0.761  0.4086  0.2951  0.7800
  958TIP3    H1 2817   8.189   2.993   0.729 -0.2132  1.0737  0.8262
  958TIP3    H2 2818   8.078   2.984   0.831 -0.8420  0.2417  0.0918
  959TIP3   OH2 2819   4.757   5.345   5.449 -0.1787  0.1756  0.2553
  959TIP3    H1 2820   4.693   5.300   5.505 -1.5431 -1.2746 -2.2479
  959TIP3    H2 2821   4.829   5.283   5.441  0.3623  0.6986  0.9649
  960TIP3   OH2 2822   1.260   4.029   0.491 -0.2386  0.0141 -0.1391
  960TIP3    H1 2823   1.300   4.114   0.505 -0.3448 -0.2153  1.8653
  960TIP3    H2 2824   1.314   3.987   0.425  2.4093  0.0054  1.8968
  961TIP3   OH2 2825   1.114   3.525   1.535  0.1314  0.0508 -0.0792
  961TIP3    H1 2826   1.032   3.484   1.562 -0.0635  0.3816 -0.1679
  961TIP3    H2 2827   1.101   3.546   1.442  0.1653  0.4674  0.0089
  962TIP3   OH2 2828   0.348   0.644   6.682  0.3717  0.2224  0.2390
  962TIP3    H1 2829   0.254   0.648   6.699  0.6836  0.4006  2.0318
  962TIP3    H2 2830   0.362   0.556   6.648 -0.4118  0.1421  0.0942
  963TIP3   OH2 2831   4.794   4.894   5.922  0.0135  0.1280  0.1102
  963TIP3    H1 2832   4.789   4.887   6.018  1.8275 -0.8741  0.1888
  963TIP3    H2 2833   4.884   4.923   5.905 -0.2292  0.1310 -1.2999
  964TIP3   OH2 2834   5.329   4.365   6.329 -0.5556 -0.1379 -0.3881
  964TIP3    H1 2835   5.329   4.455   6.363 -0.5649 -0.5399  0.7371
  964TIP3    H2 2836   5.422   4.342   6.323 -0.5609 -0.1659 -0.3595
  965TIP3   OH2 2837   3.967   3.046   6.551  0.4370 -0.1072 -0.5096
  965TIP3    H1 2838   3.948   3.118   6.609 -0.3699  0.4766 -1.4685
  965TIP3    H2 2839   3.942   2.967   6.600 -2.1229  0.4692 -0.7439
  966TIP3   OH2 2840   7.532   1.354   6.110 -0.7988 -0.2195 -0.0391
  966TIP3    H1 2841   7.515   1.269   6.069  0.0577 -0.8971  0.9545
  966TIP3    H2 2842   7.503   1.343   6.201  0.6499  0.0535  0.4853
  967TIP3   OH2 2843   3.351   0.041   2.517  0.1065  0.5705  0.3640
  967TIP3    H1 2844   3.350   0.108   2.585  1.4382  2.0799 -1.0191
  967TIP3    H2 2845   3.434  -0.005   2.529 -0.0175  0.3080  0.2405
  968TIP3   OH2 2846   0.303   7.132   1.291  0.1898 -0.4179  0.5245
  968TIP3    H1 2847   0.264   7.121   1.204  1.0972 -1.8896  0.2789
  968TIP3    H2 2848   0.389   7.170   1.274  0.0219  0.1253  0.8598
  969TIP3   OH2 2849   7.813   6.038   5.522 -0.2459  0.4645 -0.1605
  969TIP3    H1 2850   7.821   5.975   5.451 -1.3300  0.7067 -0.5105
  969TIP3    H2 2851   7.766   5.991   5.591  1.3466  0.0248  0.6811
  970TIP3   OH2 2852   6.676   4.245   0.864  0.4411  0.1313  0.2878
  970TIP3    H1 2853   6.617   4.321   0.861  0.7358  0.3631  0.3907
  970TIP3    H2 2854   6.763   4.282   0.879  0.7521 -0.1468 -0.7697
  971TIP3   OH2 2855   2.430   0.630   6.284  0.0646 -0.0874  0.1393
  971TIP3    H1 2856   2.382   0.595   6.359  2.3563 -4.3141 -0.0767
  971TIP3    H2 2857   2.366   0.629   6.213 -0.8501 -0.7988  0.9280
  972TIP3   OH2 2858   5.553   0.423   3.253 -0.0536 -0.4579 -0.3520
  972TIP3    H1 2859   5.520   0.340   3.288  1.8268  0.1928  3.5802
  972TIP3    H2 2860   5.646   0.407   3.237  0.2377  0.7438  0.0354
  973TIP3   OH2 2861   7.764   3.972   1.461 -0.4556  0.0840 -0.0576
  973TIP3    H1 2862   7.696   3.973   1.527 -0.1611  2.5990  0.3328
  973TIP3    H2 2863   7.842   4.004   1.506  1.0621 -2.7011 -0.4861
  974TIP3   OH2 2864   0.686   3.012   1.276 -0.2902  0.0488  0.0048
  974TIP3    H1 2865   0.777   3.035   1.259 -0.2896 -0.1980 -0.3368
  974TIP3    H2 2866   0.669   3.043   1.365  0.0640  0.2823 -0.0091
  975TIP3   OH2 2867   4.650   6.497   3.162  0.0053 -0.1158  0.0342
  975TIP3    H1 2868   4.648   6.446   3.243 -1.7130  1.3231  0.9459
  975TIP3    H2 2869   4.587   6.454   3.105 -1.1963  0.7569  0.6799
  976TIP3   OH2 2870   5.156   6.497   1.058 -0.3581 -0.1591  0.1372
  976TIP3    H1 2871   5.175   6.426   1.121 -0.0056  0.2451  0.4933
  976TIP3    H2 2872   5.197   6.574   1.096 -0.6185  0.2107 -0.3248
  977TIP3   OH2 2873   7.456   4.523   2.048 -0.3012  0.5239  0.0895
  977TIP3    H1 2874   7.416   4.439   2.025  1.2914  0.2974 -2.1015
  977TIP3    H2 2875   7.386   4.572   2.092 -0.8653 -2.4608  2.9093
  978TIP3   OH2 2876   2.420   7.822   6.035  0.3015 -0.2942  0.2187
  978TIP3    H1 2877   2.485   7.798   6.101 -0.1334 -0.5043  0.5700
  978TIP3    H2 2878   2.377   7.740   6.012 -1.1151  0.0928  1.3417
  979TIP3   OH2 2879   4.034  -0.015   6.603  0.4695  0.4696  0.0986
  979TIP3    H1 2880   3.983  -0.059   6.535 -0.3197  1.1664  0.2280
  979TIP3    H2 2881   4.040   0.076   6.573  1.5461  0.4276  0.1455
  980TIP3   OH2 2882   6.015   4.450   0.396  0.5843  0.3242  0.8199
  980TIP3    H1 2883   6.033   4.427   0.305 -0.4845 -1.6608  1.0501
  980TIP3    H2 2884   5.919   4.454   0.401  0.5950 -0.5380  2.0564
  981TIP3   OH2 2885   3.600   5.533   5.769 -0.5191 -0.1523  0.1823
  981TIP3    H1 2886   3.559   5.448   5.753 -0.1006 -0.3782  0.2921
  981TIP3    H2 2887   3.678   5.513   5.820 -1.5413  0.4930  2.1203
  982TIP3   OH2 2888   5.835   2.129   3.018 -0.5592  0.3518 -0.2490
  982TIP3    H1 2889   5.839   2.066   3.089  0.8496  0.1614 -0.4547
  982TIP3    H2 2890   5.927   2.154   3.003 -0.7705  0.1334 -2.1929
  983TIP3   OH2 2891   5.407   6.235   1.915  0.3755 -0.4684 -0.5416
  983TIP3    H1 2892   5.344   6.252   1.985  0.5509 -1.5246 -0.1013
  983TIP3    H2 2893   5.367   6.166   1.863  1.0730 -1.0050 -0.3775
  984TIP3   OH2 2894   4.859   6.666   3.082 -0.3009 -0.5970  0.3660
  984TIP3    H1 2895   4.893   6.649   2.994 -2.1048 -0.2250 -0.4515
  984TIP3    H2 2896   4.803   6.591   3.101  1.8820 -1.8836  2.2496
  985TIP3   OH2 2897   2.205   6.564   1.855 -0.2194  0.2379 -0.5499
  985TIP3    H1 2898   2.284   6.618   1.847  0.6883 -1.0043 -0.2413
  985TIP3    H2 2899   2.222   6.507   1.930  0.0120 -2.3500 -2.4547
  986TIP3   OH2 2900   7.148   7.228   6.689 -0.2439 -0.4542 -0.6038
  986TIP3    H1 2901   7.145   7.202   6.597 -0.0739 -0.3823 -0.6307
  986TIP3    H2 2902   7.062   7.266   6.706  0.3277  1.2855 -1.2594
  987TIP3   OH2 2903   4.319   6.701   4.933 -0.6055 -0.5420 -0.3052
  987TIP3    H1 2904   4.363   6.753   5.000  1.4479  0.9702 -2.6529
  987TIP3    H2 2905   4.231   6.739   4.927 -0.5703 -0.2119  0.9743
  988TIP3   OH2 2906   6.699   1.440   3.052  0.0090  0.1715 -0.1667
  988TIP3    H1 2907   6.640   1.488   2.995  1.3662 -0.0507 -1.8457
  988TIP3    H2 2908   6.763   1.401   2.993  1.8486  0.4281  1.5385
  989TIP3   OH2 2909   2.656   1.376   2.813  0.2967 -0.0925  0.4025
  989TIP3    H1 2910   2.601   1.301   2.790  0.8501 -0.7216  1.0801
  989TIP3    H2 2911   2.635   1.393   2.905 -0.0508  0.7873  0.1691
  990TIP3   OH2 2912   6.291   7.342   1.840 -0.0099 -0.5844 -0.3513
  990TIP3    H1 2913   6.260   7.432   1.840  0.6460 -0.3570 -0.0832
  990TIP3    H2 2914   6.266   7.307   1.926  0.3177 -0.4558 -0.2034
  991TIP3   OH2 2915   0.031   0.542   4.434 -0.0080  0.3248  0.1248
  991TIP3    H1 2916  -0.053   0.499   4.417 -0.2935  1.0428 -0.3360
  991TIP3    H2 2917   0.094   0.470   4.438 -0.9384 -0.4465  2.6745
  992TIP3   OH2 2918   6.179   1.502   3.803  0.1659  0.0606 -0.1066
  992TIP3    H1 2919   6.231   1.538   3.732 -0.2787  0.4197 -0.2581
  992TIP3    H2 2920   6.092   1.540   3.791 -0.1105 -0.4547  0.1911
  993TIP3   OH2 2921   3.779   1.362   3.347  0.2723 -0.4125 -0.6358
  993TIP3    H1 2922   3.707   1.380   3.408  0.9204  0.5196 -0.1143
  993TIP3    H2 2923   3.858   1.377   3.399  0.8475 -1.2966 -1.2354
  994TIP3   OH2 2924   3.883   7.544   2.335 -0.1563 -0.0775 -0.1989
  994TIP3    H1 2925   3.957   7.501   2.291 -0.5187 -1.2523  0.2969
  994TIP3    H2 2926   3.866   7.489   2.412 -0.9153  0.7347  0.2256
  995TIP3   OH2 2927   4.245   1.123   5.649  0.2303 -0.3297  0.0742
  995TIP3    H1 2928   4.319   1.105   5.591  0.1133 -1.5110  0.2658
  995TIP3    H2 2929   4.220   1.037   5.684 -0.2481  0.2448  1.2101
  996TIP3   OH2 2930   2.139   0.312   4.147 -0.0741 -0.6663 -0.0184
  996TIP3    H1 2931   2.218   0.314   4.201  0.5971  0.6248 -0.9767
  996TIP3    H2 2932   2.161   0.365   4.070 -2.1678  0.5167  0.1131
  997TIP3   OH2 2933   7.770   1.080   4.216  0.2483  0.2346  0.2700
  997TIP3    H1 2934   7.711   1.134   4.164  1.2256  0.5965 -0.4810
  997TIP3    H2 2935   7.712   1.031   4.275 -0.7188  1.3023  0.2293
  998TIP3   OH2 2936   7.474   5.521   5.248  0.0238 -0.3802 -0.3376
  998TIP3    H1 2937   7.430   5.539   5.331 -1.6486  2.3332 -1.6663
  998TIP3    H2 2938   7.406   5.530   5.182  2.0204  1.6129 -2.3135
  999TIP3   OH2 2939   2.473   4.029   0.823 -0.3615 -0.2370  0.4012
  999TIP3    H1 2940   2.562   3.997   0.835  0.0612  1.1686  1.2295
  999TIP3    H2 2941   2.454   4.013   0.730  1.3896  0.9365 -0.2165
 1000TIP3   OH2 2942   7.495   6.959   1.385  0.2642 -0.1847 -0.3459
 1000TIP3    H1 2943   7.553   6.888   1.357 -0.1354 -0.7310  0.1947
 1000TIP3    H2 2944   7.544   7.039   1.364  1.1658 -0.6273 -0.0018
 1001TIP3   OH2 2945   2.746   0.949   5.798  1.0089  0.0881 -0.2728
 1001TIP3    H1 2946   2.827   0.906   5.769  0.8947 -0.3671  0.0690
 1001TIP3    H2 2947   2.774   1.007   5.869  0.8819 -0.8805  0.5799
 1002TIP3   OH2 2948   5.062   4.334   5.105 -0.3588  0.1368  0.1726
 1002TIP3    H1 2949   5.004   4.316   5.179 -1.4139 -1.2212 -0.9214
 1002TIP3    H2 2950   5.112   4.253   5.093  0.5521  0.7071  0.0472
 1003TIP3   OH2 2951   4.662   5.813   0.149 -0.6751  0.1058 -0.5823
 1003TIP3    H1 2952   4.596   5.857   0.203  0.1427 -0.1707  0.6755
 1003TIP3    H2 2953   4.700   5.884   0.096 -0.0182  0.7961  0.7548
 1004TIP3   OH2 2954   5.116   7.583   6.059  0.2670 -0.4686  0.2546
 1004TIP3    H1 2955   5.202   7.575   6.018  0.4354  0.8503  0.2899
 1004TIP3    H2 2956   5.089   7.493   6.078  0.8097 -1.0106 -1.4307
 1005TIP3   OH2 2957   3.603   3.663   6.091  0.2942 -0.0135 -0.3634
 1005TIP3    H1 2958   3.673   3.651   6.155  0.7256  1.2893 -0.5570
 1005TIP3    H2 2959   3.637   3.729   6.030 -0.8439  0.1640 -0.8325
 1006TIP3   OH2 2960   7.285   5.641   4.269  0.4344  0.0609  0.7288
 1006TIP3    H1 2961   7.317   5.692   4.194  1.4831  0.7382  1.5925
 1006TIP3    H2 2962   7.194   5.623   4.248  0.5758  0.6133 -0.5074
 1007TIP3   OH2 2963   1.951   1.816   0.854 -0.2261  0.0019  0.6178
 1007TIP3    H1 2964   1.904   1.744   0.810  0.3490  0.0733 -0.1223
 1007TIP3    H2 2965   1.914   1.895   0.815  2.0202  0.0516 -1.6488
 1008TIP3   OH2 2966   0.117   2.520   0.461 -0.9795 -0.4388  0.0044
 1008TIP3    H1 2967   0.153   2.436   0.490  1.6883  0.8983  0.8998
 1008TIP3    H2 2968   0.046   2.538   0.523 -0.2381 -1.0971  1.0800
 1009TIP3   OH2 2969   5.885   2.011   6.001  0.1624  0.2227 -0.5387
 1009TIP3    H1 2970   5.936   2.082   6.039  0.2836  0.5308 -1.2690
 1009TIP3    H2 2971   5.939   1.933   6.012  0.8666  0.5716 -1.4452
 1010TIP3   OH2 2972   6.032   4.236   2.722 -0.3665 -0.2737  0.1645
 1010TIP3    H1 2973   6.049   4.142   2.713  0.1802 -0.1086 -0.5907
 1010TIP3    H2 2974   6.115   4.278   2.702 -0.0890  0.3279  2.2664
 1011TIP3   OH2 2975   1.384   5.622   5.627  0.2692 -0.5378 -0.2298
 1011TIP3    H1 2976   1.423   5.705   5.652  0.6099 -0.3425 -1.3493
 1011TIP3    H2 2977   1.290   5.633   5.645  0.6485 -1.0029  2.4483
 1012TIP3   OH2 2978   5.638   3.279   4.166  0.4737 -0.5794  0.3196
 1012TIP3    H1 2979   5.694   3.217   4.120  1.4658 -0.3051  1.1219
 1012TIP3    H2 2980   5.696   3.321   4.231 -0.6143 -0.1732  1.0624
 1013TIP3   OH2 2981   4.837   5.593   2.670 -0.5368  0.3371 -0.1898
 1013TIP3    H1 2982   4.860   5.679   2.633 -1.3856  0.7752  0.2712
 1013TIP3    H2 2983   4.912   5.570   2.724 -0.8002  1.3525  0.6328
 1014TIP3   OH2 2984   7.305   4.701   2.242 -0.0592 -0.5140  0.0084
 1014TIP3    H1 2985   7.387   4.736   2.208 -0.5167 -0.0240 -0.6112
 1014TIP3    H2 2986   7.274   4.767   2.303 -0.5032 -0.2088 -0.5354
 1015TIP3   OH2 2987   2.330   6.342   0.100  0.1085 -0.1447 -0.3253
 1015TIP3    H1 2988   2.239   6.370   0.095  0.5987  1.3504 -1.5928
 1015TIP3    H2 2989   2.365   6.355   0.012  1.3933 -1.3007 -0.0323
 1016TIP3   OH2 2990   4.195   5.895   0.409 -0.2969 -0.1236  0.2668
 1016TIP3    H1 2991   4.212   5.977   0.456  1.3866 -0.1637 -0.2354
 1016TIP3    H2 2992   4.184   5.923   0.318  0.2707 -0.4470  0.0977
 1017TIP3   OH2 2993   0.695   5.232   1.387 -0.0754  0.0015  0.9541
 1017TIP3    H1 2994   0.672   5.238   1.480  1.6971 -0.1031  1.4352
 1017TIP3    H2 2995   0.781   5.273   1.381 -1.4239  2.8812 -1.2104
 1018TIP3   OH2 2996   0.310   4.330   3.278 -0.2299 -0.4674  0.0025
 1018TIP3    H1 2997   0.270   4.412   3.305 -0.3949 -0.5428 -0.0160
 1018TIP3    H2 2998   0.269   4.263   3.333 -0.5688 -0.6231 -0.4370
 1019TIP3   OH2 2999   0.844   2.789   0.997 -0.4074 -0.1376  0.3626
 1019TIP3    H1 3000   0.754   2.767   1.021 -1.1732  0.2282 -1.9061
 1019TIP3    H2 3001   0.897   2.758   1.071 -2.3267 -0.8483  1.5195
 1020TIP3   OH2 3002   5.635   2.483   6.641  0.6294  0.1519 -0.2899
 1020TIP3    H1 3003   5.666   2.396   6.616  0.0927  0.1659 -1.0319
 1020TIP3    H2 3004   5.698   2.543   6.602  0.9836  0.1010  0.1976
 1021TIP3   OH2 3005   4.438   0.060   4.807 -0.3379 -0.4855  0.5470
 1021TIP3    H1 3006   4.374   0.110   4.857 -0.4206 -0.8922  0.8542
 1021TIP3    H2 3007   4.388  -0.014   4.772 -0.1356 -0.5572  0.4079
 1022TIP3   OH2 3008   3.840   1.939   1.498 -0.1274  0.0515  0.4440
 1022TIP3    H1 3009   3.771   1.887   1.457 -0.3628  0.3785  0.4201
 1022TIP3    H2 3010   3.821   1.936   1.591 -0.4772  0.5622  0.3965
 1023TIP3   OH2 3011   1.394   7.665   1.942 -0.3220 -0.5018 -0.1694
 1023TIP3    H1 3012   1.414   7.687   1.851 -0.6999 -0.1489 -0.1731
 1023TIP3    H2 3013   1.470   7.616   1.972 -1.1712 -2.7697 -1.4038
 1024TIP3   OH2 3014   7.056   0.996   4.354  0.6826  0.5801 -0.0817
 1024TIP3    H1 3015   7.033   1.028   4.441  1.4216  0.0606  0.3125
 1024TIP3    H2 3016   7.041   1.070   4.296 -1.2514  0.5068  0.2510
 1025TIP3   OH2 3017   1.405   2.334   3.580  0.0484  0.1238  0.4990
 1025TIP3    H1 3018   1.323   2.380   3.601 -0.2397  1.9198 -3.5264
 1025TIP3    H2 3019   1.458   2.399   3.534  2.1698 -2.0355 -0.3295
 1026TIP3   OH2 3020   2.730   4.658   4.498  0.1931  0.3159  0.2567
 1026TIP3    H1 3021   2.801   4.676   4.560 -0.1284 -0.1065  0.7611
 1026TIP3    H2 3022   2.692   4.575   4.529  0.6587 -0.4278 -1.0863
 1027TIP3   OH2 3023   7.756   3.396   5.912  0.4875  0.1871  0.0893
 1027TIP3    H1 3024   7.737   3.340   5.987  0.8414 -0.9058 -0.6184
 1027TIP3    H2 3025   7.789   3.477   5.950  1.0282 -0.4920  1.0956
 1028TIP3   OH2 3026   2.466   3.924   5.637 -0.2856  0.1617 -0.4507
 1028TIP3    H1 3027   2.440   3.894   5.550 -1.5856  0.0272 -0.0422
 1028TIP3    H2 3028   2.559   3.905   5.642 -0.1563  0.2953 -1.8620
 1029TIP3   OH2 3029   4.430   5.358   0.988 -0.2375  0.2172 -0.3500
 1029TIP3    H1 3030   4.386   5.407   1.057  0.4784  0.0897  0.2115
 1029TIP3    H2 3031   4.476   5.288   1.034 -0.2108 -0.2128 -1.0176
 1030TIP3   OH2 3032   0.304   3.845   6.273 -0.0769  0.3160  0.1664
 1030TIP3    H1 3033   0.299   3.824   6.366 -0.3193  0.1543  0.1162
 1030TIP3    H2 3034   0.250   3.924   6.263 -0.8316 -0.2164 -0.0045
 1031TIP3   OH2 3035   7.814   0.781   6.723  0.0204  0.4972 -0.2411
 1031TIP3    H1 3036   7.803   0.875   6.713  2.4677  0.8909  0.0135
 1031TIP3    H2 3037   7.865   0.754   6.646  1.1611 -0.1995  0.7120
 1032TIP3   OH2 3038   0.502   3.742   4.261  0.2741 -0.3795 -0.4043
 1032TIP3    H1 3039   0.467   3.831   4.257  0.1082 -0.3774  0.7613
 1032TIP3    H2 3040   0.498   3.711   4.171  1.9333  1.3898 -1.1914
 1033TIP3   OH2 3041   4.392   2.387   0.493  0.2394  0.2571  0.4842
 1033TIP3    H1 3042   4.402   2.479   0.469 -1.2070  1.3702  3.5811
 1033TIP3    H2 3043   4.481   2.355   0.503  0.7747  1.1078 -1.1500
 1034TIP3   OH2 3044   6.789   4.268   2.261 -0.6513 -0.2537  0.1535
 1034TIP3    H1 3045   6.857   4.328   2.293 -0.7644 -1.4902  2.9634
 1034TIP3    H2 3046   6.707   4.313   2.282 -0.8383  1.0267 -2.8218
 1035TIP3   OH2 3047   7.600   3.670   5.486 -0.0141 -0.3667 -0.2044
 1035TIP3    H1 3048   7.506   3.671   5.501 -0.5089 -1.4737 -2.7569
 1035TIP3    H2 3049   7.638   3.648   5.571 -2.1845 -1.9823  0.4147
 1036TIP3   OH2 3050   4.745   2.693   3.515  0.0833 -0.2341 -0.1413
 1036TIP3    H1 3051   4.713   2.776   3.481 -0.7102 -0.3598  0.2945
 1036TIP3    H2 3052   4.836   2.689   3.485 -0.5097 -0.2363 -2.0631
 1037TIP3   OH2 3053   6.260   1.929   3.711 -0.2480  0.5684 -0.0498
 1037TIP3    H1 3054   6.212   1.847   3.701  0.9628 -0.1103 -0.4870
 1037TIP3    H2 3055   6.264   1.966   3.623  0.6297  0.2531 -0.1579
 1038TIP3   OH2 3056   5.154   4.261   5.449 -0.2457  0.1580  0.0407
 1038TIP3    H1 3057   5.223   4.260   5.516 -1.0807  1.3680  0.9527
 1038TIP3    H2 3058   5.198   4.291   5.370  0.8271 -1.5772 -0.0788
 1039TIP3   OH2 3059   5.515   5.344   2.776  0.3269 -0.7282 -0.1402
 1039TIP3    H1 3060   5.599   5.373   2.812  0.2335 -0.0842 -0.4269
 1039TIP3    H2 3061   5.482   5.280   2.840  0.4042  0.0079  0.6606
 1040TIP3   OH2 3062   4.392   7.629   5.530  0.5172  0.4645 -0.1954
 1040TIP3    H1 3063   4.359   7.569   5.597  0.6479  0.7834  0.1585
 1040TIP3    H2 3064   4.422   7.706   5.579 -0.9552  1.4282 -0.7235
 1041TIP3   OH2 3065   2.823   3.764   2.246 -0.2354  0.8311  0.4523
 1041TIP3    H1 3066   2.905   3.777   2.293  0.1957  2.1764 -0.6013
 1041TIP3    H2 3067   2.811   3.669   2.246  1.9363  0.4791 -0.3242
 1042TIP3   OH2 3068   5.258   0.784   5.973  0.4572  0.2020  0.3290
 1042TIP3    H1 3069   5.252   0.804   5.880 -1.4457 -1.2192  0.0812
 1042TIP3    H2 3070   5.238   0.690   5.979  3.0356 -0.3839  1.9545
 1043TIP3   OH2 3071   5.342   5.893   5.258  0.2664  0.5919  0.1044
 1043TIP3    H1 3072   5.368   5.954   5.189 -2.0794  1.7593  0.1426
 1043TIP3    H2 3073   5.337   5.808   5.214  0.1506  1.0700 -0.8397
 1044TIP3   OH2 3074   6.158   3.515   5.783  0.0297  0.2276  0.2088
 1044TIP3    H1 3075   6.180   3.530   5.691 -2.0184 -0.3893 -0.4451
 1044TIP3    H2 3076   6.234   3.545   5.832  0.7352  1.5668 -1.6285
 1045TIP3   OH2 3077   3.926   5.057   0.378 -0.1296  0.4230  0.5094
 1045TIP3    H1 3078   3.838   5.034   0.349  0.0527  0.4506 -0.0754
 1045TIP3    H2 3079   3.967   4.973   0.398 -0.3364  0.4193  0.9415
 1046TIP3   OH2 3080   2.525   0.105   0.471  0.4956  0.1298 -0.0635
 1046TIP3    H1 3081   2.539   0.188   0.425  1.6651  0.5265  0.9464
 1046TIP3    H2 3082   2.586   0.045   0.429 -1.8799 -0.9139 -2.3058
 1047TIP3   OH2 3083   2.175   6.883   6.624 -0.4053 -0.5661 -0.2255
 1047TIP3    H1 3084   2.270   6.887   6.639 -0.0818 -2.1719 -1.5612
 1047TIP3    H2 3085   2.143   6.821   6.690 -0.2462 -1.3641 -0.8915
 1048TIP3   OH2 3086   2.958   3.252   6.386 -0.0730 -0.9291  0.2139
 1048TIP3    H1 3087   2.937   3.161   6.366  1.7108 -1.2118 -0.5236
 1048TIP3    H2 3088   3.051   3.261   6.366 -0.1102  0.9589  0.6531
 1049TIP3   OH2 3089   4.841   2.781   5.853  0.1815 -0.4936 -0.3932
 1049TIP3    H1 3090   4.850   2.845   5.783  2.6660 -0.4506 -0.1074
 1049TIP3    H2 3091   4.930   2.765   5.884 -0.8489  0.7126  3.8829
 1050TIP3   OH2 3092   0.133   4.704   0.703  0.0573  0.1144  0.1773
 1050TIP3    H1 3093   0.151   4.619   0.663 -0.5288 -0.0407  0.2344
 1050TIP3    H2 3094   0.166   4.695   0.792  0.7853  0.2432 -0.0762
 1051TIP3   OH2 3095   6.105   0.765   3.878 -0.0407 -0.0431  0.3768
 1051TIP3    H1 3096   6.173   0.831   3.893  0.9934 -0.9588 -0.0511
 1051TIP3    H2 3097   6.135   0.718   3.800 -0.7689 -0.9862  0.6442
 1052TIP3   OH2 3098   4.148   1.378   0.577  0.0143 -0.2235  0.8273
 1052TIP3    H1 3099   4.166   1.463   0.537 -0.9130 -1.0868 -1.5956
 1052TIP3    H2 3100   4.226   1.325   0.558 -0.2685 -0.5210  0.4750
 1053TIP3   OH2 3101   3.271   7.824   3.111 -0.6323 -0.0174  0.4319
 1053TIP3    H1 3102   3.314   7.742   3.086  0.6252  0.5061  0.8180
 1053TIP3    H2 3103   3.290   7.833   3.204  0.6024  1.4978  0.0647
 1054TIP3   OH2 3104   6.458   5.712   4.208 -0.4403  0.3390 -0.2920
 1054TIP3    H1 3105   6.517   5.637   4.205  0.3369  0.8261  1.4869
 1054TIP3    H2 3106   6.377   5.681   4.168  0.1833 -1.1520 -0.4403
 1055TIP3   OH2 3107   8.279   3.757   1.605 -0.0039 -0.0681 -0.7207
 1055TIP3    H1 3108   8.212   3.814   1.642  0.3271 -0.4705  0.5546
 1055TIP3    H2 3109   8.361   3.804   1.620  0.5217 -1.7313  2.2938
 1056TIP3   OH2 3110   1.645   0.359   6.068  0.6842 -0.0029  0.3464
 1056TIP3    H1 3111   1.702   0.313   6.006 -0.3976 -0.4295 -0.3511
 1056TIP3    H2 3112   1.702   0.379   6.142  2.2399  1.2430 -1.0912
 1057TIP3   OH2 3113   1.995   3.394   4.170  0.1844  0.4292 -0.2488
 1057TIP3    H1 3114   1.911   3.375   4.129 -0.4054 -1.3203  1.6034
 1057TIP3    H2 3115   1.972   3.445   4.248  0.9447  0.7565 -0.2277
 1058TIP3   OH2 3116   2.205   6.240   6.642 -0.0980  0.1017 -0.0239
 1058TIP3    H1 3117   2.164   6.173   6.587  1.0824 -0.3558 -0.3738
 1058TIP3    H2 3118   2.164   6.229   6.728 -0.7903 -0.2523 -0.3889
 1059TIP3   OH2 3119   3.049   3.487   4.649 -0.3600  0.1136 -0.5801
 1059TIP3    H1 3120   3.093   3.466   4.567 -1.2634  0.3296 -1.1315
 1059TIP3    H2 3121   2.962   3.448   4.640 -0.3240 -0.2424  0.4608
 1060TIP3   OH2 3122   6.025   1.609   1.365  0.5038  0.2326  0.0353
 1060TIP3    H1 3123   5.936   1.622   1.395  1.4459  2.3963  2.1461
 1060TIP3    H2 3124   6.030   1.657   1.282 -0.1459  0.4932  0.1463
 1061TIP3   OH2 3125   8.267   6.669   1.111  0.0432  0.1188  0.4809
 1061TIP3    H1 3126   8.250   6.763   1.120  1.2464  0.7539 -2.6359
 1061TIP3    H2 3127   8.258   6.635   1.200 -2.3372  2.8003  1.4443
 1062TIP3   OH2 3128   2.231   5.363   0.997  0.1506 -0.6360 -0.0750
 1062TIP3    H1 3129   2.238   5.424   1.071  1.2738  1.1069 -1.5350
 1062TIP3    H2 3130   2.138   5.361   0.976 -0.1396 -0.8868  1.1601
 1063TIP3   OH2 3131   7.089   4.354   0.251  0.2312  0.0403 -0.5332
 1063TIP3    H1 3132   7.063   4.446   0.254  0.3441  0.1140 -1.5864
 1063TIP3    H2 3133   7.185   4.356   0.242  0.1436 -0.1573 -1.6047
 1064TIP3   OH2 3134   5.134   1.010   1.949  0.0638  0.0906 -0.6164
 1064TIP3    H1 3135   5.176   1.064   2.016 -0.1629  0.5919 -0.8814
 1064TIP3    H2 3136   5.040   1.022   1.963 -0.0510 -1.4652  0.3365
 1065TIP3   OH2 3137   4.418   6.348   4.948 -0.3844 -0.2345  0.0307
 1065TIP3    H1 3138   4.487   6.294   4.909 -1.8157 -1.4070 -0.9730
 1065TIP3    H2 3139   4.339   6.324   4.900 -1.2894  1.9581  0.3359
 1066TIP3   OH2 3140   2.454   6.817   0.387 -0.3955 -1.0609  0.1688
 1066TIP3    H1 3141   2.505   6.764   0.327  2.8417 -0.3109  2.0505
 1066TIP3    H2 3142   2.518   6.863   0.440 -3.0570  1.2962  1.6429
 1067TIP3   OH2 3143   5.124   4.163   6.422  0.6893  0.2544 -0.5702
 1067TIP3    H1 3144   5.106   4.227   6.490  1.9073  1.4060 -1.2885
 1067TIP3    H2 3145   5.189   4.205   6.366 -0.6450 -0.4494 -2.7517
 1068TIP3   OH2 3146   4.361   7.739   3.218 -0.3837 -1.1103 -0.8779
 1068TIP3    H1 3147   4.398   7.821   3.184 -0.0800 -1.4688 -1.4251
 1068TIP3    H2 3148   4.270   7.761   3.239  0.3794  0.0685  1.4847
 1069TIP3   OH2 3149   5.661   5.955   0.996 -0.0886  0.1749 -0.0272
 1069TIP3    H1 3150   5.636   6.020   0.930  2.2003  1.7987  0.5844
 1069TIP3    H2 3151   5.588   5.954   1.058 -0.9113  0.8836 -0.9438
 1070TIP3   OH2 3152   6.948   1.719   5.541  0.2078 -0.3035  0.1434
 1070TIP3    H1 3153   7.014   1.788   5.547 -1.2702  1.5775 -2.9769
 1070TIP3    H2 3154   6.882   1.743   5.606 -0.5827  1.6705 -1.3042
 1071TIP3   OH2 3155   1.857   7.638   1.013 -0.3255 -0.8988  0.2681
 1071TIP3    H1 3156   1.779   7.586   0.994 -0.9493 -0.3091  1.1510
 1071TIP3    H2 3157   1.920   7.612   0.946 -2.0838  0.4044 -2.0261
 1072TIP3   OH2 3158   4.126   4.905   1.348  0.0100 -0.3345 -0.0980
 1072TIP3    H1 3159   4.164   4.993   1.357  0.3169 -0.3562 -1.0680
 1072TIP3    H2 3160   4.032   4.919   1.362  0.2991 -0.2429  2.0498
 1073TIP3   OH2 3161   5.115   7.402   5.510  0.7692 -0.0328 -0.0224
 1073TIP3    H1 3162   5.166   7.331   5.470 -1.0561 -0.6247 -1.4062
 1073TIP3    H2 3163   5.153   7.482   5.474 -0.7217 -0.5371 -2.9528
 1074TIP3   OH2 3164   7.252   3.399   6.053  0.1809  0.8680 -0.2534
 1074TIP3    H1 3165   7.250   3.480   6.104  0.5308  1.2564 -0.8406
 1074TIP3    H2 3166   7.250   3.429   5.962  3.3948  0.3859 -0.5914
 1075TIP3   OH2 3167   4.503   2.264   4.826  0.2247  0.3887 -0.5981
 1075TIP3    H1 3168   4.548   2.303   4.901 -0.1116  2.1425 -1.2755
 1075TIP3    H2 3169   4.413   2.294   4.835 -0.6986 -2.3037  0.2152
 1076TIP3   OH2 3170   7.851   6.246   2.050 -0.0634 -0.3687 -0.6872
 1076TIP3    H1 3171   7.917   6.177   2.055 -0.9603 -1.3363 -1.8546
 1076TIP3    H2 3172   7.775   6.211   2.097  0.2797  0.8359  0.8702
 1077TIP3   OH2 3173   2.421   1.843   6.366 -0.4316  0.1520 -0.5725
 1077TIP3    H1 3174   2.435   1.750   6.379 -0.8253  0.1091 -0.4372
 1077TIP3    H2 3175   2.333   1.850   6.330 -1.2872  0.5979  1.4329
 1078TIP3   OH2 3176   6.115   4.580   5.981  0.7781 -0.1272  0.4336
 1078TIP3    H1 3177   6.132   4.622   5.896 -1.2226 -0.0962 -0.0135
 1078TIP3    H2 3178   6.187   4.608   6.037  2.7647 -1.0422 -1.5413
 1079TIP3   OH2 3179   7.484   5.921   2.987 -0.3903 -0.2305  0.5784
 1079TIP3    H1 3180   7.421   5.861   2.945 -0.3473 -0.8448  1.3540
 1079TIP3    H2 3181   7.555   5.930   2.924 -0.9413 -0.0675 -0.0301
 1080TIP3   OH2 3182   6.268   5.476   3.339 -0.1864 -0.9308  0.2500
 1080TIP3    H1 3183   6.214   5.545   3.302 -1.5663 -1.7912  0.5884
 1080TIP3    H2 3184   6.323   5.447   3.266  0.3813  0.4604  0.0946
 1081TIP3   OH2 3185   7.906   4.945   1.387  0.0668  0.3545  0.6484
 1081TIP3    H1 3186   7.848   4.869   1.395 -0.3910  0.7683  1.4463
 1081TIP3    H2 3187   7.973   4.919   1.324 -1.1360 -0.0504 -0.5072
 1082TIP3   OH2 3188   2.586   5.995   3.178 -0.2294  0.1013  0.2065
 1082TIP3    H1 3189   2.516   6.000   3.112 -2.1106 -3.7404  1.6412
 1082TIP3    H2 3190   2.665   5.973   3.128 -1.1113 -0.4005 -1.0071
 1083TIP3   OH2 3191   3.664   2.137   5.824  0.1481  0.4185  0.3969
 1083TIP3    H1 3192   3.607   2.066   5.853 -1.0633  2.3396  3.1002
 1083TIP3    H2 3193   3.740   2.132   5.882  0.8722  0.3259 -0.5352
 1084TIP3   OH2 3194   5.331   2.006   3.359 -0.2217 -0.0315 -0.4330
 1084TIP3    H1 3195   5.274   1.975   3.289  0.9619  0.3228 -1.5824
 1084TIP3    H2 3196   5.276   2.003   3.437 -0.1515 -5.6221 -0.1903
 1085TIP3   OH2 3197   6.857   3.711   4.217 -0.2882  0.4475 -0.0564
 1085TIP3    H1 3198   6.909   3.635   4.191 -0.0615  0.5835 -0.0032
 1085TIP3    H2 3199   6.772   3.675   4.242 -0.0339  0.1553  0.4146
 1086TIP3   OH2 3200   8.116   4.400   6.086  0.3619  0.3364 -0.0312
 1086TIP3    H1 3201   8.150   4.388   5.998  0.4631  1.2726 -0.1250
 1086TIP3    H2 3202   8.113   4.494   6.099  0.4053  0.2148  0.9920
 1087TIP3   OH2 3203   3.624   2.893   4.000  0.1390  0.3042 -0.4135
 1087TIP3    H1 3204   3.651   2.824   3.940  1.3795 -0.5023  0.9806
 1087TIP3    H2 3205   3.534   2.872   4.023  1.1003 -2.1841  1.5954
 1088TIP3   OH2 3206   7.344   7.441   1.498  0.3360 -0.5376  0.1423
 1088TIP3    H1 3207   7.347   7.361   1.551 -1.4645 -1.5435 -1.1493
 1088TIP3    H2 3208   7.264   7.485   1.526  1.2376  0.7569  0.7339
 1089TIP3   OH2 3209   2.458   3.603   4.726  0.0513  0.5904 -0.2014
 1089TIP3    H1 3210   2.511   3.562   4.794  0.2156  0.7169 -0.2539
 1089TIP3    H2 3211   2.391   3.538   4.705  0.6246  0.1330 -0.6612
 1090TIP3   OH2 3212   3.464   0.507   1.297  0.1396  0.0803 -0.5219
 1090TIP3    H1 3213   3.374   0.482   1.274  0.3209  0.2872 -1.5039
 1090TIP3    H2 3214   3.453   0.579   1.359 -0.4426  2.5072 -3.2291
 1091TIP3   OH2 3215   2.105   6.494   5.553  0.6595 -0.7750 -0.0007
 1091TIP3    H1 3216   2.124   6.587   5.564 -0.8956 -0.5673  1.0791
 1091TIP3    H2 3217   2.025   6.492   5.502  1.8267 -1.6016 -1.9154
 1092TIP3   OH2 3218   6.018   6.280   2.340  0.0532  0.2408  0.4053
 1092TIP3    H1 3219   6.078   6.348   2.371 -0.1424  2.0633 -2.7337
 1092TIP3    H2 3220   5.933   6.324   2.336 -0.2448 -0.4087 -0.8825
 1093TIP3   OH2 3221   4.578   6.103   0.906 -0.7258 -0.0325 -0.1058
 1093TIP3    H1 3222   4.587   6.137   0.995 -2.2896  0.7969 -0.2290
 1093TIP3    H2 3223   4.484   6.109   0.888 -0.3735  0.2334 -1.9717
 1094TIP3   OH2 3224   1.544   7.384   5.104  0.4971 -0.1600  0.0872
 1094TIP3    H1 3225   1.539   7.424   5.190  0.3770 -1.4842  0.7257
 1094TIP3    H2 3226   1.471   7.422   5.055 -0.7194 -0.9002  1.2611
 1095TIP3   OH2 3227   0.827   4.410   3.301 -0.0637  0.0847  0.5999
 1095TIP3    H1 3228   0.887   4.342   3.270 -0.7472 -0.4075  0.3341
 1095TIP3    H2 3229   0.740   4.373   3.287 -0.4307  0.7799  1.0075
 1096TIP3   OH2 3230   1.623   5.748   0.055 -0.3290  0.3733  0.6201
 1096TIP3    H1 3231   1.600   5.837   0.025  2.4659  2.0268  2.8669
 1096TIP3    H2 3232   1.597   5.746   0.147 -0.3804 -1.1982  0.5971
 1097TIP3   OH2 3233   5.119   7.650   5.372  0.2426 -0.3795  0.4754
 1097TIP3    H1 3234   5.198   7.616   5.331 -0.5502  0.8072 -2.2174
 1097TIP3    H2 3235   5.130   7.745   5.371 -1.6026 -0.1314 -0.8809
 1098TIP3   OH2 3236   1.555   3.200   3.526  0.1793  0.3033  0.0248
 1098TIP3    H1 3237   1.502   3.133   3.482  0.7256 -1.8806  2.4434
 1098TIP3    H2 3238   1.490   3.253   3.573 -0.4227  2.7481 -3.2259
 1099TIP3   OH2 3239   7.686   4.481   3.003 -0.3451 -0.0702  0.0558
 1099TIP3    H1 3240   7.725   4.413   2.948  0.9854  0.0923  0.7483
 1099TIP3    H2 3241   7.755   4.547   3.012 -1.0368  0.5839  0.7455
 1100TIP3   OH2 3242   1.002   0.525   1.561 -0.1365  0.1466 -0.0744
 1100TIP3    H1 3243   0.930   0.582   1.590 -0.4498  0.5553 -1.5538
 1100TIP3    H2 3244   1.064   0.585   1.520 -1.0456 -0.6325 -2.8021
 1101TIP3   OH2 3245   1.863   5.626   3.538 -0.0882  0.5807 -1.1209
 1101TIP3    H1 3246   1.787   5.576   3.566  1.0329 -0.2493  0.6878
 1101TIP3    H2 3247   1.914   5.565   3.485  1.0840 -0.1848  0.7592
 1102TIP3   OH2 3248   2.706   5.015   6.669  0.3020 -0.2006 -0.1428
 1102TIP3    H1 3249   2.612   5.008   6.658  0.4482  0.3147 -2.1207
 1102TIP3    H2 3250   2.718   5.058   6.753 -1.2004 -0.7185  0.3568
 1103TIP3   OH2 3251   5.929   4.619   5.527 -0.2600  0.2766 -0.0247
 1103TIP3    H1 3252   5.983   4.598   5.603 -0.5665 -0.5756 -0.0262
 1103TIP3    H2 3253   5.992   4.635   5.457  0.0195  0.9054  0.3658
 1104TIP3   OH2 3254   3.902   2.730   4.859 -0.4778  0.3046 -0.0597
 1104TIP3    H1 3255   3.812   2.758   4.839 -0.3614  0.4014 -0.4435
 1104TIP3    H2 3256   3.955   2.809   4.846 -0.8003  1.3959  3.8573
 1105TIP3   OH2 3257   7.383   6.723   0.949  0.1782  0.2933  0.1377
 1105TIP3    H1 3258   7.421   6.639   0.925 -0.7104  0.3743 -1.7447
 1105TIP3    H2 3259   7.434   6.788   0.901  0.5201  0.8155  1.1635
 1106TIP3   OH2 3260   6.431   4.991   0.008 -0.0274  0.1297  0.3045
 1106TIP3    H1 3261   6.467   4.906   0.031 -0.0119  0.2806  0.8641
 1106TIP3    H2 3262   6.471   5.052   0.071 -0.2696  0.4995  0.1069
 1107TIP3   OH2 3263   7.584   6.627   3.084  0.1571 -0.0789 -0.3192
 1107TIP3    H1 3264   7.540   6.675   3.154  0.6763  0.3660 -0.2851
 1107TIP3    H2 3265   7.514   6.582   3.037 -0.2883  0.3112 -0.0365
 1108TIP3   OH2 3266   2.388   1.954   6.020 -0.1355 -0.4935 -0.0209
 1108TIP3    H1 3267   2.462   2.013   6.025  0.3321 -0.9371 -1.2366
 1108TIP3    H2 3268   2.425   1.871   5.990 -0.8437 -1.2879  1.2099
 1109TIP3   OH2 3269   4.475   1.435   1.302 -0.8840 -0.0142 -0.1020
 1109TIP3    H1 3270   4.434   1.494   1.365  0.2427  0.6511  0.0296
 1109TIP3    H2 3271   4.462   1.477   1.217 -0.3323  0.2851 -0.0405
 1110TIP3   OH2 3272   5.427   4.044   6.481 -0.0235  0.2083  0.2557
 1110TIP3    H1 3273   5.348   4.056   6.534  1.2767  1.5351  2.0043
 1110TIP3    H2 3274   5.419   3.955   6.447 -1.8588  0.0146  1.0595
 1111TIP3   OH2 3275   2.609   4.334   2.011  0.4887 -0.1843 -0.4061
 1111TIP3    H1 3276   2.514   4.328   2.021  0.5025 -1.6984 -0.9954
 1111TIP3    H2 3277   2.636   4.401   2.075 -0.7195 -1.3467  1.3891
 1112TIP3   OH2 3278   5.027   6.582   2.849 -0.1621  0.3847 -0.1816
 1112TIP3    H1 3279   5.071   6.615   2.927 -1.5835  0.5803  0.5873
 1112TIP3    H2 3280   5.064   6.632   2.777 -0.0021  1.4077  0.5863
 1113TIP3   OH2 3281   2.973   3.541   1.855 -0.4699 -0.5770  0.2772
 1113TIP3    H1 3282   3.043   3.607   1.859  0.8195 -1.8612  0.0946
 1113TIP3    H2 3283   2.986   3.489   1.935 -0.5798 -1.4474 -0.2646
 1114TIP3   OH2 3284   3.152   0.367   0.433  0.6257 -0.4850  0.2439
 1114TIP3    H1 3285   3.138   0.459   0.410  3.5994 -0.4887 -2.3659
 1114TIP3    H2 3286   3.223   0.369   0.497  0.5959 -0.9658  0.2961
 1115TIP3   OH2 3287   4.829   1.831   4.391  0.2135 -0.2622  0.4789
 1115TIP3    H1 3288   4.812   1.837   4.485 -1.0199 -2.1981  0.4427
 1115TIP3    H2 3289   4.748   1.858   4.349  1.0609  1.5257 -0.1081
 1116TIP3   OH2 3290   1.238   2.124   0.376  0.4626 -0.1269 -0.0542
 1116TIP3    H1 3291   1.244   2.216   0.400 -0.8814  0.0706 -0.4361
 1116TIP3    H2 3292   1.254   2.077   0.458 -1.2362  0.4915  0.6640
 1117TIP3   OH2 3293   2.381   4.333   0.376 -0.1395  0.0067 -0.4919
 1117TIP3    H1 3294   2.301   4.305   0.420  0.8019  0.4100  1.5671
 1117TIP3    H2 3295   2.364   4.424   0.351 -0.0433  0.3654  0.7029
 1118TIP3   OH2 3296   6.072   5.906   2.242  0.1489  0.1842  0.3624
 1118TIP3    H1 3297   6.013   5.866   2.177  1.4943 -2.5520  0.6727
 1118TIP3    H2 3298   6.152   5.924   2.193  0.1857  0.7810  0.6421
 1119TIP3   OH2 3299   4.601   3.850   0.468  0.0894 -0.6523 -0.1292
 1119TIP3    H1 3300   4.593   3.818   0.378  0.1384  0.1062 -0.4126
 1119TIP3    H2 3301   4.653   3.784   0.513 -0.0435 -1.1033 -0.6250
 1120TIP3   OH2 3302   7.389   1.957   6.096 -0.6566  0.0532 -0.7441
 1120TIP3    H1 3303   7.371   1.863   6.092  1.4413 -0.4358  0.1623
 1120TIP3    H2 3304   7.346   1.987   6.176  0.0671 -0.4994 -0.1360
 1121TIP3   OH2 3305   3.944   5.217   6.415  0.4942  0.4569 -0.3646
 1121TIP3    H1 3306   4.027   5.172   6.432  0.7927  1.2157  0.2574
 1121TIP3    H2 3307   3.887   5.192   6.487  1.4122  2.8286  1.3072
 1122TIP3   OH2 3308   0.560   3.884   2.942 -0.1680 -0.2225  0.3929
 1122TIP3    H1 3309   0.469   3.860   2.954  0.2398 -1.3022  1.5771
 1122TIP3    H2 3310   0.570   3.968   2.986 -0.3802 -0.5591  1.0852
 1123TIP3   OH2 3311   1.774   2.164   0.480 -0.0216  0.4997 -0.4787
 1123TIP3    H1 3312   1.690   2.133   0.447 -1.0447  1.8742  0.6960
 1123TIP3    H2 3313   1.832   2.164   0.403 -0.6687 -1.7370 -1.0246
 1124TIP3   OH2 3314   6.859   6.475   2.812 -0.2599  0.2287  0.3945
 1124TIP3    H1 3315   6.815   6.530   2.748  0.5339 -0.6727 -0.9681
 1124TIP3    H2 3316   6.806   6.396   2.816  1.0562 -0.7961 -1.1365
 1125TIP3   OH2 3317   5.012   4.685   0.489 -0.0071 -0.0007  0.2428
 1125TIP3    H1 3318   5.004   4.600   0.446  0.1349 -0.3691  0.9455
 1125TIP3    H2 3319   5.013   4.748   0.416 -0.8072 -0.5387 -0.2548
 1126TIP3   OH2 3320   2.389   0.657   0.843 -0.1272  0.0779 -0.3466
 1126TIP3    H1 3321   2.324   0.727   0.830 -0.1685 -0.1189 -1.2071
 1126TIP3    H2 3322   2.433   0.649   0.759 -0.9106 -1.7243 -0.6231
 1127TIP3   OH2 3323   4.832   4.886   3.850 -0.0262 -0.2321 -0.0852
 1127TIP3    H1 3324   4.893   4.852   3.916 -1.7738 -0.2071  1.6304
 1127TIP3    H2 3325   4.786   4.809   3.818  0.9526 -0.2703 -1.4947
 1128TIP3   OH2 3326   0.848   3.964   4.219  0.0798 -0.4583 -0.2465
 1128TIP3    H1 3327   0.812   3.974   4.131  0.1617 -1.7367 -0.4407
 1128TIP3    H2 3328   0.940   3.989   4.211  0.4638 -1.9474 -0.8755
 1129TIP3   OH2 3329   7.149   1.531   3.767  0.4052 -0.1711 -0.4189
 1129TIP3    H1 3330   7.152   1.597   3.697  1.0928 -0.0524 -0.2875
 1129TIP3    H2 3331   7.105   1.575   3.840 -2.4740 -1.0335 -1.5001
 1130TIP3   OH2 3332   5.370   5.731   0.979 -0.2881 -0.1626  0.0168
 1130TIP3    H1 3333   5.286   5.717   1.023 -0.0214  0.2401  0.6491
 1130TIP3    H2 3334   5.399   5.818   1.007  0.4620 -0.3977 -0.0022
 1131TIP3   OH2 3335   3.116   6.252   6.702  0.3622 -0.1598  0.1255
 1131TIP3    H1 3336   3.052   6.278   6.636 -0.8226 -1.8313  0.5341
 1131TIP3    H2 3337   3.186   6.211   6.651  0.6799  0.8347 -0.2576
 1132TIP3   OH2 3338   3.531   2.309   2.591  0.1315 -0.2725  0.0772
 1132TIP3    H1 3339   3.565   2.225   2.623  0.7234 -0.5082 -1.1151
 1132TIP3    H2 3340   3.566   2.374   2.651  2.8225 -0.4931 -1.0997
 1133TIP3   OH2 3341   2.614   4.938   3.155  0.6602  0.0083  0.0285
 1133TIP3    H1 3342   2.550   4.992   3.108 -0.0952 -0.3616  0.6074
 1133TIP3    H2 3343   2.581   4.849   3.145  1.6097 -0.2948 -0.4715
 1134TIP3   OH2 3344   3.779   2.687   6.487 -0.2063 -0.3240  0.1417
 1134TIP3    H1 3345   3.780   2.772   6.442 -1.5618 -0.5916 -0.4699
 1134TIP3    H2 3346   3.691   2.681   6.523  0.1420 -1.1282  0.8781
 1135TIP3   OH2 3347   2.279   0.691   4.898  0.6673 -0.1606 -0.4264
 1135TIP3    H1 3348   2.200   0.658   4.856 -0.9348  1.3292  1.2363
 1135TIP3    H2 3349   2.297   0.775   4.855  0.3608  0.2747  0.2718
 1136TIP3   OH2 3350   4.475   5.035   0.118 -0.2152 -0.1980 -0.3573
 1136TIP3    H1 3351   4.497   5.022   0.026  0.7161  1.3288 -0.3972
 1136TIP3    H2 3352   4.484   5.130   0.132 -0.9083 -0.3188  1.1571
 1137TIP3   OH2 3353   4.584   1.301   3.880 -0.6333 -0.3760 -0.2470
 1137TIP3    H1 3354   4.631   1.380   3.910  0.1557 -1.1830  0.7476
 1137TIP3    H2 3355   4.544   1.327   3.798  0.3136  0.8212 -0.3715
 1138TIP3   OH2 3356   7.683   0.654   1.769  0.2595 -0.5165 -0.6981
 1138TIP3    H1 3357   7.752   0.593   1.799  0.6909  0.0959 -0.4273
 1138TIP3    H2 3358   7.731   0.733   1.743 -0.4079  0.2496  0.3376
 1139TIP3   OH2 3359   3.532   6.405   5.247 -0.2629 -0.0899 -0.7720
 1139TIP3    H1 3360   3.547   6.496   5.274 -0.6916  0.1943 -1.4744
 1139TIP3    H2 3361   3.564   6.400   5.157  0.8746 -0.9576 -0.3492
 1140TIP3   OH2 3362   5.305   1.129   0.188  0.3820 -0.3703  0.0518
 1140TIP3    H1 3363   5.293   1.223   0.171  1.4982 -0.1468  0.3748
 1140TIP3    H2 3364   5.339   1.125   0.277  0.6388 -1.0582 -0.0675
 1141TIP3   OH2 3365   1.458   1.209   5.938  0.6296  0.0508 -0.0582
 1141TIP3    H1 3366   1.382   1.267   5.948 -0.0354 -0.4929 -1.6901
 1141TIP3    H2 3367   1.481   1.185   6.028  0.9462  2.8115  0.6822
 1142TIP3   OH2 3368   4.541   1.207   2.256  0.7839 -0.0401  0.3755
 1142TIP3    H1 3369   4.573   1.159   2.180 -1.2204  0.6532 -1.0014
 1142TIP3    H2 3370   4.484   1.275   2.219 -0.2827  0.3076  2.5000
 1143TIP3   OH2 3371   1.118   0.386   1.107  0.6455 -0.0664  0.2608
 1143TIP3    H1 3372   1.027   0.404   1.129  0.9811  1.3993  0.5323
 1143TIP3    H2 3373   1.168   0.438   1.170  1.6580  0.7580 -1.1729
 1144TIP3   OH2 3374   2.717   6.763   2.322  0.5124 -0.1822 -0.3995
 1144TIP3    H1 3375   2.775   6.837   2.307  0.4208 -0.2229 -0.9719
 1144TIP3    H2 3376   2.635   6.803   2.353  0.6870 -0.0919 -0.0549
 1145TIP3   OH2 3377   1.872   5.365   3.797 -0.1912  0.7952 -0.4531
 1145TIP3    H1 3378   1.809   5.433   3.822  0.8817  2.5302 -2.1001
 1145TIP3    H2 3379   1.953   5.414   3.779  0.8950 -1.0609 -0.8211
 1146TIP3   OH2 3380   4.973   1.062   4.295 -0.6392 -0.2610 -0.2338
 1146TIP3    H1 3381   5.048   1.013   4.262 -0.2990 -0.0746  0.2641
 1146TIP3    H2 3382   5.010   1.143   4.330 -0.8900 -0.8219  1.3971
 1147TIP3   OH2 3383   1.669   6.522   5.016 -0.3649 -0.1381 -0.3304
 1147TIP3    H1 3384   1.679   6.617   5.015  1.3584 -0.2746 -0.4154
 1147TIP3    H2 3385   1.624   6.502   4.934 -2.1543  0.6862  0.3959
 1148TIP3   OH2 3386   0.849   3.638   4.204  0.4398 -0.0844  0.4875
 1148TIP3    H1 3387   0.805   3.721   4.183 -0.4596 -0.5288  0.5663
 1148TIP3    H2 3388   0.781   3.572   4.191  0.1756 -0.5392  3.5320
 1149TIP3   OH2 3389   7.760   4.301   1.439 -0.4519  0.3788  0.0741
 1149TIP3    H1 3390   7.854   4.296   1.420 -0.5827  0.4398 -0.5852
 1149TIP3    H2 3391   7.752   4.265   1.528  0.5055  2.5858  1.1413
 1150TIP3   OH2 3392   4.544   6.734   3.342  0.0036 -0.1648  0.1772
 1150TIP3    H1 3393   4.573   6.823   3.324 -1.5172 -0.0388 -1.9726
 1150TIP3    H2 3394   4.600   6.679   3.287 -1.9721 -0.1008 -2.0740
 1151TIP3   OH2 3395   5.339   1.495   1.159 -0.3671  0.3287 -0.5496
 1151TIP3    H1 3396   5.349   1.588   1.182  0.2635  1.0669 -3.4172
 1151TIP3    H2 3397   5.248   1.486   1.132 -0.2600  0.2990 -0.9125
 1152TIP3   OH2 3398   5.606   1.810   4.474  0.0984  0.1545 -0.3533
 1152TIP3    H1 3399   5.621   1.899   4.506  0.4996  0.2632 -0.8370
 1152TIP3    H2 3400   5.539   1.820   4.406 -0.3849 -0.0120  0.0908
 1153TIP3   OH2 3401   7.590   6.189   5.239  0.0860  0.5908  0.4062
 1153TIP3    H1 3402   7.657   6.142   5.189  1.7043  0.2813  2.7060
 1153TIP3    H2 3403   7.570   6.266   5.185  0.0349 -0.8374 -1.7369
 1154TIP3   OH2 3404   8.031   7.356   4.535 -0.6575  0.3589 -0.5151
 1154TIP3    H1 3405   7.948   7.347   4.490  0.3739 -1.1142 -2.2767
 1154TIP3    H2 3406   8.032   7.283   4.598 -0.3681 -0.1475 -1.0959
 1155TIP3   OH2 3407   3.434   0.558   6.190 -0.5134  1.1514 -0.2346
 1155TIP3    H1 3408   3.346   0.523   6.176 -0.4972  1.4003 -1.0305
 1155TIP3    H2 3409   3.488   0.481   6.209 -1.0809  1.1011  1.3017
 1156TIP3   OH2 3410   7.819   6.265   6.382 -0.0953 -0.0615 -0.4457
 1156TIP3    H1 3411   7.862   6.349   6.399 -0.2813  0.3705 -2.0136
 1156TIP3    H2 3412   7.877   6.219   6.321  1.0092 -1.9707  1.8488
 1157TIP3   OH2 3413   6.692   4.562   2.592  0.1752 -0.6699 -0.6750
 1157TIP3    H1 3414   6.744   4.506   2.649 -1.4900 -1.6157 -0.0165
 1157TIP3    H2 3415   6.706   4.527   2.504  1.5186 -0.1805 -0.6855
 1158TIP3   OH2 3416   4.093   1.448   1.259  0.2921  0.1406  0.1610
 1158TIP3    H1 3417   4.022   1.510   1.244 -0.3610 -0.6334 -0.0460
 1158TIP3    H2 3418   4.136   1.438   1.174  0.0366 -0.1131  0.0587
 1159TIP3   OH2 3419   4.052   7.160   2.903  0.0496 -0.2141 -0.0832
 1159TIP3    H1 3420   3.960   7.187   2.899  0.4755  1.7416  1.4471
 1159TIP3    H2 3421   4.076   7.139   2.813 -1.1681  1.9774 -0.9741
 1160TIP3   OH2 3422   6.470   7.338   4.706 -0.0765 -0.3063  0.4726
 1160TIP3    H1 3423   6.565   7.349   4.706 -0.0045 -0.8953  0.3170
 1160TIP3    H2 3424   6.453   7.279   4.780 -0.4412  0.6920  1.2147
 1161TIP3   OH2 3425   7.816   1.389   4.055 -0.3935  0.0653  0.0160
 1161TIP3    H1 3426   7.874   1.395   3.979  1.6574 -0.6441  1.4422
 1161TIP3    H2 3427   7.768   1.307   4.041 -3.0844  1.8498 -2.4200
 1162TIP3   OH2 3428   2.278   4.877   0.238 -0.7143 -0.1686 -0.1409
 1162TIP3    H1 3429   2.201   4.869   0.295  0.2704 -0.0987  1.2424
 1162TIP3    H2 3430   2.252   4.939   0.170 -1.2705  1.3065  1.3720
 1163TIP3   OH2 3431   2.165   5.331   3.651  0.3515 -0.4920  0.0231
 1163TIP3    H1 3432   2.158   5.413   3.699  1.5130 -1.0189  1.1556
 1163TIP3    H2 3433   2.206   5.356   3.568  0.2969  0.1296  0.1747
 1164TIP3   OH2 3434   6.528   0.286   0.692 -0.3200 -0.0936  0.1744
 1164TIP3    H1 3435   6.544   0.307   0.600  0.7172  2.5366  0.8755
 1164TIP3    H2 3436   6.604   0.234   0.718  1.2395  2.1541  0.3742
 1165TIP3   OH2 3437   5.590   2.077   6.241 -0.1951 -0.1139 -0.1242
 1165TIP3    H1 3438   5.657   2.013   6.266 -0.5481 -0.0155  1.1303
 1165TIP3    H2 3439   5.515   2.056   6.297 -1.1077 -0.0154 -1.2857
 1166TIP3   OH2 3440   5.544   4.329   1.285 -0.3618 -0.3005 -0.3243
 1166TIP3    H1 3441   5.474   4.274   1.321  1.0814 -1.2431  1.1987
 1166TIP3    H2 3442   5.553   4.401   1.347  0.3992 -0.5074 -0.1833
 1167TIP3   OH2 3443   5.289   0.931   4.809  0.2246 -0.4014  0.9147
 1167TIP3    H1 3444   5.368   0.895   4.768 -0.2161  1.1945 -1.5807
 1167TIP3    H2 3445   5.310   1.023   4.824 -0.1618 -0.6201  3.1204
 1168TIP3   OH2 3446   6.198   7.606   0.399 -0.3128 -0.4824 -0.0197
 1168TIP3    H1 3447   6.120   7.558   0.425  0.1366 -0.5366  1.3292
 1168TIP3    H2 3448   6.248   7.545   0.345  0.5517 -1.8362  2.1726
 1169TIP3   OH2 3449   0.686   0.248   2.341 -0.4114  0.0907  0.2400
 1169TIP3    H1 3450   0.633   0.194   2.283  1.3047 -1.3952 -0.0353
 1169TIP3    H2 3451   0.773   0.248   2.302  0.3906  0.4700  1.9092
 1170TIP3   OH2 3452   7.196   2.081   6.637 -0.2580  0.2675 -0.3615
 1170TIP3    H1 3453   7.215   2.115   6.549 -0.6203  0.4517 -0.3706
 1170TIP3    H2 3454   7.281   2.079   6.681  0.2390 -1.4475 -1.2713
 1171TIP3   OH2 3455   2.364   4.547   1.405  0.2800 -0.1463 -0.0023
 1171TIP3    H1 3456   2.430   4.585   1.347  1.9607 -1.2373  1.1121
 1171TIP3    H2 3457   2.388   4.455   1.411 -0.3040 -0.2168  1.8008
 1172TIP3   OH2 3458   7.480   7.853   6.344 -0.1658  0.3555  0.3279
 1172TIP3    H1 3459   7.404   7.807   6.382  0.4917 -0.1147  1.1111
 1172TIP3    H2 3460   7.544   7.784   6.327  1.3634  1.0526  2.7582
 1173TIP3   OH2 3461   2.627   6.240   4.299 -0.1277  0.0322 -0.0683
 1173TIP3    H1 3462   2.680   6.308   4.341 -0.3146 -0.3388  0.7892
 1173TIP3    H2 3463   2.669   6.158   4.324 -0.5554 -0.2191 -0.1650
 1174TIP3   OH2 3464   5.716   7.595   1.255 -0.0416 -0.0321  0.6910
 1174TIP3    H1 3465   5.692   7.534   1.185  0.5503  2.4595 -1.8898
 1174TIP3    H2 3466   5.721   7.541   1.334  2.1157 -3.6567 -1.6588
 1175TIP3   OH2 3467   2.856   0.646   3.047 -0.4538  0.1521 -0.1443
 1175TIP3    H1 3468   2.774   0.618   3.007 -0.1970 -0.9020  0.0410
 1175TIP3    H2 3469   2.906   0.684   2.975  0.5925 -3.0065 -1.2685
 1176TIP3   OH2 3470   3.024   3.644   5.940  0.2904 -0.0635 -0.2018
 1176TIP3    H1 3471   2.980   3.631   5.856 -0.5004  1.7554 -0.1328
 1176TIP3    H2 3472   3.001   3.567   5.991 -1.3740 -0.0250 -0.8061
 1177TIP3   OH2 3473   5.762   6.162   5.566  0.0661 -0.5134  0.0309
 1177TIP3    H1 3474   5.854   6.138   5.559 -0.0054 -1.0991  0.9642
 1177TIP3    H2 3475   5.720   6.086   5.607 -1.1960 -1.0460 -2.0581
 1178TIP3   OH2 3476   3.868   1.000   3.054 -0.4652 -0.0858  0.5030
 1178TIP3    H1 3477   3.818   1.064   3.106  1.6503  1.6053  0.5826
 1178TIP3    H2 3478   3.955   1.038   3.046 -0.1286 -1.2539 -2.6300
 1179TIP3   OH2 3479   5.621   4.107   0.986  0.1107 -0.0757 -0.7456
 1179TIP3    H1 3480   5.529   4.090   1.005  0.2367 -0.9543 -0.8857
 1179TIP3    H2 3481   5.620   4.143   0.897 -0.1282  0.2736 -0.6035
 1180TIP3   OH2 3482   2.908   0.448   1.805 -0.3021  0.0103  0.2314
 1180TIP3    H1 3483   2.968   0.522   1.790 -0.3195  0.4763  2.1877
 1180TIP3    H2 3484   2.821   0.488   1.802 -0.2521  0.6584  3.6812
 1181TIP3   OH2 3485   2.201   1.634   1.868  0.4918  0.1588 -0.0609
 1181TIP3    H1 3486   2.110   1.640   1.897  0.2819  2.5520 -0.9719
 1181TIP3    H2 3487   2.220   1.540   1.867 -2.2664 -0.4734 -0.7632
 1182TIP3   OH2 3488   7.788   6.072   4.012 -0.5200  0.1469 -0.1425
 1182TIP3    H1 3489   7.769   6.080   4.106  0.6886 -0.7073  0.1926
 1182TIP3    H2 3490   7.842   6.149   3.992  1.1110 -0.7998  0.4036
 1183TIP3   OH2 3491   6.642   5.215   1.422  0.7079  0.7593 -0.2807
 1183TIP3    H1 3492   6.596   5.299   1.424  0.1151  0.4296  0.3069
 1183TIP3    H2 3493   6.591   5.158   1.480  2.3225  0.6381  1.1350
 1184TIP3   OH2 3494   1.298   0.134   5.440  0.1890  0.3072 -0.0224
 1184TIP3    H1 3495   1.231   0.096   5.497  0.8400  0.4060  0.8300
 1184TIP3    H2 3496   1.278   0.227   5.438 -0.8513  0.0912 -1.3625
 1185TIP3   OH2 3497   1.800   2.577   2.552  0.0371 -0.4385  0.9348
 1185TIP3    H1 3498   1.745   2.548   2.479  0.0687  1.2408  0.1935
 1185TIP3    H2 3499   1.780   2.516   2.623 -0.8459 -1.4229 -0.1146
 1186TIP3   OH2 3500   5.287   6.019   5.646 -0.3877 -0.3744  0.0124
 1186TIP3    H1 3501   5.370   6.044   5.606  0.4691 -1.1689  1.2214
 1186TIP3    H2 3502   5.292   5.924   5.654 -0.8173 -0.3034  1.3562
 1187TIP3   OH2 3503   7.943   6.589   4.647 -0.4281 -0.3931 -0.3325
 1187TIP3    H1 3504   7.891   6.650   4.699  0.8799  0.7279 -0.2642
 1187TIP3    H2 3505   7.880   6.528   4.610 -1.6105  0.0193  0.9172
 1188TIP3   OH2 3506   0.598   1.430   4.344 -0.1896 -0.0350  0.0953
 1188TIP3    H1 3507   0.689   1.428   4.315 -0.1594 -1.7597  0.2227
 1188TIP3    H2 3508   0.567   1.340   4.331 -0.7485 -0.4475  3.4951
 1189TIP3   OH2 3509   2.189   0.245   5.057  0.4222 -0.1799 -0.8206
 1189TIP3    H1 3510   2.265   0.303   5.046  0.0278  0.3904 -0.5989
 1189TIP3    H2 3511   2.220   0.176   5.115  1.1117 -0.5908 -1.6560
 1190TIP3   OH2 3512   1.141   3.999   1.176  0.0570 -0.1282  0.3686
 1190TIP3    H1 3513   1.076   4.029   1.113 -0.4886 -0.6675  0.6629
 1190TIP3    H2 3514   1.222   3.993   1.125  0.1643  1.6752  0.2749
 1191TIP3   OH2 3515   2.131   0.106   5.414  0.6950 -0.4436  0.0065
 1191TIP3    H1 3516   2.168   0.058   5.340  2.0398 -0.6708  0.7724
 1191TIP3    H2 3517   2.125   0.197   5.384 -0.2164 -0.7845 -0.8726
 1192TIP3   OH2 3518   3.306   2.567   4.924 -0.6048 -0.1104  0.1045
 1192TIP3    H1 3519   3.294   2.557   5.019  0.4462  2.1943  0.5391
 1192TIP3    H2 3520   3.400   2.583   4.913 -0.6428 -0.7241 -1.3960
 1193TIP3   OH2 3521   4.265   1.567   1.446  0.0453  0.3461  0.4704
 1193TIP3    H1 3522   4.190   1.524   1.405  0.6799  0.0380 -0.3932
 1193TIP3    H2 3523   4.247   1.562   1.540  0.3685 -2.3512  0.4627
 1194TIP3   OH2 3524   3.647   1.110   5.185 -0.3865 -0.1625 -0.2465
 1194TIP3    H1 3525   3.627   1.165   5.110  1.7746  3.0566  1.2494
 1194TIP3    H2 3526   3.568   1.058   5.200 -1.3046 -0.0876 -3.9073
 1195TIP3   OH2 3527   2.198   4.643   5.337  0.3038 -0.0541 -0.1030
 1195TIP3    H1 3528   2.284   4.685   5.335 -0.7740  2.2995 -0.8261
 1195TIP3    H2 3529   2.138   4.712   5.365 -1.6939 -0.9135 -1.9865
 1196TIP3   OH2 3530   2.963   0.430   1.431 -0.3178  0.1826  0.0992
 1196TIP3    H1 3531   2.968   0.356   1.492  1.0413  1.3026  1.4272
 1196TIP3    H2 3532   2.870   0.450   1.426 -0.4628  0.3326  2.2183
 1197TIP3   OH2 3533   5.023   3.648   0.620  0.6413  0.3101  0.5537
 1197TIP3    H1 3534   4.990   3.606   0.541 -0.0722  1.5217  0.1745
 1197TIP3    H2 3535   5.016   3.581   0.688  0.0135 -0.3369 -0.1257
 1198TIP3   OH2 3536   3.341   2.950   0.085  0.2202 -0.0359  0.2446
 1198TIP3    H1 3537   3.254   2.975   0.117  0.2418  0.3814 -0.0142
 1198TIP3    H2 3538   3.336   2.855   0.073 -0.7225  0.1741 -1.3110
 1199TIP3   OH2 3539   2.702   0.556   3.502 -0.4193 -0.3610 -0.2594
 1199TIP3    H1 3540   2.623   0.540   3.555 -0.1423  0.6389  0.4673
 1199TIP3    H2 3541   2.716   0.473   3.457 -2.0193 -0.5062 -0.5805
 1200TIP3   OH2 3542   7.222   0.271   3.810  0.3381 -0.0918  0.2574
 1200TIP3    H1 3543   7.140   0.247   3.853  0.9989 -0.5135  1.3158
 1200TIP3    H2 3544   7.231   0.365   3.826  0.5312 -0.2262  0.9842
 1201TIP3   OH2 3545   7.278   1.826   3.938  0.4247  0.1334 -0.0036
 1201TIP3    H1 3546   7.230   1.881   3.876  0.4989  0.6252  0.3657
 1201TIP3    H2 3547   7.238   1.740   3.930 -0.7002  0.5913  0.4664
 1202TIP3   OH2 3548   0.766   5.051   6.588 -0.2191 -0.3909  0.1722
 1202TIP3    H1 3549   0.732   5.141   6.580 -0.8040 -0.5791  0.4799
 1202TIP3    H2 3550   0.719   5.014   6.663  1.4352 -0.3315  1.2867
 1203TIP3   OH2 3551   0.204   3.149   1.023 -0.5262  1.0589  0.4770
 1203TIP3    H1 3552   0.288   3.167   0.981 -1.4960  2.1794 -1.0842
 1203TIP3    H2 3553   0.221   3.163   1.116  1.8809 -2.1671  0.7222
 1204TIP3   OH2 3554   0.107   7.114   1.480  0.4993 -0.0863  0.6023
 1204TIP3    H1 3555   0.053   7.182   1.441 -0.4291 -1.5190 -0.7234
 1204TIP3    H2 3556   0.175   7.096   1.415  1.4039  0.3031  1.4104
 1205TIP3   OH2 3557   3.512   6.697   5.860 -0.2017  0.4502 -0.0799
 1205TIP3    H1 3558   3.532   6.729   5.948  1.0278  0.9300 -0.5126
 1205TIP3    H2 3559   3.539   6.768   5.801 -0.0820 -0.2449 -0.8878
 1206TIP3   OH2 3560   5.624   3.176   5.095 -0.1521  0.0756  0.5313
 1206TIP3    H1 3561   5.607   3.095   5.046 -0.5839  0.4338  0.0873
 1206TIP3    H2 3562   5.538   3.205   5.124  0.2793 -1.4806  3.7332
 1207TIP3   OH2 3563   7.972   2.826   2.867 -0.0670  0.3611 -0.3495
 1207TIP3    H1 3564   8.019   2.852   2.788 -1.3571  0.2084 -1.2009
 1207TIP3    H2 3565   8.021   2.866   2.938  0.9707  0.7293 -1.2445
 1208TIP3   OH2 3566   4.881   4.687   2.359 -0.0429 -0.2099 -0.3045
 1208TIP3    H1 3567   4.808   4.747   2.346  0.2564  0.0327 -0.8956
 1208TIP3    H2 3568   4.940   4.734   2.419  0.0666 -0.0125 -0.5616
 1209TIP3   OH2 3569   0.805   5.653   1.264  0.0266 -0.1768 -0.2612
 1209TIP3    H1 3570   0.812   5.748   1.254  0.7608  0.0685  2.0564
 1209TIP3    H2 3571   0.895   5.622   1.271 -0.2369 -0.9238 -0.0644
 1210TIP3   OH2 3572   4.694   6.776   3.610 -1.0307 -0.0927 -0.1059
 1210TIP3    H1 3573   4.659   6.820   3.533 -0.4798 -0.2200 -0.4301
 1210TIP3    H2 3574   4.788   6.792   3.607 -0.8739 -0.9441 -0.0133
 1211TIP3   OH2 3575   3.363   3.224   5.263 -0.0610  0.1219  0.3595
 1211TIP3    H1 3576   3.295   3.173   5.219  0.6244 -2.6682  2.2895
 1211TIP3    H2 3577   3.323   3.252   5.345  1.1204 -1.8850  1.6999
 1212TIP3   OH2 3578   0.934   1.370   5.836  0.2210 -0.4755  0.3859
 1212TIP3    H1 3579   0.891   1.455   5.839 -0.4739 -0.7084 -1.5651
 1212TIP3    H2 3580   1.018   1.384   5.880  0.7588  1.6341 -1.1612
 1213TIP3   OH2 3581   0.305   6.368   6.466 -0.0204  0.4651  0.5375
 1213TIP3    H1 3582   0.400   6.372   6.455 -0.0240 -1.0365 -0.2758
 1213TIP3    H2 3583   0.279   6.459   6.479  1.5635  0.8741  1.2025
 1214TIP3   OH2 3584   1.469   1.877   1.447  0.1879  0.6269 -0.6221
 1214TIP3    H1 3585   1.422   1.937   1.505 -1.0312 -0.4267 -0.4615
 1214TIP3    H2 3586   1.545   1.849   1.497  0.5931  1.7681 -0.5792
 1215TIP3   OH2 3587   2.218   2.110   4.058  0.1275  0.1849 -0.3207
 1215TIP3    H1 3588   2.147   2.056   4.023 -0.2378  0.8811 -0.6877
 1215TIP3    H2 3589   2.267   2.052   4.115 -1.0114 -0.1880  0.3080
 1216TIP3   OH2 3590   4.191   3.152   4.866  0.4225  0.2132 -0.3071
 1216TIP3    H1 3591   4.256   3.091   4.901  0.6468  0.0636 -0.9791
 1216TIP3    H2 3592   4.225   3.178   4.781 -1.4794 -1.6035 -1.7181
 1217TIP3   OH2 3593   2.109   6.143   1.687  0.9323 -0.1675  0.3263
 1217TIP3    H1 3594   2.148   6.130   1.601 -1.0757  2.3738 -1.1098
 1217TIP3    H2 3595   2.061   6.062   1.704  1.2301 -0.6490 -1.0404
 1218TIP3   OH2 3596   6.814   0.585   2.706 -0.5411 -0.1246 -0.5257
 1218TIP3    H1 3597   6.744   0.560   2.646 -0.9841 -0.1644  0.0064
 1218TIP3    H2 3598   6.871   0.508   2.710 -0.3433 -0.0200 -1.1172
 1219TIP3   OH2 3599   8.222   7.150   1.267  0.1782 -0.2302 -0.0847
 1219TIP3    H1 3600   8.227   7.245   1.271 -0.1872 -0.1732 -0.7892
 1219TIP3    H2 3601   8.141   7.132   1.219 -0.0529 -0.9068  0.5344
 1220TIP3   OH2 3602   6.460   4.741   3.650  0.3998 -0.2109  1.0531
 1220TIP3    H1 3603   6.380   4.715   3.695  0.6280  0.8152  2.0825
 1220TIP3    H2 3604   6.518   4.773   3.719  0.6574  1.7030  0.0371
 1221TIP3   OH2 3605   4.392   2.104   0.904  0.0599 -0.0855 -0.2537
 1221TIP3    H1 3606   4.312   2.157   0.901  0.9224  1.2710 -0.5457
 1221TIP3    H2 3607   4.432   2.125   0.988  0.7823  0.3162 -0.6848
 1222TIP3   OH2 3608   5.257   1.563   4.396  0.4101  0.6416 -0.5541
 1222TIP3    H1 3609   5.299   1.605   4.471 -0.6673  0.3892  0.2263
 1222TIP3    H2 3610   5.252   1.631   4.329  1.5933  0.8070 -0.4843
 1223TIP3   OH2 3611   4.041   6.363   2.012 -0.3736  0.4616  0.3598
 1223TIP3    H1 3612   4.001   6.353   2.098  2.6461  1.5839  2.0537
 1223TIP3    H2 3613   4.132   6.335   2.024  0.0697  0.2735 -2.5963
 1224TIP3   OH2 3614   7.119   7.428   5.164  0.5380 -0.4052  0.4633
 1224TIP3    H1 3615   7.033   7.452   5.130  0.3957 -0.3585  0.8603
 1224TIP3    H2 3616   7.103   7.402   5.254  0.7834 -1.3907  0.2325
 1225TIP3   OH2 3617   5.974   2.140   3.535  0.5424 -0.3417  0.1835
 1225TIP3    H1 3618   5.892   2.137   3.486  0.5847 -2.4013  0.1509
 1225TIP3    H2 3619   6.042   2.138   3.468  0.6041 -1.2152  0.2677
 1226TIP3   OH2 3620   7.842   1.796   3.495  0.0918 -1.0768  0.0990
 1226TIP3    H1 3621   7.783   1.814   3.568  2.4108  1.1607  1.5985
 1226TIP3    H2 3622   7.887   1.715   3.521  0.4372 -0.6537  0.8653
 1227TIP3   OH2 3623   6.735   1.415   6.327  0.1240  0.0731 -0.2733
 1227TIP3    H1 3624   6.656   1.469   6.320  0.1532  0.1668  0.1111
 1227TIP3    H2 3625   6.702   1.329   6.354  0.0627 -0.1475 -1.0242
 1228TIP3   OH2 3626   4.602   2.250   6.694 -0.4084 -0.6241 -0.4230
 1228TIP3    H1 3627   4.685   2.203   6.700  0.0929  0.0860 -1.4835
 1228TIP3    H2 3628   4.536   2.185   6.719  0.5000 -1.0082  1.0755
 1229TIP3   OH2 3629   6.293   0.505   2.831  0.0097  0.1443  0.3236
 1229TIP3    H1 3630   6.314   0.416   2.802 -1.5729 -0.4154  0.7631
 1229TIP3    H2 3631   6.197   0.508   2.833  0.0147  2.0367 -0.1613
 1230TIP3   OH2 3632   1.419   6.925   1.268  0.2108 -0.6597  0.2374
 1230TIP3    H1 3633   1.404   7.017   1.246  0.5665 -1.0377 -1.8286
 1230TIP3    H2 3634   1.334   6.883   1.251  0.6150 -1.0340 -1.0090
 1231TIP3   OH2 3635   6.541   2.749   1.413 -1.0280 -0.4305  0.2008
 1231TIP3    H1 3636   6.519   2.842   1.413 -0.9724 -0.4093  0.9442
 1231TIP3    H2 3637   6.458   2.703   1.401 -0.9053 -0.2745 -1.4727
 1232TIP3   OH2 3638   3.069   7.399   5.601  0.4735  0.1589  0.6380
 1232TIP3    H1 3639   3.051   7.492   5.607 -0.2466  0.1031 -0.3822
 1232TIP3    H2 3640   3.108   7.387   5.515  0.7124 -0.4613  0.8239
 1233TIP3   OH2 3641   6.158   2.385   5.647  0.5329 -0.6162 -0.2178
 1233TIP3    H1 3642   6.247   2.379   5.612  1.0091  0.0889  0.8557
 1233TIP3    H2 3643   6.112   2.444   5.587  0.3800 -2.0040 -1.5405
 1234TIP3   OH2 3644   4.605   4.098   3.275 -0.0479  0.7997 -0.0373
 1234TIP3    H1 3645   4.519   4.060   3.294 -0.9660  2.6951 -0.2386
 1234TIP3    H2 3646   4.660   4.067   3.347 -0.5406 -1.3963 -0.5091
 1235TIP3   OH2 3647   7.334   6.425   0.614 -0.5644  0.2066  0.2290
 1235TIP3    H1 3648   7.407   6.415   0.552 -0.5463  1.1062  0.0782
 1235TIP3    H2 3649   7.298   6.337   0.624  0.9730 -0.3814  0.8474
 1236TIP3   OH2 3650   0.541   7.640   1.181 -0.2666  0.1319 -0.2331
 1236TIP3    H1 3651   0.628   7.677   1.173  0.5057 -1.7350 -1.2313
 1236TIP3    H2 3652   0.482   7.715   1.177  1.2372  1.3357 -0.7711
 1237TIP3   OH2 3653   3.132   7.730   0.453 -0.2514  0.0312  0.3466
 1237TIP3    H1 3654   3.159   7.773   0.372  1.7332 -2.5890 -0.5676
 1237TIP3    H2 3655   3.213   7.720   0.503 -0.6258 -2.2214  0.6210
 1238TIP3   OH2 3656   2.045   6.679   2.231 -0.8846  0.3863 -0.0099
 1238TIP3    H1 3657   2.037   6.672   2.327 -0.1453 -0.2133  0.0209
 1238TIP3    H2 3658   2.091   6.761   2.217 -0.0318 -0.0287  0.2250
 1239TIP3   OH2 3659   4.140   5.911   1.059 -0.0910 -0.0279 -0.8702
 1239TIP3    H1 3660   4.111   5.821   1.045  0.3410 -0.4939  0.9337
 1239TIP3    H2 3661   4.095   5.939   1.138  1.3000  0.6134 -0.2644
 1240TIP3   OH2 3662   1.181   4.794   3.690  0.3758 -0.6909  0.1390
 1240TIP3    H1 3663   1.132   4.809   3.609  0.6915  0.2548  0.1082
 1240TIP3    H2 3664   1.265   4.759   3.661 -0.0452 -1.7276  0.1535
 1241TIP3   OH2 3665   4.454   1.184   4.634  0.2304  0.4746 -0.2607
 1241TIP3    H1 3666   4.436   1.133   4.712  2.2343  0.7136  0.4147
 1241TIP3    H2 3667   4.506   1.126   4.578 -0.1889  0.7083 -0.9102
 1242TIP3   OH2 3668   3.671   0.775   4.853  0.1878 -0.5864  0.4039
 1242TIP3    H1 3669   3.766   0.763   4.857  0.2280  0.0776  1.5744
 1242TIP3    H2 3670   3.640   0.696   4.807  1.2002 -1.2838  0.8691
 1243TIP3   OH2 3671   4.764   7.565   6.031  0.1860  0.1819  0.5388
 1243TIP3    H1 3672   4.818   7.584   6.108  1.1312 -0.1419 -0.0374
 1243TIP3    H2 3673   4.806   7.490   5.990  0.5250  1.2076 -1.0659
 1244TIP3   OH2 3674   0.491   2.749   2.222  0.2959 -0.0813  0.1116
 1244TIP3    H1 3675   0.447   2.832   2.240 -0.1661 -0.4794  0.8380
 1244TIP3    H2 3676   0.522   2.758   2.131  0.5041  0.9855  0.2777
 1245TIP3   OH2 3677   3.597   3.241   2.973  0.0450  0.3581  0.0668
 1245TIP3    H1 3678   3.520   3.264   2.922 -0.2531  0.4503  0.5553
 1245TIP3    H2 3679   3.606   3.311   3.037  2.6792  2.3969 -2.2407
 1246TIP3   OH2 3680   7.335   1.652   0.301  0.1250 -0.4653 -0.4914
 1246TIP3    H1 3681   7.411   1.647   0.243 -0.0757  0.3818 -0.8455
 1246TIP3    H2 3682   7.368   1.696   0.380 -0.2456  1.0109 -1.1199
 1247TIP3   OH2 3683   1.518   4.107   2.644 -0.4764  0.2244 -0.3215
 1247TIP3    H1 3684   1.446   4.096   2.707 -0.9722 -0.8967 -1.0529
 1247TIP3    H2 3685   1.528   4.202   2.636  0.4791  0.4302  2.4050
 1248TIP3   OH2 3686   1.125   1.923   4.200  0.1744 -0.0765 -0.1419
 1248TIP3    H1 3687   1.073   1.907   4.121 -2.3428  0.8544  1.2101
 1248TIP3    H2 3688   1.110   2.015   4.221  0.7112 -0.3083  1.4325
 1249TIP3   OH2 3689   1.860   4.860   2.849 -0.1347 -0.5523 -0.0335
 1249TIP3    H1 3690   1.815   4.880   2.931 -0.0759  0.7094 -0.2943
 1249TIP3    H2 3691   1.925   4.929   2.839  1.3298 -1.8814 -0.0868
 1250TIP3   OH2 3692   6.950   1.925   4.060  0.0827 -0.0902 -0.7367
 1250TIP3    H1 3693   6.877   1.947   4.003 -0.7734  0.2713  0.4463
 1250TIP3    H2 3694   6.911   1.920   4.148  1.2428 -1.1388 -0.2451
 1251TIP3   OH2 3695   0.807   4.534   0.510  0.3881 -0.2053 -0.2754
 1251TIP3    H1 3696   0.737   4.478   0.544 -0.2199  1.3051  1.0973
 1251TIP3    H2 3697   0.885   4.508   0.559  0.6842 -1.4522 -1.3525
 1252TIP3   OH2 3698   5.237   7.516   6.597 -0.1132  0.0299 -0.2820
 1252TIP3    H1 3699   5.182   7.438   6.587 -0.5730  0.3642 -0.3708
 1252TIP3    H2 3700   5.305   7.506   6.531  0.0852 -0.5104 -0.0031
 1253TIP3   OH2 3701   6.568   3.281   0.228  0.2883  0.1493 -0.1115
 1253TIP3    H1 3702   6.586   3.346   0.296  1.2657 -0.7465  0.5019
 1253TIP3    H2 3703   6.605   3.319   0.149 -1.4042  1.4900 -0.3426
 1254TIP3   OH2 3704   7.074   4.295   0.785 -0.0564  0.0137  0.0225
 1254TIP3    H1 3705   7.022   4.251   0.717 -1.0089  0.3238  0.5315
 1254TIP3    H2 3706   7.010   4.321   0.851  0.7749  0.2830  0.7418
 1255TIP3   OH2 3707   2.888   2.086   2.383  0.2695  0.7046  0.1732
 1255TIP3    H1 3708   2.946   2.023   2.426 -0.6381 -0.4530 -0.2376
 1255TIP3    H2 3709   2.837   2.125   2.454  0.8454  1.0069  0.4298
 1256TIP3   OH2 3710   5.545   3.827   0.083  0.1000  0.1256  0.4227
 1256TIP3    H1 3711   5.627   3.780   0.077  0.5148  0.9637 -1.1697
 1256TIP3    H2 3712   5.520   3.821   0.175  1.7252 -0.4796  0.8589
 1257TIP3   OH2 3713   0.189   0.832   0.713 -0.1605  0.1865  0.4581
 1257TIP3    H1 3714   0.201   0.754   0.659  1.0702 -1.0446  2.3660
 1257TIP3    H2 3715   0.141   0.802   0.789  0.0868  1.3547  1.1078
 1258TIP3   OH2 3716   6.875   5.125   0.136  0.0522  0.3050 -0.0574
 1258TIP3    H1 3717   6.892   5.111   0.229 -0.1536 -2.2432 -0.3320
 1258TIP3    H2 3718   6.779   5.131   0.130  0.0770  0.6808 -0.0807
 1259TIP3   OH2 3719   4.623   6.650   0.674  0.2064  0.1807 -0.0260
 1259TIP3    H1 3720   4.608   6.617   0.586 -1.5415 -0.1451  0.3615
 1259TIP3    H2 3721   4.716   6.671   0.676  0.8309 -2.1962 -1.1373
 1260TIP3   OH2 3722   2.081   5.046   2.975  0.2820  0.2491 -0.6523
 1260TIP3    H1 3723   2.008   5.061   3.036 -0.1304  0.8612 -1.2779
 1260TIP3    H2 3724   2.101   4.953   2.985 -1.2126 -0.1675 -1.1287
 1261TIP3   OH2 3725   4.364   2.408   1.008 -0.3228  0.7644 -0.2172
 1261TIP3    H1 3726   4.357   2.430   1.101  0.4299 -2.4966  0.7294
 1261TIP3    H2 3727   4.458   2.398   0.993 -0.5610 -1.7796 -0.4239
 1262TIP3   OH2 3728   4.277   7.674   3.524  0.3481  0.2329 -0.2869
 1262TIP3    H1 3729   4.198   7.674   3.578  0.2867 -1.6634 -0.3176
 1262TIP3    H2 3730   4.248   7.712   3.440  0.6660  4.1367  1.1322
 1263TIP3   OH2 3731   0.359   6.680   3.565  0.1630  0.0931 -0.9455
 1263TIP3    H1 3732   0.278   6.627   3.570  0.2835 -0.0386 -0.2474
 1263TIP3    H2 3733   0.371   6.696   3.471 -1.5728  1.5095 -0.9885
 1264TIP3   OH2 3734   2.896   6.945   1.363 -0.0572  0.3731 -0.5141
 1264TIP3    H1 3735   2.904   7.023   1.418  0.3296 -0.1582  0.2036
 1264TIP3    H2 3736   2.823   6.897   1.400  0.1592  0.0469 -0.5075
 1265TIP3   OH2 3737   5.108   3.858   1.404  0.0785  0.1685 -0.3828
 1265TIP3    H1 3738   5.072   3.769   1.403 -2.3351  1.0337  1.7427
 1265TIP3    H2 3739   5.183   3.853   1.463 -1.0565 -0.1531  1.0753
 1266TIP3   OH2 3740   7.576   1.635   0.466 -0.5626  0.0433  0.2561
 1266TIP3    H1 3741   7.641   1.686   0.417 -1.2835 -1.2386 -2.1817
 1266TIP3    H2 3742   7.620   1.552   0.485 -0.3979  0.4120  1.5810
 1267TIP3   OH2 3743   8.245   2.988   0.048 -0.4984 -0.4119 -0.2961
 1267TIP3    H1 3744   8.243   2.904   0.003 -2.2683 -1.2044  1.1136
 1267TIP3    H2 3745   8.160   2.992   0.094  0.0833  1.5521  0.6964
 1268TIP3   OH2 3746   6.486   3.838   1.178  0.3555  0.1016  0.4569
 1268TIP3    H1 3747   6.466   3.931   1.184 -0.5663 -0.0592 -0.0593
 1268TIP3    H2 3748   6.582   3.834   1.182  0.5255  1.2367 -1.5906
 1269TIP3   OH2 3749   6.793   3.436   5.766  0.2475  0.0277 -0.1203
 1269TIP3    H1 3750   6.861   3.416   5.701  2.3892 -1.8187  2.4810
 1269TIP3    H2 3751   6.788   3.532   5.766  0.1140  0.1310 -2.9079
 1270TIP3   OH2 3752   0.618   3.830   5.454  0.0800 -0.0714 -0.2283
 1270TIP3    H1 3753   0.615   3.890   5.380  1.2671  1.9224  1.2602
 1270TIP3    H2 3754   0.691   3.860   5.507 -0.3567 -1.8102  1.4800
 1271TIP3   OH2 3755   0.267   4.890   4.506 -0.4039  0.2869 -0.1467
 1271TIP3    H1 3756   0.287   4.833   4.580  1.3833 -1.0590 -1.5802
 1271TIP3    H2 3757   0.347   4.891   4.453 -1.5963  1.2147 -2.0544
 1272TIP3   OH2 3758   5.908   0.633   1.836  0.1336  0.3775  0.2426
 1272TIP3    H1 3759   5.934   0.725   1.843 -0.8843  0.7801 -0.9273
 1272TIP3    H2 3760   5.812   0.635   1.836  0.0523 -0.4341 -2.3294
 1273TIP3   OH2 3761   6.781   3.549   2.798  0.2487  0.1921 -0.0906
 1273TIP3    H1 3762   6.854   3.496   2.763  0.9860  1.3978 -0.4450
 1273TIP3    H2 3763   6.715   3.548   2.728 -1.8021 -3.9371  1.5774
 1274TIP3   OH2 3764   7.457   1.710   3.504  0.2053 -0.4979 -0.7564
 1274TIP3    H1 3765   7.366   1.721   3.532 -0.3210  0.2856 -2.6295
 1274TIP3    H2 3766   7.509   1.743   3.578 -1.0496  0.1810 -0.1374
 1275TIP3   OH2 3767   4.160   0.913   5.809 -0.2314 -0.3611 -0.0605
 1275TIP3    H1 3768   4.105   0.915   5.887 -1.2896  1.6255 -0.7724
 1275TIP3    H2 3769   4.148   0.825   5.773 -2.6840 -0.1204  0.0238
 1276TIP3   OH2 3770   2.203   0.437   0.882 -0.2594 -0.1473  0.1500
 1276TIP3    H1 3771   2.187   0.441   0.787  1.2547 -0.5509 -0.1409
 1276TIP3    H2 3772   2.261   0.511   0.899  0.0201 -0.4816  0.6460
 1277TIP3   OH2 3773   8.254   2.472   3.042  0.3206 -0.3358 -0.5977
 1277TIP3    H1 3774   8.186   2.529   3.077  1.8649  2.3140 -1.6382
 1277TIP3    H2 3775   8.259   2.496   2.949 -0.3565 -3.7225 -1.6625
 1278TIP3   OH2 3776   0.459   3.638   5.587  0.5890  0.0011 -0.6129
 1278TIP3    H1 3777   0.389   3.626   5.522  1.5245  1.9954 -2.0980
 1278TIP3    H2 3778   0.511   3.711   5.553  2.4726 -0.3706  1.2604
 1279TIP3   OH2 3779   1.897   2.079   2.598  0.0323 -0.3687 -0.6486
 1279TIP3    H1 3780   1.927   2.163   2.564 -0.6072  0.1918  0.1200
 1279TIP3    H2 3781   1.804   2.093   2.617  0.1301 -0.9565  0.3551
 1280TIP3   OH2 3782   6.869   6.650   0.470  0.1918  0.3777 -0.2136
 1280TIP3    H1 3783   6.855   6.744   0.465 -0.0894  0.4187  0.9985
 1280TIP3    H2 3784   6.834   6.625   0.556 -0.0421 -0.8809 -0.6450
 1281TIP3   OH2 3785   7.213   1.642   1.201  0.2105  0.0471 -0.1348
 1281TIP3    H1 3786   7.247   1.691   1.276  1.2370 -0.4427 -0.2570
 1281TIP3    H2 3787   7.196   1.554   1.236 -0.4009  0.1260 -0.2191
 1282TIP3   OH2 3788   3.849   0.440   4.823 -0.0584  0.0902 -0.6845
 1282TIP3    H1 3789   3.907   0.516   4.817 -0.5716  0.3956 -2.2822
 1282TIP3    H2 3790   3.783   0.455   4.755 -1.7923 -0.4528  0.8079
 1283TIP3   OH2 3791   1.838   5.097   3.794  0.1379  0.6811  0.4175
 1283TIP3    H1 3792   1.809   5.089   3.885  2.4682  2.0155  1.3781
 1283TIP3    H2 3793   1.858   5.190   3.784  3.1384  0.0595 -0.3246
 1284TIP3   OH2 3794   4.958   1.779   2.267 -0.3669 -0.0094  0.1030
 1284TIP3    H1 3795   4.892   1.812   2.328  1.9637  2.3249  1.5803
 1284TIP3    H2 3796   4.954   1.839   2.193 -1.9217 -1.7356 -1.2973
 1285TIP3   OH2 3797   4.920   2.628   5.208 -1.0428  0.4822  0.1221
 1285TIP3    H1 3798   4.866   2.651   5.284 -0.8110  0.1496  0.3906
 1285TIP3    H2 3799   4.857   2.610   5.139 -1.3110 -0.7085  0.6624
 1286TIP3   OH2 3800   4.167   4.266   5.875  0.3796  0.5741 -0.0751
 1286TIP3    H1 3801   4.242   4.324   5.863 -0.1685  1.3339  0.1492
 1286TIP3    H2 3802   4.120   4.271   5.792  0.4225  0.3079 -0.1177
 1287TIP3   OH2 3803   1.741   2.412   4.423 -0.2301  0.1761 -0.8017
 1287TIP3    H1 3804   1.780   2.426   4.510  2.8025  0.9146 -2.1325
 1287TIP3    H2 3805   1.681   2.485   4.411  1.3257  1.6081 -0.3078
 1288TIP3   OH2 3806   2.605   5.677   0.465  0.4920 -0.1174 -0.0359
 1288TIP3    H1 3807   2.515   5.669   0.497  0.4558  1.3440  0.2939
 1288TIP3    H2 3808   2.600   5.657   0.372  0.1193 -1.6406  0.2882
 1289TIP3   OH2 3809   6.465   5.543   2.774  0.0593  0.3134 -0.3149
 1289TIP3    H1 3810   6.458   5.626   2.821 -0.3946  2.2439 -3.4865
 1289TIP3    H2 3811   6.482   5.568   2.683 -3.0566 -2.8996 -2.0395
 1290TIP3   OH2 3812   3.810   7.133   2.665  0.0828  0.0416 -0.1230
 1290TIP3    H1 3813   3.844   7.185   2.738  0.8122  1.6242 -1.5154
 1290TIP3    H2 3814   3.849   7.173   2.587 -1.2623 -1.1134 -1.4530
 1291TIP3   OH2 3815   4.880   2.708   0.562 -0.1951  0.2764  0.1488
 1291TIP3    H1 3816   4.833   2.786   0.590  2.7054  1.7550  1.3052
 1291TIP3    H2 3817   4.958   2.741   0.516  0.7071 -1.9418 -0.0645
 1292TIP3   OH2 3818   7.559   5.580   5.694  0.1684 -0.3327 -0.5783
 1292TIP3    H1 3819   7.501   5.574   5.770  0.3343 -0.0398 -0.4305
 1292TIP3    H2 3820   7.500   5.573   5.619  0.0389 -0.9682 -0.4244
 1293TIP3   OH2 3821   1.284   1.524   0.399 -0.6090 -0.3052  0.6348
 1293TIP3    H1 3822   1.303   1.505   0.491 -0.5784 -0.6541  0.5572
 1293TIP3    H2 3823   1.306   1.444   0.353 -0.8660 -0.2156  0.3529
 1294TIP3   OH2 3824   6.377   2.059   3.485  0.2242 -0.7047 -0.3408
 1294TIP3    H1 3825   6.424   2.020   3.411  0.9124  0.4634 -0.5524
 1294TIP3    H2 3826   6.322   2.126   3.445  0.6177 -0.0494  0.1913
 1295TIP3   OH2 3827   1.836   7.515   2.051  0.4452 -0.1706  0.3900
 1295TIP3    H1 3828   1.906   7.467   2.005  0.1084  0.0811 -0.3966
 1295TIP3    H2 3829   1.836   7.601   2.010  0.5275  0.2551  1.2745
 1296TIP3   OH2 3830   5.683   1.298   2.211  0.2245  0.9773 -0.6475
 1296TIP3    H1 3831   5.625   1.221   2.216  0.9138  0.5269  1.2288
 1296TIP3    H2 3832   5.643   1.362   2.270  0.3171  1.6275 -1.2740
 1297TIP3   OH2 3833   0.674   6.843   3.069 -0.2869  0.0329  0.0749
 1297TIP3    H1 3834   0.593   6.887   3.044 -0.8246 -0.5807  0.6648
 1297TIP3    H2 3835   0.741   6.910   3.064 -0.7812  0.4851 -0.7047
 1298TIP3   OH2 3836   3.663   4.929   3.120  0.1762  1.1510  0.1836
 1298TIP3    H1 3837   3.705   5.014   3.134  0.8839  0.8795 -0.2313
 1298TIP3    H2 3838   3.573   4.942   3.150  0.1867  2.1341 -0.1462
 1299TIP3   OH2 3839   4.878   3.140   6.218 -0.5552  0.3733  0.3260
 1299TIP3    H1 3840   4.938   3.149   6.292 -0.3326  0.5644  0.1232
 1299TIP3    H2 3841   4.879   3.047   6.198  0.8312  0.5659 -0.6260
 1300TIP3   OH2 3842   5.124   5.936   2.297  1.0910 -0.1040  0.8807
 1300TIP3    H1 3843   5.188   5.866   2.281  0.4874 -0.8744  1.7011
 1300TIP3    H2 3844   5.149   5.972   2.381  1.0019  0.2221  0.7678
 1301TIP3   OH2 3845   6.610   1.365   2.523  0.1711  0.1066  0.0065
 1301TIP3    H1 3846   6.573   1.306   2.457  0.1912 -0.4063  0.4491
 1301TIP3    H2 3847   6.554   1.442   2.520  0.5596  0.3583 -1.0617
 1302TIP3   OH2 3848   1.362   5.121   5.522  0.4936 -0.0443 -0.3239
 1302TIP3    H1 3849   1.294   5.187   5.539  0.9720  1.0651 -2.3489
 1302TIP3    H2 3850   1.442   5.172   5.513  1.3234 -1.1831  0.4371
 1303TIP3   OH2 3851   8.167   1.577   5.947 -0.3058 -0.4068  0.0919
 1303TIP3    H1 3852   8.074   1.563   5.927 -0.1930 -2.0360  0.5779
 1303TIP3    H2 3853   8.183   1.522   6.023  0.8256  0.6800  0.6657
 1304TIP3   OH2 3854   3.852   2.219   5.201 -0.0832  0.1213 -0.1313
 1304TIP3    H1 3855   3.936   2.255   5.171 -0.9531  2.0288 -0.4686
 1304TIP3    H2 3856   3.796   2.221   5.124 -1.5079  2.4323  0.8222
 1305TIP3   OH2 3857   2.656   4.059   5.258  0.0913  0.2127  0.0962
 1305TIP3    H1 3858   2.651   4.127   5.325 -1.3436  0.7539 -0.5119
 1305TIP3    H2 3859   2.609   3.984   5.295 -0.3773  0.3831 -0.1407
 1306TIP3   OH2 3860   2.328   6.470   4.585 -0.0459 -0.5469  0.0790
 1306TIP3    H1 3861   2.404   6.521   4.611  0.5319 -0.2106 -2.0472
 1306TIP3    H2 3862   2.268   6.535   4.547  0.4786 -1.2830 -2.1832
 1307TIP3   OH2 3863   0.928   0.864   5.620  0.1262  0.0121 -0.0865
 1307TIP3    H1 3864   0.890   0.892   5.703  0.5958  0.3330  0.0217
 1307TIP3    H2 3865   0.905   0.935   5.559  0.1340 -0.0300 -0.1386
 1308TIP3   OH2 3866   4.160   7.305   5.351 -0.2296 -0.4109 -0.3975
 1308TIP3    H1 3867   4.153   7.376   5.414  0.9519  0.0512 -0.7528
 1308TIP3    H2 3868   4.254   7.289   5.343 -0.4563 -1.8226 -0.5371
 1309TIP3   OH2 3869   0.925   0.060   6.410  0.8346  0.0291 -0.2650
 1309TIP3    H1 3870   0.928   0.156   6.409 -0.5613  0.0963 -0.2386
 1309TIP3    H2 3871   1.007   0.033   6.369  0.7033  1.2455 -1.3985
 1310TIP3   OH2 3872   6.308   0.974   6.411 -0.4402 -0.1587  0.0324
 1310TIP3    H1 3873   6.324   1.040   6.343  1.2524  1.4492  1.8647
 1310TIP3    H2 3874   6.363   0.900   6.386 -0.3062  0.1737 -0.6792
 1311TIP3   OH2 3875   2.797   2.380   2.971  0.1828 -0.1495 -0.0505
 1311TIP3    H1 3876   2.765   2.470   2.961 -0.8250 -0.0744  2.9433
 1311TIP3    H2 3877   2.726   2.326   2.936 -0.1151  0.1666  0.0546
 1312TIP3   OH2 3878   4.341   4.083   6.596  0.0149 -0.0662  0.0761
 1312TIP3    H1 3879   4.320   4.039   6.514  0.4781 -0.2832  0.0667
 1312TIP3    H2 3880   4.329   4.176   6.578 -0.9788 -0.1829  0.0978
 1313TIP3   OH2 3881   6.749   7.341   3.089 -0.2348  0.6245  0.4612
 1313TIP3    H1 3882   6.739   7.282   3.015  2.3117 -0.4750  0.8975
 1313TIP3    H2 3883   6.686   7.310   3.153 -0.8744  0.1660 -0.3707
 1314TIP3   OH2 3884   6.160   2.743   4.695 -0.1462 -0.1940  0.5930
 1314TIP3    H1 3885   6.102   2.764   4.621  0.5207 -1.5910 -0.3821
 1314TIP3    H2 3886   6.201   2.826   4.718 -0.0459  0.2151 -0.9347
 1315TIP3   OH2 3887   5.722   6.030   0.671 -0.4040 -0.0021 -0.5658
 1315TIP3    H1 3888   5.639   6.039   0.718 -1.0157  2.0313 -1.8700
 1315TIP3    H2 3889   5.695   6.013   0.580  0.5635  1.2189 -1.1060
 1316TIP3   OH2 3890   5.573   4.748   4.506  0.0844  0.1484  0.3813
 1316TIP3    H1 3891   5.564   4.841   4.529 -0.9690 -0.0150  0.6347
 1316TIP3    H2 3892   5.489   4.709   4.529  1.1453 -1.2719  2.1299
 1317TIP3   OH2 3893   1.915   7.847   6.342 -0.2428 -0.2556 -0.1682
 1317TIP3    H1 3894   1.938   7.848   6.249 -1.0444 -0.3187 -0.3694
 1317TIP3    H2 3895   1.939   7.759   6.371  0.5164 -0.0635 -0.1743
 1318TIP3   OH2 3896   7.262   5.316   3.801 -0.1244  0.2999 -0.1413
 1318TIP3    H1 3897   7.322   5.375   3.756 -0.7801  1.6285  0.6630
 1318TIP3    H2 3898   7.309   5.288   3.879 -0.4313  1.1568  0.3689
 1319TIP3   OH2 3899   3.118   4.542   4.331  0.2979 -0.2269 -0.0352
 1319TIP3    H1 3900   3.109   4.536   4.236 -1.1371  0.2748  0.0536
 1319TIP3    H2 3901   3.209   4.517   4.348  0.8151  0.4867 -1.6091
 1320TIP3   OH2 3902   6.640   7.688   5.042 -0.7570 -0.4376 -0.2704
 1320TIP3    H1 3903   6.545   7.701   5.041 -0.7416 -0.3461 -0.5971
 1320TIP3    H2 3904   6.674   7.762   5.093 -0.7674  0.1524 -1.1121
 1321TIP3   OH2 3905   2.100   2.827   5.686 -0.2377 -0.0548  0.2734
 1321TIP3    H1 3906   2.013   2.861   5.664  0.6452  4.1456  2.2669
 1321TIP3    H2 3907   2.089   2.783   5.770 -0.5623 -0.4502  0.0299
 1322TIP3   OH2 3908   5.924   0.564   6.640 -0.5458  0.6467  0.4979
 1322TIP3    H1 3909   5.878   0.521   6.712 -1.4818  0.3703 -0.2551
 1322TIP3    H2 3910   5.892   0.654   6.641  1.1704  1.3149  1.8654
 1323TIP3   OH2 3911   0.411   2.839   0.459 -0.4901 -0.5654  0.6767
 1323TIP3    H1 3912   0.495   2.828   0.415 -0.5782  1.0106  0.0560
 1323TIP3    H2 3913   0.392   2.753   0.497  2.1691 -0.5669  2.2293
 1324TIP3   OH2 3914   3.671   2.782   2.602 -0.2773  0.2874  0.3244
 1324TIP3    H1 3915   3.587   2.787   2.647  0.2699 -0.7683  1.5238
 1324TIP3    H2 3916   3.715   2.864   2.624  0.0785 -0.3061  1.9803
 1325TIP3   OH2 3917   1.439   5.814   2.270  0.0566 -0.3109  0.1114
 1325TIP3    H1 3918   1.463   5.820   2.362  1.0274  1.4695 -0.2110
 1325TIP3    H2 3919   1.426   5.905   2.243 -1.2231 -0.8633 -1.2638
 1326TIP3   OH2 3920   0.303   1.597   3.112 -0.3882  0.1500 -0.0161
 1326TIP3    H1 3921   0.267   1.683   3.093 -0.3921 -0.0018 -0.7359
 1326TIP3    H2 3922   0.231   1.536   3.093  0.2151 -0.1588 -1.5252
 1327TIP3   OH2 3923   5.634   5.196   1.727  0.2938  0.3839 -0.2845
 1327TIP3    H1 3924   5.540   5.193   1.713  0.4237  0.0812 -1.1402
 1327TIP3    H2 3925   5.672   5.192   1.640  1.0795  2.3362 -0.0770
 1328TIP3   OH2 3926   0.103   5.185   6.074 -0.3158 -0.3824 -0.4131
 1328TIP3    H1 3927   0.169   5.116   6.068 -1.9636 -2.0495 -0.0062
 1328TIP3    H2 3928   0.082   5.191   6.167 -1.0392 -0.1702 -0.5829
 1329TIP3   OH2 3929   6.344   4.462   4.285  0.3061 -0.2263  0.3664
 1329TIP3    H1 3930   6.317   4.413   4.363 -1.8744 -0.8960 -0.7244
 1329TIP3    H2 3931   6.265   4.465   4.231  0.9597  2.6784 -0.5820
 1330TIP3   OH2 3932   4.712   2.740   1.659  0.0353  0.2159 -0.2443
 1330TIP3    H1 3933   4.808   2.736   1.663  0.0997  1.5803 -0.1846
 1330TIP3    H2 3934   4.693   2.822   1.615 -1.1265  0.5852  0.8964
 1331TIP3   OH2 3935   7.444   1.350   6.678 -0.3588 -0.0168 -0.2219
 1331TIP3    H1 3936   7.435   1.389   6.765 -1.7362  0.0214 -0.3615
 1331TIP3    H2 3937   7.367   1.380   6.630  1.3991  1.6755 -2.1542
 1332TIP3   OH2 3938   2.678   7.019   6.309 -0.2101 -0.3712 -0.1466
 1332TIP3    H1 3939   2.639   6.935   6.334 -1.0483  0.0833  0.0935
 1332TIP3    H2 3940   2.709   7.006   6.219 -0.4679 -0.8852 -0.1615
 1333TIP3   OH2 3941   0.701   1.307   6.073 -0.2875  0.6753  0.2985
 1333TIP3    H1 3942   0.725   1.391   6.034 -0.9078  0.9790  0.5590
 1333TIP3    H2 3943   0.666   1.330   6.159 -1.8371  0.2798 -0.2059
 1334TIP3   OH2 3944   4.549   7.109   4.188  0.4584  0.0182 -0.1176
 1334TIP3    H1 3945   4.495   7.105   4.108  1.3895 -2.6159 -0.6932
 1334TIP3    H2 3946   4.576   7.201   4.193 -0.5549  0.5049 -2.1834
 1335TIP3   OH2 3947   7.796   3.007   0.344 -0.2828  0.0928 -0.4838
 1335TIP3    H1 3948   7.873   3.013   0.401 -2.2041  0.8368  2.2585
 1335TIP3    H2 3949   7.776   3.098   0.320 -1.1253  0.0850  0.1134
 1336TIP3   OH2 3950   5.406   3.355   3.945  0.1651  0.1508 -0.2051
 1336TIP3    H1 3951   5.429   3.389   3.858  0.7529  0.6039  0.1197
 1336TIP3    H2 3952   5.400   3.433   4.001  1.9040 -0.2675  0.6361
 1337TIP3   OH2 3953   3.803   6.568   5.740  0.1135 -0.8554  0.0902
 1337TIP3    H1 3954   3.883   6.581   5.689 -0.5933 -0.8385 -1.0570
 1337TIP3    H2 3955   3.830   6.576   5.831  0.9442  1.8314 -0.3193
 1338TIP3   OH2 3956   1.365   0.189   2.690  0.5625 -0.4577  0.0571
 1338TIP3    H1 3957   1.276   0.167   2.717  0.5775 -1.3012 -0.5392
 1338TIP3    H2 3958   1.415   0.186   2.772  0.0218  0.1985  0.4252
 1339TIP3   OH2 3959   5.563   1.020   0.057  0.0831 -0.3578  0.3371
 1339TIP3    H1 3960   5.614   1.087   0.103  1.3796 -0.8372 -0.3491
 1339TIP3    H2 3961   5.551   0.950   0.122  0.5756 -0.3773  0.4095
 1340TIP3   OH2 3962   2.194   4.024   1.270  0.3899 -0.2671 -0.2021
 1340TIP3    H1 3963   2.274   3.971   1.264  1.2103  0.6557  1.6839
 1340TIP3    H2 3964   2.134   3.972   1.323  0.6932  0.0986  0.5096
 1341TIP3   OH2 3965   4.735   5.903   2.584 -0.3923 -0.6872  0.2221
 1341TIP3    H1 3966   4.676   5.888   2.658 -1.6552  1.6779 -0.2340
 1341TIP3    H2 3967   4.702   5.845   2.516 -0.6080 -1.2367  0.7795
 1342TIP3   OH2 3968   4.867   4.281   3.555 -0.2070  0.3056  0.2850
 1342TIP3    H1 3969   4.862   4.284   3.459  0.0832  0.2005  0.2633
 1342TIP3    H2 3970   4.952   4.319   3.576 -0.6132  1.0931  0.5570
 1343TIP3   OH2 3971   6.224   3.844   0.570 -0.1780 -0.2935 -0.4693
 1343TIP3    H1 3972   6.230   3.924   0.517 -0.4847 -0.3184 -0.5439
 1343TIP3    H2 3973   6.245   3.873   0.659  0.2709 -0.2381 -0.5914
 1344TIP3   OH2 3974   3.113   6.756   2.953  0.0061  0.4650 -0.2217
 1344TIP3    H1 3975   3.142   6.679   3.001  0.0488  0.8526  0.3854
 1344TIP3    H2 3976   3.193   6.807   2.939  0.7333 -1.3226 -3.9558
 1345TIP3   OH2 3977   0.718   7.436   5.417 -0.2332  0.4747  0.3395
 1345TIP3    H1 3978   0.794   7.463   5.366 -0.1510 -0.3096  0.0407
 1345TIP3    H2 3979   0.727   7.484   5.500  0.7098  0.2254  0.3933
 1346TIP3   OH2 3980   6.741   0.571   5.596 -0.0539 -0.5000 -0.5639
 1346TIP3    H1 3981   6.674   0.632   5.564  0.2728  0.9654  1.3944
 1346TIP3    H2 3982   6.824   0.615   5.578  0.3017 -1.2415 -0.8099
 1347TIP3   OH2 3983   3.130   3.170   0.846  0.2127  0.3162 -0.4316
 1347TIP3    H1 3984   3.135   3.169   0.942  0.6174  0.7631 -0.4455
 1347TIP3    H2 3985   3.038   3.191   0.827  0.2351  0.6841 -0.1409
 1348TIP3   OH2 3986   6.125   0.179   4.728 -0.3944  0.4801  0.4161
 1348TIP3    H1 3987   6.044   0.131   4.743  0.2620 -0.1847  1.9968
 1348TIP3    H2 3988   6.161   0.142   4.648 -1.1005  0.0282  0.3025
 1349TIP3   OH2 3989   7.098   1.148   0.234  0.6788  0.2513  0.0454
 1349TIP3    H1 3990   7.163   1.147   0.164  1.0275  0.5654  0.3653
 1349TIP3    H2 3991   7.048   1.228   0.219 -0.2246 -0.4325 -0.7309
 1350TIP3   OH2 3992   4.537   3.551   4.378 -0.3358 -0.4341  0.3462
 1350TIP3    H1 3993   4.532   3.466   4.421 -0.5794 -0.4396  0.3077
 1350TIP3    H2 3994   4.631   3.568   4.369 -0.2623 -0.1755  1.3870
 1351TIP3   OH2 3995   2.558   5.167   4.388  0.0966 -0.2803 -0.0024
 1351TIP3    H1 3996   2.571   5.129   4.301  2.1536  0.8145 -0.2392
 1351TIP3    H2 3997   2.540   5.259   4.372  0.4114 -0.0885  0.7149
 1352TIP3   OH2 3998   4.618   1.039   2.044 -0.2436  0.0201  0.3171
 1352TIP3    H1 3999   4.680   0.987   2.095 -1.0857  0.0216  1.3657
 1352TIP3    H2 4000   4.653   1.037   1.955  1.0741 -0.2534  0.8254
 1353TIP3   OH2 4001   1.496   1.252   5.010 -0.7494  0.0256 -0.2438
 1353TIP3    H1 4002   1.582   1.246   4.968 -1.2206  0.0278 -1.2444
 1353TIP3    H2 4003   1.441   1.193   4.959 -0.5077 -3.0611  2.6996
 1354TIP3   OH2 4004   0.334   2.206   2.599 -0.2379 -0.3069  0.2551
 1354TIP3    H1 4005   0.382   2.123   2.602  0.5464  0.1392  0.1844
 1354TIP3    H2 4006   0.402   2.273   2.606 -0.9355  0.3238  1.1039
 1355TIP3   OH2 4007   1.633   0.623   0.225  0.2421  0.2526  0.6542
 1355TIP3    H1 4008   1.632   0.665   0.311  0.0183  0.6371  0.4671
 1355TIP3    H2 4009   1.540   0.609   0.205  0.1087  2.6230 -0.7051
 1356TIP3   OH2 4010   2.631   7.406   6.782  0.4104 -0.0511 -0.2074
 1356TIP3    H1 4011   2.591   7.491   6.800  0.8981  0.3360 -0.9122
 1356TIP3    H2 4012   2.606   7.386   6.692 -1.3803 -1.6126  0.5537
 1357TIP3   OH2 4013   1.836   6.317   1.321 -0.1251 -0.0683 -0.1466
 1357TIP3    H1 4014   1.813   6.250   1.258  1.1224 -0.0547 -0.6530
 1357TIP3    H2 4015   1.791   6.396   1.291 -3.1943 -1.0428  1.5379
 1358TIP3   OH2 4016   4.750   5.765   6.454  0.2844  0.1735 -0.1072
 1358TIP3    H1 4017   4.803   5.762   6.534  0.4574 -0.2136 -0.2343
 1358TIP3    H2 4018   4.768   5.851   6.417  0.3270  0.2925  0.1878
 1359TIP3   OH2 4019   2.948   0.168   3.336  0.7660 -0.1433  0.1091
 1359TIP3    H1 4020   2.915   0.258   3.334 -0.2675 -0.4950  0.4142
 1359TIP3    H2 4021   2.869   0.114   3.330  1.2946 -1.0315  0.8829
 1360TIP3   OH2 4022   3.529   7.645   6.537  0.1800 -0.4315  0.5314
 1360TIP3    H1 4023   3.616   7.664   6.572  0.3666 -0.5061  0.1013
 1360TIP3    H2 4024   3.543   7.620   6.446 -0.5105  1.9602 -0.3149
 1361TIP3   OH2 4025   2.880   7.123   1.561 -0.4144  0.3633  0.6262
 1361TIP3    H1 4026   2.823   7.179   1.614 -0.3129 -0.0450  1.1653
 1361TIP3    H2 4027   2.945   7.183   1.524  0.9363  0.3480  2.8083
 1362TIP3   OH2 4028   3.228   3.437   1.689  0.2537  0.4111 -0.1725
 1362TIP3    H1 4029   3.307   3.434   1.743  0.0837  1.3162  0.1357
 1362TIP3    H2 4030   3.158   3.408   1.748  0.3668 -0.5977 -0.5046
 1363TIP3   OH2 4031   1.688   2.279   5.937 -0.0180  0.0451  0.3129
 1363TIP3    H1 4032   1.636   2.210   5.978 -0.2738  0.0497  0.0012
 1363TIP3    H2 4033   1.634   2.357   5.943 -0.9740 -0.3788 -1.8465
 1364TIP3   OH2 4034   6.436   6.884   4.474 -0.4546 -0.4900  0.6581
 1364TIP3    H1 4035   6.407   6.793   4.467 -1.4547 -0.1236 -0.1939
 1364TIP3    H2 4036   6.356   6.934   4.485 -0.2423  0.5814 -2.0287
 1365TIP3   OH2 4037   7.780   2.754   2.432 -0.6128  0.3541 -0.9355
 1365TIP3    H1 4038   7.831   2.823   2.389  0.1128  0.5153  0.1281
 1365TIP3    H2 4039   7.710   2.802   2.478  0.3535  0.4851  0.4450
 1366TIP3   OH2 4040   6.658   7.072   4.867 -0.0294 -0.0241 -0.5576
 1366TIP3    H1 4041   6.691   7.118   4.790  0.1826 -1.4016 -1.3222
 1366TIP3    H2 4042   6.668   7.134   4.939 -0.3103  1.3297 -1.6438
 1367TIP3   OH2 4043   0.788   0.352   2.776 -0.3499 -0.5530  0.2037
 1367TIP3    H1 4044   0.835   0.392   2.849 -0.2967 -0.0469 -0.1019
 1367TIP3    H2 4045   0.825   0.264   2.768  0.3645 -0.2494  0.1303
 1368TIP3   OH2 4046   1.124   3.437   1.034 -0.3925 -0.7759  0.4845
 1368TIP3    H1 4047   1.114   3.372   0.964  1.1637 -1.2557  0.6781
 1368TIP3    H2 4048   1.197   3.492   1.005 -2.3690  1.6405 -0.2159
 1369TIP3   OH2 4049   7.432   2.986   5.325  0.0185 -0.3793 -0.1347
 1369TIP3    H1 4050   7.443   3.069   5.278 -0.9216 -1.1056 -1.7563
 1369TIP3    H2 4051   7.374   2.935   5.268 -1.5671 -1.1795  2.0573
 1370TIP3   OH2 4052   2.407   3.341   4.661 -0.2142  0.5054 -0.1268
 1370TIP3    H1 4053   2.321   3.299   4.661  0.1126 -0.1798  0.8575
 1370TIP3    H2 4054   2.469   3.270   4.678  0.6416  0.8503 -1.5784
 1371TIP3   OH2 4055   3.494   4.247   0.380  0.1355 -0.5381 -0.1980
 1371TIP3    H1 4056   3.512   4.270   0.471  1.4691  0.0667 -0.5919
 1371TIP3    H2 4057   3.422   4.304   0.354  1.1947  0.8766 -0.1533
 1372TIP3   OH2 4058   3.089   2.107   0.747 -0.1085 -0.6298  1.1136
 1372TIP3    H1 4059   3.124   2.019   0.759 -0.7908 -1.1252 -0.3127
 1372TIP3    H2 4060   3.163   2.165   0.765  0.8254 -1.5561  0.3968
 1373TIP3   OH2 4061   8.180   2.677   4.970 -0.5780  0.5674 -0.5174
 1373TIP3    H1 4062   8.084   2.674   4.976 -0.5628  1.7869  0.9376
 1373TIP3    H2 4063   8.198   2.741   4.902 -0.7792 -0.0502 -1.1647
 1374TIP3   OH2 4064   5.941   7.760   0.561  0.4390 -1.0423 -0.1054
 1374TIP3    H1 4065   5.979   7.846   0.573 -1.0560 -0.2578 -0.6485
 1374TIP3    H2 4066   5.973   7.708   0.635  1.1412  0.0545  0.3795
 1375TIP3   OH2 4067   2.662   4.162   1.280 -0.0538 -0.0660  0.4782
 1375TIP3    H1 4068   2.643   4.233   1.342  0.9000  2.0386 -1.4780
 1375TIP3    H2 4069   2.756   4.149   1.287 -0.3435 -1.9678  1.5536
 1376TIP3   OH2 4070   4.089   0.787   0.775  0.3055 -0.4341  0.3778
 1376TIP3    H1 4071   4.044   0.860   0.816  1.8318  1.7891 -1.5966
 1376TIP3    H2 4072   4.161   0.766   0.834 -0.2540 -0.4823  1.0492
 1377TIP3   OH2 4073   4.595   2.136   6.010 -0.3727 -0.0771  0.0640
 1377TIP3    H1 4074   4.665   2.077   5.982 -0.2897  0.0539 -0.0003
 1377TIP3    H2 4075   4.589   2.201   5.941 -0.8000 -0.2935 -0.1073
 1378TIP3   OH2 4076   7.702   2.269   3.658 -0.5383 -0.5371  0.0466
 1378TIP3    H1 4077   7.716   2.248   3.750  0.6783  1.1029  0.2748
 1378TIP3    H2 4078   7.609   2.253   3.644 -0.7184 -0.9384  1.5309
 1379TIP3   OH2 4079   8.131   0.819   0.664  0.1214  0.1544 -0.1056
 1379TIP3    H1 4080   8.162   0.851   0.580  1.6475 -0.2904  0.2593
 1379TIP3    H2 4081   8.112   0.726   0.648  1.3149 -0.1633  0.2507
 1380TIP3   OH2 4082   5.442   5.900   1.773 -0.0443 -0.6132 -0.7909
 1380TIP3    H1 4083   5.386   5.833   1.813  1.2483 -1.4461 -0.3247
 1380TIP3    H2 4084   5.384   5.944   1.710 -1.7999 -0.0749  1.0796
 1381TIP3   OH2 4085   0.825   1.084   4.317 -0.6111 -0.5871 -0.0836
 1381TIP3    H1 4086   0.878   1.147   4.366  0.4543 -2.4426  1.2656
 1381TIP3    H2 4087   0.763   1.051   4.382 -0.8096 -1.3130 -0.6386
 1382TIP3   OH2 4088   2.865   5.348   0.140  0.0883 -0.3687 -0.2286
 1382TIP3    H1 4089   2.800   5.416   0.162  0.1207  0.2489 -1.8825
 1382TIP3    H2 4090   2.823   5.297   0.071  1.1695 -0.2387 -1.0032
 1383TIP3   OH2 4091   2.931   4.679   6.167 -1.1158  0.3765  0.1837
 1383TIP3    H1 4092   2.841   4.649   6.152 -1.2982  0.7619  0.4760
 1383TIP3    H2 4093   2.959   4.632   6.246 -1.1650  0.4640  0.2548
 1384TIP3   OH2 4094   5.404   0.107   3.968  0.3427 -0.4809  0.0937
 1384TIP3    H1 4095   5.496   0.083   3.955  0.2001 -0.3767 -1.3308
 1384TIP3    H2 4096   5.381   0.155   3.888 -1.2169 -1.3204  0.0077
 1385TIP3   OH2 4097   3.414   2.520   6.257  0.0527  0.7298 -0.5830
 1385TIP3    H1 4098   3.500   2.557   6.240  1.1804 -1.4419  0.0847
 1385TIP3    H2 4099   3.391   2.474   6.177  1.1743 -1.6561  0.3741
 1386TIP3   OH2 4100   5.928  -0.019   2.789  0.0768  0.1404  0.0169
 1386TIP3    H1 4101   6.006   0.020   2.828 -0.2051  0.8168 -0.0731
 1386TIP3    H2 4102   5.931   0.008   2.697 -1.5703  2.3815  0.5375
 1387TIP3   OH2 4103   3.832   5.993   6.414  0.1682  0.3532  0.2306
 1387TIP3    H1 4104   3.795   6.017   6.499  0.4009  0.6009  0.2610
 1387TIP3    H2 4105   3.878   5.911   6.431  0.9796  0.8699  0.5435
 1388TIP3   OH2 4106   1.152   2.520   1.059 -0.0569 -0.1381 -0.0618
 1388TIP3    H1 4107   1.077   2.562   1.102 -0.8022 -1.3629 -0.1280
 1388TIP3    H2 4108   1.138   2.426   1.071  0.9806 -0.4251 -0.8987
 1389TIP3   OH2 4109   4.055   7.711   4.571  0.0363 -0.2562 -0.7567
 1389TIP3    H1 4110   4.127   7.651   4.551 -0.4255 -0.4592 -1.8683
 1389TIP3    H2 4111   3.990   7.695   4.502 -1.0284  0.0083  0.1468
 1390TIP3   OH2 4112   1.215   5.422   0.936 -0.3657  0.6006  0.0265
 1390TIP3    H1 4113   1.182   5.332   0.937  2.8357 -0.7276  2.1857
 1390TIP3    H2 4114   1.146   5.474   0.975 -1.1905 -1.4383  1.4438
 1391TIP3   OH2 4115   3.524   7.821   1.702 -0.2032 -0.0297  0.5296
 1391TIP3    H1 4116   3.546   7.734   1.734 -0.7143  0.2777  1.7987
 1391TIP3    H2 4117   3.603   7.852   1.658 -0.0874 -1.2060 -0.1232
 1392TIP3   OH2 4118   7.143   6.216   3.243  0.3146  0.5283 -0.0101
 1392TIP3    H1 4119   7.179   6.129   3.227 -0.1029  0.3969 -0.2696
 1392TIP3    H2 4120   7.051   6.199   3.265  0.6958  0.7549  1.9100
 1393TIP3   OH2 4121   5.754   3.063   3.677 -0.0896  0.1011 -0.4521
 1393TIP3    H1 4122   5.818   3.054   3.606  2.5548  2.5751  1.3995
 1393TIP3    H2 4123   5.770   2.987   3.733  2.0178  1.1077  0.4398
 1394TIP3   OH2 4124   4.442   1.535   1.052 -0.7043 -0.5475 -0.3379
 1394TIP3    H1 4125   4.532   1.558   1.030 -0.8788  1.4418  0.7742
 1394TIP3    H2 4126   4.388   1.579   0.986 -1.0060  1.8445  1.3736
 1395TIP3   OH2 4127   4.966   0.124   6.542 -0.0432  0.0413  0.1223
 1395TIP3    H1 4128   4.909   0.184   6.494 -1.4741 -0.8920  0.5781
 1395TIP3    H2 4129   5.053   0.163   6.535 -0.1053 -0.0743 -3.3321
 1396TIP3   OH2 4130   4.847   4.624   5.840  0.7990  0.2457 -0.4662
 1396TIP3    H1 4131   4.879   4.683   5.771  0.8954  0.7414 -0.0038
 1396TIP3    H2 4132   4.800   4.556   5.792 -0.8786  1.6449 -0.9428
 1397TIP3   OH2 4133   5.687   3.646   5.038 -0.1851 -0.3997  0.3118
 1397TIP3    H1 4134   5.641   3.688   5.110  0.1568 -0.2499  0.4484
 1397TIP3    H2 4135   5.665   3.699   4.961 -0.7580 -0.7147  0.2599
 1398TIP3   OH2 4136   0.082   2.196   0.009 -0.0932  0.0016  0.0196
 1398TIP3    H1 4137   0.011   2.182  -0.053  0.8012  0.7976 -1.2293
 1398TIP3    H2 4138   0.055   2.149   0.088 -0.1180 -3.2062 -1.7704
 1399TIP3   OH2 4139   1.915   3.261   2.854  0.0962 -0.3314  0.0874
 1399TIP3    H1 4140   1.997   3.247   2.807 -0.0860  0.6396 -0.5460
 1399TIP3    H2 4141   1.903   3.181   2.905  0.0245 -1.6820 -1.9194
 1400TIP3   OH2 4142   0.233   3.159   4.058  0.1808 -0.1193 -0.1484
 1400TIP3    H1 4143   0.266   3.133   4.144 -1.8840  0.3635  0.8704
 1400TIP3    H2 4144   0.167   3.225   4.077 -1.1567 -0.8182 -2.0124
 1401TIP3   OH2 4145   3.402   5.247   0.497  0.2812 -0.3844  0.2110
 1401TIP3    H1 4146   3.372   5.172   0.548 -1.6555 -1.7966 -2.6782
 1401TIP3    H2 4147   3.346   5.320   0.526 -1.3688 -1.3553 -0.3635
 1402TIP3   OH2 4148   5.258   6.583   6.554  0.0802 -0.1774 -0.6050
 1402TIP3    H1 4149   5.322   6.594   6.624 -2.1674 -3.0479  2.2170
 1402TIP3    H2 4150   5.272   6.494   6.522 -0.4509  0.2882 -2.2396
 1403TIP3   OH2 4151   7.768   4.967   4.022  0.7246 -0.1641  0.2362
 1403TIP3    H1 4152   7.777   4.872   4.028  2.3586 -0.0049  1.0817
 1403TIP3    H2 4153   7.741   4.994   4.110  0.9648  0.2065  0.1989
 1404TIP3   OH2 4154   5.081   1.306   0.474  0.3607  0.2812 -0.0540
 1404TIP3    H1 4155   5.040   1.226   0.442  1.1898 -0.6616  1.1356
 1404TIP3    H2 4156   5.011   1.351   0.522  0.2849 -0.5679  0.6691
 1405TIP3   OH2 4157   1.213   4.815   4.143  0.4040 -0.8518 -0.3091
 1405TIP3    H1 4158   1.297   4.778   4.169  0.5305  0.2221  0.8586
 1405TIP3    H2 4159   1.232   4.869   4.066  1.0672  0.5387  0.7938
 1406TIP3   OH2 4160   6.174   6.556   4.297  0.3944 -0.0944  0.2465
 1406TIP3    H1 4161   6.165   6.509   4.380  0.0761  0.7077  0.6822
 1406TIP3    H2 4162   6.255   6.607   4.307  0.8615 -0.7086 -0.3108
 1407TIP3   OH2 4163   1.103   3.428   6.502 -0.0530 -0.7607 -0.1990
 1407TIP3    H1 4164   1.078   3.342   6.535  0.3616 -0.8812 -0.1961
 1407TIP3    H2 4165   1.122   3.414   6.409 -1.9235 -0.2848 -0.6990
 1408TIP3   OH2 4166   1.782   7.337   0.689 -0.0961 -0.6149  0.7316
 1408TIP3    H1 4167   1.871   7.327   0.724 -0.2542 -1.6794  0.8513
 1408TIP3    H2 4168   1.756   7.425   0.715  0.9899 -0.2227  0.5474
 1409TIP3   OH2 4169   5.079   4.780   4.540  0.3739 -0.2239  0.1871
 1409TIP3    H1 4170   5.014   4.848   4.522  1.6064  0.5329 -1.7019
 1409TIP3    H2 4171   5.063   4.713   4.472 -0.4885 -1.6353  1.7050
 1410TIP3   OH2 4172   0.712   4.255   6.297  0.1637  0.0529 -0.0562
 1410TIP3    H1 4173   0.684   4.190   6.233 -2.6628  1.0716 -0.0015
 1410TIP3    H2 4174   0.732   4.205   6.376 -0.1493 -0.8947 -0.5681
 1411TIP3   OH2 4175   4.600   2.953   1.548  0.7452 -0.0845  0.7811
 1411TIP3    H1 4176   4.662   3.016   1.510  0.5010  0.2170  0.8767
 1411TIP3    H2 4177   4.558   2.912   1.473  0.3648  0.4093  0.7181
 1412TIP3   OH2 4178   2.203   6.787   5.217  0.7947  0.3327 -0.2934
 1412TIP3    H1 4179   2.158   6.708   5.188  2.0550 -1.2893  1.8277
 1412TIP3    H2 4180   2.133   6.844   5.249 -0.1121 -0.1222 -1.4172
 1413TIP3   OH2 4181   6.609   5.952   5.819  0.0520  0.0130  0.0212
 1413TIP3    H1 4182   6.626   5.881   5.882 -0.3192 -0.1068 -0.0080
 1413TIP3    H2 4183   6.543   6.006   5.863  1.7456  1.4621  0.8942
 1414TIP3   OH2 4184   2.981   2.769   6.390  0.5487  0.2458  0.0185
 1414TIP3    H1 4185   2.942   2.736   6.471  0.2243 -1.0290 -0.6231
 1414TIP3    H2 4186   2.947   2.858   6.382 -0.9725 -0.2654  0.3149
 1415TIP3   OH2 4187   5.348   7.796   1.176 -0.0012 -0.4939  0.4407
 1415TIP3    H1 4188   5.437   7.809   1.142  0.1794 -1.9632  0.2799
 1415TIP3    H2 4189   5.355   7.716   1.229 -1.2140 -0.5647  0.5073
 1416TIP3   OH2 4190   2.571   3.785   1.866 -0.5376  0.0180 -0.0436
 1416TIP3    H1 4191   2.649   3.804   1.918 -0.2015  2.0238 -1.1939
 1416TIP3    H2 4192   2.498   3.796   1.927 -0.0351 -0.0928  0.5859
 1417TIP3   OH2 4193   2.962   6.549   2.154  0.3358  0.1485 -0.1252
 1417TIP3    H1 4194   2.921   6.633   2.134  1.0308  0.3498 -0.7266
 1417TIP3    H2 4195   2.899   6.505   2.211 -0.7657  0.4211 -1.0814
 1418TIP3   OH2 4196   7.868   7.064   4.251 -0.5014 -0.2119  0.6908
 1418TIP3    H1 4197   7.777   7.066   4.220 -0.5927  0.6099  0.9899
 1418TIP3    H2 4198   7.877   7.142   4.306  0.8293  0.6268 -0.6267
 1419TIP3   OH2 4199   3.206   5.307   1.427 -0.2541  0.1484 -0.2611
 1419TIP3    H1 4200   3.279   5.262   1.470 -1.1646 -0.8135  0.3077
 1419TIP3    H2 4201   3.212   5.280   1.335  1.2579  1.6371 -0.6672
 1420TIP3   OH2 4202   2.744   4.828   1.027  0.5750  0.5000  0.0548
 1420TIP3    H1 4203   2.744   4.804   0.934  0.9727 -1.8588  0.6002
 1420TIP3    H2 4204   2.662   4.875   1.040  0.4729  0.7811 -1.4459
 1421TIP3   OH2 4205   7.121   7.592   1.544  0.1315 -0.4142  0.1816
 1421TIP3    H1 4206   7.065   7.533   1.494 -1.9834  1.2178  0.4554
 1421TIP3    H2 4207   7.063   7.629   1.611  1.7131  0.9029  0.9007
 1422TIP3   OH2 4208   0.441   2.344   1.638  0.6665  0.3012  0.0986
 1422TIP3    H1 4209   0.518   2.332   1.693  1.3355  1.6237 -0.5061
 1422TIP3    H2 4210   0.395   2.419   1.675 -0.3382 -0.4430  0.4235
 1423TIP3   OH2 4211   7.279   1.335   4.545 -0.5407 -0.8658 -0.1607
 1423TIP3    H1 4212   7.206   1.391   4.517  0.2980  0.8974  0.9943
 1423TIP3    H2 4213   7.357   1.382   4.516  0.1901 -2.3843 -0.7741
 1424TIP3   OH2 4214   5.983   6.012   5.569  0.1761  0.2968 -0.8981
 1424TIP3    H1 4215   6.033   6.009   5.488  0.7209 -1.4566 -0.5442
 1424TIP3    H2 4216   5.995   5.926   5.608 -1.8798  0.3345 -0.0267
 1425TIP3   OH2 4217   5.966   7.790   0.912  0.0164  0.0499 -0.1720
 1425TIP3    H1 4218   6.056   7.757   0.914  0.6940  1.8327  0.2382
 1425TIP3    H2 4219   5.913   7.713   0.893  1.5380 -1.2214  0.5240
 1426TIP3   OH2 4220   2.586   5.375   2.171  0.2370  0.1502 -0.0797
 1426TIP3    H1 4221   2.514   5.429   2.201  0.6439  1.0507 -0.6597
 1426TIP3    H2 4222   2.558   5.343   2.085  0.3612  0.1612 -0.1242
 1427TIP3   OH2 4223   5.510   2.228   1.894 -0.3236  0.4095 -1.0860
 1427TIP3    H1 4224   5.537   2.301   1.950  0.8350  0.9704 -2.3012
 1427TIP3    H2 4225   5.517   2.263   1.805 -2.9001 -0.1886 -1.5922
 1428TIP3   OH2 4226   2.689   0.597   4.291  0.3110 -0.2540 -0.1351
 1428TIP3    H1 4227   2.706   0.632   4.378  3.6126 -1.4381 -0.1596
 1428TIP3    H2 4228   2.663   0.673   4.239 -0.0637  0.7591  1.4671
 1429TIP3   OH2 4229   5.030   6.386   5.853  0.3069  0.6725 -0.1019
 1429TIP3    H1 4230   5.088   6.316   5.883 -1.6711 -0.0835  2.2111
 1429TIP3    H2 4231   4.942   6.350   5.861 -0.6111  1.9304 -3.1148
 1430TIP3   OH2 4232   2.998   4.704   1.744  0.2245 -0.6370 -0.1733
 1430TIP3    H1 4233   3.003   4.613   1.716 -0.6047 -0.4423 -1.0078
 1430TIP3    H2 4234   2.913   4.712   1.786  0.3809 -0.2972  0.0843
 1431TIP3   OH2 4235   7.887   7.622   2.631  0.1422 -0.6194 -0.3039
 1431TIP3    H1 4236   7.946   7.582   2.567  0.8563 -0.3350  0.1630
 1431TIP3    H2 4237   7.941   7.686   2.676 -1.2605  1.7638 -1.8254
 1432TIP3   OH2 4238   7.410   3.664   2.130  0.1598  0.0373  0.0241
 1432TIP3    H1 4239   7.476   3.704   2.075 -0.3133  0.2361 -0.4079
 1432TIP3    H2 4240   7.334   3.653   2.072 -0.7170  1.2304  0.8987
 1433TIP3   OH2 4241   2.104   6.732   4.503  0.3222  0.3275  0.4964
 1433TIP3    H1 4242   2.137   6.767   4.585  1.8171  1.1081 -0.3936
 1433TIP3    H2 4243   2.163   6.767   4.436  0.4197 -1.9353 -0.7171
 1434TIP3   OH2 4244   3.110   6.327   4.225 -0.1166 -0.1231  0.3498
 1434TIP3    H1 4245   3.095   6.421   4.238 -1.0462 -0.1660 -0.3219
 1434TIP3    H2 4246   3.077   6.287   4.306  1.1800  0.1826  1.0608
 1435TIP3   OH2 4247   7.884   5.350   2.620 -0.1812 -0.2027  0.2671
 1435TIP3    H1 4248   7.823   5.335   2.692 -0.0887 -1.5346  0.0774
 1435TIP3    H2 4249   7.971   5.336   2.657 -0.0385  0.5669  0.2498
 1436TIP3   OH2 4250   7.771   2.144   4.669  0.0086 -0.3957  0.5823
 1436TIP3    H1 4251   7.844   2.207   4.670 -0.0063 -0.2927 -1.2875
 1436TIP3    H2 4252   7.720   2.168   4.592 -0.2324 -2.4297  0.0496
 1437TIP3   OH2 4253   5.405   0.147   2.519 -0.2128 -0.2688  0.4710
 1437TIP3    H1 4254   5.470   0.146   2.589  0.5063  1.4620 -0.0919
 1437TIP3    H2 4255   5.444   0.203   2.452 -0.1297 -3.1580 -2.0798
 1438TIP3   OH2 4256   2.849   1.891   2.682 -0.5657  0.6979 -0.0640
 1438TIP3    H1 4257   2.900   1.863   2.757  0.5871  1.3073 -0.5868
 1438TIP3    H2 4258   2.858   1.987   2.681 -1.7454  0.8267 -0.1612
 1439TIP3   OH2 4259   2.856   0.330   0.107 -0.4141 -0.3038 -0.6760
 1439TIP3    H1 4260   2.947   0.304   0.114 -0.4395 -0.1451  0.4291
 1439TIP3    H2 4261   2.856   0.424   0.124 -0.8788 -0.4790  0.4245
 1440TIP3   OH2 4262   8.077   6.488   3.283 -0.2205 -0.4142  0.0309
 1440TIP3    H1 4263   8.113   6.406   3.247  0.8499 -0.2356  0.6732
 1440TIP3    H2 4264   8.038   6.532   3.207  1.3838 -0.3705 -0.8059
 1441TIP3   OH2 4265   5.789   1.628   0.686  0.0305  0.8614 -0.6411
 1441TIP3    H1 4266   5.833   1.543   0.675 -0.0462  0.4869  1.4460
 1441TIP3    H2 4267   5.852   1.680   0.736 -0.9429  1.1406  0.3054
 1442TIP3   OH2 4268   5.344   4.123   3.091 -0.1657 -0.0829  0.0115
 1442TIP3    H1 4269   5.259   4.156   3.121 -0.2738 -1.0472  0.8004
 1442TIP3    H2 4270   5.344   4.139   2.996 -1.8360 -1.3494 -0.2451
 1443TIP3   OH2 4271   0.981   7.082   5.825 -0.2237  0.1743 -0.1293
 1443TIP3    H1 4272   1.074   7.068   5.812 -0.3132 -1.1464  0.4745
 1443TIP3    H2 4273   0.973   7.107   5.917 -0.4414  0.5078 -0.2381
 1444TIP3   OH2 4274   2.907   4.163   4.472 -0.4425 -0.2422 -0.4771
 1444TIP3    H1 4275   2.952   4.090   4.429 -0.0658  0.2559 -0.9321
 1444TIP3    H2 4276   2.849   4.198   4.405 -1.6885 -1.0009  0.1574
 1445TIP3   OH2 4277   0.898   2.164   2.188  0.6458  0.1014 -0.4860
 1445TIP3    H1 4278   0.925   2.074   2.207  0.0219 -0.0807 -0.4395
 1445TIP3    H2 4279   0.825   2.155   2.127  1.1064  0.6107 -1.1262
 1446TIP3   OH2 4280   3.304   5.901   2.670 -0.0535 -0.1434 -0.3582
 1446TIP3    H1 4281   3.337   5.863   2.751 -1.5687 -0.5430  0.1060
 1446TIP3    H2 4282   3.238   5.964   2.697 -0.4495 -0.1421 -1.2646
 1447TIP3   OH2 4283   7.198   6.992   0.088  0.7088 -0.0220 -0.1552
 1447TIP3    H1 4284   7.267   7.053   0.114 -2.0970  2.5237  1.9459
 1447TIP3    H2 4285   7.190   6.932   0.163  2.4324 -2.2084 -1.5938
 1448TIP3   OH2 4286   3.573   0.981   3.901 -0.5239 -0.3626 -0.5795
 1448TIP3    H1 4287   3.573   0.983   3.997  1.1729  0.3068 -0.5587
 1448TIP3    H2 4288   3.609   1.066   3.875 -1.6098 -0.2544 -1.8480
 1449TIP3   OH2 4289   1.870   0.654   2.803 -0.2564 -0.1093 -0.6218
 1449TIP3    H1 4290   1.821   0.693   2.875 -0.0555 -0.1850 -0.4441
 1449TIP3    H2 4291   1.803   0.611   2.750 -0.3836 -0.2064 -0.3838
 1450TIP3   OH2 4292   7.581   4.829   0.820  0.0443  0.0006 -0.3900
 1450TIP3    H1 4293   7.624   4.898   0.869 -0.7944  0.5888 -0.4692
 1450TIP3    H2 4294   7.653   4.778   0.782  0.6701  0.6362 -0.0763
 1451TIP3   OH2 4295   4.108   7.061   2.604  0.5057 -0.3050  0.2787
 1451TIP3    H1 4296   4.115   7.031   2.514  0.2487  0.1261  0.1090
 1451TIP3    H2 4297   4.120   6.983   2.657 -1.3750 -0.9481 -0.1592
 1452TIP3   OH2 4298   2.188   4.503   6.607 -0.3094  0.5053  0.1645
 1452TIP3    H1 4299   2.252   4.472   6.543 -0.7350  0.9176 -0.4715
 1452TIP3    H2 4300   2.146   4.423   6.640  1.4556  0.1119  1.6096
 1453TIP3   OH2 4301   7.667   4.837   5.285 -0.8184  0.9253  0.9172
 1453TIP3    H1 4302   7.677   4.745   5.259 -0.0348  0.8735  1.3775
 1453TIP3    H2 4303   7.756   4.865   5.308 -0.9181  2.0471 -0.0073
 1454TIP3   OH2 4304   1.664   6.528   0.284 -0.5126 -0.2972 -0.0914
 1454TIP3    H1 4305   1.738   6.498   0.231 -0.2653  0.9016 -0.4556
 1454TIP3    H2 4306   1.634   6.608   0.240 -0.2641  0.7762  1.6244
 1455TIP3   OH2 4307   7.840   0.860   4.725 -0.0699  0.4330  0.9794
 1455TIP3    H1 4308   7.839   0.941   4.777 -0.3623  1.6723 -0.8717
 1455TIP3    H2 4309   7.924   0.862   4.679 -0.9600  0.8036 -0.7012
 1456TIP3   OH2 4310   5.126   7.595   3.415 -0.0625  0.2147 -0.5726
 1456TIP3    H1 4311   5.209   7.600   3.367  1.0159  0.4986  1.2260
 1456TIP3    H2 4312   5.126   7.673   3.471  0.6804 -1.9562  2.7896
 1457TIP3   OH2 4313   7.338   4.403   1.695  0.3513  0.0890 -0.1612
 1457TIP3    H1 4314   7.367   4.493   1.707 -0.4815  0.4377 -0.6597
 1457TIP3    H2 4315   7.280   4.406   1.619  1.5694 -1.1589 -1.1867
 1458TIP3   OH2 4316   2.375   1.573   6.310  0.0793 -0.3229 -0.0735
 1458TIP3    H1 4317   2.311   1.504   6.293 -0.4672  0.1578  0.0121
 1458TIP3    H2 4318   2.449   1.552   6.253 -0.8746  0.0895 -1.5220
 1459TIP3   OH2 4319   0.573   0.688   2.310 -0.1033 -0.4490  0.1329
 1459TIP3    H1 4320   0.586   0.597   2.281  1.5268 -0.4788  0.8154
 1459TIP3    H2 4321   0.655   0.731   2.288  0.4059  0.0505  2.6603
 1460TIP3   OH2 4322   0.618   3.391   3.313  0.0233  0.2251 -0.3124
 1460TIP3    H1 4323   0.541   3.353   3.272  1.3235 -2.7393 -0.2519
 1460TIP3    H2 4324   0.681   3.400   3.241  1.3208 -2.3054  0.3886
 1461TIP3   OH2 4325   4.940   6.844   3.617  0.1591 -0.1472 -0.2848
 1461TIP3    H1 4326   4.931   6.937   3.641 -2.3823 -0.1367 -1.0128
 1461TIP3    H2 4327   5.013   6.842   3.555 -0.3505  1.5383 -1.0057
 1462TIP3   OH2 4328   3.194   4.956   6.116 -0.7972  0.5886  0.1021
 1462TIP3    H1 4329   3.099   4.950   6.106 -0.9677  2.0309  0.6987
 1462TIP3    H2 4330   3.208   4.982   6.207  0.3328 -2.5073  0.9548
 1463TIP3   OH2 4331   4.719   5.003   4.469 -0.1593  0.3564  0.1121
 1463TIP3    H1 4332   4.717   5.079   4.528  0.8047  0.2157  0.3330
 1463TIP3    H2 4333   4.627   4.988   4.447 -0.4319  1.0949  0.7016
 1464TIP3   OH2 4334   1.399  -0.021   1.612 -0.5572  0.4588  0.0381
 1464TIP3    H1 4335   1.422   0.069   1.590 -0.0720  0.6159  1.0966
 1464TIP3    H2 4336   1.309  -0.032   1.581 -0.6990  1.3820  0.1088
 1465TIP3   OH2 4337   0.383   5.398   4.845 -0.1457  0.3957  0.3746
 1465TIP3    H1 4338   0.418   5.482   4.818 -0.4791  0.3524 -0.2273
 1465TIP3    H2 4339   0.460   5.341   4.851  0.3136  1.1557  2.5168
 1466TIP3   OH2 4340   1.837   4.900   2.005  0.6196 -0.0320  0.3813
 1466TIP3    H1 4341   1.894   4.824   2.002 -0.3276 -0.8407  1.6622
 1466TIP3    H2 4342   1.782   4.892   1.927  1.7275  0.3530 -0.4567
 1467TIP3   OH2 4343   0.647   6.222   4.883 -0.1215  0.1332 -0.3301
 1467TIP3    H1 4344   0.653   6.159   4.954  0.0735  1.1210  0.5538
 1467TIP3    H2 4345   0.613   6.172   4.809 -1.6270 -0.6195  0.8272
 1468TIP3   OH2 4346   0.987   1.684   0.609  0.5392 -0.5622 -0.3995
 1468TIP3    H1 4347   1.045   1.759   0.597 -0.5952  0.7491  1.6262
 1468TIP3    H2 4348   0.967   1.654   0.520  3.6391 -0.6134 -1.1823
 1469TIP3   OH2 4349   6.045   2.080   5.453 -0.3462  0.0503  0.3409
 1469TIP3    H1 4350   6.107   2.134   5.404 -1.4503  1.3395  0.2805
 1469TIP3    H2 4351   5.984   2.144   5.491 -1.5637 -1.1512  0.4646
 1470TIP3   OH2 4352   5.391   6.683   2.808  0.3766 -0.2751 -0.2046
 1470TIP3    H1 4353   5.326   6.660   2.741  0.5604  1.7599 -1.1459
 1470TIP3    H2 4354   5.341   6.729   2.875  0.3891 -1.3122  0.5411
 1471TIP3   OH2 4355   4.406   1.404   4.784 -0.2172  0.1393 -0.7591
 1471TIP3    H1 4356   4.385   1.483   4.735  1.1282  1.6386  0.9572
 1471TIP3    H2 4357   4.433   1.341   4.717 -1.1831  1.1376 -2.1480
 1472TIP3   OH2 4358   5.644   5.768   6.714  0.4169 -0.0212  0.0753
 1472TIP3    H1 4359   5.689   5.712   6.776 -0.5152 -0.9116 -0.0308
 1472TIP3    H2 4360   5.684   5.748   6.629 -1.0606 -1.8327 -0.2445
 1473TIP3   OH2 4361   1.147   6.559   6.708  0.3258  0.1742 -0.3620
 1473TIP3    H1 4362   1.068   6.532   6.662  0.1373 -1.1347  0.6636
 1473TIP3    H2 4363   1.116   6.593   6.792  0.8395 -0.2977  0.0271
 1474TIP3   OH2 4364   7.361   5.633   0.396  0.9125  0.1156  0.4519
 1474TIP3    H1 4365   7.322   5.605   0.313  0.1238  0.3932  0.7140
 1474TIP3    H2 4366   7.378   5.551   0.443 -0.4639 -0.0056  0.8046
 1475TIP3   OH2 4367   1.829   0.123   2.087 -0.6591 -0.2718  0.1208
 1475TIP3    H1 4368   1.821   0.051   2.024  0.2244 -0.6904  0.4635
 1475TIP3    H2 4369   1.751   0.177   2.072  0.3381  0.6096 -2.5196
 1476TIP3   OH2 4370   2.178   2.521   2.976  0.1247 -0.3030  0.2648
 1476TIP3    H1 4371   2.104   2.582   2.966 -0.8404 -0.5582  4.1300
 1476TIP3    H2 4372   2.139   2.434   2.970  0.7488 -0.5225 -0.9276
 1477TIP3   OH2 4373   7.270   2.857   5.901 -0.3977 -0.7868 -0.3330
 1477TIP3    H1 4374   7.284   2.952   5.895  0.3523 -0.8902 -0.3932
 1477TIP3    H2 4375   7.358   2.820   5.889 -0.4156 -1.4321  1.3072
 1478TIP3   OH2 4376   7.794   1.121   2.971 -0.3805  0.6426 -0.0437
 1478TIP3    H1 4377   7.739   1.055   3.014  1.3044 -1.8940 -1.5092
 1478TIP3    H2 4378   7.795   1.194   3.032 -0.9293 -1.3746  2.5703
 1479TIP3   OH2 4379   2.520   6.590   6.622  0.1313 -0.0488 -0.2199
 1479TIP3    H1 4380   2.448   6.609   6.681  0.2047 -1.5928  0.4309
 1479TIP3    H2 4381   2.599   6.606   6.675  0.2857  1.2957 -0.8178
 1480TIP3   OH2 4382   2.937   6.904   6.096  0.3028 -0.1133 -0.2766
 1480TIP3    H1 4383   2.964   6.813   6.112  0.3438 -0.3277 -1.4633
 1480TIP3    H2 4384   2.957   6.919   6.004 -0.9068  0.6793 -0.4345
 1481TIP3   OH2 4385   6.734   6.732   2.419 -0.7165 -0.4908  0.3442
 1481TIP3    H1 4386   6.778   6.735   2.334 -0.9651  0.0271  0.2319
 1481TIP3    H2 4387   6.743   6.641   2.446  2.3960 -0.0013  1.3788
 1482TIP3   OH2 4388   3.832   2.331   1.329  0.2652  0.6083  0.1524
 1482TIP3    H1 4389   3.833   2.251   1.277  1.5958 -0.3972  1.6422
 1482TIP3    H2 4390   3.769   2.388   1.284 -1.6521 -1.6888 -0.2862
 1483TIP3   OH2 4391   2.276   2.240   3.158 -0.3654 -0.7338  0.2156
 1483TIP3    H1 4392   2.197   2.264   3.207 -0.3982 -0.3714 -0.0090
 1483TIP3    H2 4393   2.333   2.316   3.167  0.0742 -1.1041  0.6113
 1484TIP3   OH2 4394   1.691   3.635   1.067  0.2305 -0.5395  0.2919
 1484TIP3    H1 4395   1.721   3.605   0.981  0.2797  0.6236 -0.1176
 1484TIP3    H2 4396   1.771   3.665   1.111 -0.1010  1.3304 -0.2941
 1485TIP3   OH2 4397   2.701   0.099   3.950 -0.6652  0.5152  0.0796
 1485TIP3    H1 4398   2.730   0.191   3.949  1.5121 -0.1078  0.6520
 1485TIP3    H2 4399   2.607   0.104   3.932 -1.1186  3.0548  2.3353
 1486TIP3   OH2 4400   1.078   5.254   0.654  0.0619  0.5702 -0.1182
 1486TIP3    H1 4401   1.054   5.212   0.737 -2.8588 -1.6463 -1.8567
 1486TIP3    H2 4402   1.137   5.191   0.611 -1.1836  0.0310 -1.1001
 1487TIP3   OH2 4403   2.686   0.292   2.447 -0.3523  0.3257  0.2929
 1487TIP3    H1 4404   2.762   0.290   2.390 -0.1193  0.2112  0.6062
 1487TIP3    H2 4405   2.694   0.374   2.495  0.9315 -0.7971  2.1462
 1488TIP3   OH2 4406   8.049   3.956   0.587 -0.1054 -1.0430  0.2536
 1488TIP3    H1 4407   8.018   3.982   0.674 -0.8427  1.1154 -0.6035
 1488TIP3    H2 4408   8.020   3.865   0.578  0.6021 -1.5580  2.5025
 1489TIP3   OH2 4409   5.619   4.684   4.147  0.1190 -0.3967 -0.3069
 1489TIP3    H1 4410   5.670   4.682   4.228  0.0946 -1.0229 -0.3079
 1489TIP3    H2 4411   5.609   4.778   4.128  0.9692 -0.2583 -0.1217
 1490TIP3   OH2 4412   0.451   3.570   4.882  0.9963  0.0452 -0.1865
 1490TIP3    H1 4413   0.488   3.613   4.805 -0.7144 -0.1642 -1.1631
 1490TIP3    H2 4414   0.523   3.569   4.946  2.0213  1.4780 -1.2671
 1491TIP3   OH2 4415   7.826   6.996   6.772  0.1959 -0.3954  0.1231
 1491TIP3    H1 4416   7.828   7.081   6.817  0.1528  0.1010 -0.7956
 1491TIP3    H2 4417   7.781   7.013   6.690  0.5852 -1.2125 -0.2718
 1492TIP3   OH2 4418   1.769   7.491   2.721  0.0550  0.0576 -0.3369
 1492TIP3    H1 4419   1.854   7.478   2.765  0.8261 -0.1338 -1.8231
 1492TIP3    H2 4420   1.750   7.406   2.683 -0.2584  0.4049 -0.9566
 1493TIP3   OH2 4421   2.031   0.291   3.673  0.6853 -0.5201 -0.1200
 1493TIP3    H1 4422   1.985   0.358   3.623 -0.0214  0.4746  1.7860
 1493TIP3    H2 4423   1.961   0.237   3.710  1.2304 -1.9858 -1.1344
 1494TIP3   OH2 4424   6.812   6.815   4.931 -0.0442 -0.0120 -0.1595
 1494TIP3    H1 4425   6.722   6.789   4.911  0.7603 -2.5644 -0.8301
 1494TIP3    H2 4426   6.839   6.869   4.856 -0.4451 -0.7871 -0.8765
 1495TIP3   OH2 4427   3.469   0.386   3.707 -0.1072 -0.2680 -0.2669
 1495TIP3    H1 4428   3.399   0.444   3.735 -1.0979 -0.8449 -1.4747
 1495TIP3    H2 4429   3.452   0.303   3.750  0.8425  0.0612  0.8029
 1496TIP3   OH2 4430   1.918   1.742   4.233 -0.1533  0.8527 -0.1793
 1496TIP3    H1 4431   1.965   1.760   4.315 -1.2424 -1.7714  1.1244
 1496TIP3    H2 4432   1.988   1.725   4.169  0.7030  0.6661  0.7791
 1497TIP3   OH2 4433   2.892   5.934   5.916 -0.6334 -1.0094 -0.5934
 1497TIP3    H1 4434   2.870   6.013   5.966  0.6893  0.0574 -1.5881
 1497TIP3    H2 4435   2.819   5.924   5.855 -0.3207  0.1471 -1.2057
 1498TIP3   OH2 4436   5.738   3.057   2.821 -0.1346  0.1884 -0.3288
 1498TIP3    H1 4437   5.710   3.132   2.874  1.9180  1.5693 -1.1068
 1498TIP3    H2 4438   5.705   3.076   2.733 -1.7011 -1.0792 -0.0807
 1499TIP3   OH2 4439   3.119   1.999   5.904 -0.3069  0.2686  0.1458
 1499TIP3    H1 4440   3.159   2.086   5.905 -0.8260  0.5725 -1.5422
 1499TIP3    H2 4441   3.166   1.950   5.971 -0.2702  1.9501  1.4075
 1500TIP3   OH2 4442   4.204   0.154   5.352  0.5048  0.5668 -0.4152
 1500TIP3    H1 4443   4.228   0.211   5.425  1.4740  1.2021 -1.1835
 1500TIP3    H2 4444   4.153   0.210   5.293  0.9807  0.5035 -0.9066
 1501TIP3   OH2 4445   3.815   1.246   0.816 -0.3595 -0.1597  0.0874
 1501TIP3    H1 4446   3.723   1.230   0.838 -0.3235 -0.6928 -0.1262
 1501TIP3    H2 4447   3.832   1.334   0.849 -1.0311  0.0696 -0.1426
 1502TIP3   OH2 4448   1.245   3.551   6.702 -0.5157 -0.4723 -0.2203
 1502TIP3    H1 4449   1.289   3.617   6.648 -2.5151  2.0459  0.9995
 1502TIP3    H2 4450   1.182   3.510   6.643  2.0592 -2.8886 -1.5189
 1503TIP3   OH2 4451   1.991   5.222   2.650  0.1065 -0.1667 -0.2795
 1503TIP3    H1 4452   1.996   5.169   2.571 -0.3986 -1.3733  0.4768
 1503TIP3    H2 4453   2.075   5.208   2.694  0.4636  0.6544 -0.6751
 1504TIP3   OH2 4454   1.578   7.521   0.981 -0.1371 -0.3764  0.0709
 1504TIP3    H1 4455   1.511   7.453   0.982  1.4509 -2.0324 -0.7270
 1504TIP3    H2 4456   1.540   7.593   1.032 -3.2424 -0.4633 -1.8680
 1505TIP3   OH2 4457   2.689   5.827   2.660  0.4231 -0.1057  0.3927
 1505TIP3    H1 4458   2.784   5.822   2.661  0.5152  1.3135  0.8725
 1505TIP3    H2 4459   2.669   5.915   2.691 -1.0635 -0.5085  0.6591
 1506TIP3   OH2 4460   1.022   3.203   4.818  0.4833 -0.2132 -0.3407
 1506TIP3    H1 4461   1.013   3.298   4.827  1.4463 -0.1263 -0.1774
 1506TIP3    H2 4462   1.038   3.172   4.907 -0.5577 -0.6191 -0.2898
 1507TIP3   OH2 4463   4.674   2.108   6.366  0.0253 -0.4498  0.4412
 1507TIP3    H1 4464   4.654   2.199   6.344  0.9557  0.0138  1.4192
 1507TIP3    H2 4465   4.768   2.106   6.381  0.2619 -1.8879 -0.9080
 1508TIP3   OH2 4466   3.667   4.682   0.509  0.4401 -0.1114 -0.1624
 1508TIP3    H1 4467   3.748   4.641   0.538  0.1495 -1.8514 -1.6181
 1508TIP3    H2 4468   3.667   4.768   0.551  3.0563 -0.0262 -0.1991
 1509TIP3   OH2 4469   2.585   0.172   4.606 -1.0567  0.0349 -0.0913
 1509TIP3    H1 4470   2.592   0.169   4.511 -2.4756 -1.5061 -0.1943
 1509TIP3    H2 4471   2.613   0.086   4.636 -1.2865  0.2599  0.8214
 1510TIP3   OH2 4472   2.750   5.116   1.724 -0.1798  0.6983 -0.0960
 1510TIP3    H1 4473   2.655   5.117   1.729 -0.1432  1.1391  0.6372
 1510TIP3    H2 4474   2.770   5.049   1.659 -1.0150  1.1700 -0.8631
 1511TIP3   OH2 4475   5.106   6.128   6.092 -0.1381 -0.0204  0.3844
 1511TIP3    H1 4476   5.150   6.076   6.160  0.3059  0.4103  0.4340
 1511TIP3    H2 4477   5.077   6.207   6.138 -0.3736 -0.0007  0.2026
 1512TIP3   OH2 4478   0.622   3.321   0.994  0.4125  0.1884 -0.0469
 1512TIP3    H1 4479   0.567   3.284   0.925 -0.5503 -0.3574  0.9925
 1512TIP3    H2 4480   0.688   3.253   1.010 -0.3877 -0.4188  0.7388
 1513TIP3   OH2 4481   3.605   7.459   1.753 -0.2830  0.0804 -0.1940
 1513TIP3    H1 4482   3.548   7.421   1.686 -0.0944 -0.6157  0.0352
 1513TIP3    H2 4483   3.604   7.395   1.824 -0.6298  0.9000  0.5573
 1514TIP3   OH2 4484   4.207   5.810   2.521  0.0022 -0.2900  0.1225
 1514TIP3    H1 4485   4.172   5.802   2.432  1.1699 -2.2000 -0.2323
 1514TIP3    H2 4486   4.178   5.896   2.550 -0.7892  0.2183 -1.9415
 1515TIP3   OH2 4487   5.148   2.366   4.876 -0.1528  0.5070 -0.3513
 1515TIP3    H1 4488   5.121   2.341   4.787  1.8109  0.3219 -0.9498
 1515TIP3    H2 4489   5.102   2.305   4.933 -1.2298  0.4359 -1.2639
 1516TIP3   OH2 4490   8.091   5.394   2.840  0.7075  0.2076 -1.0295
 1516TIP3    H1 4491   8.074   5.328   2.907  1.2479 -1.4585 -2.4469
 1516TIP3    H2 4492   8.056   5.475   2.876 -2.6850 -1.3800 -0.3880
 1517TIP3   OH2 4493   3.583   5.732   5.134  0.2625 -0.8055  0.7373
 1517TIP3    H1 4494   3.648   5.777   5.078 -0.4529 -0.0454  0.5011
 1517TIP3    H2 4495   3.548   5.662   5.078  1.9197 -2.2046  1.3506
 1518TIP3   OH2 4496   2.542   5.758   1.088 -0.3533  0.0218  0.0614
 1518TIP3    H1 4497   2.521   5.820   1.158  1.1279  0.0071  0.5457
 1518TIP3    H2 4498   2.557   5.675   1.134  2.7488  0.4702  0.0556
 1519TIP3   OH2 4499   3.718   6.245   1.058  0.3348 -0.5516  0.1897
 1519TIP3    H1 4500   3.627   6.221   1.076  0.4236 -0.9876  0.0865
 1519TIP3    H2 4501   3.755   6.263   1.144  0.4400 -1.4550  0.3420
 1520TIP3   OH2 4502   2.534   3.814   2.814  0.1197  0.7797 -0.3785
 1520TIP3    H1 4503   2.594   3.818   2.740  1.0706 -0.0127  0.3304
 1520TIP3    H2 4504   2.588   3.788   2.888 -0.9459  0.8651  0.4580
 1521TIP3   OH2 4505   3.846   1.647   0.301 -0.4599 -0.4397 -0.4030
 1521TIP3    H1 4506   3.849   1.552   0.298 -1.6587 -0.4840 -0.6754
 1521TIP3    H2 4507   3.934   1.675   0.275 -0.2257 -1.4579 -0.7247
 1522TIP3   OH2 4508   2.876   4.001   1.415  0.6172  0.4478 -0.0900
 1522TIP3    H1 4509   2.943   3.966   1.474  0.9634 -0.0368 -0.7526
 1522TIP3    H2 4510   2.810   3.932   1.411 -0.8329  1.6207  1.9356
 1523TIP3   OH2 4511   6.998   6.749   5.378 -0.0511  0.0644 -0.2296
 1523TIP3    H1 4512   6.971   6.840   5.370 -1.2223 -0.0505  1.7470
 1523TIP3    H2 4513   6.985   6.712   5.291 -0.0812  1.6381 -0.9204
 1524TIP3   OH2 4514   7.104   4.918   2.139  0.0512 -0.3188 -0.5405
 1524TIP3    H1 4515   7.125   4.961   2.222 -1.3232  1.2659 -0.9457
 1524TIP3    H2 4516   7.041   4.977   2.097 -2.7518 -3.1816 -0.7472
 1525TIP3   OH2 4517   7.351   2.855   4.668  0.2678 -0.2806 -0.4727
 1525TIP3    H1 4518   7.305   2.883   4.747  1.5397  1.5619 -0.3139
 1525TIP3    H2 4519   7.338   2.927   4.606  2.6926  0.2618 -0.4726
 1526TIP3   OH2 4520   6.439   1.257   0.766  1.0500 -0.2531  0.3141
 1526TIP3    H1 4521   6.446   1.184   0.828 -0.9506 -1.2521 -0.5676
 1526TIP3    H2 4522   6.386   1.223   0.694  0.6930  1.8549 -0.4883
 1527TIP3   OH2 4523   3.237   3.222   6.263 -0.2243  0.3698 -0.4616
 1527TIP3    H1 4524   3.316   3.276   6.267  0.1057 -0.1649  0.3079
 1527TIP3    H2 4525   3.239   3.184   6.175  0.3298  0.4291 -0.4791
 1528TIP3   OH2 4526   7.343   7.377   2.392  0.4309 -0.5636  0.2641
 1528TIP3    H1 4527   7.406   7.344   2.456 -0.8946  0.4234  2.1992
 1528TIP3    H2 4528   7.340   7.471   2.407 -1.2526 -0.5457  0.0208
 1529TIP3   OH2 4529   0.755   4.237   1.777  0.4467 -0.1781 -0.6945
 1529TIP3    H1 4530   0.681   4.233   1.838  0.2541 -0.8660 -0.9557
 1529TIP3    H2 4531   0.757   4.328   1.747  0.6520  0.2112  0.4559
 1530TIP3   OH2 4532   0.428   2.464   1.312 -0.1777  0.6487 -1.2852
 1530TIP3    H1 4533   0.464   2.545   1.348 -2.1598  1.1613 -0.3307
 1530TIP3    H2 4534   0.474   2.395   1.359  1.1630  1.1819 -1.7392
 1531TIP3   OH2 4535   7.008   6.130   6.589  0.7971  0.1460 -0.2646
 1531TIP3    H1 4536   7.057   6.211   6.600 -0.1816  0.4453  3.1178
 1531TIP3    H2 4537   7.054   6.066   6.643  1.0522 -1.3627 -2.1748
 1532TIP3   OH2 4538   2.464   1.760   5.440  0.9127 -0.1697  0.1119
 1532TIP3    H1 4539   2.508   1.843   5.424 -0.9481  0.7946 -0.2457
 1532TIP3    H2 4540   2.423   1.770   5.527 -1.7820  0.5036 -1.1268
 1533TIP3   OH2 4541   1.834   1.381   1.167  0.0446 -0.3514  0.4308
 1533TIP3    H1 4542   1.814   1.355   1.257  0.7328 -0.0816  0.6636
 1533TIP3    H2 4543   1.926   1.405   1.168  0.6897 -2.5097 -0.8496
 1534TIP3   OH2 4544   0.772   5.627   2.729 -0.3452  0.2056  0.2023
 1534TIP3    H1 4545   0.729   5.702   2.688  0.3255  1.6299  1.9936
 1534TIP3    H2 4546   0.819   5.663   2.803 -0.3319 -2.0525  1.3998
 1535TIP3   OH2 4547   0.782   0.244   5.333 -0.0559  0.1240 -0.9064
 1535TIP3    H1 4548   0.731   0.223   5.254 -0.5837  1.7961 -1.0494
 1535TIP3    H2 4549   0.843   0.312   5.304 -1.3022  1.8985  0.4390
 1536TIP3   OH2 4550   0.184   5.774   6.492 -0.0084  0.1510  0.0636
 1536TIP3    H1 4551   0.255   5.838   6.490  0.4210 -0.2348  1.7256
 1536TIP3    H2 4552   0.135   5.794   6.572  0.0635 -1.4867  0.5619
 1537TIP3   OH2 4553   3.116   3.480   2.736 -0.1958 -0.3414 -0.0920
 1537TIP3    H1 4554   3.036   3.490   2.788 -1.3123 -0.2983 -1.7389
 1537TIP3    H2 4555   3.092   3.418   2.667  1.6290 -1.4102  0.1767
 1538TIP3   OH2 4556   0.631   4.660   2.281 -0.0319  0.3169 -0.3879
 1538TIP3    H1 4557   0.558   4.688   2.226  0.3682  2.0126 -0.1111
 1538TIP3    H2 4558   0.589   4.617   2.356 -0.7402  0.9448 -0.4100
 1539TIP3   OH2 4559   1.849   0.336   5.852  0.0896  0.7450 -0.1776
 1539TIP3    H1 4560   1.786   0.391   5.807 -0.0021  1.5049  0.8275
 1539TIP3    H2 4561   1.930   0.387   5.852  0.3717  0.3041 -0.3942
 1540TIP3   OH2 4562   5.160   3.098   0.931 -0.1198  0.1544 -0.0721
 1540TIP3    H1 4563   5.178   3.048   1.010  0.1260 -0.9520 -0.8204
 1540TIP3    H2 4564   5.246   3.129   0.902 -0.3158  1.4974  0.6697
 1541TIP3   OH2 4565   8.006   4.134   0.910  0.1517  0.1454  0.0028
 1541TIP3    H1 4566   7.999   4.112   1.003  0.2368  2.1115  0.5136
 1541TIP3    H2 4567   7.920   4.114   0.874  0.4605 -1.7581  0.1916
 1542TIP3   OH2 4568   3.398   2.016   3.327  0.6979  0.3352  0.6113
 1542TIP3    H1 4569   3.410   2.035   3.234 -0.8662  0.6016  0.4469
 1542TIP3    H2 4570   3.317   2.061   3.351  0.0836 -1.2173  1.6539
 1543TIP3   OH2 4571   5.922   2.313   5.131  0.4389 -0.1751 -0.0321
 1543TIP3    H1 4572   5.927   2.281   5.041 -2.0386 -0.2945 -0.2095
 1543TIP3    H2 4573   5.860   2.253   5.174  2.7548 -1.1089  2.2608
 1544TIP3   OH2 4574   1.745   4.427   4.272 -0.1843  0.0415  0.1033
 1544TIP3    H1 4575   1.817   4.385   4.224 -0.0564 -0.0189  0.3482
 1544TIP3    H2 4576   1.666   4.385   4.237 -0.2410  1.3816 -1.4779
 1545TIP3   OH2 4577   1.737   1.438   3.332 -0.2134 -0.0571 -0.2250
 1545TIP3    H1 4578   1.746   1.533   3.340 -0.7475  0.1233 -1.5345
 1545TIP3    H2 4579   1.659   1.426   3.278 -0.8287 -1.2739  0.8764
 1546TIP3   OH2 4580   3.825   2.982   2.230 -0.3542 -0.2795 -0.2111
 1546TIP3    H1 4581   3.806   2.892   2.206 -1.7783 -0.3732  1.1237
 1546TIP3    H2 4582   3.885   3.013   2.162 -0.7076 -1.8801 -1.3022
 1547TIP3   OH2 4583   4.734   3.169   5.416 -0.2796  0.1745 -0.3339
 1547TIP3    H1 4584   4.679   3.117   5.357  1.1874 -2.8911  0.7888
 1547TIP3    H2 4585   4.712   3.138   5.504  0.5005  1.6727  0.4390
 1548TIP3   OH2 4586   1.118   3.479   5.169 -0.7042 -0.4947 -0.6521
 1548TIP3    H1 4587   1.130   3.465   5.262 -1.3666  0.6409 -0.3717
 1548TIP3    H2 4588   1.195   3.529   5.141 -0.5272 -0.7965 -0.7009
 1549TIP3   OH2 4589   2.942   2.044   0.347  0.7155  0.0818 -0.7104
 1549TIP3    H1 4590   2.893   2.126   0.345  0.6507  0.0411 -0.7864
 1549TIP3    H2 4591   3.031   2.070   0.373  0.8713  0.2674 -1.4031
 1550TIP3   OH2 4592   6.587   2.445   1.468  0.2707 -0.2829  0.0005
 1550TIP3    H1 4593   6.522   2.375   1.473 -1.4497  1.1195 -1.4304
 1550TIP3    H2 4594   6.538   2.521   1.437  2.2986  1.2842  0.4222
 1551TIP3   OH2 4595   4.292   1.296   2.191  0.2850 -0.5486  0.3711
 1551TIP3    H1 4596   4.256   1.240   2.122 -0.5269  0.1485  0.2164
 1551TIP3    H2 4597   4.247   1.380   2.180 -1.5445 -1.0221  3.0602
 1552TIP3   OH2 4598   5.681   2.441   0.036 -0.0923 -0.2381 -0.0480
 1552TIP3    H1 4599   5.775   2.431   0.054  0.4070 -0.0105 -2.2572
 1552TIP3    H2 4600   5.648   2.351   0.034 -0.3540 -0.2791  2.4400
 1553TIP3   OH2 4601   1.058   3.819   6.505 -0.1253 -0.8704  0.4433
 1553TIP3    H1 4602   0.984   3.764   6.478 -0.1942 -0.6283  0.1236
 1553TIP3    H2 4603   1.108   3.832   6.424 -0.5085  0.1349  0.3523
 1554TIP3   OH2 4604   3.206   4.746   3.089 -0.3373 -0.1278  0.0374
 1554TIP3    H1 4605   3.198   4.840   3.076 -0.1194 -0.1204 -0.0558
 1554TIP3    H2 4606   3.300   4.729   3.082 -0.5564 -0.7683 -2.8211
 1555TIP3   OH2 4607   0.782   1.478   2.897  0.3422 -0.2432  0.2385
 1555TIP3    H1 4608   0.698   1.452   2.935  0.8420 -0.0727  1.4930
 1555TIP3    H2 4609   0.763   1.488   2.803 -1.2592  0.6747  0.6157
 1556TIP3   OH2 4610   7.382   5.386   0.516  0.0174 -0.0943  0.2341
 1556TIP3    H1 4611   7.360   5.372   0.609  0.5284  0.4802  0.4474
 1556TIP3    H2 4612   7.356   5.304   0.473 -1.0537 -0.0459  0.7330
 1557TIP3   OH2 4613   2.887   1.063   6.000  0.1630 -0.1585 -1.0633
 1557TIP3    H1 4614   2.894   0.980   6.048 -0.5060  0.3804  0.0014
 1557TIP3    H2 4615   2.976   1.098   5.999  0.0747  0.1892  0.5020
 1558TIP3   OH2 4616   2.797   6.435   2.333  0.6046 -0.5581 -0.3866
 1558TIP3    H1 4617   2.776   6.462   2.422 -1.0400 -1.0126 -0.5977
 1558TIP3    H2 4618   2.763   6.345   2.327  2.1987 -1.1442 -0.9669
 1559TIP3   OH2 4619   0.978   4.887   4.009 -0.3446 -0.3317  0.2105
 1559TIP3    H1 4620   1.070   4.863   4.019 -0.2596 -0.0841  0.0396
 1559TIP3    H2 4621   0.952   4.846   3.926  0.6622  2.6638 -1.7435
 1560TIP3   OH2 4622   3.469   4.660   3.079  0.6211 -0.2560 -0.1067
 1560TIP3    H1 4623   3.487   4.570   3.051 -0.5172 -0.2364 -0.9714
 1560TIP3    H2 4624   3.541   4.681   3.138  0.9689 -1.6989  0.0337
 1561TIP3   OH2 4625   3.222   5.944   4.917 -0.5027 -0.1807  0.1192
 1561TIP3    H1 4626   3.315   5.961   4.904 -0.6377  0.5790  0.1209
 1561TIP3    H2 4627   3.218   5.852   4.943  0.3276  0.0005  0.9495
 1562TIP3   OH2 4628   6.995   1.525   2.176  0.2207  0.1221  0.0027
 1562TIP3    H1 4629   7.065   1.584   2.206  1.7775 -0.9333 -1.3681
 1562TIP3    H2 4630   7.003   1.449   2.233  1.5592 -0.8333 -1.3673
 1563TIP3   OH2 4631   8.098   1.146   0.548 -0.7662 -0.0778 -0.0064
 1563TIP3    H1 4632   8.136   1.067   0.509 -0.2740 -0.3685  1.0377
 1563TIP3    H2 4633   8.154   1.165   0.623 -2.2559 -0.1220  1.1616
 1564TIP3   OH2 4634   7.835   2.540   2.101  0.3822  0.6063  0.1847
 1564TIP3    H1 4635   7.858   2.504   2.187  0.1998 -0.8924 -0.3589
 1564TIP3    H2 4636   7.893   2.494   2.040 -0.9867  0.0251 -0.7258
 1565TIP3   OH2 4637   2.881   0.984   2.643 -0.4615  0.0588  0.4475
 1565TIP3    H1 4638   2.874   0.946   2.555  1.3403 -0.4237  0.4847
 1565TIP3    H2 4639   2.934   1.063   2.631 -0.8610  0.4233  1.0007
 1566TIP3   OH2 4640   4.854   3.679   3.871 -0.0528  0.0979 -0.2867
 1566TIP3    H1 4641   4.843   3.639   3.784  1.3871 -1.6688  0.2860
 1566TIP3    H2 4642   4.833   3.609   3.933 -0.4686  1.1589  0.8066
 1567TIP3   OH2 4643   3.786   4.212   5.698  0.2259  0.5162  0.1704
 1567TIP3    H1 4644   3.737   4.195   5.617 -1.0707 -0.6374  1.1572
 1567TIP3    H2 4645   3.873   4.238   5.668  0.6606 -2.5190 -1.5960
 1568TIP3   OH2 4646   5.253   2.079   5.613 -0.1415 -0.4196 -0.2641
 1568TIP3    H1 4647   5.165   2.115   5.599 -0.4446 -1.2692 -0.6073
 1568TIP3    H2 4648   5.310   2.156   5.613 -0.5851 -0.0297 -2.3174
 1569TIP3   OH2 4649   6.114   5.020   1.558 -0.0273  0.0942 -0.1092
 1569TIP3    H1 4650   6.091   5.085   1.491 -1.0889 -1.5265 -1.3764
 1569TIP3    H2 4651   6.035   5.009   1.610  0.1285 -0.2268  0.0653
 1570TIP3   OH2 4652   5.762   4.220   4.093 -0.3211  0.1271 -0.5059
 1570TIP3    H1 4653   5.790   4.299   4.139 -0.6818  0.0916 -0.2170
 1570TIP3    H2 4654   5.693   4.184   4.149  0.7605 -1.1244  0.0954
 1571TIP3   OH2 4655   6.201   5.789   4.400  0.0874  0.3364 -0.4311
 1571TIP3    H1 4656   6.240   5.716   4.448  0.1408  0.5909 -0.0875
 1571TIP3    H2 4657   6.111   5.794   4.433  0.6018  1.5511  0.8453
 1572TIP3   OH2 4658   3.743   4.275   1.186  0.0956 -0.3095 -0.1619
 1572TIP3    H1 4659   3.768   4.258   1.277 -0.2715  0.9054  0.1885
 1572TIP3    H2 4660   3.699   4.195   1.158 -0.0666 -0.5885  0.8372
 1573TIP3   OH2 4661   8.200   2.184   5.338  0.0650 -0.5574  0.4038
 1573TIP3    H1 4662   8.187   2.260   5.282 -0.5440 -0.8000  0.2060
 1573TIP3    H2 4663   8.123   2.181   5.394  0.2587 -0.8158  0.6602
 1574TIP3   OH2 4664   2.317   6.210   3.175 -0.1365 -0.0485  0.0197
 1574TIP3    H1 4665   2.311   6.305   3.178  2.2249  0.1389  0.6417
 1574TIP3    H2 4666   2.317   6.189   3.081 -0.7366  0.5263 -0.1156
 1575TIP3   OH2 4667   1.178   4.241   4.236  0.3460  0.6437  0.8274
 1575TIP3    H1 4668   1.204   4.231   4.145 -0.3891  0.8172  0.5941
 1575TIP3    H2 4669   1.206   4.330   4.259 -0.9207  1.2141  0.2660
 1576TIP3   OH2 4670   1.668   5.441   2.771  0.6937  0.0132  0.3526
 1576TIP3    H1 4671   1.618   5.464   2.849 -0.0738  2.0269 -0.6879
 1576TIP3    H2 4672   1.714   5.360   2.796  1.2676  1.1040  3.2248
 1577TIP3   OH2 4673   1.930   5.872   2.791  0.0157  0.1769 -0.3058
 1577TIP3    H1 4674   2.015   5.917   2.790  0.0886  0.0369 -0.5068
 1577TIP3    H2 4675   1.930   5.820   2.871 -0.8314  1.9882  0.9296
 1578TIP3   OH2 4676   2.369   1.238   4.041  0.1160 -0.2523 -0.0420
 1578TIP3    H1 4677   2.396   1.320   4.082  2.3268 -0.6716 -0.5611
 1578TIP3    H2 4678   2.356   1.178   4.115 -1.2925  0.4437  0.3229
 1579TIP3   OH2 4679   0.131   5.126   2.340 -0.3532  0.0544 -0.3522
 1579TIP3    H1 4680   0.046   5.159   2.369 -0.6167 -0.5275 -0.4552
 1579TIP3    H2 4681   0.136   5.038   2.376 -0.1313 -0.2038 -1.0010
 1580TIP3   OH2 4682   4.816   2.873   6.212  0.0041 -0.7005 -0.0763
 1580TIP3    H1 4683   4.745   2.847   6.153  0.0429 -0.1278 -0.3800
 1580TIP3    H2 4684   4.779   2.861   6.300 -1.3419  1.7809 -0.1973
 1581TIP3   OH2 4685   2.335   6.676   0.878  1.0518  0.6363  0.1830
 1581TIP3    H1 4686   2.414   6.675   0.824  0.5840  1.7908 -0.5366
 1581TIP3    H2 4687   2.288   6.596   0.853  1.1698  0.8130 -0.6245
 1582TIP3   OH2 4688   3.658   5.025   4.954 -0.3412  0.0720  0.0691
 1582TIP3    H1 4689   3.700   5.063   4.876 -0.6332 -0.7356 -0.4983
 1582TIP3    H2 4690   3.686   4.933   4.953  0.2271  0.2078  1.3242
 1583TIP3   OH2 4691   6.612   5.795   2.355 -0.2484  0.1107 -0.7208
 1583TIP3    H1 4692   6.681   5.847   2.396 -0.0267 -1.8928  1.6453
 1583TIP3    H2 4693   6.533   5.815   2.405 -0.5901 -0.3522 -1.0649
 1584TIP3   OH2 4694   0.627   4.493   0.008  0.4607  0.5732 -0.2769
 1584TIP3    H1 4695   0.613   4.557   0.078 -0.7321 -0.0452  0.0864
 1584TIP3    H2 4696   0.544   4.492  -0.040  1.2016  0.8686 -1.6257
 1585TIP3   OH2 4697   4.558   0.089   3.140 -0.0534 -0.2423 -0.1197
 1585TIP3    H1 4698   4.470   0.081   3.177  0.6584 -0.3022  1.6890
 1585TIP3    H2 4699   4.589  -0.001   3.133  0.1422 -0.1820 -0.0242
 1586TIP3   OH2 4700   3.249   0.223   2.727  0.4217 -0.5247 -0.0749
 1586TIP3    H1 4701   3.165   0.234   2.771  0.6069 -1.3152  0.5010
 1586TIP3    H2 4702   3.288   0.310   2.725  0.5044 -0.5019  1.5247
 1587TIP3   OH2 4703   3.166   6.623   4.149  0.2024  0.3494  0.3234
 1587TIP3    H1 4704   3.102   6.573   4.099  0.1464  0.0052  0.7264
 1587TIP3    H2 4705   3.140   6.714   4.138  0.4336  0.3143 -0.5988
 1588TIP3   OH2 4706   4.223   7.388   0.423  0.3480 -1.1358 -0.0180
 1588TIP3    H1 4707   4.317   7.370   0.425  1.4518  3.2687  2.9981
 1588TIP3    H2 4708   4.209   7.430   0.338  1.7411  0.2966  0.4027
 1589TIP3   OH2 4709   2.415   0.153   3.962  0.1051 -0.4796  0.3755
 1589TIP3    H1 4710   2.391   0.213   3.891 -0.5285 -1.7494 -0.5200
 1589TIP3    H2 4711   2.394   0.202   4.041  1.6565  1.3227 -0.2411
 1590TIP3   OH2 4712   1.491   0.320   1.155  0.1715  0.2478 -0.1329
 1590TIP3    H1 4713   1.412   0.314   1.102 -0.4053  0.8753  0.6375
 1590TIP3    H2 4714   1.505   0.415   1.166  0.0567  0.1367  1.1513
 1591TIP3   OH2 4715   7.513   0.545   1.352 -0.1924  0.0102  0.1780
 1591TIP3    H1 4716   7.421   0.537   1.328 -0.4670  1.5215  0.5986
 1591TIP3    H2 4717   7.541   0.627   1.312  0.3019  0.7619  1.9780
 1592TIP3   OH2 4718   8.240   3.800   4.960 -0.2220 -0.3519 -0.0091
 1592TIP3    H1 4719   8.310   3.811   4.895  0.4901 -1.9016  0.4420
 1592TIP3    H2 4720   8.262   3.862   5.029 -1.4503  1.9386 -1.5455
 1593TIP3   OH2 4721   1.730   5.188   1.741 -0.6130 -0.0244  0.0905
 1593TIP3    H1 4722   1.719   5.284   1.742 -0.5085  0.0031 -0.5133
 1593TIP3    H2 4723   1.642   5.155   1.724 -0.3900  0.0523 -1.4071
 1594TIP3   OH2 4724   5.864   0.130   4.386 -0.2754  0.1018 -0.1150
 1594TIP3    H1 4725   5.854   0.145   4.292  1.2819  0.4556 -0.2469
 1594TIP3    H2 4726   5.790   0.176   4.425 -2.0306 -1.5787 -1.2386
 1595TIP3   OH2 4727   0.564   2.457   2.667  0.1534  0.0019 -0.0756
 1595TIP3    H1 4728   0.567   2.524   2.735  0.1630 -0.0493 -0.0259
 1595TIP3    H2 4729   0.544   2.506   2.587  2.2462  0.3597 -0.4312
 1596TIP3   OH2 4730   5.279   1.018   6.186  0.3650  0.5337  0.0700
 1596TIP3    H1 4731   5.375   1.022   6.189  0.4419 -0.2630 -0.7943
 1596TIP3    H2 4732   5.260   0.941   6.133 -0.7213  1.8075 -1.5181
 1597TIP3   OH2 4733   5.511   2.654   1.003  0.0324 -0.3299 -0.1853
 1597TIP3    H1 4734   5.427   2.699   1.012 -0.4474 -1.3810  0.9693
 1597TIP3    H2 4735   5.488   2.563   0.983  0.8920 -0.5580 -0.2002
 1598TIP3   OH2 4736   8.152   4.853   1.607  0.0896  0.9033  0.6831
 1598TIP3    H1 4737   8.099   4.931   1.626  1.9982  1.8304  2.5987
 1598TIP3    H2 4738   8.240   4.887   1.591  0.5853 -0.7436 -0.3543
 1599TIP3   OH2 4739   6.143   0.409   1.801  0.0598  0.1448  0.3007
 1599TIP3    H1 4740   6.191   0.490   1.819  1.4609  0.0810 -2.5374
 1599TIP3    H2 4741   6.070   0.437   1.746  0.3434 -0.4531 -0.3888
 1600TIP3   OH2 4742   6.850   0.848   5.055 -0.1736 -0.4505 -0.2557
 1600TIP3    H1 4743   6.827   0.923   5.001 -2.0924 -1.2642 -0.6547
 1600TIP3    H2 4744   6.839   0.879   5.145  1.2521  0.3685 -0.3309
 1601TIP3   OH2 4745   5.294   4.597   4.439 -0.2697 -0.3412 -0.4664
 1601TIP3    H1 4746   5.198   4.595   4.433 -0.3732 -1.0572  0.8679
 1601TIP3    H2 4747   5.319   4.674   4.388 -1.6808  0.7379  0.3634
 1602TIP3   OH2 4748   6.639   0.800   5.460  0.0334 -0.6433 -0.1364
 1602TIP3    H1 4749   6.654   0.848   5.378  0.8340 -0.8735 -0.1310
 1602TIP3    H2 4750   6.705   0.833   5.520 -1.8571  1.0693  1.1280
 1603TIP3   OH2 4751   7.939   6.762   0.396 -0.1546 -0.3907  0.7688
 1603TIP3    H1 4752   7.901   6.842   0.359 -0.7480 -0.8305  0.4136
 1603TIP3    H2 4753   8.020   6.749   0.347 -0.0871 -0.0484  0.7825
 1604TIP3   OH2 4754   3.279   2.761   2.201  0.7273  0.1742 -0.1768
 1604TIP3    H1 4755   3.214   2.828   2.218  1.9838  1.3532  0.1736
 1604TIP3    H2 4756   3.242   2.681   2.240 -0.6272  0.7219 -0.2856
 1605TIP3   OH2 4757   2.412   7.768   0.089  0.5241  0.2247 -0.3394
 1605TIP3    H1 4758   2.365   7.823   0.152  0.2802  0.0428 -0.3610
 1605TIP3    H2 4759   2.376   7.680   0.103  0.3906  0.2050 -0.8132
 1606TIP3   OH2 4760   2.228   5.954   3.059  0.5209  0.0262 -0.4232
 1606TIP3    H1 4761   2.274   6.010   3.121  1.2681  0.2448 -1.1639
 1606TIP3    H2 4762   2.292   5.888   3.034 -0.2406 -0.9767  0.1755
 1607TIP3   OH2 4763   7.829   1.855   4.425 -1.1439 -0.6309  0.5767
 1607TIP3    H1 4764   7.803   1.870   4.334 -2.7859 -1.3888  0.8944
 1607TIP3    H2 4765   7.854   1.941   4.457 -0.4473 -0.3701 -0.6150
 1608TIP3   OH2 4766   2.077   2.634   0.169  0.2087  0.2630  0.1021
 1608TIP3    H1 4767   2.034   2.708   0.127  0.9276  0.8171  0.3025
 1608TIP3    H2 4768   2.029   2.622   0.251 -2.7624 -2.3721 -1.8115
 1609TIP3   OH2 4769   6.090   5.280   3.495  0.1782 -0.5310  0.1828
 1609TIP3    H1 4770   6.152   5.353   3.496  0.9454 -1.1394  2.4378
 1609TIP3    H2 4771   6.043   5.287   3.578 -0.0739 -2.3052  0.2322
 1610TIP3   OH2 4772   1.145   0.257   3.671 -0.4533  0.3059 -0.3198
 1610TIP3    H1 4773   1.156   0.282   3.762 -1.6539  0.1321 -0.1113
 1610TIP3    H2 4774   1.188   0.326   3.621 -1.0664  1.1872  0.3389
 1611TIP3   OH2 4775   2.650   4.486   6.645  0.0166 -0.2424 -0.1542
 1611TIP3    H1 4776   2.640   4.553   6.577  3.7065  0.0548 -0.6282
 1611TIP3    H2 4777   2.601   4.520   6.720 -1.6080  0.9251 -1.6594
 1612TIP3   OH2 4778   3.098   3.760   3.060 -0.1517  0.4887 -0.4193
 1612TIP3    H1 4779   3.117   3.747   2.967  0.5400  1.1230 -0.3809
 1612TIP3    H2 4780   3.110   3.674   3.099  1.3996  0.5785 -0.6297
 1613TIP3   OH2 4781   2.176   6.665   1.190 -0.6544  0.2172  0.0453
 1613TIP3    H1 4782   2.217   6.686   1.274 -1.5444  0.1633  0.5065
 1613TIP3    H2 4783   2.216   6.725   1.127 -1.3581  1.5982  0.8718
 1614TIP3   OH2 4784   0.306   2.920   4.891  0.0644  0.2129  0.7581
 1614TIP3    H1 4785   0.284   2.954   4.804  0.3731  2.2939  1.4340
 1614TIP3    H2 4786   0.229   2.937   4.945 -0.8699 -2.7713  0.5418
 1615TIP3   OH2 4787   3.770   7.129   5.641 -0.0401  0.3192 -0.3108
 1615TIP3    H1 4788   3.814   7.204   5.681  1.6096 -0.2972 -0.9194
 1615TIP3    H2 4789   3.678   7.140   5.667  0.6563  0.8834  2.1887
 1616TIP3   OH2 4790   5.878   4.139   5.184  0.1059  0.5903  0.1938
 1616TIP3    H1 4791   5.857   4.186   5.103 -1.5718 -0.4183 -0.0030
 1616TIP3    H2 4792   5.914   4.206   5.242 -0.9859  1.8474 -0.5227
 1617TIP3   OH2 4793   6.299   5.662   0.899 -0.3077 -0.1528  0.3923
 1617TIP3    H1 4794   6.366   5.672   0.966 -1.9944  0.5480  2.0765
 1617TIP3    H2 4795   6.322   5.581   0.853  1.4380 -0.1294  1.1615
 1618TIP3   OH2 4796   6.699   3.548   1.147 -0.2128  0.2932  0.2386
 1618TIP3    H1 4797   6.650   3.531   1.227  2.1514 -1.3090  1.4631
 1618TIP3    H2 4798   6.748   3.628   1.165  2.5174 -1.5611  1.6471
 1619TIP3   OH2 4799   4.157   5.730   4.532  0.0598 -0.1609 -0.0416
 1619TIP3    H1 4800   4.189   5.810   4.489 -0.4814  0.0819 -0.0002
 1619TIP3    H2 4801   4.085   5.700   4.477 -0.0467 -0.3575  0.2033
 1620TIP3   OH2 4802   4.313   1.596   0.811  0.2799  0.4690 -0.3369
 1620TIP3    H1 4803   4.234   1.597   0.865 -2.7981 -0.8327 -4.2411
 1620TIP3    H2 4804   4.321   1.686   0.779 -1.4766  0.1182 -2.0130
 1621TIP3   OH2 4805   5.065   1.338   1.452  0.1188 -0.1853  0.0063
 1621TIP3    H1 4806   5.084   1.342   1.545  0.6742  0.6443 -0.1248
 1621TIP3    H2 4807   5.129   1.276   1.417  0.5559  0.2438  0.0354
 1622TIP3   OH2 4808   7.633   6.052   2.463  0.2714  0.1572 -0.4601
 1622TIP3    H1 4809   7.573   6.071   2.535 -1.5863 -1.7223 -1.4044
 1622TIP3    H2 4810   7.677   5.971   2.490  1.7514  1.0340 -0.1791
 1623TIP3   OH2 4811   5.531   2.338   4.676 -0.4711  0.0256  0.2410
 1623TIP3    H1 4812   5.610   2.334   4.623 -0.9048  0.2238 -0.4241
 1623TIP3    H2 4813   5.542   2.268   4.740  1.0716  1.1762  1.3323
 1624TIP3   OH2 4814   8.037   0.283   5.024  0.5667  0.1316 -0.7312
 1624TIP3    H1 4815   8.069   0.249   5.108  0.2052 -0.3228 -0.7698
 1624TIP3    H2 4816   8.014   0.374   5.042  0.1679 -0.0603 -0.2495
 1625TIP3   OH2 4817   7.905   7.060   0.595 -0.4431  0.4347  0.4005
 1625TIP3    H1 4818   7.939   6.976   0.627 -0.2375 -0.2664 -1.5026
 1625TIP3    H2 4819   7.814   7.062   0.624 -0.7470 -0.9435 -0.3672
 1626TIP3   OH2 4820   2.140   7.730   5.429  0.1953  0.0267 -0.0183
 1626TIP3    H1 4821   2.095   7.805   5.468 -2.4423 -1.0817 -0.7648
 1626TIP3    H2 4822   2.120   7.736   5.336  2.1615 -0.1972 -0.4917
 1627TIP3   OH2 4823   0.307   2.138   1.841  1.1555 -0.0383 -0.5574
 1627TIP3    H1 4824   0.320   2.126   1.746  0.3956 -1.1719 -0.5366
 1627TIP3    H2 4825   0.227   2.189   1.848  1.0092 -0.2715 -0.5214
 1628TIP3   OH2 4826   3.041   0.077   4.904  0.5458 -0.3487  0.1859
 1628TIP3    H1 4827   3.121   0.111   4.945  1.9320 -2.7933 -0.3130
 1628TIP3    H2 4828   3.055   0.093   4.810  0.8927 -1.5361  0.0156
 1629TIP3   OH2 4829   2.154   6.829   0.695 -0.8525  0.3719  0.1035
 1629TIP3    H1 4830   2.245   6.808   0.718  0.5207  2.9670 -2.3275
 1629TIP3    H2 4831   2.111   6.743   0.690  1.7577 -1.0607  0.1210
 1630TIP3   OH2 4832   5.203   2.358   3.781 -0.0453 -0.6266 -0.0759
 1630TIP3    H1 4833   5.259   2.407   3.842  0.9421 -2.0757  0.2307
 1630TIP3    H2 4834   5.204   2.269   3.814 -0.8240 -1.1127 -1.3057
 1631TIP3   OH2 4835   6.937   4.943   1.892  0.1717 -0.0825 -0.4572
 1631TIP3    H1 4836   6.874   5.011   1.914  1.3754  1.1726 -0.7462
 1631TIP3    H2 4837   6.893   4.861   1.914 -1.1311  0.8054  0.3541
 1632TIP3   OH2 4838   5.141   3.131   4.000  0.3435 -0.3101 -0.7123
 1632TIP3    H1 4839   5.169   3.040   4.001 -0.9057 -0.7142  0.4971
 1632TIP3    H2 4840   5.075   3.135   3.930  0.8829 -0.1712 -1.2159
 1633TIP3   OH2 4841   1.467   5.577   3.409  0.9374 -0.6293  0.5330
 1633TIP3    H1 4842   1.389   5.537   3.369 -0.1545  1.0742  0.8547
 1633TIP3    H2 4843   1.526   5.503   3.424  0.7989 -1.5866 -2.7625
 1634TIP3   OH2 4844   1.018   1.391   0.218 -0.1922 -0.5820 -0.1200
 1634TIP3    H1 4845   1.084   1.330   0.185  1.9853  1.1176  0.8696
 1634TIP3    H2 4846   1.005   1.366   0.309  0.3257  0.0664  0.1418
 1635TIP3   OH2 4847   3.303   0.367   2.016  0.1146 -0.2568 -0.3613
 1635TIP3    H1 4848   3.361   0.367   2.093  1.1439  2.0806 -1.0556
 1635TIP3    H2 4849   3.314   0.280   1.978  2.5977 -0.1492 -0.0321
 1636TIP3   OH2 4850   4.866   5.001   2.771 -0.3337 -0.2038 -0.1865
 1636TIP3    H1 4851   4.959   5.003   2.749 -0.4751  2.3615 -0.7953
 1636TIP3    H2 4852   4.821   5.017   2.688 -1.3390 -1.0199  0.1741
 1637TIP3   OH2 4853   6.921   4.600   0.865 -0.7340  0.2870  0.4772
 1637TIP3    H1 4854   6.870   4.542   0.807 -0.9053 -0.7002  1.5828
 1637TIP3    H2 4855   6.928   4.552   0.947  1.2992  0.7768  0.6251
 1638TIP3   OH2 4856   2.186   7.111   5.401 -0.0821 -0.5363  0.5084
 1638TIP3    H1 4857   2.222   7.197   5.380 -0.3607 -0.4699  0.3003
 1638TIP3    H2 4858   2.257   7.067   5.449  0.8786 -0.9461 -1.1853
 1639TIP3   OH2 4859   6.672   2.923   6.091  0.1861  0.4749  0.1779
 1639TIP3    H1 4860   6.613   2.879   6.153  0.1397  0.6910  0.2856
 1639TIP3    H2 4861   6.642   2.893   6.005  0.1683  0.2761  0.2532
 1640TIP3   OH2 4862   4.920   2.246   1.722  0.2815  0.6595 -0.3893
 1640TIP3    H1 4863   4.871   2.236   1.804  0.0018  1.4684 -0.4508
 1640TIP3    H2 4864   4.965   2.330   1.731  1.3205  0.1350 -0.5179
 1641TIP3   OH2 4865   1.044   0.703   3.451  0.1584 -0.8877  0.6283
 1641TIP3    H1 4866   1.112   0.770   3.457 -0.1438 -0.4729 -0.3258
 1641TIP3    H2 4867   0.966   0.743   3.489 -0.4357 -0.0875 -1.3023
 1642TIP3   OH2 4868   5.809   0.896   5.429  0.3928  0.3880  0.5947
 1642TIP3    H1 4869   5.799   0.801   5.437  1.5321  0.2968  1.2706
 1642TIP3    H2 4870   5.806   0.928   5.520 -1.2801  1.1652  0.2956
 1643TIP3   OH2 4871   1.285   7.395   1.090  0.5507  0.3893 -0.3951
 1643TIP3    H1 4872   1.267   7.457   1.019  0.3538  1.4105  0.5219
 1643TIP3    H2 4873   1.213   7.407   1.151 -1.2149 -2.9646 -1.5908
 1644TIP3   OH2 4874   2.659   4.049   5.903  0.2055  0.0534  0.2083
 1644TIP3    H1 4875   2.603   4.058   5.980 -0.0080 -0.4061  0.1080
 1644TIP3    H2 4876   2.598   4.030   5.832  0.4117  0.3645 -0.0575
 1645TIP3   OH2 4877   0.946   7.480   4.007  0.8566 -0.2710 -0.7330
 1645TIP3    H1 4878   0.924   7.566   4.044  0.4931 -1.4156  1.9117
 1645TIP3    H2 4879   1.041   7.483   3.996  0.9350  0.2733 -0.0147
 1646TIP3   OH2 4880   1.433   0.200   3.784  0.3458  0.0271 -0.3966
 1646TIP3    H1 4881   1.481   0.231   3.706  0.8203 -0.0518 -0.1404
 1646TIP3    H2 4882   1.458   0.261   3.853  0.5843 -0.3945 -0.1046
 1647TIP3   OH2 4883   5.190   6.556   1.512 -0.2585 -0.0440  0.7144
 1647TIP3    H1 4884   5.228   6.568   1.598  0.1028  1.8902  0.3387
 1647TIP3    H2 4885   5.265   6.540   1.454 -0.6196 -3.0380  0.9529
 1648TIP3   OH2 4886   7.444   2.866   5.601  0.3658 -0.0532 -0.2076
 1648TIP3    H1 4887   7.458   2.858   5.507 -1.0196  2.6945 -0.7464
 1648TIP3    H2 4888   7.474   2.954   5.623 -1.3952  0.2141  1.4483
 1649TIP3   OH2 4889   7.250   0.120   0.396  0.5164  0.1657  0.3341
 1649TIP3    H1 4890   7.327   0.136   0.340  1.1058 -0.0426  1.0701
 1649TIP3    H2 4891   7.209   0.205   0.406  1.5623  0.5924  1.2357
 1650TIP3   OH2 4892   7.481   6.180   6.145  0.2784 -0.2720 -0.0913
 1650TIP3    H1 4893   7.400   6.224   6.121  0.6845 -0.5152 -2.0814
 1650TIP3    H2 4894   7.549   6.224   6.094  1.5547  0.3349  1.9857
 1651TIP3   OH2 4895   4.058   5.875   3.274 -0.0646 -0.6357  0.5880
 1651TIP3    H1 4896   3.966   5.895   3.291  0.0319 -0.4336  0.8692
 1651TIP3    H2 4897   4.076   5.798   3.328  0.0496 -0.4188  0.8553
 1652TIP3   OH2 4898   1.489   0.899   4.730  0.1755 -0.8131 -0.1549
 1652TIP3    H1 4899   1.427   0.836   4.766  1.1770 -1.4721  0.4719
 1652TIP3    H2 4900   1.458   0.984   4.761 -0.2799 -1.1540  0.3397
 1653TIP3   OH2 4901   0.585   0.713   4.836  0.0237  0.3652  0.4399
 1653TIP3    H1 4902   0.672   0.697   4.801  0.2757 -2.1281  1.9015
 1653TIP3    H2 4903   0.586   0.670   4.922 -2.1910  1.5617  1.1448
 1654TIP3   OH2 4904   4.664   4.192   5.964  0.0357 -0.3478 -0.3462
 1654TIP3    H1 4905   4.636   4.241   6.042 -1.9185 -0.6981 -0.7791
 1654TIP3    H2 4906   4.653   4.100   5.988  0.0919 -0.4768 -0.8091
 1655TIP3   OH2 4907   6.315   7.708   4.533  0.3294  0.3543 -0.2279
 1655TIP3    H1 4908   6.355   7.794   4.521 -1.1160  1.5920  2.8151
 1655TIP3    H2 4909   6.376   7.660   4.588  0.3464  0.0341 -0.5223
 1656TIP3   OH2 4910   7.239   0.506   1.279 -0.4461 -0.4331  0.5954
 1656TIP3    H1 4911   7.247   0.461   1.363 -1.1194  0.2970  1.0668
 1656TIP3    H2 4912   7.200   0.591   1.301  0.5246  0.2821 -0.2983
 1657TIP3   OH2 4913   7.696   5.724   1.522 -0.5540 -0.8176  0.6386
 1657TIP3    H1 4914   7.676   5.712   1.429  0.4805 -0.4273  0.3590
 1657TIP3    H2 4915   7.769   5.665   1.539  2.0600  2.0447  0.1659
 1658TIP3   OH2 4916   2.883   5.073   0.922  0.0650 -0.1052 -0.1098
 1658TIP3    H1 4917   2.817   5.132   0.887  0.5022  0.2683 -0.3198
 1658TIP3    H2 4918   2.834   5.008   0.971 -0.4924 -0.1362 -0.7017
 1659TIP3   OH2 4919   6.794   0.869   5.680 -0.3266 -0.0726  0.1564
 1659TIP3    H1 4920   6.887   0.851   5.666 -0.3910  0.9287 -1.9164
 1659TIP3    H2 4921   6.793   0.937   5.748  0.3036 -1.4692  1.6385
 1660TIP3   OH2 4922   5.451   2.352   1.394 -0.0625  0.2595 -0.1201
 1660TIP3    H1 4923   5.508   2.420   1.429  0.4634  1.1346 -2.5015
 1660TIP3    H2 4924   5.435   2.378   1.303 -1.5765 -1.7092 -0.4935
 1661TIP3   OH2 4925   6.256   7.198   6.606  0.7453 -0.2090  0.2955
 1661TIP3    H1 4926   6.177   7.223   6.654  0.5908  0.1978 -0.1711
 1661TIP3    H2 4927   6.263   7.103   6.620 -0.2311 -0.3775 -0.2559
 1662TIP3   OH2 4928   4.639   4.369   6.164 -0.0425  0.1737  0.4529
 1662TIP3    H1 4929   4.590   4.393   6.243  0.6530 -0.7663  1.1881
 1662TIP3    H2 4930   4.670   4.453   6.129 -1.4263  0.7080  0.4507
 1663TIP3   OH2 4931   3.989   2.516   1.484 -0.6103  0.0322 -0.2173
 1663TIP3    H1 4932   3.946   2.599   1.462 -1.7316 -0.3207  0.5737
 1663TIP3    H2 4933   3.941   2.451   1.432  0.1684 -0.1550 -0.7193
 1664TIP3   OH2 4934   2.917   2.074   3.407 -0.2598 -0.9065  0.0562
 1664TIP3    H1 4935   2.871   1.993   3.387 -0.8199 -0.7781  0.7648
 1664TIP3    H2 4936   2.867   2.142   3.362 -0.4195 -0.8325  0.3454
 1665TIP3   OH2 4937   2.089   2.963   2.058 -0.3590  1.0460  0.6878
 1665TIP3    H1 4938   2.185   2.966   2.058 -0.3004  0.3452 -1.5276
 1665TIP3    H2 4939   2.062   3.051   2.032 -0.3178  1.0251  0.5780
 1666TIP3   OH2 4940   6.959   4.180   1.776 -0.0849  0.0090  0.1539
 1666TIP3    H1 4941   6.894   4.223   1.831 -0.0964  0.5479 -0.2715
 1666TIP3    H2 4942   7.026   4.148   1.838  0.1235  0.9873  0.4460
 1667TIP3   OH2 4943   2.192   6.752   5.603 -0.2718 -0.2990 -0.1728
 1667TIP3    H1 4944   2.229   6.712   5.682 -2.5786 -1.4170  0.4228
 1667TIP3    H2 4945   2.268   6.779   5.552  1.3226  0.0026  2.1771
 1668TIP3   OH2 4946   2.442   7.527   6.146  0.0839 -0.2576 -0.5100
 1668TIP3    H1 4947   2.404   7.470   6.079 -1.6198 -1.1795  1.1478
 1668TIP3    H2 4948   2.525   7.484   6.170 -0.0095 -0.7154 -0.9856
 1669TIP3   OH2 4949   1.637   4.853   1.798 -0.1038 -0.6960  0.1034
 1669TIP3    H1 4950   1.599   4.796   1.731 -2.3219 -0.6141  1.1967
 1669TIP3    H2 4951   1.615   4.942   1.771  0.4489 -0.5551  0.1025
 1670TIP3   OH2 4952   5.223   2.567   1.430 -0.1562 -0.7488  0.1243
 1670TIP3    H1 4953   5.183   2.554   1.517  1.8769 -0.5584  1.1456
 1670TIP3    H2 4954   5.285   2.495   1.422 -0.3114 -0.7464 -1.1930
 1671TIP3   OH2 4955   5.377   6.398   5.162  0.2523  0.8131  0.0898
 1671TIP3    H1 4956   5.367   6.386   5.256  1.4468  2.0562  0.3928
 1671TIP3    H2 4957   5.471   6.390   5.146  0.1969  1.7545 -0.8252
 1672TIP3   OH2 4958   3.396   1.938   0.829  0.3097 -0.2456 -0.1378
 1672TIP3    H1 4959   3.384   1.954   0.923  0.4742  0.0393 -0.1621
 1672TIP3    H2 4960   3.421   2.024   0.794  0.0642 -0.3103 -0.4713
 1673TIP3   OH2 4961   1.328   2.997   2.417  0.5573  0.3023 -0.1095
 1673TIP3    H1 4962   1.358   3.038   2.498  1.6270 -2.1801  0.8393
 1673TIP3    H2 4963   1.405   2.951   2.383 -0.3376 -0.1787 -1.5844
 1674TIP3   OH2 4964   0.891   1.716   0.329  0.0724 -0.2188  0.3167
 1674TIP3    H1 4965   0.806   1.731   0.286  0.0539  0.6319  0.6362
 1674TIP3    H2 4966   0.950   1.693   0.257 -0.5279 -1.2943  0.1488
 1675TIP3   OH2 4967   6.448   4.749   1.142 -0.0810 -0.4061 -0.2696
 1675TIP3    H1 4968   6.475   4.658   1.155 -1.7534 -1.1960 -1.8005
 1675TIP3    H2 4969   6.525   4.792   1.103  0.5097 -1.3381 -0.1443
 1676TIP3   OH2 4970   2.055   0.676   4.101  0.1419 -0.0102  0.4119
 1676TIP3    H1 4971   1.985   0.638   4.049  0.7539  1.3435 -1.5350
 1676TIP3    H2 4972   2.128   0.614   4.091 -0.0058 -0.1746  0.3481
 1677TIP3   OH2 4973   5.724   6.613   0.517 -0.4696 -1.2568 -0.2402
 1677TIP3    H1 4974   5.656   6.620   0.450 -1.8422  0.8832  1.2416
 1677TIP3    H2 4975   5.677   6.623   0.600  1.5282 -0.5821  0.8856
 1678TIP3   OH2 4976   2.454   1.461   5.956  0.1933  0.3712  0.6219
 1678TIP3    H1 4977   2.517   1.415   6.011 -0.8396  1.4114  2.7815
 1678TIP3    H2 4978   2.370   1.448   6.000 -1.0332 -0.3415 -1.7699
 1679TIP3   OH2 4979   6.011   3.460   2.299 -0.2596 -0.2162 -0.0285
 1679TIP3    H1 4980   6.016   3.462   2.204 -1.9267 -1.2949 -0.1888
 1679TIP3    H2 4981   6.050   3.542   2.328 -1.0823  0.8118 -1.7247
 1680TIP3   OH2 4982   2.595   3.376   5.870 -0.1175  0.1118  0.1108
 1680TIP3    H1 4983   2.677   3.422   5.884  0.2722 -0.4009 -0.4562
 1680TIP3    H2 4984   2.589   3.313   5.942 -0.3822  0.6525  0.5713
 1681TIP3   OH2 4985   1.930   2.300   2.458 -0.3960 -0.1245 -0.3294
 1681TIP3    H1 4986   1.867   2.361   2.498 -0.2354  0.9619 -1.6382
 1681TIP3    H2 4987   1.902   2.294   2.367  0.7893 -0.4404 -0.6902
 1682TIP3   OH2 4988   7.967   3.451   3.737  0.1388  0.0136  0.2574
 1682TIP3    H1 4989   8.024   3.489   3.804  1.9550  0.6192 -1.5425
 1682TIP3    H2 4990   8.027   3.409   3.675 -1.3923  0.2310 -1.4610
 1683TIP3   OH2 4991   0.278   5.926   6.088 -0.0821 -0.6216 -0.1421
 1683TIP3    H1 4992   0.190   5.923   6.126 -1.6636  0.1486 -3.3806
 1683TIP3    H2 4993   0.313   5.837   6.102 -1.7093 -1.1994  0.4768
 1684TIP3   OH2 4994   5.788   4.015   0.100 -0.0324  0.2106  0.0516
 1684TIP3    H1 4995   5.806   4.058   0.017  1.9123 -0.3106  0.1472
 1684TIP3    H2 4996   5.704   3.971   0.087 -1.5126  2.9440 -0.4429
 1685TIP3   OH2 4997   3.030   3.117   3.235 -0.2627 -0.5336 -0.2126
 1685TIP3    H1 4998   3.061   3.132   3.146 -0.1373  2.4505  0.2211
 1685TIP3    H2 4999   3.109   3.124   3.289 -0.4882 -1.3119  0.2326
 1686TIP3   OH2 5000   6.467   5.415   4.473 -0.4471  0.2917 -0.4986
 1686TIP3    H1 5001   6.439   5.358   4.545  0.7030  2.0051  1.4428
 1686TIP3    H2 5002   6.562   5.404   4.470 -0.2930  1.5101 -0.5708
 1687TIP3   OH2 5003   4.934   6.785   3.309 -0.4037  0.7175  0.0523
 1687TIP3    H1 5004   4.913   6.718   3.245 -0.4781  0.1098  0.7003
 1687TIP3    H2 5005   5.030   6.784   3.315 -0.4303  0.2630  0.4765
 1688TIP3   OH2 5006   2.855   1.467   1.181 -0.1591 -0.2332  0.2084
 1688TIP3    H1 5007   2.834   1.517   1.102  0.8865 -0.9302 -0.5327
 1688TIP3    H2 5008   2.836   1.527   1.253  1.4166  1.3925 -0.6655
 1689TIP3   OH2 5009   3.842   1.750   0.962 -0.1352  0.3334 -0.0130
 1689TIP3    H1 5010   3.778   1.779   0.897  0.8768 -0.9301 -1.6675
 1689TIP3    H2 5011   3.879   1.830   0.998 -0.2871  1.1055 -1.4856
 1690TIP3   OH2 5012   3.917   5.431   3.353 -0.1206  0.1643  0.5386
 1690TIP3    H1 5013   3.947   5.522   3.349  0.6010 -0.0035  1.5694
 1690TIP3    H2 5014   3.985   5.386   3.404 -1.0386 -0.7013  1.0350
 1691TIP3   OH2 5015   4.372   2.237   5.489  0.7147 -0.5307 -0.4249
 1691TIP3    H1 5016   4.297   2.178   5.482  0.1440  0.3364 -2.1715
 1691TIP3    H2 5017   4.333   2.321   5.513  1.2332 -0.2732 -0.4910
 1692TIP3   OH2 5018   7.852   3.485   0.239  0.2001  0.5259  0.0558
 1692TIP3    H1 5019   7.805   3.408   0.206 -0.3652 -0.5292  3.0066
 1692TIP3    H2 5020   7.942   3.453   0.250 -0.2455 -0.1673  2.2741
 1693TIP3   OH2 5021   6.425   2.225   1.499  0.0568 -0.3987 -0.1057
 1693TIP3    H1 5022   6.420   2.225   1.403  0.7180 -2.9925 -0.2256
 1693TIP3    H2 5023   6.368   2.153   1.526 -2.0583  1.7867  1.6888
 1694TIP3   OH2 5024   3.352   0.236   0.302  0.2259 -0.1183  0.8591
 1694TIP3    H1 5025   3.274   0.291   0.293 -0.0779 -0.5458  0.8377
 1694TIP3    H2 5026   3.394   0.267   0.382  0.6096  0.8227  0.3112
 1695TIP3   OH2 5027   1.628   7.527   6.209 -0.3431  0.4304 -0.4606
 1695TIP3    H1 5028   1.532   7.524   6.205 -0.4087 -0.7146  1.0480
 1695TIP3    H2 5029   1.655   7.435   6.203  0.7332  0.8125 -1.8668
 1696TIP3   OH2 5030   3.752   1.114   2.026 -0.0316  0.2213  0.2664
 1696TIP3    H1 5031   3.675   1.133   1.972  0.7772  0.9221 -0.6639
 1696TIP3    H2 5032   3.720   1.053   2.092 -0.7493 -1.8291 -1.8330
 1697TIP3   OH2 5033   2.816   1.073   0.766 -0.1410  0.0396  0.0059
 1697TIP3    H1 5034   2.720   1.063   0.764 -0.1629 -0.0456  1.0010
 1697TIP3    H2 5035   2.845   1.006   0.828  0.6083 -0.2137 -0.6093
 1698TIP3   OH2 5036   2.197   3.820   4.432  0.3284 -0.4515  0.2769
 1698TIP3    H1 5037   2.263   3.850   4.369  0.0574  0.7598  0.5408
 1698TIP3    H2 5038   2.113   3.837   4.389  0.0914  1.5163  1.3769
 1699TIP3   OH2 5039   4.716   4.897   2.314  0.0311  0.2316  0.9365
 1699TIP3    H1 5040   4.628   4.877   2.348 -0.4227  0.0738 -0.2557
 1699TIP3    H2 5041   4.742   4.977   2.359  0.3032 -0.9869  3.0636
 1700TIP3   OH2 5042   0.034   0.853   6.612  0.0436  0.0068  0.4068
 1700TIP3    H1 5043  -0.053   0.888   6.595  1.1663  2.5336 -0.6950
 1700TIP3    H2 5044   0.062   0.816   6.528  0.1425 -0.5364  0.6782
 1701TIP3   OH2 5045   3.100   7.152   3.547 -0.1159  0.0649 -0.1891
 1701TIP3    H1 5046   3.070   7.090   3.613 -4.4346  1.0242 -0.9249
 1701TIP3    H2 5047   3.116   7.233   3.595  0.8872 -0.3274  0.1594
 1702TIP3   OH2 5048   7.080   1.166   0.554  0.1061  0.0680  0.0042
 1702TIP3    H1 5049   7.027   1.090   0.578  0.8753 -0.8092 -0.9876
 1702TIP3    H2 5050   7.077   1.169   0.459  0.3537  1.1008  0.0136
 1703TIP3   OH2 5051   2.498   2.954   0.603 -0.2662  0.5613  0.4910
 1703TIP3    H1 5052   2.563   2.913   0.660  1.1581 -0.1968 -1.5383
 1703TIP3    H2 5053   2.427   2.890   0.597  0.5829 -0.3451 -0.2782
 1704TIP3   OH2 5054   1.086   4.631   4.691 -0.0071  0.0116 -0.2616
 1704TIP3    H1 5055   1.000   4.653   4.654 -1.1482 -1.5209  1.3054
 1704TIP3    H2 5056   1.090   4.682   4.773 -0.9419 -2.3483  1.3574
 1705TIP3   OH2 5057   1.040   6.629   0.354  0.0142 -0.0673  0.3992
 1705TIP3    H1 5058   0.966   6.601   0.407  0.1225 -1.6893 -0.2465
 1705TIP3    H2 5059   1.063   6.552   0.301 -0.0643  1.4471 -1.9936
 1706TIP3   OH2 5060   0.379   2.382   3.335 -0.5250 -0.3978 -0.1170
 1706TIP3    H1 5061   0.361   2.472   3.364  0.9142 -0.0854 -0.0844
 1706TIP3    H2 5062   0.332   2.374   3.252  0.4581  0.9176 -0.8546
 1707TIP3   OH2 5063   5.535   1.199   5.087  0.5170  0.0084 -0.0259
 1707TIP3    H1 5064   5.618   1.162   5.119  0.4499  2.0315  2.9466
 1707TIP3    H2 5065   5.467   1.147   5.130  0.3167 -0.0006 -0.3538
 1708TIP3   OH2 5066   4.521   6.995   2.021  0.1629  0.4088 -0.1668
 1708TIP3    H1 5067   4.572   7.022   1.945 -0.3579  3.7941  0.5150
 1708TIP3    H2 5068   4.572   6.923   2.060  3.4119  2.2379 -0.6485
 1709TIP3   OH2 5069   3.637   1.774   0.192  0.0576 -0.2138  0.2580
 1709TIP3    H1 5070   3.632   1.865   0.221  0.2250 -0.2725  0.4712
 1709TIP3    H2 5071   3.703   1.734   0.249  2.5060  0.3308 -2.0213
 1710TIP3   OH2 5072   1.976   6.099   6.730  0.1134 -0.1174 -0.1590
 1710TIP3    H1 5073   1.939   6.018   6.762 -0.5031  0.2551  0.0836
 1710TIP3    H2 5074   1.923   6.122   6.653  0.5533 -0.1641 -0.4813
 1711TIP3   OH2 5075   1.133   1.627   3.331  0.5160  0.5346  0.3488
 1711TIP3    H1 5076   1.084   1.606   3.251 -0.3998 -0.1106  1.0434
 1711TIP3    H2 5077   1.167   1.715   3.317 -1.4814  1.3285  0.1018
 1712TIP3   OH2 5078   1.662   6.955   3.819  0.0146  0.1623  0.1337
 1712TIP3    H1 5079   1.626   6.866   3.817  2.0750 -0.8098 -2.9693
 1712TIP3    H2 5080   1.716   6.957   3.898  1.0717 -1.9819 -0.4358
 1713TIP3   OH2 5081   7.295   2.682   1.866  0.3043  0.1926  0.5644
 1713TIP3    H1 5082   7.230   2.612   1.854  0.7648  0.0448 -1.5837
 1713TIP3    H2 5083   7.265   2.753   1.809  0.3246  1.4293  2.0332
 1714TIP3   OH2 5084   7.286   2.150   3.865 -0.0976 -0.1211  0.1350
 1714TIP3    H1 5085   7.291   2.213   3.793 -1.0103 -2.3259 -1.9817
 1714TIP3    H2 5086   7.192   2.136   3.877  0.0872 -0.7577  0.8805
 1715TIP3   OH2 5087   2.507   4.315   3.176  0.4833  0.0024  0.4064
 1715TIP3    H1 5088   2.439   4.382   3.167  0.3852 -0.0285  0.8773
 1715TIP3    H2 5089   2.574   4.356   3.231  1.7999  0.7449 -1.6386
 1716TIP3   OH2 5090   2.038   4.999   2.481  0.1207 -0.3871 -0.3330
 1716TIP3    H1 5091   2.121   5.001   2.434 -0.0969  0.4079 -0.6885
 1716TIP3    H2 5092   1.972   4.989   2.413 -0.1174 -0.5077 -0.0890
 1717TIP3   OH2 5093   2.407   1.654   2.076 -0.3809 -0.4786 -0.3198
 1717TIP3    H1 5094   2.483   1.678   2.130 -0.9502 -0.6240  0.5689
 1717TIP3    H2 5095   2.393   1.561   2.096  1.1738 -1.3762 -2.9394
 1718TIP3   OH2 5096   2.919   0.599   3.315 -0.4728 -0.1122  0.5031
 1718TIP3    H1 5097   2.829   0.590   3.348 -1.1757  0.6923 -1.0976
 1718TIP3    H2 5098   2.909   0.615   3.221  1.3955 -0.8359  0.1400
 1719TIP3   OH2 5099   6.037   3.740   0.041  0.4549 -0.2454  0.3887
 1719TIP3    H1 5100   6.031   3.736   0.136 -0.9174 -2.7257  0.2820
 1719TIP3    H2 5101   6.097   3.669   0.017  1.3755  0.8153 -0.6043
 1720TIP3   OH2 5102   1.483   6.172   4.584  0.3834  0.0197 -0.1947
 1720TIP3    H1 5103   1.554   6.114   4.554 -0.0223 -1.1240  0.9695
 1720TIP3    H2 5104   1.504   6.257   4.545  0.3588 -1.1314 -2.9617
 1721TIP3   OH2 5105   3.065   5.616   4.742 -0.1975  0.5328  0.2711
 1721TIP3    H1 5106   3.015   5.534   4.733  1.2825 -0.8124  2.9224
 1721TIP3    H2 5107   3.153   5.593   4.713  0.5145  0.7945  2.0888
 1722TIP3   OH2 5108   6.719   2.203   0.786 -0.5899  0.4805  0.1314
 1722TIP3    H1 5109   6.667   2.156   0.720  0.9542  0.7140 -1.3452
 1722TIP3    H2 5110   6.745   2.136   0.848 -0.4351 -0.1670 -0.6129
 1723TIP3   OH2 5111   1.147   2.313   1.762  0.3098  0.0305 -0.5795
 1723TIP3    H1 5112   1.082   2.357   1.817  0.1179 -0.5968 -0.3008
 1723TIP3    H2 5113   1.162   2.375   1.690 -3.1755 -1.1542 -2.5779
 1724TIP3   OH2 5114   7.582   0.157   2.437  0.4164  0.0197 -0.2319
 1724TIP3    H1 5115   7.642   0.105   2.491  0.5822  0.0100 -0.4231
 1724TIP3    H2 5116   7.599   0.126   2.347 -2.4241 -2.6386 -0.0274
 1725TIP3   OH2 5117   4.996   3.792   2.838  0.0454  0.0205  0.5093
 1725TIP3    H1 5118   5.088   3.792   2.813 -0.4956  0.8134 -1.8222
 1725TIP3    H2 5119   4.960   3.715   2.794 -0.7130  0.7203 -0.1420
 1726TIP3   OH2 5120   0.335   5.597   0.146  0.5033 -0.2463  1.0881
 1726TIP3    H1 5121   0.250   5.599   0.102  0.5810 -0.5316  0.9193
 1726TIP3    H2 5122   0.367   5.507   0.132  2.0867  0.5661 -1.2374
 1727TIP3   OH2 5123   0.757   3.116   2.980  0.0624 -0.1481 -0.5775
 1727TIP3    H1 5124   0.686   3.052   2.983  1.2513 -1.5227  2.3518
 1727TIP3    H2 5125   0.804   3.097   2.898 -0.8862 -1.5453 -0.8272
 1728TIP3   OH2 5126   6.800   3.376   4.458  0.3091 -0.3169  0.7053
 1728TIP3    H1 5127   6.756   3.434   4.520  0.9329  1.1662 -0.1702
 1728TIP3    H2 5128   6.870   3.335   4.508  1.0500  1.1537  0.9230
 1729TIP3   OH2 5129   3.668   0.818   0.232 -0.1723 -0.0159 -0.4784
 1729TIP3    H1 5130   3.625   0.733   0.243 -1.6154  0.6570 -0.6534
 1729TIP3    H2 5131   3.738   0.801   0.169 -1.1810 -0.8421 -1.4216
 1730TIP3   OH2 5132   5.019   0.038   2.380  0.1242  0.3404 -0.0523
 1730TIP3    H1 5133   4.941   0.092   2.367  0.7146  1.9129  2.1564
 1730TIP3    H2 5134   5.081   0.067   2.313 -0.7559 -0.0719 -1.0597
 1731TIP3   OH2 5135   4.215   6.502   0.171  0.1370  0.0228 -0.2017
 1731TIP3    H1 5136   4.181   6.520   0.084  3.1172  1.3697 -1.2059
 1731TIP3    H2 5137   4.206   6.407   0.181  0.0482 -0.2083 -2.1191
 1732TIP3   OH2 5138   8.102   5.481   5.363  0.3697 -0.0062  0.6213
 1732TIP3    H1 5139   8.094   5.427   5.441 -0.5011 -1.0143 -0.1329
 1732TIP3    H2 5140   8.027   5.457   5.309  0.2181  1.6234  0.0349
 1733TIP3   OH2 5141   7.796   2.491   5.949 -0.5458  0.2212 -0.7935
 1733TIP3    H1 5142   7.834   2.405   5.970 -1.4745 -0.3115 -1.2249
 1733TIP3    H2 5143   7.861   2.533   5.894  1.1088  0.8800  1.5095
 1734TIP3   OH2 5144   4.100   0.176   4.625  0.2784 -0.2147 -0.5613
 1734TIP3    H1 5145   4.122   0.263   4.592  0.9394  0.3734  1.2794
 1734TIP3    H2 5146   4.128   0.178   4.717 -1.5695 -1.6920  0.0838
 1735TIP3   OH2 5147   5.278   4.749   0.587  0.8701 -0.3038  0.7676
 1735TIP3    H1 5148   5.298   4.659   0.614 -1.6279 -0.6820  1.6143
 1735TIP3    H2 5149   5.183   4.757   0.597  0.8976  2.1667 -0.1651
 1736TIP3   OH2 5150   4.164   5.563   2.826 -0.1028  0.3170 -0.3589
 1736TIP3    H1 5151   4.238   5.564   2.887 -1.5502 -0.8966  1.5514
 1736TIP3    H2 5152   4.094   5.606   2.874 -0.8034  0.9612 -1.9229
 1737TIP3   OH2 5153   1.392   1.369   6.795 -0.4480 -0.1585 -0.4933
 1737TIP3    H1 5154   1.472   1.330   6.760  0.6676  1.3964  0.2166
 1737TIP3    H2 5155   1.369   1.437   6.732 -0.1043  0.6760  0.2639
 1738TIP3   OH2 5156   1.683   5.523   1.484  0.3493 -0.2080  0.0950
 1738TIP3    H1 5157   1.650   5.447   1.435  0.8996 -0.7202  0.4938
 1738TIP3    H2 5158   1.634   5.597   1.450  0.5747 -0.5813 -1.0917
 1739TIP3   OH2 5159   0.851   6.638   1.480 -0.4934  0.1960 -0.0225
 1739TIP3    H1 5160   0.945   6.636   1.501 -0.4815  0.5963 -0.0348
 1739TIP3    H2 5161   0.835   6.554   1.438 -0.7901 -1.2437  2.7576
 1740TIP3   OH2 5162   3.834   7.763   4.413 -0.0185  0.0697  0.1262
 1740TIP3    H1 5163   3.800   7.842   4.454 -0.5425  0.9920 -1.9309
 1740TIP3    H2 5164   3.863   7.791   4.326  2.0695 -1.5380  0.2058
 1741TIP3   OH2 5165   4.111   5.410   5.704  0.3003 -0.4112  0.2819
 1741TIP3    H1 5166   4.203   5.386   5.695  0.2992 -0.0035 -0.9372
 1741TIP3    H2 5167   4.111   5.506   5.702 -0.0476 -0.3656  1.4862
 1742TIP3   OH2 5168   0.879   7.241   6.537 -0.6832  0.0543  0.1566
 1742TIP3    H1 5169   0.904   7.255   6.628  1.0948  1.0750 -0.4451
 1742TIP3    H2 5170   0.961   7.232   6.490 -1.5520 -0.0009 -1.4219
 1743TIP3   OH2 5171   1.274   6.511   3.720 -0.2873 -0.0123 -0.1095
 1743TIP3    H1 5172   1.261   6.439   3.783 -0.2357 -1.4155 -1.6335
 1743TIP3    H2 5173   1.339   6.477   3.659 -0.1263  1.4298 -0.7609
 1744TIP3   OH2 5174   1.277   3.589   0.207 -0.8980 -0.0834  0.0859
 1744TIP3    H1 5175   1.339   3.662   0.204 -2.1194  1.0009  0.5027
 1744TIP3    H2 5176   1.236   3.589   0.121  0.4214 -1.5156 -0.5967
 1745TIP3   OH2 5177   3.272   1.370   1.409  0.4454 -0.0082 -0.0113
 1745TIP3    H1 5178   3.352   1.390   1.458 -0.4317  0.4344  1.2889
 1745TIP3    H2 5179   3.289   1.286   1.367  1.4040 -0.1681  0.6775
 1746TIP3   OH2 5180   7.260   7.794   4.761 -0.0970  0.4369 -0.2061
 1746TIP3    H1 5181   7.341   7.844   4.775 -2.4535  4.4670  0.5354
 1746TIP3    H2 5182   7.246   7.748   4.843  0.6126  1.0371  0.2695
 1747TIP3   OH2 5183   7.582   7.581   6.063 -0.3725 -0.1570  0.4903
 1747TIP3    H1 5184   7.543   7.511   6.115  0.5628 -0.0556  1.3629
 1747TIP3    H2 5185   7.526   7.587   5.986 -0.6134 -1.6895  0.5106
 1748TIP3   OH2 5186   3.797   4.345   5.301  0.5969  0.1667  0.2741
 1748TIP3    H1 5187   3.860   4.395   5.354  0.7610 -0.1814  0.4108
 1748TIP3    H2 5188   3.834   4.345   5.213  1.3275 -0.9044  0.5544
 1749TIP3   OH2 5189   1.508   6.360   5.225  0.4469  0.2536 -0.3481
 1749TIP3    H1 5190   1.587   6.379   5.175  0.0599  0.7651 -0.7742
 1749TIP3    H2 5191   1.463   6.445   5.232  0.3046  0.1114  0.5264
 1750TIP3   OH2 5192   2.753   5.555   2.762  0.3233 -0.2804  0.2729
 1750TIP3    H1 5193   2.820   5.522   2.822  0.5805 -0.1891  0.0381
 1750TIP3    H2 5194   2.759   5.651   2.770  0.5098 -0.2641 -0.0653
 1751TIP3   OH2 5195   2.070   6.487   4.364 -0.4913 -0.3075  0.3425
 1751TIP3    H1 5196   2.082   6.427   4.438 -1.4527 -1.0568 -0.0793
 1751TIP3    H2 5197   2.059   6.573   4.404  0.8384 -0.4148  0.9654
 1752TIP3   OH2 5198   2.982   7.581   6.579  0.3534 -0.6060 -0.2085
 1752TIP3    H1 5199   3.069   7.575   6.541  0.2170 -1.7649 -0.3793
 1752TIP3    H2 5200   2.922   7.571   6.505  0.0828 -0.7494  0.0233
 1753TIP3   OH2 5201   6.513   4.646   2.305  0.0533  0.3326 -0.2292
 1753TIP3    H1 5202   6.452   4.716   2.283 -1.3369 -0.8553 -0.2971
 1753TIP3    H2 5203   6.600   4.684   2.291 -0.6520  2.0453 -0.1918
 1754TIP3   OH2 5204   5.921   6.675   1.434  0.5518  0.0997 -0.1671
 1754TIP3    H1 5205   5.982   6.641   1.499  0.6130  0.9723  0.2561
 1754TIP3    H2 5206   5.866   6.601   1.410  2.0855 -0.8306 -0.9206
 1755TIP3   OH2 5207   4.267   2.915   3.540 -0.3128  0.3386 -0.2150
 1755TIP3    H1 5208   4.316   2.893   3.462 -0.2687 -0.8270  0.1201
 1755TIP3    H2 5209   4.243   3.007   3.529  0.4381  0.4269 -1.1803
 1756TIP3   OH2 5210   6.475   0.005   3.998  0.5127  0.1448  0.3201
 1756TIP3    H1 5211   6.438   0.090   4.024  0.1223 -0.3916  1.6045
 1756TIP3    H2 5212   6.399  -0.051   3.982  0.7629  0.1300 -0.9525
 1757TIP3   OH2 5213   3.155   7.621   1.297  0.4140 -0.2467 -0.1164
 1757TIP3    H1 5214   3.066   7.587   1.289  0.4652  0.0320 -2.2319
 1757TIP3    H2 5215   3.143   7.710   1.330 -0.0374 -0.4319  0.2377
 1758TIP3   OH2 5216   2.405   4.898   5.042 -0.3239 -0.4554  0.2863
 1758TIP3    H1 5217   2.482   4.936   5.000 -0.0999 -0.2169  0.9051
 1758TIP3    H2 5218   2.355   4.859   4.970 -0.8726  1.5343 -0.4783
 1759TIP3   OH2 5219   2.937   7.771   0.287  0.8819  0.2977 -0.1871
 1759TIP3    H1 5220   2.938   7.862   0.317 -0.0719  0.1051  0.4649
 1759TIP3    H2 5221   3.003   7.728   0.341 -0.2239  0.1411  1.0992
 1760TIP3   OH2 5222   1.472   2.800   0.153 -0.4205  0.1322 -0.3332
 1760TIP3    H1 5223   1.503   2.757   0.233 -0.7732  0.3422 -0.0786
 1760TIP3    H2 5224   1.542   2.860   0.129  0.7696 -1.6270 -1.5469
 1761TIP3   OH2 5225   6.220   6.956   5.917 -0.0641 -0.1104 -0.9277
 1761TIP3    H1 5226   6.290   6.967   5.982 -2.5044 -0.3456  1.9642
 1761TIP3    H2 5227   6.261   6.978   5.833  3.2691  0.3463  0.6663
 1762TIP3   OH2 5228   1.596   4.764   2.833 -0.0449  0.2023 -0.2142
 1762TIP3    H1 5229   1.565   4.800   2.916 -0.0992  1.3857 -0.7417
 1762TIP3    H2 5230   1.689   4.784   2.832  0.5028 -1.9422  0.6307
 1763TIP3   OH2 5231   5.205   6.921   1.787 -0.4353 -0.2357 -0.0921
 1763TIP3    H1 5232   5.165   6.956   1.708  0.1275 -0.3720 -0.4436
 1763TIP3    H2 5233   5.247   6.840   1.759  0.1648 -0.0502  0.2328
 1764TIP3   OH2 5234   3.092   7.244   5.846  0.7703 -0.7019 -0.3804
 1764TIP3    H1 5235   3.093   7.300   5.768  0.3526  1.3748  1.0300
 1764TIP3    H2 5236   3.154   7.285   5.906 -0.8543 -0.6897  1.3757
 1765TIP3   OH2 5237   5.376   4.123   3.717 -0.1289  0.2443 -0.5817
 1765TIP3    H1 5238   5.410   4.033   3.719  2.8425  1.2917  0.1363
 1765TIP3    H2 5239   5.283   4.113   3.739  0.4325 -2.5004  1.0117
 1766TIP3   OH2 5240   1.394   1.039   2.124  0.0950  0.0295 -0.5264
 1766TIP3    H1 5241   1.471   1.008   2.076  0.4612 -1.9992  1.2261
 1766TIP3    H2 5242   1.429   1.104   2.185  0.7584 -1.8173  1.1790
 1767TIP3   OH2 5243   5.685   3.729   3.789 -0.0521 -0.2153 -0.5952
 1767TIP3    H1 5244   5.650   3.655   3.739  0.3284 -0.3800 -0.6169
 1767TIP3    H2 5245   5.753   3.691   3.845 -0.5297 -0.0494  0.1162
 1768TIP3   OH2 5246   0.351   5.880   2.398 -0.0800 -0.4743  0.4283
 1768TIP3    H1 5247   0.292   5.808   2.375  0.0579 -0.0440 -1.4362
 1768TIP3    H2 5248   0.334   5.946   2.331 -0.8268  1.6238  2.5695
 1769TIP3   OH2 5249   3.805   1.964   1.793  1.0688  1.1771  0.8694
 1769TIP3    H1 5250   3.835   2.035   1.850 -0.4082  2.5446  0.0354
 1769TIP3    H2 5251   3.711   1.956   1.811  1.1873 -0.5850  0.9279
 1770TIP3   OH2 5252   6.789   4.538   1.565 -0.4151  0.0325  0.1508
 1770TIP3    H1 5253   6.723   4.470   1.555  0.0801 -0.7320  1.8004
 1770TIP3    H2 5254   6.870   4.499   1.532 -0.6700  0.8928 -1.6619
 1771TIP3   OH2 5255   3.785   0.082   3.130 -0.6239  0.2894  0.4162
 1771TIP3    H1 5256   3.817   0.003   3.087  0.4242  0.8436  0.1292
 1771TIP3    H2 5257   3.737   0.051   3.206  0.3900 -0.5942  0.7089
 1772TIP3   OH2 5258   5.517   0.977   4.274  0.7346 -0.4599 -0.8221
 1772TIP3    H1 5259   5.560   0.899   4.238 -1.1174 -2.0611  0.2849
 1772TIP3    H2 5260   5.435   0.983   4.225  1.2714  1.4428 -1.5816
 1773TIP3   OH2 5261   2.783   3.408   3.567  0.2370  0.2078  0.3089
 1773TIP3    H1 5262   2.769   3.427   3.474 -1.4506  2.6226  0.9594
 1773TIP3    H2 5263   2.696   3.386   3.600  1.1371 -2.7098  0.9712
 1774TIP3   OH2 5264   5.494   4.705   5.882 -0.3737  0.3735 -0.2012
 1774TIP3    H1 5265   5.413   4.689   5.833 -1.0307  0.8258  0.7097
 1774TIP3    H2 5266   5.468   4.763   5.954  0.6827  0.2033  0.3401
 1775TIP3   OH2 5267   2.962   7.454   1.083 -0.1202  0.3814 -0.3029
 1775TIP3    H1 5268   2.984   7.483   0.995  0.0861  0.6692 -0.1577
 1775TIP3    H2 5269   2.924   7.531   1.125 -0.7043  0.0988 -0.3089
 1776TIP3   OH2 5270   1.544   4.292   6.330 -0.3763  0.2483  0.2443
 1776TIP3    H1 5271   1.450   4.279   6.319 -0.4193  0.5183  0.2950
 1776TIP3    H2 5272   1.569   4.226   6.396 -0.4458 -0.1208 -0.0958
 1777TIP3   OH2 5273   5.623   6.724   5.731  0.4259  0.1353  0.4753
 1777TIP3    H1 5274   5.565   6.746   5.804  0.4831  0.5801  0.3889
 1777TIP3    H2 5275   5.571   6.742   5.653  0.3426 -0.4021  0.4065
 1778TIP3   OH2 5276   1.728   2.878   5.384 -0.2031 -0.3584 -0.0507
 1778TIP3    H1 5277   1.750   2.867   5.476  0.1715  1.0948  0.0667
 1778TIP3    H2 5278   1.700   2.792   5.355 -1.5036 -0.5770  1.7325
 1779TIP3   OH2 5279   2.730   3.400   1.715  0.4746  0.0050  0.3158
 1779TIP3    H1 5280   2.693   3.360   1.637 -0.5967  0.6990  0.4516
 1779TIP3    H2 5281   2.756   3.487   1.687  1.8161 -0.3811  0.2876
 1780TIP3   OH2 5282   4.876   2.993   4.184  0.0490 -0.3593  0.2092
 1780TIP3    H1 5283   4.834   2.999   4.098  0.6639 -1.6788 -0.2107
 1780TIP3    H2 5284   4.866   3.081   4.222 -0.9793  0.0071 -0.8481
 1781TIP3   OH2 5285   0.788   5.518   5.727 -0.2593  0.0849  0.2775
 1781TIP3    H1 5286   0.803   5.546   5.637 -0.2995 -0.9564 -0.0758
 1781TIP3    H2 5287   0.766   5.598   5.774 -0.8576  0.5594 -0.7695
 1782TIP3   OH2 5288   4.914   0.796   6.014 -0.3694 -0.0806  0.0035
 1782TIP3    H1 5289   4.835   0.776   6.065 -0.1531  2.1288  1.3517
 1782TIP3    H2 5290   4.986   0.763   6.067 -0.1704  1.8797  1.0692
 1783TIP3   OH2 5291   6.169   2.606   0.271 -0.4444 -0.2217  0.2352
 1783TIP3    H1 5292   6.172   2.610   0.175 -1.0443 -2.9109  0.0155
 1783TIP3    H2 5293   6.076   2.596   0.292 -0.2741 -0.1054  1.0747
 1784TIP3   OH2 5294   2.882   6.320   5.091  0.5051 -0.1604  0.0324
 1784TIP3    H1 5295   2.900   6.363   5.007  1.7685 -0.5727  0.0811
 1784TIP3    H2 5296   2.966   6.286   5.120  0.4002  1.2068  2.1782
 1785TIP3   OH2 5297   0.547   7.247   1.215 -0.0342 -0.3822  0.7713
 1785TIP3    H1 5298   0.630   7.228   1.260  0.8105  0.5452 -0.3237
 1785TIP3    H2 5299   0.566   7.231   1.123 -0.1053  2.7084  0.0970
 1786TIP3   OH2 5300   5.621   3.233   5.496  0.1674  0.1047  0.0572
 1786TIP3    H1 5301   5.599   3.319   5.461  2.0536  1.1409  1.2819
 1786TIP3    H2 5302   5.709   3.215   5.464  0.5838 -0.4518  1.4140
 1787TIP3   OH2 5303   6.211   2.392   6.381 -0.1271  0.4272  0.3217
 1787TIP3    H1 5304   6.282   2.448   6.410  0.5980 -0.7068  0.7990
 1787TIP3    H2 5305   6.231   2.372   6.289  0.5331 -0.3990  0.6320
 1788TIP3   OH2 5306   0.898   2.858   3.768  0.4228  0.1296  0.0214
 1788TIP3    H1 5307   0.919   2.928   3.829 -0.9632 -0.7696  1.6158
 1788TIP3    H2 5308   0.979   2.806   3.763  0.4751  0.0206  1.4291
 1789TIP3   OH2 5309   3.458   5.662   5.378  0.5797 -0.2663  0.2015
 1789TIP3    H1 5310   3.365   5.685   5.376  0.2691 -1.4302 -0.8629
 1789TIP3    H2 5311   3.493   5.696   5.295  1.2585  0.6806  0.8564
 1790TIP3   OH2 5312   2.818   3.262   0.764  0.4384 -0.0562  0.1522
 1790TIP3    H1 5313   2.749   3.267   0.698 -1.1169 -2.6318  1.4175
 1790TIP3    H2 5314   2.808   3.344   0.814  0.5346  1.1312 -1.6902
 1791TIP3   OH2 5315   2.009   3.268   3.307 -0.4550 -0.0978 -0.2327
 1791TIP3    H1 5316   1.916   3.289   3.313 -0.2517  0.9079 -0.4156
 1791TIP3    H2 5317   2.043   3.287   3.394 -0.3169  0.1038 -0.3292
 1792TIP3   OH2 5318   0.192   3.221   1.281  0.2716  0.3432  0.6589
 1792TIP3    H1 5319   0.274   3.200   1.325  0.9716 -2.2157 -1.5806
 1792TIP3    H2 5320   0.125   3.210   1.348  1.5462  0.0287  1.9276
 1793TIP3   OH2 5321   1.421   3.461   0.947  0.2532  0.1766 -0.2356
 1793TIP3    H1 5322   1.470   3.539   0.973 -0.7151  1.0594 -0.9631
 1793TIP3    H2 5323   1.447   3.445   0.856  0.4702 -0.3809 -0.0813
 1794TIP3   OH2 5324   0.152   3.266   5.770  0.0468  0.8812 -0.9114
 1794TIP3    H1 5325   0.211   3.341   5.770  0.2201  0.7920  0.8654
 1794TIP3    H2 5326   0.201   3.196   5.727  0.1630  1.5579 -1.9137
 1795TIP3   OH2 5327   0.280   3.232   2.915  0.7867  0.2249 -0.5155
 1795TIP3    H1 5328   0.201   3.258   2.868  1.1534  0.2752 -1.1143
 1795TIP3    H2 5329   0.248   3.177   2.987  0.2863 -0.6621 -1.3937
 1796TIP3   OH2 5330   3.535   0.500   2.296  0.0603  0.3000 -0.3131
 1796TIP3    H1 5331   3.481   0.442   2.350 -1.0266  2.4384  1.0414
 1796TIP3    H2 5332   3.623   0.463   2.300 -0.1528 -0.0850  2.3214
 1797TIP3   OH2 5333   1.418   1.548   3.963 -0.1779 -0.0675 -0.2282
 1797TIP3    H1 5334   1.371   1.631   3.964 -0.3576 -0.1419 -1.2993
 1797TIP3    H2 5335   1.498   1.565   4.014 -2.4594 -0.6976  4.0155
 1798TIP3   OH2 5336   5.749   3.889   1.080 -0.4814 -0.1089 -0.7634
 1798TIP3    H1 5337   5.760   3.938   1.161  1.8846 -1.2364 -0.3289
 1798TIP3    H2 5338   5.712   3.953   1.019 -1.8033  0.9075  1.0104
 1799TIP3   OH2 5339   3.166   2.182   3.294  0.0201 -0.1522  0.4408
 1799TIP3    H1 5340   3.089   2.153   3.345  0.2409 -1.0943  0.2580
 1799TIP3    H2 5341   3.130   2.209   3.210 -0.3575  1.4762  1.0933
 1800TIP3   OH2 5342   3.669   1.364   0.500  0.4028  0.6813  0.3799
 1800TIP3    H1 5343   3.694   1.358   0.407 -0.2342 -1.0045  0.2886
 1800TIP3    H2 5344   3.601   1.431   0.501 -1.8432 -1.4123 -0.9473
 1801TIP3   OH2 5345   5.105   2.724   2.353 -0.3032 -0.0851 -0.3230
 1801TIP3    H1 5346   5.116   2.808   2.308  0.2125 -1.4548 -2.9369
 1801TIP3    H2 5347   5.194   2.694   2.371 -0.4740 -0.3105  0.1693
 1802TIP3   OH2 5348   5.157   0.651   2.393 -0.4423  0.1396 -0.0264
 1802TIP3    H1 5349   5.117   0.599   2.462  0.0671 -0.1314  0.0770
 1802TIP3    H2 5350   5.231   0.597   2.363 -0.4892  0.3795 -0.5832
 1803TIP3   OH2 5351   1.293   6.692   6.505 -0.0475  0.2471  0.1827
 1803TIP3    H1 5352   1.374   6.675   6.457 -1.3168  0.0303 -1.9777
 1803TIP3    H2 5353   1.285   6.619   6.566  0.0512 -1.1809 -1.4631
 1804TIP3   OH2 5354   1.802   3.296   3.463  0.0675 -0.3073  0.8394
 1804TIP3    H1 5355   1.717   3.265   3.493  0.2671  0.3737  2.2285
 1804TIP3    H2 5356   1.865   3.256   3.524  0.6903 -0.3272  0.2035
 1805TIP3   OH2 5357   3.569   1.636   1.960  0.7303 -0.4323  0.2157
 1805TIP3    H1 5358   3.660   1.605   1.965  0.8040 -0.5766 -1.5019
 1805TIP3    H2 5359   3.558   1.664   1.869 -0.5242  0.9456  0.7577
 1806TIP3   OH2 5360   1.023   6.762   0.926 -0.1923 -0.7459 -0.0785
 1806TIP3    H1 5361   0.950   6.706   0.901 -0.1066 -0.7690 -0.2791
 1806TIP3    H2 5362   1.097   6.728   0.875 -0.2010 -0.2782 -0.4039
 1807TIP3   OH2 5363   3.647   0.215   4.801 -0.3355  0.3132 -0.4747
 1807TIP3    H1 5364   3.672   0.306   4.819  2.1091 -0.4087  0.2453
 1807TIP3    H2 5365   3.630   0.178   4.888  1.8175 -0.6642 -0.3971
 1808TIP3   OH2 5366   3.716   3.995   0.420 -0.1691 -0.0370 -0.5578
 1808TIP3    H1 5367   3.804   4.007   0.385  0.1267 -0.7038 -0.0585
 1808TIP3    H2 5368   3.671   3.942   0.354 -0.1182  0.0820 -0.6885
 1809TIP3   OH2 5369   7.595   6.828   2.693  0.4999  0.2172 -0.3372
 1809TIP3    H1 5370   7.619   6.900   2.635 -2.0494  1.6150  0.2049
 1809TIP3    H2 5371   7.557   6.762   2.636  0.7885  0.2602 -0.5810
 1810TIP3   OH2 5372   6.433   0.748   3.846  0.1646  0.5155  0.1163
 1810TIP3    H1 5373   6.410   0.740   3.939 -0.2064 -0.2171 -0.0294
 1810TIP3    H2 5374   6.429   0.658   3.813  2.1082  0.4983 -0.1979
 1811TIP3   OH2 5375   0.606   7.659   1.947  0.7274  0.3926 -0.0009
 1811TIP3    H1 5376   0.615   7.595   1.876  1.9803  0.8468 -0.2810
 1811TIP3    H2 5377   0.513   7.660   1.967  0.0325  1.4709 -2.8055
 1812TIP3   OH2 5378   3.119   4.533   1.123  1.0601  0.2142 -0.8439
 1812TIP3    H1 5379   3.094   4.619   1.089 -3.6583 -0.6789 -0.3934
 1812TIP3    H2 5380   3.106   4.473   1.050  0.6797 -0.5149 -0.1947
 1813TIP3   OH2 5381   7.957   4.168   2.239  0.0451  0.0442  0.2164
 1813TIP3    H1 5382   7.972   4.193   2.148  0.5725  0.8593  0.5184
 1813TIP3    H2 5383   7.887   4.103   2.235  0.8349 -0.7801 -0.8771
 1814TIP3   OH2 5384   4.283   4.976   2.941  0.2577 -0.3800  0.1906
 1814TIP3    H1 5385   4.269   5.046   3.005 -0.9022  0.8329 -1.3076
 1814TIP3    H2 5386   4.277   5.020   2.856 -0.4321 -2.2992 -0.8069
 1815TIP3   OH2 5387   5.196   6.938   3.420  0.2137  0.0089 -0.5328
 1815TIP3    H1 5388   5.264   6.885   3.379  0.8336  1.5827 -1.6528
 1815TIP3    H2 5389   5.231   6.960   3.507 -0.2585 -1.7176  0.1460
 1816TIP3   OH2 5390   0.506   2.864   3.423  0.0868 -0.0131 -0.1917
 1816TIP3    H1 5391   0.597   2.894   3.429  0.1350  0.0512 -1.1903
 1816TIP3    H2 5392   0.465   2.902   3.501  0.7458  0.5515 -0.0980
 1817TIP3   OH2 5393   2.418   1.322   2.507  0.2487  0.1698  0.1128
 1817TIP3    H1 5394   2.444   1.281   2.589 -1.6763 -2.2156 -0.3609
 1817TIP3    H2 5395   2.373   1.402   2.534  0.2755 -0.2074  1.3379
 1818TIP3   OH2 5396   0.552   5.458   2.099 -0.3951 -0.3327 -0.1557
 1818TIP3    H1 5397   0.475   5.511   2.079  0.1844  0.0302 -1.5956
 1818TIP3    H2 5398   0.616   5.484   2.033  0.7394 -1.1074  0.5997
 1819TIP3   OH2 5399   1.317   5.685   5.037  0.5235 -0.3558  0.5748
 1819TIP3    H1 5400   1.382   5.720   4.977 -0.2216 -1.3456 -0.8677
 1819TIP3    H2 5401   1.263   5.760   5.061  0.9520  0.0867  0.1747
 1820TIP3   OH2 5402   6.335   0.146   3.702  0.1664  0.3235 -0.1313
 1820TIP3    H1 5403   6.417   0.191   3.682  0.2238 -0.2632 -1.3074
 1820TIP3    H2 5404   6.271   0.216   3.714  0.6104  0.7535 -0.2647
 1821TIP3   OH2 5405   2.380   1.911   4.265 -0.2128  0.7557  0.7853
 1821TIP3    H1 5406   2.470   1.878   4.270 -0.3699 -0.6281 -2.4846
 1821TIP3    H2 5407   2.325   1.833   4.280 -0.7816  1.0603  0.3258
 1822TIP3   OH2 5408   3.774   2.605   5.927 -0.1938 -0.1767  0.1966
 1822TIP3    H1 5409   3.810   2.525   5.966 -0.5478 -0.4077  0.0578
 1822TIP3    H2 5410   3.813   2.676   5.977 -0.1034 -0.4470  0.5125
 1823TIP3   OH2 5411   7.344   7.237   2.992 -0.3197  0.4390 -0.5145
 1823TIP3    H1 5412   7.362   7.189   2.911  0.7014  0.5337 -0.3558
 1823TIP3    H2 5413   7.372   7.178   3.062  0.5488  1.0975 -0.3020
 1824TIP3   OH2 5414   2.785   5.693   0.901  0.0806  0.0378 -0.2798
 1824TIP3    H1 5415   2.822   5.680   0.814 -0.2367 -0.5122 -0.3387
 1824TIP3    H2 5416   2.737   5.612   0.919  0.2633  0.0827  0.4636
 1825TIP3   OH2 5417   1.248   7.244   4.659 -0.0140  0.0710 -0.2563
 1825TIP3    H1 5418   1.226   7.324   4.610  2.0000  1.2647  0.6409
 1825TIP3    H2 5419   1.164   7.205   4.681 -1.1050  2.3589 -0.1101
 1826TIP3   OH2 5420   0.860   6.477   2.938  0.2424 -0.2169 -0.5805
 1826TIP3    H1 5421   0.782   6.496   2.989  0.0814  2.1121 -1.5606
 1826TIP3    H2 5422   0.833   6.486   2.847  1.5875  0.5713 -0.9430
 1827TIP3   OH2 5423   6.746   0.087   4.745 -0.3206  0.3013 -0.3865
 1827TIP3    H1 5424   6.773   0.034   4.819 -2.4663  0.3505  0.5036
 1827TIP3    H2 5425   6.740   0.026   4.672 -0.0467 -0.1177 -0.0611
 1828TIP3   OH2 5426   5.829   6.796   2.619 -0.0961  0.0008 -0.3856
 1828TIP3    H1 5427   5.769   6.728   2.650  1.2508 -0.4739  1.3221
 1828TIP3    H2 5428   5.837   6.780   2.525  0.5163 -2.4807  0.0176
 1829TIP3   OH2 5429   0.394   0.383   6.556 -0.0066  0.2007  0.0555
 1829TIP3    H1 5430   0.424   0.424   6.476  0.6273  0.7324  0.5534
 1829TIP3    H2 5431   0.347   0.305   6.527 -1.7045  1.5282 -0.9532
 1830TIP3   OH2 5432   1.802   4.157   0.588  0.9879 -0.3077  0.9864
 1830TIP3    H1 5433   1.791   4.218   0.515  0.6178 -1.5591 -0.0413
 1830TIP3    H2 5434   1.757   4.199   0.661  0.8989  0.7303  0.3514
 1831TIP3   OH2 5435   4.980   7.045   4.302  0.0522  0.0298  0.3199
 1831TIP3    H1 5436   4.910   7.107   4.281 -0.4251 -1.2082 -2.1028
 1831TIP3    H2 5437   5.058   7.099   4.310 -0.7802  1.1970  0.9033
 1832TIP3   OH2 5438   7.619   0.020   1.090  0.4027 -0.2624 -0.0050
 1832TIP3    H1 5439   7.637   0.090   1.153  1.4468 -0.8829  0.4140
 1832TIP3    H2 5440   7.700  -0.031   1.087 -0.7295 -2.1932  0.6653
 1833TIP3   OH2 5441   5.886   2.514   0.878  0.1454  0.0354 -0.6869
 1833TIP3    H1 5442   5.880   2.468   0.794  1.8896 -1.0027 -0.3039
 1833TIP3    H2 5443   5.980   2.516   0.897 -0.2223  0.1266  1.3117
 1834TIP3   OH2 5444   2.336   5.482   1.245  0.0412 -0.0217  0.2239
 1834TIP3    H1 5445   2.318   5.442   1.330 -0.0175  1.7063  1.0702
 1834TIP3    H2 5446   2.430   5.495   1.243  0.0479 -0.0893  0.0109
 1835TIP3   OH2 5447   3.205   2.670   1.543  0.0436  0.1417 -0.3592
 1835TIP3    H1 5448   3.143   2.705   1.480  0.6541  0.0812 -1.0116
 1835TIP3    H2 5449   3.152   2.643   1.617 -0.8001 -0.5287 -1.1756
 1836TIP3   OH2 5450   2.646   7.439   3.164  0.3400  0.1677 -0.4664
 1836TIP3    H1 5451   2.660   7.389   3.084 -1.9938  2.0652 -2.2624
 1836TIP3    H2 5452   2.552   7.430   3.181  0.4980  1.1294  1.1201
 1837TIP3   OH2 5453   2.974   2.299   0.061  0.2511  0.0807 -0.0701
 1837TIP3    H1 5454   2.964   2.347  -0.021  1.4400  0.7865  0.1647
 1837TIP3    H2 5455   3.019   2.218   0.037  0.0713  0.0175 -0.1929
 1838TIP3   OH2 5456   6.798   1.220   2.258 -0.1209 -0.1944 -0.1790
 1838TIP3    H1 5457   6.864   1.228   2.189  2.1680  3.4432  2.0874
 1838TIP3    H2 5458   6.735   1.289   2.238 -0.6926 -0.6149  0.1570
 1839TIP3   OH2 5459   1.418   1.487   6.336  0.4434  0.3487 -0.1033
 1839TIP3    H1 5460   1.480   1.558   6.355  0.7003  0.1803 -0.2909
 1839TIP3    H2 5461   1.333   1.530   6.329  0.3758  0.4471  1.1685
 1840TIP3   OH2 5462   5.051   1.239   3.282 -0.3782 -0.2694 -0.5054
 1840TIP3    H1 5463   5.057   1.274   3.370 -0.6647 -3.0734  0.7250
 1840TIP3    H2 5464   4.959   1.253   3.256 -0.0441  1.5192 -0.8651
 1841TIP3   OH2 5465   6.752   2.536   5.841 -1.0865 -0.4640  0.7190
 1841TIP3    H1 5466   6.789   2.456   5.803 -1.2887  0.7056 -2.2059
 1841TIP3    H2 5467   6.826   2.579   5.884  0.2075  0.0047 -1.7941
 1842TIP3   OH2 5468   4.638   3.305   0.766 -0.5259  0.2958  0.0129
 1842TIP3    H1 5469   4.704   3.364   0.730  0.0841 -0.5134 -0.2358
 1842TIP3    H2 5470   4.676   3.274   0.848  0.0400 -1.2324 -0.7892
 1843TIP3   OH2 5471   6.587   1.587   5.012 -0.0622  0.3650 -0.4333
 1843TIP3    H1 5472   6.637   1.597   4.931  0.6826  0.1508 -0.0101
 1843TIP3    H2 5473   6.513   1.531   4.988 -0.0448  0.5989 -1.0419
 1844TIP3   OH2 5474   0.979   5.762   1.597 -0.0707  0.3225  0.5189
 1844TIP3    H1 5475   0.981   5.733   1.688  0.1608 -0.9103  0.1463
 1844TIP3    H2 5476   0.897   5.810   1.589 -0.1410  0.3523  1.3524
 1845TIP3   OH2 5477   5.523   6.681   0.313  0.1911  0.5299  0.2759
 1845TIP3    H1 5478   5.505   6.748   0.247 -1.9942  0.9718  1.2045
 1845TIP3    H2 5479   5.439   6.637   0.325  1.4900 -2.3062 -0.1403
 1846TIP3   OH2 5480   6.789   2.814   4.439  0.3567  0.5059 -0.2422
 1846TIP3    H1 5481   6.772   2.787   4.529  2.1631  0.5232  0.1253
 1846TIP3    H2 5482   6.725   2.764   4.387 -1.3992  1.2553  1.0870
 1847TIP3   OH2 5483   0.871   1.267   1.528  0.0978  0.4870 -0.3840
 1847TIP3    H1 5484   0.785   1.295   1.559  0.3188  0.4350  0.2973
 1847TIP3    H2 5485   0.927   1.271   1.606  0.4056 -0.7137 -0.5197
 1848TIP3   OH2 5486   1.973   5.434   1.991  0.0460  0.6538 -0.7736
 1848TIP3    H1 5487   1.914   5.448   2.066  2.1257 -0.7954  1.2628
 1848TIP3    H2 5488   1.979   5.339   1.982  1.5371  0.7885 -1.3771
 1849TIP3   OH2 5489   2.883   2.778   4.459  0.0434 -0.1562 -0.2808
 1849TIP3    H1 5490   2.842   2.795   4.544 -0.2622 -1.1622 -0.2007
 1849TIP3    H2 5491   2.821   2.718   4.415 -0.3923  1.2657 -1.7004
 1850TIP3   OH2 5492   4.200   5.810   2.064  0.2847  0.4895  0.2354
 1850TIP3    H1 5493   4.179   5.852   1.980 -0.8279  0.8293  0.6614
 1850TIP3    H2 5494   4.195   5.716   2.047 -2.0279  0.5400  0.3731
 1851TIP3   OH2 5495   2.529   0.150   2.970 -0.5352 -0.2306  0.1752
 1851TIP3    H1 5496   2.499   0.087   3.036 -0.1322 -0.6958 -0.0796
 1851TIP3    H2 5497   2.621   0.164   2.990 -0.8347  0.9487  0.7556
 1852TIP3   OH2 5498   1.617   4.209   2.904  0.6631  0.5275  0.3691
 1852TIP3    H1 5499   1.551   4.163   2.955  0.4296  0.4355 -0.0160
 1852TIP3    H2 5500   1.569   4.246   2.830  0.4653  2.9621  1.5978
 1853TIP3   OH2 5501   6.401   0.961   4.150 -0.0670  0.3522 -0.1542
 1853TIP3    H1 5502   6.495   0.949   4.163  0.0909 -0.0887 -1.5795
 1853TIP3    H2 5503   6.365   0.872   4.150 -0.4060  0.4883 -0.1777
 1854TIP3   OH2 5504   1.535   0.363   2.505  0.2766 -0.0963  0.2584
 1854TIP3    H1 5505   1.524   0.287   2.563  0.3971  1.0563  1.8814
 1854TIP3    H2 5506   1.627   0.387   2.514 -0.1800  1.4232  1.3965
 1855TIP3   OH2 5507   0.395   7.734   1.563  0.5031 -0.0334  0.3067
 1855TIP3    H1 5508   0.488   7.736   1.543  0.3933  0.5263 -0.1700
 1855TIP3    H2 5509   0.386   7.793   1.638  0.5284 -0.0842  0.3501
 1856TIP3   OH2 5510   3.687   1.378   3.684  0.3235 -0.0195 -0.4642
 1856TIP3    H1 5511   3.649   1.462   3.658  1.1703  0.5446  0.0570
 1856TIP3    H2 5512   3.780   1.387   3.665  0.3973 -0.9156 -0.5723
 1857TIP3   OH2 5513   8.267   0.469   6.154 -0.2210  0.1844  0.0257
 1857TIP3    H1 5514   8.289   0.389   6.202  0.6513  0.2071 -0.3066
 1857TIP3    H2 5515   8.333   0.474   6.084 -2.7874 -1.1397 -2.7355
 1858TIP3   OH2 5516   6.959   0.714   5.942  0.2319  0.1945 -0.2832
 1858TIP3    H1 5517   7.036   0.693   5.995  0.2433 -0.8025 -0.6692
 1858TIP3    H2 5518   6.989   0.783   5.882  0.9887 -0.5618 -0.7938
 1859TIP3   OH2 5519   0.461   2.569   1.010  0.2644 -0.2637  0.3614
 1859TIP3    H1 5520   0.407   2.493   1.030 -0.5587  0.6359  1.7580
 1859TIP3    H2 5521   0.494   2.598   1.095  1.0861  0.5551 -0.2175
 1860TIP3   OH2 5522   6.201   7.599   1.796  0.4419  0.7818  0.3547
 1860TIP3    H1 5523   6.237   7.603   1.707  1.5951  0.6933  0.8075
 1860TIP3    H2 5524   6.117   7.554   1.785  2.3499 -3.0363 -0.1773
 1861TIP3   OH2 5525   6.706   2.889   3.657 -0.2663  0.2180  0.1282
 1861TIP3    H1 5526   6.758   2.838   3.595 -0.7218 -0.8260  0.5865
 1861TIP3    H2 5527   6.762   2.896   3.735  0.3550  1.6308 -0.4024
 1862TIP3   OH2 5528   5.875   3.229   1.351 -0.2779  0.0414 -0.1276
 1862TIP3    H1 5529   5.898   3.267   1.266  2.9374  0.2796  0.7172
 1862TIP3    H2 5530   5.949   3.252   1.408 -2.1005 -0.5184  2.6290
 1863TIP3   OH2 5531   0.648   3.731   3.809  0.7648 -0.4827 -0.3118
 1863TIP3    H1 5532   0.722   3.709   3.752  1.7216  2.4694 -0.3644
 1863TIP3    H2 5533   0.687   3.775   3.884 -0.7146 -1.9930  1.4369
 1864TIP3   OH2 5534   3.958   4.432   2.237 -0.1047  0.2651  0.3907
 1864TIP3    H1 5535   4.049   4.460   2.229 -0.0489  0.0091  0.1013
 1864TIP3    H2 5536   3.958   4.371   2.312  0.0190  0.0361  0.2058
 1865TIP3   OH2 5537   6.952   4.601   1.187 -0.5437 -0.0011 -0.4175
 1865TIP3    H1 5538   7.018   4.535   1.207  0.1917  1.4263  2.2338
 1865TIP3    H2 5539   6.869   4.559   1.207 -0.1346 -0.3973  0.4905
 1866TIP3   OH2 5540   2.158   1.499   5.460  0.0990  0.7842 -0.2515
 1866TIP3    H1 5541   2.151   1.587   5.422  1.2219  0.3845 -1.4402
 1866TIP3    H2 5542   2.235   1.460   5.418  0.1369 -0.4633  0.8968
 1867TIP3   OH2 5543   1.932   3.080   2.288  0.2227 -0.2917 -0.1709
 1867TIP3    H1 5544   1.938   3.120   2.201  1.5727  0.1349  0.1079
 1867TIP3    H2 5545   2.022   3.064   2.314 -0.2226 -2.1320  0.3916
 1868TIP3   OH2 5546   6.814   0.735   0.290 -0.2422  0.4509  0.3617
 1868TIP3    H1 5547   6.820   0.814   0.236  1.7131 -0.1406 -0.3594
 1868TIP3    H2 5548   6.749   0.680   0.246  0.6104  0.3943 -0.8742
 1869TIP3   OH2 5549   0.199   3.233   0.684  0.5109  0.2791  0.0199
 1869TIP3    H1 5550   0.224   3.141   0.681  1.7444  0.6331 -1.2135
 1869TIP3    H2 5551   0.267   3.275   0.736  0.0714  0.5397  0.3904
 1870TIP3   OH2 5552   5.587   1.186   0.941 -0.6666  0.4668 -0.1903
 1870TIP3    H1 5553   5.591   1.111   1.001 -0.6490  1.0744  0.5903
 1870TIP3    H2 5554   5.597   1.262   0.998 -1.8369  1.1146 -0.8260
 1871TIP3   OH2 5555   0.354   3.523   2.350  0.2741  0.3768  0.2544
 1871TIP3    H1 5556   0.390   3.495   2.267 -0.6370 -1.0654  0.3212
 1871TIP3    H2 5557   0.413   3.488   2.416 -1.2807 -2.2427  0.3791
 1872TIP3   OH2 5558   3.568   5.370   2.009  0.3216  0.2688 -0.2255
 1872TIP3    H1 5559   3.640   5.428   2.031 -1.2086  1.5496  1.7340
 1872TIP3    H2 5560   3.510   5.422   1.954  0.8344 -0.7487 -1.7957
 1873TIP3   OH2 5561   2.001   2.179   4.696 -0.0183  0.7691  0.2113
 1873TIP3    H1 5562   2.061   2.111   4.726 -0.1550  0.0830 -0.9948
 1873TIP3    H2 5563   1.914   2.148   4.721  0.1363  2.7424  3.8603
 1874TIP3   OH2 5564   4.989   3.713   5.988 -0.3579  0.4960 -0.1719
 1874TIP3    H1 5565   5.012   3.638   5.934 -0.9422  0.6583 -0.6509
 1874TIP3    H2 5566   5.064   3.773   5.979 -0.5125  0.5865 -0.9229
 1875TIP3   OH2 5567   6.598   4.191   6.353 -0.2894 -0.7454  0.1347
 1875TIP3    H1 5568   6.658   4.224   6.286  0.3954 -0.2757  0.9501
 1875TIP3    H2 5569   6.512   4.225   6.328  0.2740  1.1158  0.5555
 1876TIP3   OH2 5570   5.033   4.631   1.941  0.3512  0.3287 -0.0733
 1876TIP3    H1 5571   4.999   4.702   1.996  1.0937  0.8473 -0.2789
 1876TIP3    H2 5572   5.123   4.619   1.969  0.1673 -0.7158  0.1273
 1877TIP3   OH2 5573   5.751   5.752   0.853 -0.5015 -0.6628 -0.0531
 1877TIP3    H1 5574   5.845   5.754   0.873 -0.2030  0.0565 -1.4261
 1877TIP3    H2 5575   5.712   5.811   0.917  0.2173  0.3392 -0.5114
 1878TIP3   OH2 5576   0.356   6.511   4.333 -0.1951 -0.5059 -0.6930
 1878TIP3    H1 5577   0.445   6.497   4.365 -0.3568 -1.2948 -0.5579
 1878TIP3    H2 5578   0.345   6.446   4.263 -0.3632  0.1851 -1.3247
 1879TIP3   OH2 5579   3.625   6.783   1.309  0.3607 -0.2662 -0.4849
 1879TIP3    H1 5580   3.581   6.712   1.261  0.8482 -1.7808  1.2122
 1879TIP3    H2 5581   3.564   6.807   1.379  0.9062 -0.1822 -0.0276
 1880TIP3   OH2 5582   3.346   5.842   6.705  0.1731 -0.2009 -0.2018
 1880TIP3    H1 5583   3.260   5.867   6.671 -1.1959 -2.9821  0.8492
 1880TIP3    H2 5584   3.386   5.924   6.735 -2.4197  1.1072 -0.0619
 1881TIP3   OH2 5585   7.607   0.804   1.251 -0.5426 -0.4326 -0.5139
 1881TIP3    H1 5586   7.584   0.823   1.160 -0.0125 -0.3047 -0.6225
 1881TIP3    H2 5587   7.652   0.883   1.282 -0.7350 -0.4661 -0.1333
 1882TIP3   OH2 5588   0.269   3.954   3.591  0.3706 -0.0880 -0.9079
 1882TIP3    H1 5589   0.364   3.958   3.601  0.2426 -1.1566  1.3733
 1882TIP3    H2 5590   0.249   3.861   3.585 -0.6499 -0.0214  0.7585
 1883TIP3   OH2 5591   7.080   4.313   2.847  0.2083  0.3758 -0.0800
 1883TIP3    H1 5592   7.048   4.396   2.813 -0.7537 -0.0687 -0.3011
 1883TIP3    H2 5593   7.174   4.314   2.828  0.1755  1.3250 -0.2414
 1884TIP3   OH2 5594   7.004   4.388   1.447  0.4225 -0.1512  0.4582
 1884TIP3    H1 5595   7.006   4.324   1.518 -0.2396  1.5642  2.1256
 1884TIP3    H2 5596   6.929   4.362   1.393 -0.1133 -0.5357  1.3615
 1885TIP3   OH2 5597   2.446   3.043   6.389 -0.2127  0.4779 -0.1210
 1885TIP3    H1 5598   2.520   3.003   6.434 -0.0663 -1.1812 -1.7440
 1885TIP3    H2 5599   2.482   3.124   6.352  0.6127  0.0276 -0.3268
 1886TIP3   OH2 5600   3.389   2.261   1.846  0.0545  0.9146 -0.2483
 1886TIP3    H1 5601   3.442   2.333   1.812 -1.7884  2.1180 -0.7603
 1886TIP3    H2 5602   3.365   2.288   1.934 -2.2215  1.9559 -1.0889
 1887TIP3   OH2 5603   0.287   4.322   5.048 -0.6306  0.3783 -0.0830
 1887TIP3    H1 5604   0.319   4.411   5.035  1.2767 -0.4272 -1.3667
 1887TIP3    H2 5605   0.192   4.331   5.048 -0.5028  2.5189  0.8862
 1888TIP3   OH2 5606   5.264   2.289   6.010  0.5255  0.1477 -0.0924
 1888TIP3    H1 5607   5.242   2.295   5.917  2.7368  0.7616 -0.6279
 1888TIP3    H2 5608   5.248   2.197   6.032 -1.2462  0.2648 -0.6865
 1889TIP3   OH2 5609   7.293   3.922   4.381  0.1988 -0.1752  0.2904
 1889TIP3    H1 5610   7.322   3.864   4.310  0.9045  2.3241 -1.6308
 1889TIP3    H2 5611   7.198   3.914   4.382  0.2735 -1.2787  0.0288
 1890TIP3   OH2 5612   4.164   4.798   6.089  0.1633 -0.6789  0.0076
 1890TIP3    H1 5613   4.132   4.788   6.179 -1.7548  0.0078 -0.5668
 1890TIP3    H2 5614   4.238   4.737   6.084  1.3936  0.4555  2.5250
 1891TIP3   OH2 5615   0.031   7.110   2.180 -0.0846 -0.3097  0.0770
 1891TIP3    H1 5616   0.099   7.154   2.232  2.2264 -1.7300 -1.5623
 1891TIP3    H2 5617   0.024   7.163   2.101 -1.3108  0.0994  0.4387
 1892TIP3   OH2 5618   4.897   7.207   0.925 -0.1257  0.4423 -0.0207
 1892TIP3    H1 5619   4.815   7.168   0.955 -0.6418  0.0967 -1.7817
 1892TIP3    H2 5620   4.872   7.264   0.853  1.2208 -0.0606 -0.9321
 1893TIP3   OH2 5621   3.142   6.193   5.291  0.1254  0.0979  0.6500
 1893TIP3    H1 5622   3.147   6.288   5.286  0.5695  0.0339 -0.2393
 1893TIP3    H2 5623   3.204   6.170   5.361  2.4774  0.2655 -1.2574
 1894TIP3   OH2 5624   3.236   1.060   2.500  0.4231 -0.2483  0.4059
 1894TIP3    H1 5625   3.167   1.094   2.557  1.3294 -0.4817  1.6807
 1894TIP3    H2 5626   3.236   0.966   2.514 -0.1714 -0.4747 -0.9526
 1895TIP3   OH2 5627   1.225   1.512   5.459 -0.1038 -0.3551  0.5732
 1895TIP3    H1 5628   1.292   1.531   5.525  1.8376 -0.6561 -1.2059
 1895TIP3    H2 5629   1.270   1.520   5.375 -2.3830 -0.3505 -0.7553
 1896TIP3   OH2 5630   6.645   7.526   2.250 -0.1010  0.4423 -0.0308
 1896TIP3    H1 5631   6.626   7.608   2.204 -0.7093  0.0084 -0.5781
 1896TIP3    H2 5632   6.641   7.460   2.181 -1.2844 -0.2639  0.6867
 1897TIP3   OH2 5633   3.950   3.934   4.051  0.6664 -0.3308 -0.3528
 1897TIP3    H1 5634   3.904   3.932   4.136  2.1685  1.1772  0.5584
 1897TIP3    H2 5635   4.042   3.925   4.073  1.2603  1.9473 -1.6237
 1898TIP3   OH2 5636   1.245   4.960   6.449 -0.3043  0.0150  0.3053
 1898TIP3    H1 5637   1.213   5.047   6.470 -1.5697 -0.0956 -1.0490
 1898TIP3    H2 5638   1.185   4.928   6.381  0.5757 -1.6137  0.2569
 1899TIP3   OH2 5639   4.357   5.077   2.005 -0.4758 -0.4663  0.0846
 1899TIP3    H1 5640   4.269   5.093   1.971 -0.8961  0.5857  1.5829
 1899TIP3    H2 5641   4.358   4.984   2.027 -1.1324 -0.5285 -0.1335
 1900TIP3   OH2 5642   7.250   0.198   6.130 -0.0541  0.3109 -0.7374
 1900TIP3    H1 5643   7.335   0.161   6.107  0.1653  0.9303 -0.9392
 1900TIP3    H2 5644   7.251   0.286   6.093 -0.7570  0.3509 -0.6810
 1901TIP3   OH2 5645   8.270   0.116   4.582  0.0038  0.2249 -0.6407
 1901TIP3    H1 5646   8.263   0.024   4.607 -1.0345  0.2056 -0.9610
 1901TIP3    H2 5647   8.351   0.122   4.531 -0.8778 -0.8851 -2.2210
 1902TIP3   OH2 5648   2.970   6.239   2.584 -0.4373 -0.3502 -0.6473
 1902TIP3    H1 5649   2.909   6.188   2.530 -0.9173  0.3691 -0.8012
 1902TIP3    H2 5650   3.038   6.267   2.523  0.2015 -1.3724 -0.4229
 1903TIP3   OH2 5651   1.235   4.714   0.671  0.7374 -0.4177  0.3072
 1903TIP3    H1 5652   1.218   4.802   0.638  1.1674  0.0387  1.2618
 1903TIP3    H2 5653   1.173   4.703   0.743  0.6446 -0.9239  0.1529
 1904TIP3   OH2 5654   6.224   4.341   5.794  0.5241 -0.4513  0.0654
 1904TIP3    H1 5655   6.213   4.384   5.879  0.4702 -0.4567  0.0614
 1904TIP3    H2 5656   6.318   4.321   5.789  0.5878 -0.1269 -0.0335
 1905TIP3   OH2 5657   2.015   5.579   4.357 -0.4125 -0.2739  0.4850
 1905TIP3    H1 5658   2.032   5.510   4.422  0.6882 -0.3161  0.1741
 1905TIP3    H2 5659   2.058   5.656   4.394 -1.7907  0.3079  0.9149
 1906TIP3   OH2 5660   7.141   6.961   0.512  0.1225 -0.0731  0.1821
 1906TIP3    H1 5661   7.048   6.939   0.517 -0.3751  1.7917  0.1706
 1906TIP3    H2 5662   7.180   6.892   0.460 -1.1798 -1.1217  0.5521
 1907TIP3   OH2 5663   6.517   5.023   3.019  0.0345 -0.2350  0.0175
 1907TIP3    H1 5664   6.478   5.103   3.054  1.0007  0.2743 -0.0473
 1907TIP3    H2 5665   6.460   5.000   2.945  0.2643  0.9294 -0.5556
 1908TIP3   OH2 5666   6.975   7.021   3.945 -0.0220  0.6161  0.2429
 1908TIP3    H1 5667   6.969   7.112   3.975 -0.3267  0.2858  1.2495
 1908TIP3    H2 5668   6.884   6.996   3.928  0.1260  0.7079 -0.7053
 1909TIP3   OH2 5669   8.144   1.069   2.191 -0.7121  0.8721 -0.1582
 1909TIP3    H1 5670   8.161   1.031   2.277 -0.3470 -1.4927 -1.1858
 1909TIP3    H2 5671   8.208   1.140   2.182  0.6982 -0.2321  0.7091
 1910TIP3   OH2 5672   8.084   5.470   0.550  0.2436  0.4925  0.1056
 1910TIP3    H1 5673   8.025   5.481   0.475  0.7560 -0.4501 -0.4417
 1910TIP3    H2 5674   8.043   5.523   0.619 -2.3444 -1.6173  0.3739
 1911TIP3   OH2 5675   5.792   1.997   5.684 -0.5650 -0.1420  0.7510
 1911TIP3    H1 5676   5.862   1.947   5.727  0.8040  0.4093 -0.7306
 1911TIP3    H2 5677   5.773   1.946   5.605 -2.2751 -0.5697  1.3877
 1912TIP3   OH2 5678   0.476   3.496   4.405 -0.1266  0.3080  0.5976
 1912TIP3    H1 5679   0.571   3.492   4.418 -0.3756  0.9987  2.9945
 1912TIP3    H2 5680   0.464   3.567   4.342  0.9000  0.6390  0.7427
 1913TIP3   OH2 5681   1.662   4.742   4.866 -0.0379 -0.2119 -0.2019
 1913TIP3    H1 5682   1.699   4.692   4.792 -2.7342 -0.1427 -1.7119
 1913TIP3    H2 5683   1.649   4.830   4.831  1.4601  0.7203  1.3919
 1914TIP3   OH2 5684   7.378   7.580   0.857  0.3366 -0.8756 -0.2991
 1914TIP3    H1 5685   7.465   7.539   0.864  0.2501 -0.9024  0.8411
 1914TIP3    H2 5686   7.389   7.666   0.897  0.0309 -0.5372 -0.9256
 1915TIP3   OH2 5687   0.177   4.002   4.524 -0.1106 -0.6341  0.5869
 1915TIP3    H1 5688   0.126   4.078   4.496 -1.0179 -1.3578  0.2021
 1915TIP3    H2 5689   0.241   4.037   4.586 -0.0080  0.5461 -0.1710
 1916TIP3   OH2 5690   5.688   1.228   0.186 -0.5354 -0.0820 -0.3905
 1916TIP3    H1 5691   5.633   1.296   0.226 -0.8106 -0.5239 -0.0193
 1916TIP3    H2 5692   5.724   1.270   0.108  0.3576  0.9407  0.5363
 1917TIP3   OH2 5693   3.254   0.315   5.949 -0.7051 -0.0423  0.0458
 1917TIP3    H1 5694   3.342   0.332   5.982 -1.9078  0.4196  3.3455
 1917TIP3    H2 5695   3.202   0.389   5.980 -2.5413 -1.0292 -0.5473
 1918TIP3   OH2 5696   3.816   1.967   4.435  0.2479 -0.2134  0.4524
 1918TIP3    H1 5697   3.865   1.886   4.453 -1.1346 -1.4509 -1.0960
 1918TIP3    H2 5698   3.803   2.006   4.522  0.9159 -1.6690  1.2472
 1919TIP3   OH2 5699   5.989   1.728   6.061  0.4897 -0.5002 -0.2200
 1919TIP3    H1 5700   5.923   1.683   6.115  1.0540 -0.7129  0.3086
 1919TIP3    H2 5701   5.979   1.689   5.974  2.0269 -2.8740  0.5766
 1920TIP3   OH2 5702   2.450   2.570   3.711  0.4474  0.3967 -0.2693
 1920TIP3    H1 5703   2.413   2.482   3.718 -0.2495  0.6573 -0.5268
 1920TIP3    H2 5704   2.451   2.602   3.801  1.8005 -0.2936 -0.0156
 1921TIP3   OH2 5705   5.815   1.520   6.120 -0.1770  0.4046 -0.4219
 1921TIP3    H1 5706   5.827   1.431   6.085  0.1612  0.1009  0.4353
 1921TIP3    H2 5707   5.728   1.546   6.091 -0.2734 -0.2091 -0.6940
 1922TIP3   OH2 5708   7.366   7.190   0.638 -0.2515 -0.1481 -0.5919
 1922TIP3    H1 5709   7.458   7.163   0.629 -0.6006 -1.4389 -0.4599
 1922TIP3    H2 5710   7.370   7.286   0.640  0.9564 -0.1149 -2.0752
 1923TIP3   OH2 5711   6.911   5.018   5.483  0.0976 -0.1246  0.0301
 1923TIP3    H1 5712   6.858   4.950   5.442 -0.3664 -0.1538  0.6585
 1923TIP3    H2 5713   6.979   4.970   5.530  0.3343 -0.1130 -0.3001
 1924TIP3   OH2 5714   5.676   1.420   6.340 -0.7497 -0.2880  0.4621
 1924TIP3    H1 5715   5.593   1.462   6.315 -0.2080  1.2518  1.1358
 1924TIP3    H2 5716   5.742   1.466   6.288 -0.3008 -1.5838 -0.1580
 1925TIP3   OH2 5717   1.174   3.524   5.451 -0.3661 -0.4849 -0.2559
 1925TIP3    H1 5718   1.174   3.595   5.514  1.2027  0.3159 -1.1116
 1925TIP3    H2 5719   1.248   3.469   5.476 -0.3484 -0.7085 -0.7855
 1926TIP3   OH2 5720   1.207   2.172   6.237  0.1060 -0.2668  0.0550
 1926TIP3    H1 5721   1.211   2.124   6.320 -1.7302 -2.0858 -0.8340
 1926TIP3    H2 5722   1.184   2.261   6.263  3.1192  0.1762  1.7095
 1927TIP3   OH2 5723   2.551   5.571   5.709 -0.0930 -0.0755  0.6819
 1927TIP3    H1 5724   2.507   5.567   5.794 -0.6168 -0.0369  0.4221
 1927TIP3    H2 5725   2.614   5.499   5.711  0.3580  0.3241  1.3427
 1928TIP3   OH2 5726   5.602   1.623   4.863 -0.2113  0.1762 -0.0849
 1928TIP3    H1 5727   5.580   1.531   4.881 -1.0454  0.0171 -1.7392
 1928TIP3    H2 5728   5.588   1.667   4.946  0.4440 -1.2333  0.8134
 1929TIP3   OH2 5729   2.008   4.782   1.097  0.0958 -0.0767  0.7000
 1929TIP3    H1 5730   1.976   4.735   1.020 -1.1579 -0.3569  1.3626
 1929TIP3    H2 5731   1.929   4.796   1.150  0.7751  1.0241  1.4443
 1930TIP3   OH2 5732   0.296   4.836   6.773 -0.1412 -0.2574 -0.1672
 1930TIP3    H1 5733   0.350   4.908   6.741  0.5153 -0.7148 -0.1210
 1930TIP3    H2 5734   0.209   4.854   6.738  0.3302 -0.2139 -1.3938
 1931TIP3   OH2 5735   4.281   0.390   1.234  1.0003  0.0177 -0.4451
 1931TIP3    H1 5736   4.195   0.351   1.219  0.3931  0.4849  1.6005
 1931TIP3    H2 5737   4.340   0.315   1.245  0.3051 -0.3573  0.9483
 1932TIP3   OH2 5738   1.945   3.510   2.019 -0.1387  0.0809  0.0394
 1932TIP3    H1 5739   1.891   3.475   2.090  0.5128 -1.2463 -0.0854
 1932TIP3    H2 5740   1.916   3.463   1.941  0.3405  0.2527 -0.2459
 1933TIP3   OH2 5741   5.429   2.069   2.362  0.1409 -0.1371 -0.0210
 1933TIP3    H1 5742   5.416   2.076   2.457  1.9011 -2.8221  0.5379
 1933TIP3    H2 5743   5.351   2.024   2.330  0.3663 -0.9148  0.4907
 1934TIP3   OH2 5744   7.321   6.193   1.889 -0.0896  0.3983  0.3895
 1934TIP3    H1 5745   7.345   6.285   1.903  0.3880  0.4009 -0.4055
 1934TIP3    H2 5746   7.227   6.190   1.910  0.2212  0.7199  1.9627
 1935TIP3   OH2 5747   1.802   5.364   4.275 -0.5024 -0.7072  0.4767
 1935TIP3    H1 5748   1.775   5.405   4.193 -1.4085  0.5703  1.3658
 1935TIP3    H2 5749   1.837   5.436   4.327 -1.3855 -1.1881  1.7954
 1936TIP3   OH2 5750   0.034   0.095   6.077  0.4122  0.7025  0.0612
 1936TIP3    H1 5751  -0.029   0.108   6.006  1.2106  0.0770 -0.7860
 1936TIP3    H2 5752   0.012   0.009   6.112 -0.4073  1.2896  1.0380
 1937TIP3   OH2 5753   6.941   6.636   2.151  0.3428 -0.4755  0.2510
 1937TIP3    H1 5754   6.961   6.697   2.080  1.5604  0.2099  1.1370
 1937TIP3    H2 5755   6.994   6.559   2.131  0.9276 -0.1608  0.5705
 1938TIP3   OH2 5756   5.624   4.486   0.802 -0.1185  0.5090  0.2522
 1938TIP3    H1 5757   5.716   4.459   0.806 -0.0733  0.3921 -0.9688
 1938TIP3    H2 5758   5.586   4.455   0.884  0.7978  0.0297  0.5128
 1939TIP3   OH2 5759   4.086   1.352   4.427 -0.0728  0.7068  0.0803
 1939TIP3    H1 5760   4.104   1.258   4.437 -0.9120  0.5562  0.1935
 1939TIP3    H2 5761   4.172   1.390   4.408  0.3072 -0.0563  0.2155
 1940TIP3   OH2 5762   8.314   3.601   4.351  0.2173  0.0191  0.1635
 1940TIP3    H1 5763   8.342   3.634   4.266 -0.3388 -2.1531 -0.9155
 1940TIP3    H2 5764   8.220   3.621   4.355 -0.0408 -1.0448 -0.3319
 1941TIP3   OH2 5765   5.139   2.642   2.741  0.1398  0.2619  0.1273
 1941TIP3    H1 5766   5.215   2.584   2.738 -0.8731 -1.1085 -0.1666
 1941TIP3    H2 5767   5.118   2.649   2.835 -0.2756 -0.6044  0.1059
 1942TIP3   OH2 5768   2.340   6.466   2.809  0.3752 -0.0104 -0.4155
 1942TIP3    H1 5769   2.377   6.478   2.722 -0.2754  3.8384 -0.3309
 1942TIP3    H2 5770   2.394   6.520   2.866 -0.1499 -1.2306  1.3254
 1943TIP3   OH2 5771   7.260   0.972   0.359 -0.0350 -0.2291  0.0550
 1943TIP3    H1 5772   7.284   0.906   0.294  1.7897  0.6794 -0.2612
 1943TIP3    H2 5773   7.203   1.032   0.311 -1.2395 -1.2228  0.1907
 1944TIP3   OH2 5774   1.109   0.800   4.535  0.1247 -0.2347  0.1440
 1944TIP3    H1 5775   1.028   0.803   4.485 -0.6431 -0.7654  1.3208
 1944TIP3    H2 5776   1.171   0.755   4.478 -0.7575 -0.9367 -0.2814
 1945TIP3   OH2 5777   5.493   7.440   5.539  0.1560 -0.6129 -0.0095
 1945TIP3    H1 5778   5.440   7.486   5.474  0.4661 -2.7662 -1.8963
 1945TIP3    H2 5779   5.561   7.504   5.563 -1.3220  1.0274  0.0036
 1946TIP3   OH2 5780   3.687   0.301   6.650 -0.0755  0.5193 -0.1217
 1946TIP3    H1 5781   3.650   0.246   6.720 -2.3084  2.3137  0.2521
 1946TIP3    H2 5782   3.775   0.324   6.681  0.6502 -2.1840  0.0215
 1947TIP3   OH2 5783   3.264   2.745   6.282 -0.1695  0.6020  0.8591
 1947TIP3    H1 5784   3.183   2.723   6.328 -0.0223 -0.1438  0.7637
 1947TIP3    H2 5785   3.311   2.663   6.275 -0.9703  0.2832 -2.1770
 1948TIP3   OH2 5786   0.497   0.127   3.444  0.1870 -0.3722 -0.3905
 1948TIP3    H1 5787   0.548   0.201   3.410 -2.4176  2.3343  1.0286
 1948TIP3    H2 5788   0.558   0.078   3.499  1.1637  3.6505  2.6462
 1949TIP3   OH2 5789   4.793   1.819   0.352  0.2745 -0.2312 -0.4760
 1949TIP3    H1 5790   4.792   1.877   0.428 -1.5197 -1.8211  0.8101
 1949TIP3    H2 5791   4.865   1.758   0.370  0.4701 -0.0094 -0.5125
 1950TIP3   OH2 5792   0.899   6.873   1.971  0.3658 -0.6879  0.3678
 1950TIP3    H1 5793   0.995   6.870   1.973  0.3426 -3.3579  0.1603
 1950TIP3    H2 5794   0.876   6.844   1.883 -0.6442 -0.1452  0.4437
 1951TIP3   OH2 5795   7.850   5.686   0.023  0.0924 -0.2617  0.4169
 1951TIP3    H1 5796   7.905   5.731   0.088  0.5313 -1.1869  0.7129
 1951TIP3    H2 5797   7.803   5.620   0.074  0.2204 -0.8075 -0.1584
 1952TIP3   OH2 5798   5.341   4.371   5.872 -0.6982  0.5142  0.0043
 1952TIP3    H1 5799   5.277   4.419   5.925 -0.9316 -0.0976  0.2847
 1952TIP3    H2 5800   5.394   4.323   5.936 -0.8783 -0.1013 -0.3016
 1953TIP3   OH2 5801   2.622   3.009   1.833  0.0528  0.2899 -0.2077
 1953TIP3    H1 5802   2.581   2.938   1.784 -1.5646  0.7429  0.4271
 1953TIP3    H2 5803   2.633   3.080   1.769 -1.0387  0.4880 -0.1972
 1954TIP3   OH2 5804   0.579   4.296   3.282  0.0998  0.8400  0.0913
 1954TIP3    H1 5805   0.496   4.337   3.260 -0.2844 -0.7227 -1.5904
 1954TIP3    H2 5806   0.569   4.267   3.372 -1.5299 -0.0780 -0.3570
 1955TIP3   OH2 5807   2.189   3.488   4.433 -0.0035  0.1555  0.3659
 1955TIP3    H1 5808   2.171   3.579   4.407  0.0943  0.4592  1.3009
 1955TIP3    H2 5809   2.152   3.481   4.521  0.0401 -0.7008  0.3218
 1956TIP3   OH2 5810   6.834   1.435   3.803  0.3415 -0.7908  0.2127
 1956TIP3    H1 5811   6.905   1.496   3.784  0.5567 -1.2439 -0.4593
 1956TIP3    H2 5812   6.830   1.431   3.898 -0.9672  1.7842  0.3563
 1957TIP3   OH2 5813   6.877   4.182   5.703  0.1333  0.5482  0.2279
 1957TIP3    H1 5814   6.787   4.181   5.669  0.7840  1.4677 -1.6245
 1957TIP3    H2 5815   6.867   4.204   5.796 -1.5664  0.2479  0.1484
 1958TIP3   OH2 5816   3.912   0.977   3.727  0.0679  0.2042  0.1307
 1958TIP3    H1 5817   3.921   1.072   3.721 -0.5303  0.2810  0.3141
 1958TIP3    H2 5818   4.001   0.944   3.724  0.3238  0.8107  0.6718
 1959TIP3   OH2 5819   6.066   6.207   2.002  0.2207  0.2578 -0.8040
 1959TIP3    H1 5820   6.073   6.174   1.912  1.6882 -0.6306 -0.4084
 1959TIP3    H2 5821   5.973   6.230   2.012 -0.5804 -2.1881 -1.6985
 1960TIP3   OH2 5822   5.303   6.487   4.233  0.2459  0.0777  0.0355
 1960TIP3    H1 5823   5.331   6.415   4.176 -0.0334 -0.2119  0.2616
 1960TIP3    H2 5824   5.208   6.489   4.223 -0.0052 -1.0481  1.7268
 1961TIP3   OH2 5825   4.732   4.174   0.227  0.3361  0.0010  0.8905
 1961TIP3    H1 5826   4.705   4.261   0.257 -0.3304 -0.5729  2.0422
 1961TIP3    H2 5827   4.790   4.142   0.296  3.3813  0.8387 -1.1127
 1962TIP3   OH2 5828   0.337   2.099   1.551  0.2215  0.5547  0.3652
 1962TIP3    H1 5829   0.372   2.188   1.542 -1.2875  1.2300  0.9419
 1962TIP3    H2 5830   0.285   2.085   1.472 -0.3551  0.5768  0.7326
 1963TIP3   OH2 5831   0.419   5.995   2.034 -0.3746  0.1432 -0.1616
 1963TIP3    H1 5832   0.424   6.070   1.976  0.8888  0.5302  0.3973
 1963TIP3    H2 5833   0.396   6.032   2.119  2.7739  0.3492  0.7412
 1964TIP3   OH2 5834   2.672   1.066   4.057  0.5885  0.1962 -1.0236
 1964TIP3    H1 5835   2.682   1.044   4.150  0.0765 -1.3604 -1.3097
 1964TIP3    H2 5836   2.595   1.019   4.029  0.8746  0.4509 -2.3193
 1965TIP3   OH2 5837   6.744   3.414   4.938 -0.0596  0.3580  0.2797
 1965TIP3    H1 5838   6.798   3.476   4.988  0.8762  0.0425 -0.3208
 1965TIP3    H2 5839   6.798   3.336   4.929 -1.2699 -0.6334  1.1407
 1966TIP3   OH2 5840   5.619   7.151   5.771  0.0493 -0.7779  0.7063
 1966TIP3    H1 5841   5.656   7.239   5.781  0.5007 -1.0649  1.5857
 1966TIP3    H2 5842   5.686   7.103   5.723 -0.6932 -0.3383 -0.8430
 1967TIP3   OH2 5843   4.465   0.413   0.894  0.3693  0.4012 -0.9679
 1967TIP3    H1 5844   4.409   0.474   0.943  1.1014  0.0070  0.4140
 1967TIP3    H2 5845   4.542   0.465   0.870 -0.1100  0.6691 -1.9850
 1968TIP3   OH2 5846   0.308   1.519   2.306  0.0174  0.0471  0.0638
 1968TIP3    H1 5847   0.249   1.575   2.356  0.3350  0.0235  0.4768
 1968TIP3    H2 5848   0.395   1.558   2.320 -0.0528  0.9759 -1.7522
 1969TIP3   OH2 5849   2.688   7.289   6.257  0.1980  0.2625  0.2444
 1969TIP3    H1 5850   2.677   7.196   6.278  2.0769  0.0945  0.6466
 1969TIP3    H2 5851   2.620   7.307   6.193  0.9658 -1.8946 -1.2999
 1970TIP3   OH2 5852   7.625   2.809   4.636 -0.0398 -0.3162 -0.7635
 1970TIP3    H1 5853   7.533   2.828   4.655  0.0172 -0.7633  0.0176
 1970TIP3    H2 5854   7.642   2.727   4.683  0.4428 -0.8598 -1.8485
 1971TIP3   OH2 5855   1.030   2.399   1.504 -0.8293  0.3260  0.4183
 1971TIP3    H1 5856   1.101   2.463   1.495 -1.9508  1.4465 -0.8909
 1971TIP3    H2 5857   1.070   2.315   1.482  0.2884  0.7960  0.5936
 1972TIP3   OH2 5858   0.637   7.251   5.649  0.4442 -0.3477 -0.1198
 1972TIP3    H1 5859   0.577   7.322   5.673 -1.1253 -0.9719 -1.9492
 1972TIP3    H2 5860   0.650   7.262   5.555  0.4930 -2.2205 -0.3649
 1973TIP3   OH2 5861   1.514   4.973   3.939  0.1486 -0.7323 -0.2777
 1973TIP3    H1 5862   1.577   5.027   3.987  0.1969 -1.6400  0.7025
 1973TIP3    H2 5863   1.566   4.900   3.906 -0.0448 -0.5282 -1.0538
 1974TIP3   OH2 5864   2.670   4.192   3.661  0.1794  0.4096  0.3341
 1974TIP3    H1 5865   2.685   4.185   3.755  1.1632 -0.4529  0.1282
 1974TIP3    H2 5866   2.669   4.286   3.643  0.8707  0.5614  1.0686
 1975TIP3   OH2 5867   1.010   3.180   6.592  0.1483 -0.2051 -0.9270
 1975TIP3    H1 5868   0.988   3.177   6.685  0.6547 -1.7455 -0.8242
 1975TIP3    H2 5869   0.951   3.116   6.552  0.6438 -0.3135 -1.4996
 1976TIP3   OH2 5870   5.188   1.092   3.508  0.6700  0.2745  0.6045
 1976TIP3    H1 5871   5.218   1.079   3.418 -0.7025  2.4343 -0.2341
 1976TIP3    H2 5872   5.244   1.033   3.560  1.3354 -1.2263 -1.6336
 1977TIP3   OH2 5873   6.098   5.396   6.272  0.2724 -0.7484  0.0543
 1977TIP3    H1 5874   6.039   5.443   6.214 -1.2630 -0.9271  1.3995
 1977TIP3    H2 5875   6.132   5.463   6.332  1.4826 -0.6445 -0.7126
 1978TIP3   OH2 5876   3.218   6.952   6.603  0.4524  0.2048 -0.1642
 1978TIP3    H1 5877   3.182   7.036   6.574  0.1230 -0.6818 -2.6262
 1978TIP3    H2 5878   3.142   6.894   6.606  0.8462 -0.2894  0.3673
 1979TIP3   OH2 5879   3.311   1.179   1.013 -0.2025  0.1499 -0.2274
 1979TIP3    H1 5880   3.295   1.118   0.941  1.3095 -1.4091  0.7031
 1979TIP3    H2 5881   3.229   1.228   1.021 -2.1272 -2.8147 -0.0521
 1980TIP3   OH2 5882   4.786   0.721   3.200 -0.6384 -0.2125 -0.5847
 1980TIP3    H1 5883   4.751   0.632   3.196 -0.4299 -0.2588 -1.7008
 1980TIP3    H2 5884   4.844   0.728   3.124 -1.0111  1.0203 -0.7891
 1981TIP3   OH2 5885   7.206   1.293   5.903 -0.6146 -0.2511 -0.2248
 1981TIP3    H1 5886   7.129   1.318   5.955  0.2979  0.2099  0.9510
 1981TIP3    H2 5887   7.250   1.227   5.957  0.4942  0.4239 -0.2813
 1982TIP3   OH2 5888   8.005   0.253   3.668 -0.2370  0.5759 -0.5382
 1982TIP3    H1 5889   8.022   0.271   3.575  2.5887 -0.6184 -0.3452
 1982TIP3    H2 5890   8.043   0.328   3.714  2.5718 -0.9568 -0.2051
 1983TIP3   OH2 5891   1.533   6.459   3.218 -0.3080 -0.5306 -0.1999
 1983TIP3    H1 5892   1.483   6.448   3.137  1.0672  0.9385 -1.3089
 1983TIP3    H2 5893   1.564   6.550   3.215  4.3977 -1.8846 -0.8316
 1984TIP3   OH2 5894   4.411   6.356   3.551 -0.5308  0.2312  0.5002
 1984TIP3    H1 5895   4.440   6.311   3.630  0.9300 -0.0282 -0.1557
 1984TIP3    H2 5896   4.404   6.447   3.577 -1.4992 -0.0550  1.3009
 1985TIP3   OH2 5897   5.876   6.894   4.617  0.0957 -0.5394 -0.6691
 1985TIP3    H1 5898   5.805   6.922   4.674 -0.0290 -1.9558 -0.0907
 1985TIP3    H2 5899   5.832   6.858   4.540  0.2168 -0.4111 -0.7990
 1986TIP3   OH2 5900   7.832   5.583   3.229 -0.4243 -0.1557  0.1099
 1986TIP3    H1 5901   7.794   5.502   3.262  1.6556 -1.9593 -1.6261
 1986TIP3    H2 5902   7.912   5.595   3.280 -0.2590  0.3231 -0.2529
 1987TIP3   OH2 5903   0.901   7.302   3.011 -0.5940 -0.2566  0.1763
 1987TIP3    H1 5904   0.881   7.361   2.938 -0.1310 -0.0207  0.2373
 1987TIP3    H2 5905   0.819   7.296   3.060 -0.8030 -0.1175 -0.1523
 1988TIP3   OH2 5906   3.821   5.498   1.707  0.0332 -0.1029 -0.3007
 1988TIP3    H1 5907   3.903   5.450   1.704  0.4181  0.1934  2.5592
 1988TIP3    H2 5908   3.811   5.535   1.619  2.5877 -0.7012 -0.9167
 1989TIP3   OH2 5909   1.761   4.637   1.234 -0.7519 -0.2634 -0.0363
 1989TIP3    H1 5910   1.755   4.733   1.230 -0.4176 -0.2717 -1.0771
 1989TIP3    H2 5911   1.758   4.610   1.142 -0.9675 -1.2646  0.2618
 1990TIP3   OH2 5912   0.749   6.248   2.760  0.4230  0.3500  0.1593
 1990TIP3    H1 5913   0.706   6.333   2.757  1.5752  0.9302 -0.1222
 1990TIP3    H2 5914   0.736   6.218   2.850 -0.0074  0.8061  0.2502
 1991TIP3   OH2 5915   5.340   4.657   6.665  0.0495  1.1046 -0.5378
 1991TIP3    H1 5916   5.367   4.726   6.726  0.0231  0.6886 -0.0525
 1991TIP3    H2 5917   5.402   4.586   6.680 -1.0284  0.3003  0.3034
 1992TIP3   OH2 5918   4.143   4.306   2.438  0.5884 -0.2703  0.3852
 1992TIP3    H1 5919   4.202   4.296   2.364  0.7941 -1.5093  0.6971
 1992TIP3    H2 5920   4.122   4.217   2.465 -1.8812  0.0999 -0.0540
 1993TIP3   OH2 5921   6.249   2.119   5.773 -0.0547  0.0923  0.3353
 1993TIP3    H1 5922   6.181   2.184   5.755 -0.2572  0.6679  2.8320
 1993TIP3    H2 5923   6.330   2.169   5.779  0.1349 -0.1961  0.2246
 1994TIP3   OH2 5924   1.710   3.454   0.075  0.2022 -0.4367  0.2209
 1994TIP3    H1 5925   1.694   3.527   0.015 -2.2891 -1.9831 -1.1504
 1994TIP3    H2 5926   1.721   3.496   0.160 -0.2481  1.5865 -0.6518
 1995TIP3   OH2 5927   6.969   3.685   1.743 -0.3868 -0.1428  0.0915
 1995TIP3    H1 5928   7.042   3.634   1.708 -1.0369 -0.3136 -1.0603
 1995TIP3    H2 5929   6.894   3.625   1.740 -1.0664  0.7144 -0.8711
 1996TIP3   OH2 5930   7.601   2.836   3.080  0.0679  0.2830 -0.6355
 1996TIP3    H1 5931   7.638   2.748   3.072  1.1171  0.5743  0.7816
 1996TIP3    H2 5932   7.516   2.822   3.123 -0.1600 -0.1018 -1.1957
 1997TIP3   OH2 5933   1.036   4.281   4.732  0.1417  0.0598  0.1224
 1997TIP3    H1 5934   1.130   4.290   4.717  0.0587  1.5237  0.2727
 1997TIP3    H2 5935   0.997   4.288   4.645  0.1691 -0.7223  0.0401
 1998TIP3   OH2 5936   2.103   5.477   4.835  0.0807 -0.0300  0.6051
 1998TIP3    H1 5937   2.078   5.474   4.927  0.0897  1.9072  0.7069
 1998TIP3    H2 5938   2.191   5.514   4.835  0.8603 -1.7952 -0.0893
 1999TIP3   OH2 5939   4.532   6.447   4.039  0.0739 -0.2140  0.2099
 1999TIP3    H1 5940   4.493   6.482   3.959 -1.7165 -0.5737  0.9005
 1999TIP3    H2 5941   4.468   6.385   4.072  0.7432 -0.0004  1.9894
 2000TIP3   OH2 5942   3.013   4.405   4.574  0.5321 -0.1926 -0.1641
 2000TIP3    H1 5943   3.058   4.449   4.502  2.1764 -0.9774  0.3371
 2000TIP3    H2 5944   2.964   4.335   4.532  1.0311 -0.2960 -0.5907
 2001TIP3   OH2 5945   3.467   1.267   0.634 -0.6135 -0.6212  0.2949
 2001TIP3    H1 5946   3.546   1.282   0.581  0.0738 -0.2542  1.3785
 2001TIP3    H2 5947   3.501   1.240   0.720 -1.6542 -0.1778  0.8698
 2002TIP3   OH2 5948   5.040   1.465   1.163 -0.0087  0.0510  0.5934
 2002TIP3    H1 5949   4.988   1.421   1.230 -1.0990  0.8101  0.2629
 2002TIP3    H2 5950   5.049   1.401   1.093 -0.2600 -0.1785  0.7687
 2003TIP3   OH2 5951   4.420   6.641   3.827 -0.4102  0.3618 -0.1210
 2003TIP3    H1 5952   4.405   6.666   3.736  1.6937  0.3421 -0.5216
 2003TIP3    H2 5953   4.406   6.722   3.877 -0.0392  0.7486 -0.6442
 2004TIP3   OH2 5954   1.430   3.913   3.125  0.0767 -0.4996  0.1106
 2004TIP3    H1 5955   1.459   3.842   3.182 -0.2032  0.5581  1.6238
 2004TIP3    H2 5956   1.394   3.869   3.048 -0.7224 -2.0097  1.3042
 2005TIP3   OH2 5957   4.399   1.815   5.595 -0.5989 -0.2410  0.0963
 2005TIP3    H1 5958   4.492   1.800   5.613 -0.5473 -1.0812 -0.8111
 2005TIP3    H2 5959   4.398   1.853   5.507 -1.0032  1.6356  0.8474
 2006TIP3   OH2 5960   6.714   1.844   6.375  0.3173  0.0841  0.2676
 2006TIP3    H1 5961   6.749   1.833   6.287  0.9056 -1.1276  0.6262
 2006TIP3    H2 5962   6.619   1.842   6.364  0.3777  0.6140 -0.4010
 2007TIP3   OH2 5963   5.677   0.967   1.096  0.6156 -0.2967 -0.3342
 2007TIP3    H1 5964   5.748   0.997   1.039  0.6505  0.6842  0.1948
 2007TIP3    H2 5965   5.651   0.882   1.060 -0.1808  0.8171 -2.5424
 2008TIP3   OH2 5966   5.699   5.752   4.876  0.4357 -0.1664 -0.3198
 2008TIP3    H1 5967   5.677   5.715   4.790 -1.0545  1.1077 -0.5412
 2008TIP3    H2 5968   5.688   5.846   4.864  1.1392  0.1097  1.0340
 2009TIP3   OH2 5969   1.733   6.853   0.201 -0.1492  0.5194 -0.1994
 2009TIP3    H1 5970   1.643   6.829   0.178 -0.0573  0.6506 -0.7144
 2009TIP3    H2 5971   1.787   6.811   0.134  0.4771 -2.1360  1.7937
 2010TIP3   OH2 5972   2.898   0.309   3.906  0.0841  0.1966 -0.1385
 2010TIP3    H1 5973   2.849   0.366   3.965 -0.6978 -0.4765 -0.1317
 2010TIP3    H2 5974   2.872   0.338   3.818  1.3001  1.2455 -0.1958
 2011TIP3   OH2 5975   2.815   0.047   0.724 -0.3157  0.3673  0.6704
 2011TIP3    H1 5976   2.779   0.038   0.635 -0.0006  1.1766  0.4575
 2011TIP3    H2 5977   2.879   0.118   0.717  1.1587 -0.8631  1.0936
 2012TIP3   OH2 5978   5.111   0.703   4.742  0.2582  0.1969  0.4778
 2012TIP3    H1 5979   5.138   0.709   4.650 -2.1323  1.1839 -0.2621
 2012TIP3    H2 5980   5.144   0.784   4.782  0.5739  0.1772  0.2604
 2013TIP3   OH2 5981   0.321   5.907   4.343  0.0224  0.1437  0.4341
 2013TIP3    H1 5982   0.338   5.842   4.275 -0.6954 -0.1355  0.5114
 2013TIP3    H2 5983   0.372   5.983   4.317  0.5664 -0.3164  0.1323
 2014TIP3   OH2 5984   3.785   7.071   2.287 -0.3663  0.3899  0.1643
 2014TIP3    H1 5985   3.694   7.046   2.301  0.1463 -0.7484  1.7282
 2014TIP3    H2 5986   3.788   7.164   2.313 -1.4159  0.9846 -1.6601
 2015TIP3   OH2 5987   5.891   2.962   1.400 -0.2288 -0.5229  0.6523
 2015TIP3    H1 5988   5.894   3.053   1.370  1.6737 -1.1015 -1.1444
 2015TIP3    H2 5989   5.800   2.935   1.385 -0.6161  0.8311  0.4162
 2016TIP3   OH2 5990   0.230   2.047   4.429 -0.0713 -0.3810 -0.5037
 2016TIP3    H1 5991   0.167   2.098   4.481  0.3248  0.2885 -0.6582
 2016TIP3    H2 5992   0.202   2.061   4.339  0.5007  0.2102 -0.5956
 2017TIP3   OH2 5993   5.459   1.284  -0.033 -0.4320  0.2963  0.5651
 2017TIP3    H1 5994   5.456   1.338   0.045 -2.0281 -0.3636  0.9907
 2017TIP3    H2 5995   5.467   1.195  -0.000  2.6714  0.1944 -0.1311
 2018TIP3   OH2 5996   5.259   0.718   1.595  0.2035  0.5906 -0.3689
 2018TIP3    H1 5997   5.319   0.725   1.521  1.6509  1.1351  0.8165
 2018TIP3    H2 5998   5.248   0.808   1.625  0.6327  0.2523  0.8353
 2019TIP3   OH2 5999   4.373   7.722   3.896  0.2092  0.4859  0.4695
 2019TIP3    H1 6000   4.304   7.788   3.890  0.7979  1.0644 -0.2814
 2019TIP3    H2 6001   4.436   7.747   3.827  1.8057  0.7186  1.9491
 2020TIP3   OH2 6002   4.220   7.353   1.924 -0.1336  0.2164  0.1895
 2020TIP3    H1 6003   4.196   7.417   1.856 -0.3247  0.2667  0.3026
 2020TIP3    H2 6004   4.281   7.401   1.981  0.4892 -0.0096 -0.2758
 2021TIP3   OH2 6005   8.015   7.324   3.490  0.5639  0.0630 -0.9651
 2021TIP3    H1 6006   8.038   7.264   3.561  0.3583 -0.0390 -0.9841
 2021TIP3    H2 6007   7.935   7.288   3.453  0.2382  0.5392 -0.7453
 2022TIP3   OH2 6008   2.722   0.944   1.958  0.4310 -0.4587 -0.3522
 2022TIP3    H1 6009   2.716   1.002   2.034 -1.6393  0.1874 -0.9503
 2022TIP3    H2 6010   2.797   0.977   1.909 -0.8539  1.9801 -0.8400
 2023TIP3   OH2 6011   0.603   3.840   6.266 -0.1163  0.0760 -0.2215
 2023TIP3    H1 6012   0.600   3.896   6.344  0.1187  0.2248 -0.3170
 2023TIP3    H2 6013   0.513   3.842   6.232 -0.3740 -0.5015  0.3980
 2024TIP3   OH2 6014   4.762   4.969   0.068  0.1144  0.7643  0.3872
 2024TIP3    H1 6015   4.732   4.954   0.158  0.4505 -1.1500  0.2050
 2024TIP3    H2 6016   4.772   5.064   0.063  0.3109  0.9086  2.4460
 2025TIP3   OH2 6017   8.170   1.725   3.748 -0.0190 -0.1776  0.5179
 2025TIP3    H1 6018   8.197   1.750   3.836 -1.3807  0.9790  0.6474
 2025TIP3    H2 6019   8.154   1.808   3.703 -2.3247 -0.7267  0.1786
 2026TIP3   OH2 6020   2.063   3.011   2.623  0.1874  0.4192 -0.3926
 2026TIP3    H1 6021   1.996   3.064   2.579 -1.5484  0.6826  2.3233
 2026TIP3    H2 6022   2.026   2.923   2.625  0.9008  0.1055 -0.6895
 2027TIP3   OH2 6023   7.100   6.729   2.414 -0.2885 -0.3848 -0.0180
 2027TIP3    H1 6024   7.106   6.667   2.341 -0.1893 -0.6348  0.2016
 2027TIP3    H2 6025   7.028   6.787   2.390  0.8538  0.6212 -1.1478
 2028TIP3   OH2 6026   2.296   2.854   4.604  0.0645 -0.2167  0.0580
 2028TIP3    H1 6027   2.368   2.866   4.543  0.9219 -1.5651  0.7469
 2028TIP3    H2 6028   2.250   2.776   4.573 -0.6256  0.1677  0.0795
 2029TIP3   OH2 6029   0.939   7.528   3.303  0.0463 -0.8662  0.2785
 2029TIP3    H1 6030   0.853   7.541   3.343  1.0340  0.1495  2.2416
 2029TIP3    H2 6031   0.957   7.611   3.259  0.2618 -0.8571  0.3820
 2030TIP3   OH2 6032   4.254   4.320   0.664 -0.3198  0.3047 -0.2960
 2030TIP3    H1 6033   4.203   4.338   0.585 -0.1944  0.5219 -0.3298
 2030TIP3    H2 6034   4.284   4.406   0.693 -0.2205  0.2080 -0.1101
 2031TIP3   OH2 6035   1.207   1.204   2.230  0.1893  0.4001  0.4898
 2031TIP3    H1 6036   1.247   1.127   2.188 -3.5228 -2.1103  1.0784
 2031TIP3    H2 6037   1.250   1.209   2.315  1.3937 -0.1672 -0.0477
 2032TIP3   OH2 6038   5.855   0.908   3.748 -0.1335  0.2634 -0.2353
 2032TIP3    H1 6039   5.787   0.883   3.809 -0.2896 -0.7673 -0.7991
 2032TIP3    H2 6040   5.937   0.895   3.796 -0.3018  0.9931  0.2649
 2033TIP3   OH2 6041   2.709   4.169   1.826 -0.2830 -0.1769  0.1195
 2033TIP3    H1 6042   2.662   4.222   1.891  0.9031  0.2414  0.6603
 2033TIP3    H2 6043   2.740   4.093   1.876  0.5151  0.0780  0.0235
 2034TIP3   OH2 6044   1.396   1.594   2.058 -0.0624  0.1561  0.2935
 2034TIP3    H1 6045   1.485   1.598   2.093 -0.6640 -0.2628  1.9898
 2034TIP3    H2 6046   1.382   1.502   2.039 -0.1987  0.1924  0.2209
 2035TIP3   OH2 6047   2.258   5.270   4.276 -0.2517  0.1463  0.3887
 2035TIP3    H1 6048   2.258   5.318   4.193  2.1236  1.2547  0.9464
 2035TIP3    H2 6049   2.268   5.178   4.250  0.2002  0.4524 -0.5868
 2036TIP3   OH2 6050   7.082   2.856   2.993 -0.4837 -0.3392 -0.2960
 2036TIP3    H1 6051   7.168   2.867   3.033 -0.0670 -0.5935 -1.1019
 2036TIP3    H2 6052   7.038   2.940   3.006 -0.3650 -0.4111  0.6754
 2037TIP3   OH2 6053   5.958   4.598   5.196  0.0513  0.2480  0.0868
 2037TIP3    H1 6054   5.945   4.682   5.241  0.2897  0.3337 -0.0014
 2037TIP3    H2 6055   6.048   4.603   5.162  0.0945 -0.0764  0.1508
 2038TIP3   OH2 6056   4.402   1.096   1.234  0.1534  0.4448 -0.4030
 2038TIP3    H1 6057   4.387   1.148   1.155 -0.0348  0.1186 -0.5830
 2038TIP3    H2 6058   4.341   1.023   1.227  0.2179  0.3495 -0.0126
 2039TIP3   OH2 6059   6.209   5.413   0.012  0.5980 -0.2964 -0.5901
 2039TIP3    H1 6060   6.164   5.367   0.083  0.5286  1.4668  0.5766
 2039TIP3    H2 6061   6.213   5.350  -0.060 -2.1094 -1.1114 -0.1010
 2040TIP3   OH2 6062   2.663   0.279   6.333 -0.3341 -0.0365 -0.4025
 2040TIP3    H1 6063   2.603   0.205   6.341 -0.3303 -0.1773 -1.5687
 2040TIP3    H2 6064   2.737   0.246   6.282 -1.0856  1.1631 -2.3935
 2041TIP3   OH2 6065   1.707   3.159   2.404 -0.6177 -0.2488 -0.0393
 2041TIP3    H1 6066   1.781   3.124   2.353  0.3619  1.4709  0.1309
 2041TIP3    H2 6067   1.748   3.205   2.477 -1.8320  1.1030 -0.1744
 2042TIP3   OH2 6068   4.082   6.602   0.597 -0.7688  0.5900  0.0577
 2042TIP3    H1 6069   4.164   6.573   0.637  0.6648  1.3019 -2.1501
 2042TIP3    H2 6070   4.081   6.697   0.612  0.0234  0.9452 -1.8089
 2043TIP3   OH2 6071   4.528   7.500   0.620  0.3220  0.2401 -0.4071
 2043TIP3    H1 6072   4.472   7.526   0.547  0.7450  1.5895 -0.2784
 2043TIP3    H2 6073   4.497   7.552   0.694  0.4318 -0.5095  0.1870
 2044TIP3   OH2 6074   0.707   2.190   6.448 -0.3743 -0.8371 -1.0945
 2044TIP3    H1 6075   0.673   2.156   6.530  2.1713 -0.6498  0.1446
 2044TIP3    H2 6076   0.716   2.285   6.462  1.3234 -0.9662 -1.0210
 2045TIP3   OH2 6077   8.207   3.214   2.444 -0.6484  0.0769 -0.5086
 2045TIP3    H1 6078   8.138   3.199   2.508 -1.3576  0.4175 -1.1858
 2045TIP3    H2 6079   8.163   3.254   2.369 -0.2892 -2.4783 -2.2069
 2046TIP3   OH2 6080   0.306   6.432   4.702 -0.1983 -0.3149  0.2103
 2046TIP3    H1 6081   0.244   6.470   4.640  2.2232  2.0550 -0.9552
 2046TIP3    H2 6082   0.258   6.358   4.741 -2.6463 -0.5469 -2.7950
 2047TIP3   OH2 6083   4.786   3.688   6.431 -0.0299  0.2803  0.3740
 2047TIP3    H1 6084   4.830   3.672   6.515  0.8666  0.8424  0.0332
 2047TIP3    H2 6085   4.850   3.660   6.365 -0.2982  0.8349 -0.1301
 2048TIP3   OH2 6086   3.591   4.846   2.856  0.3670  0.6071 -0.2083
 2048TIP3    H1 6087   3.535   4.922   2.836 -1.1610 -0.6473 -0.8965
 2048TIP3    H2 6088   3.624   4.864   2.943 -1.1437  1.4102  0.2482
 2049TIP3   OH2 6089   8.119   5.705   2.875  0.0683 -0.0471  0.2454
 2049TIP3    H1 6090   8.139   5.689   2.967 -0.5163 -2.9654 -0.0537
 2049TIP3    H2 6091   8.024   5.695   2.868  0.2630 -1.3669 -0.9061
 2050TIP3   OH2 6092   0.126   4.577   6.381  0.4433  0.4092 -0.3559
 2050TIP3    H1 6093   0.135   4.483   6.397 -2.4254  0.1299  0.1463
 2050TIP3    H2 6094   0.107   4.584   6.287 -2.5458  0.0651  0.1169
 2051TIP3   OH2 6095   5.362   7.525   4.356  0.2421  0.3275 -0.2370
 2051TIP3    H1 6096   5.420   7.507   4.430  1.2614 -3.8516 -1.7532
 2051TIP3    H2 6097   5.274   7.505   4.388  0.6691 -1.4218 -0.0182
 2052TIP3   OH2 6098   0.949   5.546   6.215 -0.2077 -0.4231  1.1063
 2052TIP3    H1 6099   1.006   5.547   6.292 -0.6624 -1.0685  1.4610
 2052TIP3    H2 6100   0.993   5.487   6.153  0.9540  1.2757  0.2219
 2053TIP3   OH2 6101   4.339   4.565   0.722  0.5064  0.0824 -0.5721
 2053TIP3    H1 6102   4.355   4.643   0.669  0.8185  0.2480 -0.2381
 2053TIP3    H2 6103   4.277   4.594   0.789 -0.8954 -0.4469 -1.5966
 2054TIP3   OH2 6104   3.666   5.246   1.053 -0.1604  0.4164  0.2834
 2054TIP3    H1 6105   3.698   5.191   0.982 -2.7550 -1.5677  0.5151
 2054TIP3    H2 6106   3.602   5.305   1.011 -0.8001  0.0673  0.7479
 2055TIP3   OH2 6107   3.693   0.382   1.425 -0.3925 -0.1039 -0.0345
 2055TIP3    H1 6108   3.604   0.361   1.396 -0.4124  0.2973 -0.2662
 2055TIP3    H2 6109   3.744   0.385   1.344 -0.2424  0.0263  0.0651
 2056TIP3   OH2 6110   2.136   5.217   5.874 -0.3324  0.3219  0.2145
 2056TIP3    H1 6111   2.153   5.134   5.830  0.6639 -0.0697  1.2839
 2056TIP3    H2 6112   2.042   5.233   5.860 -0.2018 -0.1382 -1.3821
 2057TIP3   OH2 6113   7.167   2.794   2.739  0.5251 -0.0387  0.4311
 2057TIP3    H1 6114   7.137   2.832   2.821  1.0663  0.5387  0.3711
 2057TIP3    H2 6115   7.242   2.740   2.764  0.5837  0.0011  0.3436
 2058TIP3   OH2 6116   3.232   5.098   3.572 -0.1317  0.0539  0.4567
 2058TIP3    H1 6117   3.168   5.074   3.505 -0.2449 -2.5950  1.4187
 2058TIP3    H2 6118   3.317   5.079   3.533  0.1924  3.0094 -0.5935
 2059TIP3   OH2 6119   0.495   6.592   4.845 -0.4361  0.1150  0.2349
 2059TIP3    H1 6120   0.418   6.546   4.811 -0.8741  0.5080  0.6729
 2059TIP3    H2 6121   0.477   6.601   4.938  0.3952 -0.2651  0.4408
 2060TIP3   OH2 6122   5.147   2.561   3.034 -0.4885  0.2837  0.3830
 2060TIP3    H1 6123   5.210   2.493   3.057  0.5208  0.7111 -0.9691
 2060TIP3    H2 6124   5.149   2.622   3.107 -0.6982 -0.6333  1.1681
 2061TIP3   OH2 6125   1.348   3.628   3.614 -0.1445  0.0979  0.0117
 2061TIP3    H1 6126   1.345   3.600   3.706  0.7370  1.5392  0.4947
 2061TIP3    H2 6127   1.314   3.717   3.615 -0.8721 -0.1409 -1.2026
 2062TIP3   OH2 6128   7.237   3.739   0.071 -0.6115 -0.0324 -0.5142
 2062TIP3    H1 6129   7.248   3.822   0.024 -2.8334  1.3665  1.2386
 2062TIP3    H2 6130   7.155   3.703   0.037  0.1377 -1.3606 -0.9760
 2063TIP3   OH2 6131   0.103   0.533   5.409  0.8044  0.0229 -0.3773
 2063TIP3    H1 6132   0.133   0.624   5.398 -0.0490  0.3867  0.1713
 2063TIP3    H2 6133   0.027   0.526   5.352 -1.3075  0.7677  2.1667
 2064TIP3   OH2 6134   6.615   1.565   4.345  0.5092 -0.2186 -0.5391
 2064TIP3    H1 6135   6.686   1.599   4.290 -0.8094  0.8847 -1.6264
 2064TIP3    H2 6136   6.597   1.635   4.408  0.1040 -0.3332 -0.5266
 2065TIP3   OH2 6137   7.041   4.971   4.842  1.1874 -0.0666  0.2753
 2065TIP3    H1 6138   7.028   4.898   4.903 -0.8116  0.1650  0.2063
 2065TIP3    H2 6139   7.037   4.930   4.756 -0.7169  0.1468  0.2081
 2066TIP3   OH2 6140   0.662   0.696   3.010  0.9717  0.6547 -0.3558
 2066TIP3    H1 6141   0.740   0.653   3.046 -0.4422 -0.6717  1.3243
 2066TIP3    H2 6142   0.637   0.641   2.936  1.2251  0.6606 -0.4465
 2067TIP3   OH2 6143   8.129   2.844   5.742 -0.5914 -0.7903 -0.0175
 2067TIP3    H1 6144   8.039   2.877   5.734 -0.4053 -0.2568  0.1012
 2067TIP3    H2 6145   8.121   2.750   5.723 -1.1062 -0.6657 -0.4260
 2068TIP3   OH2 6146   4.368   3.118   0.258 -0.0991  0.0270 -0.2755
 2068TIP3    H1 6147   4.320   3.067   0.323  1.9766 -2.7958 -0.7453
 2068TIP3    H2 6148   4.356   3.071   0.176  1.1090  0.8335 -0.9563
 2069TIP3   OH2 6149   2.939   7.113   0.491 -0.0398  0.5598  0.8121
 2069TIP3    H1 6150   2.984   7.051   0.433 -2.1235  0.6222 -1.0049
 2069TIP3    H2 6151   3.004   7.181   0.508  0.5536  0.7636 -1.8807
 2070TIP3   OH2 6152   1.509   5.265   3.252  0.4977  0.0989 -0.0243
 2070TIP3    H1 6153   1.561   5.339   3.221 -0.0273  0.6379  0.3580
 2070TIP3    H2 6154   1.573   5.194   3.263  1.1740  0.7729  0.5227
 2071TIP3   OH2 6155   4.658   2.292   0.557 -0.0208 -0.2671  0.4479
 2071TIP3    H1 6156   4.665   2.241   0.638  0.4998  0.6227  0.9797
 2071TIP3    H2 6157   4.739   2.344   0.555 -1.3891  2.0031  0.9421
 2072TIP3   OH2 6158   7.713   6.258   4.864  0.3577 -0.3337  0.4072
 2072TIP3    H1 6159   7.623   6.229   4.880  0.1740  0.8007  1.6299
 2072TIP3    H2 6160   7.761   6.234   4.943  1.2538 -1.2701 -0.3842
 2073TIP3   OH2 6161   2.186   2.860   1.796  0.3012 -0.7034  0.0734
 2073TIP3    H1 6162   2.102   2.903   1.814  1.0668  0.1371  1.9218
 2073TIP3    H2 6163   2.236   2.871   1.877  2.2356 -1.1115 -1.0033
 2074TIP3   OH2 6164   0.699   5.995   5.817 -0.3391 -0.1084  0.1324
 2074TIP3    H1 6165   0.748   5.990   5.899  0.3645  0.6435 -0.2296
 2074TIP3    H2 6166   0.755   5.951   5.753 -0.3227  0.3841 -0.1971
 2075TIP3   OH2 6167   5.448   2.416   1.680 -0.6871  0.2212  0.1045
 2075TIP3    H1 6168   5.441   2.512   1.679 -0.5983  0.2353 -1.0287
 2075TIP3    H2 6169   5.371   2.386   1.631  0.1702 -0.1921 -1.0461
 2076TIP3   OH2 6170   1.064   3.524   0.384 -0.2555  0.3458 -0.3346
 2076TIP3    H1 6171   1.142   3.507   0.331 -0.2193  0.3676 -0.2887
 2076TIP3    H2 6172   1.080   3.609   0.424 -0.1694  0.2163 -0.0896
 2077TIP3   OH2 6173   0.841   3.716   4.567 -0.4146  0.4280  0.1132
 2077TIP3    H1 6174   0.755   3.706   4.526 -0.3450  1.0064 -0.1707
 2077TIP3    H2 6175   0.821   3.725   4.661 -0.5599 -1.0826  0.2620
 2078TIP3   OH2 6176   3.172   1.360   1.782 -0.3960 -0.0685  0.5557
 2078TIP3    H1 6177   3.167   1.451   1.812 -1.1226  0.5939 -1.4036
 2078TIP3    H2 6178   3.259   1.353   1.744 -0.9835  0.4026 -0.9453
 2079TIP3   OH2 6179   7.505   2.427   3.881  0.4482  0.5491  0.2928
 2079TIP3    H1 6180   7.570   2.357   3.891 -0.5655 -0.1881  2.5909
 2079TIP3    H2 6181   7.423   2.388   3.912 -0.9855  1.6531 -1.8719
 2080TIP3   OH2 6182   5.869   1.023   5.702  0.0482 -0.5731 -0.0740
 2080TIP3    H1 6183   5.817   1.026   5.783 -0.1183  0.5509 -0.2173
 2080TIP3    H2 6184   5.955   0.991   5.731 -0.4664 -1.6941  0.2839
 2081TIP3   OH2 6185   3.431   4.515   3.884 -0.0343 -0.0388 -0.0249
 2081TIP3    H1 6186   3.448   4.436   3.935 -1.0240  0.0695  0.5068
 2081TIP3    H2 6187   3.382   4.485   3.808  3.1713 -0.4914 -2.0861
 2082TIP3   OH2 6188   2.341   4.041   0.133 -0.8564  0.2986  0.3111
 2082TIP3    H1 6189   2.340   3.972   0.066  0.8336  0.8786 -0.3719
 2082TIP3    H2 6190   2.394   4.005   0.204 -1.4579  0.2261  0.7260
 2083TIP3   OH2 6191   4.247   6.467   2.222  0.4891  0.0744  0.0226
 2083TIP3    H1 6192   4.173   6.525   2.236  0.3074 -0.4763  1.6064
 2083TIP3    H2 6193   4.223   6.386   2.267  1.9948 -0.1532  0.4785
 2084TIP3   OH2 6194   6.370   4.852   3.184  0.0234 -0.0827 -0.7311
 2084TIP3    H1 6195   6.403   4.783   3.242 -0.0276  1.3932  1.1591
 2084TIP3    H2 6196   6.442   4.869   3.123  0.0124 -1.8010 -1.2890
 2085TIP3   OH2 6197   7.342   3.484   6.413  0.1992  0.4002 -0.3166
 2085TIP3    H1 6198   7.412   3.504   6.476  1.6422  1.6106 -2.2007
 2085TIP3    H2 6199   7.300   3.568   6.396  1.7550  0.7412 -3.0678
 2086TIP3   OH2 6200   3.265   4.018   5.646  0.0878  0.0375  0.1359
 2086TIP3    H1 6201   3.342   4.001   5.591 -0.6129  0.5243 -1.0447
 2086TIP3    H2 6202   3.191   3.998   5.589 -0.6891  1.5684  0.5644
 2087TIP3   OH2 6203   4.069   6.941   6.643  0.1149 -0.7540 -0.1937
 2087TIP3    H1 6204   4.160   6.937   6.670  0.6179 -0.0386 -1.6563
 2087TIP3    H2 6205   4.023   6.882   6.703  1.3153 -0.1672  1.3810
 2088TIP3   OH2 6206   7.903   3.425   4.500 -0.4337 -0.1452  0.0903
 2088TIP3    H1 6207   7.821   3.446   4.454 -0.4957 -1.4811 -0.4681
 2088TIP3    H2 6208   7.882   3.435   4.592 -1.1451 -0.1699 -0.0610
 2089TIP3   OH2 6209   4.181   4.944   5.493 -0.2278  0.5461 -0.2134
 2089TIP3    H1 6210   4.116   4.982   5.434  1.3628  1.1557 -1.6446
 2089TIP3    H2 6211   4.180   4.850   5.472  0.2607  0.7435 -1.1817
 2090TIP3   OH2 6212   2.633   1.864   2.497 -0.3653  0.2177 -0.2809
 2090TIP3    H1 6213   2.711   1.861   2.552 -0.4256  1.8670 -0.0281
 2090TIP3    H2 6214   2.584   1.939   2.531 -0.4794  1.2102 -2.4414
 2091TIP3   OH2 6215   2.083   7.245   0.411 -0.2893  0.2204  0.1212
 2091TIP3    H1 6216   2.140   7.292   0.472  2.7421  1.3483 -3.2323
 2091TIP3    H2 6217   2.122   7.157   0.406 -1.3545 -0.3066  0.7486
 2092TIP3   OH2 6218   3.372   4.140   1.537 -0.0343  0.1425 -0.4535
 2092TIP3    H1 6219   3.370   4.104   1.448 -0.9137 -0.8939 -0.0377
 2092TIP3    H2 6220   3.393   4.065   1.593  4.0556  1.3834 -0.0275
 2093TIP3   OH2 6221   7.185   4.390   3.902  0.1724  0.5180 -0.0279
 2093TIP3    H1 6222   7.270   4.349   3.883  0.4440  1.1040 -0.1027
 2093TIP3    H2 6223   7.134   4.321   3.943 -0.6112 -1.0289 -3.2470
 2094TIP3   OH2 6224   0.453   6.162   5.339  0.1561 -0.4003  0.1895
 2094TIP3    H1 6225   0.546   6.184   5.333 -0.2974  1.3226 -1.3500
 2094TIP3    H2 6226   0.414   6.201   5.261 -1.9329 -0.7357  1.0025
 2095TIP3   OH2 6227   8.246   6.335   1.045 -0.5907  0.3642 -0.6099
 2095TIP3    H1 6228   8.283   6.308   0.961  1.5440  1.4149 -0.0541
 2095TIP3    H2 6229   8.237   6.430   1.038  0.3890  0.5741  0.6081
 2096TIP3   OH2 6230   5.944   0.707   2.675 -0.3578 -0.3165 -0.6066
 2096TIP3    H1 6231   5.988   0.641   2.729  0.0877  0.5677  0.1324
 2096TIP3    H2 6232   5.940   0.668   2.588 -2.2987 -2.3770  0.3010
 2097TIP3   OH2 6233   4.144   2.233   1.011  0.3065  0.3825  0.0433
 2097TIP3    H1 6234   4.067   2.287   1.031 -0.8892 -1.1223 -0.3535
 2097TIP3    H2 6235   4.216   2.296   1.003 -1.0137  1.8991 -0.2925
 2098TIP3   OH2 6236   0.769   6.342   5.091 -0.5098  0.2881  0.1522
 2098TIP3    H1 6237   0.723   6.313   5.013  0.0411 -0.3529  0.0543
 2098TIP3    H2 6238   0.846   6.285   5.096 -0.4743  0.4041  1.0898
 2099TIP3   OH2 6239   3.202   0.441   1.305 -0.1869 -0.0052 -0.6167
 2099TIP3    H1 6240   3.111   0.439   1.335 -0.1589  1.1709 -0.3943
 2099TIP3    H2 6241   3.196   0.428   1.210 -0.8717  2.6976 -1.0375
 2100TIP3   OH2 6242   4.897   0.870   5.566 -0.0538 -0.0448  0.1934
 2100TIP3    H1 6243   4.862   0.957   5.586  2.4407  0.5490  2.7262
 2100TIP3    H2 6244   4.854   0.811   5.628  0.6181  0.0364  0.7607
 2101TIP3   OH2 6245   2.026   3.423   5.059 -0.4068 -1.0529  0.0568
 2101TIP3    H1 6246   2.059   3.353   5.003  0.4695 -1.2424  0.7865
 2101TIP3    H2 6247   1.957   3.382   5.112 -1.6316 -0.7358 -1.2447
 2102TIP3   OH2 6248   3.863   2.747   4.521  0.3378  0.2981 -0.5561
 2102TIP3    H1 6249   3.789   2.686   4.519  0.8676 -0.5019  1.4308
 2102TIP3    H2 6250   3.938   2.693   4.547  1.6362  1.1144 -2.3614
 2103TIP3   OH2 6251   3.966   1.241   3.712 -0.0554  0.9046 -0.6041
 2103TIP3    H1 6252   4.014   1.284   3.641 -0.4090  2.6114  0.1352
 2103TIP3    H2 6253   4.012   1.269   3.791  0.2776 -0.8954 -0.1292
 2104TIP3   OH2 6254   0.800   2.614   5.423  0.4321  0.0350 -0.3052
 2104TIP3    H1 6255   0.734   2.544   5.418 -1.5995  1.8539 -0.0918
 2104TIP3    H2 6256   0.815   2.640   5.332 -1.1858  1.3862 -0.2262
 2105TIP3   OH2 6257   0.023   4.020   1.166  0.0277  0.4274  0.5714
 2105TIP3    H1 6258  -0.039   3.990   1.100  0.7349  0.3498 -0.0709
 2105TIP3    H2 6259   0.109   3.998   1.130  0.4819  1.5117  0.9512
 2106TIP3   OH2 6260   7.195   7.256   0.275  0.1977 -0.1164 -0.5068
 2106TIP3    H1 6261   7.260   7.188   0.257  0.6041 -0.0645  0.7037
 2106TIP3    H2 6262   7.242   7.322   0.326 -0.3045  0.8735 -1.2802
 2107TIP3   OH2 6263   0.179   3.881   4.263 -0.0437  0.0401  0.1912
 2107TIP3    H1 6264   0.142   3.888   4.351  2.7982  0.0802  1.4857
 2107TIP3    H2 6265   0.261   3.930   4.267  1.0838 -1.5110 -1.9348
 2108TIP3   OH2 6266   4.803   1.466   1.449 -0.5384  0.1355 -0.0722
 2108TIP3    H1 6267   4.886   1.419   1.449 -0.8857 -0.4936  0.3008
 2108TIP3    H2 6268   4.756   1.430   1.373 -0.1008  1.1748 -0.8564
 2109TIP3   OH2 6269   4.861   1.000   0.723 -0.1618  0.1638  0.5690
 2109TIP3    H1 6270   4.842   1.005   0.630 -0.9707 -1.0412  0.6370
 2109TIP3    H2 6271   4.923   0.927   0.730  1.1909  1.2997  0.8190
 2110TIP3   OH2 6272   6.072   4.685   3.797 -0.3313 -0.4967 -0.2574
 2110TIP3    H1 6273   6.015   4.676   3.873  1.3881  0.1647  1.1922
 2110TIP3    H2 6274   6.153   4.721   3.832  1.8906 -3.5507 -1.7712
 2111TIP3   OH2 6275   2.517   6.028   5.664 -0.4629 -0.1387  0.1145
 2111TIP3    H1 6276   2.474   6.068   5.741 -0.2217  0.5775 -0.1114
 2111TIP3    H2 6277   2.476   6.072   5.589 -0.2275 -0.3557 -0.1416
 2112TIP3   OH2 6278   2.046   1.831   6.032  0.2769 -0.4888 -0.4505
 2112TIP3    H1 6279   2.086   1.768   5.972  1.2374  1.1559 -1.6104
 2112TIP3    H2 6280   2.076   1.916   6.001 -1.8387  0.6452  0.4146
 2113TIP3   OH2 6281   5.377   6.977   1.288 -0.3781  0.1323  0.0262
 2113TIP3    H1 6282   5.365   7.039   1.360 -0.1617  0.6756 -0.4030
 2113TIP3    H2 6283   5.459   6.932   1.308 -0.3946  0.1770  0.1932
 2114TIP3   OH2 6284   5.326   6.650   3.927 -0.3669  0.3414  0.4987
 2114TIP3    H1 6285   5.393   6.581   3.919 -0.2410  0.4579  0.5474
 2114TIP3    H2 6286   5.295   6.663   3.837  1.3535  1.9506  0.0893
 2115TIP3   OH2 6287   6.502   1.581   2.868  0.0606 -0.4431 -0.6583
 2115TIP3    H1 6288   6.416   1.547   2.891  0.4438 -1.7946 -1.1328
 2115TIP3    H2 6289   6.485   1.668   2.832 -1.3460 -1.4333 -2.5610
 2116TIP3   OH2 6290   5.920   6.485   1.757  0.1754 -0.4226  0.0829
 2116TIP3    H1 6291   5.863   6.551   1.717 -0.8257 -1.8679 -1.0353
 2116TIP3    H2 6292   5.882   6.470   1.844 -1.1770 -1.2917 -0.6076
 2117TIP3   OH2 6293   0.663   0.201   5.086 -0.5119  0.1978  0.4086
 2117TIP3    H1 6294   0.750   0.178   5.052 -1.7397 -3.0702 -0.9870
 2117TIP3    H2 6295   0.621   0.247   5.014 -0.1636  1.2589  0.8705
 2118TIP3   OH2 6296   3.908   2.365   1.025 -0.5427  0.8923  0.2938
 2118TIP3    H1 6297   3.857   2.429   1.075  0.8536  2.6609 -0.4375
 2118TIP3    H2 6298   3.863   2.282   1.039 -2.8275  2.1256  0.7597
 2119TIP3   OH2 6299   1.864   1.741   5.763  0.1785  0.0342 -0.1286
 2119TIP3    H1 6300   1.918   1.663   5.772  0.8563  0.7211  2.8913
 2119TIP3    H2 6301   1.926   1.813   5.752 -0.2336  0.4971  0.4722
 2120TIP3   OH2 6302   2.569   3.970   6.632 -0.2795  0.4482 -0.4707
 2120TIP3    H1 6303   2.573   4.062   6.608  0.9963  0.0759 -1.8356
 2120TIP3    H2 6304   2.476   3.947   6.623 -0.3411  1.1689 -1.8541
 2121TIP3   OH2 6305   8.143   6.668   4.461  0.4822  0.2261  0.0160
 2121TIP3    H1 6306   8.056   6.647   4.495  0.2107 -0.4231 -1.0354
 2121TIP3    H2 6307   8.143   6.763   4.452 -0.2220  0.2075 -0.2486
 2122TIP3   OH2 6308   1.664   7.081   3.020  0.2312  0.7114  0.0606
 2122TIP3    H1 6309   1.674   7.116   2.931 -1.2023 -1.7693 -1.2088
 2122TIP3    H2 6310   1.744   7.030   3.035  1.5813  3.0636  1.2520
 2123TIP3   OH2 6311   3.956   2.912   0.326  0.2821  0.6492  0.2341
 2123TIP3    H1 6312   3.915   2.831   0.358  1.1769 -0.0170 -0.2617
 2123TIP3    H2 6313   4.042   2.913   0.368  0.6452  0.8512 -0.5075
 2124TIP3   OH2 6314   6.051   5.182   4.797 -0.5125  0.2225  0.1690
 2124TIP3    H1 6315   6.084   5.111   4.852  0.5905  0.9718  0.4990
 2124TIP3    H2 6316   6.051   5.259   4.854  2.2202  1.3995 -1.2115
 2125TIP3   OH2 6317   5.134   3.245   2.125  0.2396 -0.0028 -0.0357
 2125TIP3    H1 6318   5.193   3.179   2.161 -0.8680  0.0797  2.0866
 2125TIP3    H2 6319   5.083   3.198   2.059  0.1752 -1.0305  0.7222
 2126TIP3   OH2 6320   7.367   2.196   4.665 -0.2767 -0.1747  0.4240
 2126TIP3    H1 6321   7.294   2.144   4.700  0.6163 -2.0865 -0.4158
 2126TIP3    H2 6322   7.334   2.229   4.581  0.2030 -2.0764 -0.5505
 2127TIP3   OH2 6323   6.374   5.270   0.880  0.2451 -0.1210  0.3258
 2127TIP3    H1 6324   6.301   5.279   0.942 -0.1561 -1.9385  0.1694
 2127TIP3    H2 6325   6.429   5.202   0.918  0.5249 -0.5541 -0.8161
 2128TIP3   OH2 6326   5.624   2.319   2.781 -0.5100  0.2237  0.1859
 2128TIP3    H1 6327   5.693   2.255   2.765  0.7487  1.3754  0.7229
 2128TIP3    H2 6328   5.593   2.344   2.694  0.6453  0.5892 -0.1353
 2129TIP3   OH2 6329   6.477   3.390   4.205 -0.3746 -0.2945 -0.0356
 2129TIP3    H1 6330   6.534   3.314   4.197  0.6450  0.5509 -1.2526
 2129TIP3    H2 6331   6.484   3.433   4.120 -0.4334  1.4909  0.8299
 2130TIP3   OH2 6332   5.351   1.921   2.659  0.4866 -0.4774 -0.2389
 2130TIP3    H1 6333   5.314   1.846   2.611 -0.4145  0.2053 -0.6525
 2130TIP3    H2 6334   5.304   1.997   2.623  2.2965  0.4430 -0.7616
 2131TIP3   OH2 6335   6.638   6.051   2.677 -0.0657 -0.3780 -0.2909
 2131TIP3    H1 6336   6.628   6.147   2.680 -0.0209 -0.2909 -2.0471
 2131TIP3    H2 6337   6.720   6.037   2.630  0.6688 -1.2929  1.2169
 2132TIP3   OH2 6338   0.597   7.818   0.456 -0.8180 -0.6073 -0.2111
 2132TIP3    H1 6339   0.578   7.883   0.389  1.0446 -0.0657 -0.2679
 2132TIP3    H2 6340   0.645   7.749   0.411  0.3298 -0.3049  0.4971
 2133TIP3   OH2 6341   7.423   0.917   6.291 -0.3161 -0.1480  0.4748
 2133TIP3    H1 6342   7.401   0.826   6.312 -2.8892  0.3470  0.3175
 2133TIP3    H2 6343   7.344   0.966   6.314  0.1770  1.7320 -1.5111
 2134TIP3   OH2 6344   4.399   5.137   1.154 -0.0504 -0.8675  0.1289
 2134TIP3    H1 6345   4.320   5.143   1.208  0.3365 -0.9734  0.7156
 2134TIP3    H2 6346   4.471   5.151   1.216  0.5996 -4.1884  0.3003
 2135TIP3   OH2 6347   2.439   2.345   5.837  0.1055  0.3350 -0.3801
 2135TIP3    H1 6348   2.412   2.435   5.819  0.1078  0.1985 -1.1306
 2135TIP3    H2 6349   2.358   2.298   5.855  0.2755  0.9450  2.3463
 2136TIP3   OH2 6350   3.145   5.010   3.015 -0.3555  0.5055 -0.6502
 2136TIP3    H1 6351   3.095   5.069   3.071 -0.0299 -0.1450  0.3407
 2136TIP3    H2 6352   3.126   5.041   2.926 -2.0227  0.6649 -0.2795
 2137TIP3   OH2 6353   6.597   2.355   0.056 -0.0739  0.1668 -0.3028
 2137TIP3    H1 6354   6.621   2.272   0.014  1.6490 -0.9545  2.6124
 2137TIP3    H2 6355   6.678   2.407   0.054 -0.5548  0.9266 -0.2058
 2138TIP3   OH2 6356   4.297   0.866   1.462  0.0703  0.4100 -0.0861
 2138TIP3    H1 6357   4.236   0.868   1.389 -0.5827  0.1923  0.4426
 2138TIP3    H2 6358   4.241   0.870   1.540  0.7328  0.2744  0.4060
 2139TIP3   OH2 6359   7.061   0.850   5.708  0.3598  0.3425  0.2427
 2139TIP3    H1 6360   7.082   0.936   5.671  1.5504  0.1904  0.5340
 2139TIP3    H2 6361   7.064   0.791   5.633  0.4998  0.3961  0.2064
 2140TIP3   OH2 6362   6.194   3.600   0.837  0.6026 -0.2408  0.3956
 2140TIP3    H1 6363   6.239   3.660   0.778  0.1335  1.0076  1.2562
 2140TIP3    H2 6364   6.131   3.655   0.884  0.2517 -1.3811  1.3219
 2141TIP3   OH2 6365   1.240   6.928   3.196  0.0976  0.0983 -0.1795
 2141TIP3    H1 6366   1.249   6.834   3.212 -1.6603 -0.6852 -3.0776
 2141TIP3    H2 6367   1.304   6.947   3.128 -0.1116  0.8213 -0.1824
 2142TIP3   OH2 6368   5.742   6.219   0.295 -0.0390  0.7214  0.4753
 2142TIP3    H1 6369   5.712   6.202   0.205  1.0855 -0.6684  0.3333
 2142TIP3    H2 6370   5.707   6.146   0.346  0.3069  0.8799  0.9433
 2143TIP3   OH2 6371   3.578   3.083   6.623  0.0009  0.0289 -0.1627
 2143TIP3    H1 6372   3.526   3.033   6.560 -0.1068  0.6897 -0.6044
 2143TIP3    H2 6373   3.556   3.044   6.708  1.3665 -1.9308 -0.6496
 2144TIP3   OH2 6374   4.786   0.173   1.562 -0.0114 -0.5215  0.1604
 2144TIP3    H1 6375   4.816   0.255   1.522 -0.9453  0.5846  1.5911
 2144TIP3    H2 6376   4.812   0.105   1.501  3.0127  0.5686  0.0589
 2145TIP3   OH2 6377   6.886   2.159   4.571  0.1621  0.1312  0.2040
 2145TIP3    H1 6378   6.922   2.120   4.651  0.7714 -1.2862 -0.7265
 2145TIP3    H2 6379   6.897   2.253   4.584  0.0044 -0.0493  1.8947
 2146TIP3   OH2 6380   2.722   6.919   1.742 -0.0615  0.1130  0.7765
 2146TIP3    H1 6381   2.753   6.886   1.657 -1.5242 -1.5868  0.8366
 2146TIP3    H2 6382   2.754   7.009   1.746  1.1582 -0.1851 -0.9939
 2147TIP3   OH2 6383   5.547   0.098   3.604 -0.0934  0.2477 -0.2306
 2147TIP3    H1 6384   5.503   0.175   3.640 -1.4065  1.2132 -3.5428
 2147TIP3    H2 6385   5.626   0.088   3.658 -0.4004  3.2661  0.9640
 2148TIP3   OH2 6386   2.813   6.103   6.150  0.0523 -0.3080 -0.1935
 2148TIP3    H1 6387   2.727   6.108   6.192  0.8135 -0.9428  1.5869
 2148TIP3    H2 6388   2.842   6.194   6.145 -1.2047  0.0338 -1.9708
 2149TIP3   OH2 6389   2.676   0.392   4.089  0.0403  0.7249 -0.3083
 2149TIP3    H1 6390   2.689   0.409   4.182  0.6543  0.2892 -0.3073
 2149TIP3    H2 6391   2.614   0.459   4.061 -1.0411  0.1571  0.6515
 2150TIP3   OH2 6392   3.872   1.783   5.855 -0.3103 -0.0675 -0.3014
 2150TIP3    H1 6393   3.943   1.721   5.840 -1.4254 -1.1194 -1.5116
 2150TIP3    H2 6394   3.891   1.823   5.940  0.6694 -1.7529  0.2970
 2151TIP3   OH2 6395   6.409   0.768   5.333 -0.2933  0.4078 -0.1381
 2151TIP3    H1 6396   6.419   0.828   5.259  0.4205  2.0485  1.2124
 2151TIP3    H2 6397   6.496   0.763   5.372 -0.8724  0.4874  1.2308
 2152TIP3   OH2 6398   8.188   6.633   1.371 -0.0633  0.0373  0.0106
 2152TIP3    H1 6399   8.231   6.699   1.425 -1.3092 -0.0254  1.1280
 2152TIP3    H2 6400   8.127   6.589   1.431 -0.9616 -0.5209 -1.2714
 2153TIP3   OH2 6401   4.578   3.677   2.563 -0.2500  0.1610 -0.1876
 2153TIP3    H1 6402   4.514   3.748   2.569  0.0279  0.3828  0.1873
 2153TIP3    H2 6403   4.530   3.598   2.590 -0.1991  0.4303  0.7123
 2154TIP3   OH2 6404   6.383   0.279   1.907  0.5032 -0.4374  0.5247
 2154TIP3    H1 6405   6.299   0.293   1.863  1.0661 -0.0428 -0.4548
 2154TIP3    H2 6406   6.417   0.198   1.870  0.4149 -0.7733  1.1619
 2155TIP3   OH2 6407   8.007   2.953   3.572 -0.5312 -0.0556  0.3480
 2155TIP3    H1 6408   7.936   2.952   3.508  0.1541  0.6953 -0.4278
 2155TIP3    H2 6409   8.065   3.023   3.543  0.1323 -0.1475  1.4182
 2156TIP3   OH2 6410   2.685   5.247   2.767 -0.1755  0.5403  0.4460
 2156TIP3    H1 6411   2.688   5.152   2.760  1.1598  0.2240  3.4547
 2156TIP3    H2 6412   2.725   5.279   2.687  2.8381 -1.6209  0.9225
 2157TIP3   OH2 6413   0.835   2.465   2.181 -0.2498 -0.0826  0.0079
 2157TIP3    H1 6414   0.808   2.556   2.197  1.1299  0.4014 -0.2625
 2157TIP3    H2 6415   0.755   2.414   2.193 -0.8825  1.0760  0.9799
 2158TIP3   OH2 6416   7.157   1.750   3.608  0.2675 -0.5900  0.3519
 2158TIP3    H1 6417   7.132   1.790   3.525  0.5496 -0.1215  0.4873
 2158TIP3    H2 6418   7.112   1.802   3.674  0.1353 -0.8917  0.4979
 2159TIP3   OH2 6419   5.662   5.750   0.274  0.0149  0.2202  0.5359
 2159TIP3    H1 6420   5.730   5.698   0.232  0.0601 -0.5635  1.5222
 2159TIP3    H2 6421   5.580   5.712   0.244  0.0474 -0.3904  1.2019
 2160TIP3   OH2 6422   4.300   2.712   4.300 -0.3075 -0.3831 -0.2188
 2160TIP3    H1 6423   4.327   2.712   4.208 -1.0836 -1.1315 -0.4578
 2160TIP3    H2 6424   4.297   2.805   4.324  0.1984 -0.1955 -0.8561
 2161TIP3   OH2 6425   5.363   5.796   5.807 -0.3207 -0.6461  0.3898
 2161TIP3    H1 6426   5.270   5.777   5.823 -0.7229  1.1844  0.4434
 2161TIP3    H2 6427   5.395   5.831   5.890 -1.1147  4.0877 -0.9973
 2162TIP3   OH2 6428   3.072   3.248   1.535 -0.2729  0.6700  0.0097
 2162TIP3    H1 6429   3.125   3.172   1.511 -1.7905  0.1791 -2.0800
 2162TIP3    H2 6430   3.135   3.312   1.568  0.9866 -1.7081  2.6410
 2163TIP3   OH2 6431   1.491   0.991   2.899 -0.2151 -0.4871 -0.0238
 2163TIP3    H1 6432   1.418   0.948   2.943  0.8064 -0.4222  1.8330
 2163TIP3    H2 6433   1.559   0.997   2.966  0.5990  1.6955 -0.9552
 2164TIP3   OH2 6434   8.169   1.621   4.809  0.8179 -0.1194 -0.1984
 2164TIP3    H1 6435   8.177   1.596   4.716  1.3949  0.2071 -0.2409
 2164TIP3    H2 6436   8.196   1.713   4.811 -0.6167  0.3215  0.0697
 2165TIP3   OH2 6437   3.463   2.146   5.223 -0.5181 -0.3859 -0.1674
 2165TIP3    H1 6438   3.400   2.152   5.152  0.2352  1.2150 -0.7349
 2165TIP3    H2 6439   3.442   2.219   5.281 -0.6396 -1.2194  0.8718
 2166TIP3   OH2 6440   5.286   5.509   2.510  0.5953 -0.1428  0.0117
 2166TIP3    H1 6441   5.304   5.426   2.553  2.1265 -0.0041 -0.3146
 2166TIP3    H2 6442   5.256   5.485   2.422 -0.9498 -0.3751  0.5689
 2167TIP3   OH2 6443   6.268   3.353   5.313 -0.6214  0.0255 -0.2224
 2167TIP3    H1 6444   6.315   3.342   5.396 -1.9573  0.1996  0.5834
 2167TIP3    H2 6445   6.309   3.290   5.253 -1.3587 -2.0461  1.3365
 2168TIP3   OH2 6446   4.792   0.665   4.848 -0.1842  0.1094  0.3735
 2168TIP3    H1 6447   4.837   0.749   4.857  1.3501 -0.7748  1.4091
 2168TIP3    H2 6448   4.845   0.604   4.899 -3.0623 -0.8578  2.4307
 2169TIP3   OH2 6449   0.398   6.699   3.294  0.5349  0.2628  0.2531
 2169TIP3    H1 6450   0.433   6.748   3.220 -0.5222  1.4173  0.4816
 2169TIP3    H2 6451   0.383   6.611   3.260  2.1833  0.1447 -0.2586
 2170TIP3   OH2 6452   7.013   0.923   3.435  0.1561  0.2277 -0.2509
 2170TIP3    H1 6453   6.950   0.901   3.504  0.8326 -0.1554  0.2606
 2170TIP3    H2 6454   7.011   1.018   3.430  0.0642  0.2587  0.2776
 2171TIP3   OH2 6455   5.595   1.011   1.909 -0.0966 -0.3584  0.0184
 2171TIP3    H1 6456   5.688   1.012   1.929  0.0677 -2.3784 -0.4966
 2171TIP3    H2 6457   5.590   1.020   1.814 -0.3352 -1.8470 -0.1226
 2172TIP3   OH2 6458   1.263   4.521   0.413  0.1150 -0.3963  0.1663
 2172TIP3    H1 6459   1.235   4.581   0.344  1.4929  0.8955  0.6752
 2172TIP3    H2 6460   1.267   4.575   0.492  0.8940 -1.2821  0.7557
 2173TIP3   OH2 6461   5.453   4.775   2.570 -0.0392  0.5358  0.2372
 2173TIP3    H1 6462   5.405   4.708   2.619 -1.3680  1.8290  0.7806
 2173TIP3    H2 6463   5.414   4.775   2.483 -0.4263  0.9774  0.4079
 2174TIP3   OH2 6464   2.524   0.661   2.921  0.1504  0.5003  0.0594
 2174TIP3    H1 6465   2.495   0.638   2.833  1.7939  1.4102 -0.7593
 2174TIP3    H2 6466   2.450   0.706   2.960 -0.1946  1.1450 -1.2947
 2175TIP3   OH2 6467   3.398   5.120   4.764  0.2075 -0.0878 -0.3943
 2175TIP3    H1 6468   3.460   5.133   4.835 -0.1544  0.2568 -0.1325
 2175TIP3    H2 6469   3.318   5.163   4.795  0.2675  0.7327 -1.3209
 2176TIP3   OH2 6470   6.232   1.245   0.532  0.0436  0.3655 -0.3668
 2176TIP3    H1 6471   6.155   1.265   0.479  1.5580  0.7707 -2.5310
 2176TIP3    H2 6472   6.235   1.149   0.535 -1.6639  0.2970  1.5749
 2177TIP3   OH2 6473   2.763   3.560   5.657 -1.1565  0.6936  0.1079
 2177TIP3    H1 6474   2.849   3.602   5.652 -1.3728  0.9988 -2.5436
 2177TIP3    H2 6475   2.780   3.467   5.651 -0.9286  0.5736  1.9535
 2178TIP3   OH2 6476   5.803   4.843   0.295  0.2679 -0.2003  0.4393
 2178TIP3    H1 6477   5.879   4.831   0.238  0.7269  0.5846  0.8764
 2178TIP3    H2 6478   5.740   4.779   0.263  1.5302 -1.7035  0.8042
 2179TIP3   OH2 6479   5.875   4.955   2.208  0.3126 -0.6459 -0.2747
 2179TIP3    H1 6480   5.949   4.970   2.149  0.7031 -2.6572 -0.3669
 2179TIP3    H2 6481   5.915   4.918   2.287 -0.5317 -1.1911 -0.0941
 2180TIP3   OH2 6482   1.028   7.107   6.094 -0.2580  0.3408  0.1356
 2180TIP3    H1 6483   1.115   7.104   6.135 -0.7528  0.7410  1.2513
 2180TIP3    H2 6484   0.975   7.047   6.146 -0.7324  0.3363 -0.3524
 2181TIP3   OH2 6485   4.610   0.149   3.898  0.1411  0.3136 -0.4387
 2181TIP3    H1 6486   4.522   0.185   3.901  0.6653  1.6027  2.1297
 2181TIP3    H2 6487   4.640   0.165   3.808 -1.2926  2.2258 -0.6146
 2182TIP3   OH2 6488   0.306   7.633   0.889 -0.3116 -0.8443  0.2945
 2182TIP3    H1 6489   0.339   7.654   0.802  1.2401 -0.9305  0.8293
 2182TIP3    H2 6490   0.320   7.714   0.940 -2.8914 -0.1625  0.0458
 2183TIP3   OH2 6491   3.260   4.898   1.833 -0.1556  0.0226  1.0725
 2183TIP3    H1 6492   3.196   4.888   1.904  0.6214  3.3694  2.4629
 2183TIP3    H2 6493   3.210   4.937   1.762 -0.1488  0.4461  1.2958
 2184TIP3   OH2 6494   1.684   3.222   5.085  0.1268  0.0142 -0.3039
 2184TIP3    H1 6495   1.658   3.130   5.085 -0.6164  0.1932  0.8653
 2184TIP3    H2 6496   1.774   3.222   5.117  0.6908 -0.4071 -1.8086
 2185TIP3   OH2 6497   1.399   5.475   5.161  0.2897  0.0664 -0.3882
 2185TIP3    H1 6498   1.326   5.489   5.221  0.4861 -0.1876 -0.0831
 2185TIP3    H2 6499   1.391   5.545   5.096  0.2670  0.5365  0.1177
 2186TIP3   OH2 6500   6.741   6.026   3.749 -0.1093  0.2887 -0.2140
 2186TIP3    H1 6501   6.701   5.944   3.722 -1.6025  0.2277  1.8912
 2186TIP3    H2 6502   6.715   6.089   3.682 -0.0944 -0.6572 -1.1317
 2187TIP3   OH2 6503   0.663   5.817   3.236  0.0297  0.0294 -0.4730
 2187TIP3    H1 6504   0.664   5.848   3.326  0.2426 -0.3488 -0.3437
 2187TIP3    H2 6505   0.754   5.796   3.217  0.0615  0.5739 -0.9410
 2188TIP3   OH2 6506   4.911   4.033   6.147 -0.7516  0.4780  0.3049
 2188TIP3    H1 6507   4.997   3.993   6.142  0.6210  3.2820 -1.4324
 2188TIP3    H2 6508   4.866   4.003   6.068 -1.0438 -0.2791  0.7525
 2189TIP3   OH2 6509   1.311   7.201   3.082  0.0654 -0.0440 -0.6041
 2189TIP3    H1 6510   1.249   7.262   3.121 -0.1064 -0.5325 -0.0978
 2189TIP3    H2 6511   1.257   7.135   3.040  0.2519  0.3338 -1.4582
 2190TIP3   OH2 6512   2.194   7.519   3.847  0.2525 -0.2469  0.0341
 2190TIP3    H1 6513   2.117   7.555   3.892  0.1869 -0.9998  0.5387
 2190TIP3    H2 6514   2.182   7.424   3.851  1.6518 -0.4063  0.8949
 2191TIP3   OH2 6515   8.007   0.125   0.567  0.9420  0.4701 -0.1267
 2191TIP3    H1 6516   8.040   0.178   0.494  0.1863  1.5309  0.2624
 2191TIP3    H2 6517   8.040   0.037   0.550  0.7113  0.6697 -1.8029
 2192TIP3   OH2 6518   0.627   0.013   4.817  0.3495 -0.2058  0.6096
 2192TIP3    H1 6519   0.601  -0.035   4.738 -1.8538 -0.5714  1.4861
 2192TIP3    H2 6520   0.602   0.104   4.799 -0.4732 -0.3502  1.0078
 2193TIP3   OH2 6521   0.704   0.958   1.395  0.4322  0.0247  0.4158
 2193TIP3    H1 6522   0.672   0.899   1.327  0.7332  0.6253 -0.2532
 2193TIP3    H2 6523   0.641   1.030   1.398  1.7929  1.3396 -1.0855
 2194TIP3   OH2 6524   3.387   6.563   4.663 -0.0165  0.3924 -0.7711
 2194TIP3    H1 6525   3.403   6.470   4.655 -2.7459 -0.2187 -0.3276
 2194TIP3    H2 6526   3.433   6.603   4.590  0.0523 -1.4832 -1.7891
 2195TIP3   OH2 6527   2.421   7.299   3.213 -0.7242 -0.2402  0.0358
 2195TIP3    H1 6528   2.455   7.220   3.170  0.9607 -0.2146  1.2176
 2195TIP3    H2 6529   2.362   7.266   3.281 -0.1698 -0.4931  0.4029
 2196TIP3   OH2 6530   7.556   6.778   0.421  0.1339  0.2638 -0.2188
 2196TIP3    H1 6531   7.517   6.766   0.508 -1.7027  0.8237 -0.9207
 2196TIP3    H2 6532   7.590   6.692   0.397 -0.5220 -0.2051  0.5101
 2197TIP3   OH2 6533   1.608   7.494   5.359 -0.2312 -0.1610 -0.5663
 2197TIP3    H1 6534   1.593   7.584   5.389 -0.8069 -0.6074  0.5264
 2197TIP3    H2 6535   1.534   7.444   5.393 -1.0058 -0.7119 -2.8449
 2198TIP3   OH2 6536   6.236   5.875   6.697  0.2673  0.0164  0.2881
 2198TIP3    H1 6537   6.303   5.807   6.688 -1.5591 -1.8775  0.2629
 2198TIP3    H2 6538   6.191   5.875   6.612 -1.3852 -0.6091  1.1210
 2199TIP3   OH2 6539   1.498   1.141   0.663 -0.2552  0.0008  0.3880
 2199TIP3    H1 6540   1.590   1.117   0.671 -0.1790  0.2330  0.1979
 2199TIP3    H2 6541   1.498   1.220   0.609 -0.4113  1.1022  1.9066
 2200TIP3   OH2 6542   4.880   2.240   3.416 -0.6076  0.1148 -0.2886
 2200TIP3    H1 6543   4.830   2.158   3.413  0.0056 -0.3352  1.0697
 2200TIP3    H2 6544   4.841   2.289   3.488  1.2248 -0.5051  1.1980
 2201TIP3   OH2 6545   6.503   6.153   2.419  0.0246 -0.3525 -0.0902
 2201TIP3    H1 6546   6.419   6.183   2.384  0.3667  1.7662  0.7408
 2201TIP3    H2 6547   6.556   6.232   2.426  1.6374 -1.4387  0.6531
 2202TIP3   OH2 6548   6.539   3.823   0.352  0.4610 -0.3284  0.2294
 2202TIP3    H1 6549   6.554   3.904   0.400 -0.2963 -0.0482  0.0143
 2202TIP3    H2 6550   6.450   3.797   0.377 -0.2706  0.2593 -1.6054
 2203TIP3   OH2 6551   4.463   3.069   4.954  0.6701 -0.2084  0.3157
 2203TIP3    H1 6552   4.487   3.036   4.867  1.5291  0.9647  0.0814
 2203TIP3    H2 6553   4.401   3.004   4.988  1.0942 -1.2095 -0.7550
 2204TIP3   OH2 6554   4.457   6.991   4.453 -0.1253  0.2219  0.2362
 2204TIP3    H1 6555   4.475   7.026   4.366  0.4792 -0.9645 -0.1368
 2204TIP3    H2 6556   4.541   6.993   4.498 -0.5184  1.2632  0.9886
 2205TIP3   OH2 6557   2.765   1.733   5.569  0.4058 -0.1499  0.0073
 2205TIP3    H1 6558   2.791   1.748   5.660  0.6421  0.2561 -0.1228
 2205TIP3    H2 6559   2.696   1.667   5.574  2.3875 -2.3009  0.2507
 2206TIP3   OH2 6560   5.557   3.357   2.528  0.1055  0.2539 -0.1490
 2206TIP3    H1 6561   5.585   3.286   2.586 -0.0371  0.1038 -0.2634
 2206TIP3    H2 6562   5.629   3.420   2.531  0.2189  0.1194 -0.0218
 2207TIP3   OH2 6563   5.058   6.646   6.244  0.1387 -0.7846 -0.4530
 2207TIP3    H1 6564   4.968   6.640   6.276  0.0271 -0.2937 -0.6697
 2207TIP3    H2 6565   5.099   6.713   6.299  0.0097 -0.0958 -1.1791
 2208TIP3   OH2 6566   0.272   4.486   2.019 -0.6995  0.3242  0.1850
 2208TIP3    H1 6567   0.269   4.423   2.091  0.3719  0.6773  0.5550
 2208TIP3    H2 6568   0.180   4.509   2.004 -0.9248  0.5615  1.7257
 2209TIP3   OH2 6569   3.461   5.822   4.047  0.0432 -0.0238  0.0346
 2209TIP3    H1 6570   3.541   5.775   4.023 -0.2649 -1.0468  0.9374
 2209TIP3    H2 6571   3.492   5.907   4.079  0.6501  0.1678 -1.0061
 2210TIP3   OH2 6572   1.067   6.261   1.446 -0.1275 -0.4387 -0.1499
 2210TIP3    H1 6573   0.973   6.253   1.461 -0.2878 -2.2614 -1.7540
 2210TIP3    H2 6574   1.100   6.171   1.448  1.8110  0.2200  1.4250
 2211TIP3   OH2 6575   3.941   3.641   4.345  0.1444 -0.5223 -0.2785
 2211TIP3    H1 6576   3.925   3.604   4.432  0.7348 -0.2646 -0.0559
 2211TIP3    H2 6577   3.920   3.570   4.285 -1.3885 -0.3451  0.0134
 2212TIP3   OH2 6578   5.512   1.741   6.423 -0.2134  0.0352 -0.0853
 2212TIP3    H1 6579   5.597   1.775   6.394 -0.4047  0.9802  0.4176
 2212TIP3    H2 6580   5.452   1.815   6.413 -0.6893 -0.2126  0.8278
 2213TIP3   OH2 6581   0.636   7.138   0.972 -0.3243 -0.5278  0.6298
 2213TIP3    H1 6582   0.658   7.044   0.970 -0.0737 -0.4754  0.8934
 2213TIP3    H2 6583   0.589   7.153   0.889 -0.1188 -0.8243  0.4569
 2214TIP3   OH2 6584   0.017   5.762   6.112 -0.1630  0.2127 -0.8153
 2214TIP3    H1 6585  -0.049   5.773   6.181 -0.7646 -0.7692 -1.2130
 2214TIP3    H2 6586   0.041   5.670   6.117  2.0989  0.8030  0.1127
 2215TIP3   OH2 6587   7.921   6.254   5.370  0.2567 -0.1280  0.2468
 2215TIP3    H1 6588   7.845   6.311   5.374 -0.8141 -1.2657 -1.8454
 2215TIP3    H2 6589   7.901   6.184   5.432  0.7924  0.8403  1.5516
 2216TIP3   OH2 6590   1.854   4.170   6.572  0.4191 -0.7676 -0.2379
 2216TIP3    H1 6591   1.943   4.138   6.556  0.2021 -1.2045 -0.5879
 2216TIP3    H2 6592   1.860   4.264   6.559  1.0518 -0.6584  0.7401
 2217TIP3   OH2 6593   7.248   6.337   1.630 -0.5674 -0.1386 -0.7287
 2217TIP3    H1 6594   7.161   6.343   1.590 -0.1026 -1.0288 -1.9381
 2217TIP3    H2 6595   7.262   6.244   1.644 -0.1194  0.0595  0.2058
 2218TIP3   OH2 6596   3.351   0.865   5.575  0.4707 -0.1551  0.2498
 2218TIP3    H1 6597   3.407   0.933   5.537 -0.0845  0.1118 -0.0991
 2218TIP3    H2 6598   3.338   0.803   5.503 -1.8462  1.1203 -0.5507
 2219TIP3   OH2 6599   0.745   4.948   5.144  0.2158  0.1580  0.5052
 2219TIP3    H1 6600   0.656   4.981   5.134  0.6159  1.1887  0.2517
 2219TIP3    H2 6601   0.772   4.924   5.056  0.5323  0.7776  0.4277
 2220TIP3   OH2 6602   5.571   2.182   0.103 -0.3157  0.7617 -0.3039
 2220TIP3    H1 6603   5.629   2.192   0.178 -0.4442 -1.5418  0.1683
 2220TIP3    H2 6604   5.483   2.178   0.140 -0.3715 -0.4962 -0.5295
 2221TIP3   OH2 6605   4.144   1.625   1.023 -0.2487 -0.2692 -0.2174
 2221TIP3    H1 6606   4.207   1.653   1.089  0.3012 -0.5136 -0.6256
 2221TIP3    H2 6607   4.077   1.693   1.023  0.0346  0.0173  0.1932
 2222TIP3   OH2 6608   7.046   0.090   6.646  0.6559 -0.2805  0.3518
 2222TIP3    H1 6609   7.103   0.073   6.572  1.3253 -1.3738  1.0905
 2222TIP3    H2 6610   6.975   0.145   6.610  0.9035 -0.8773 -1.0982
 2223TIP3   OH2 6611   3.740   5.867   2.348 -0.3393  0.0874  0.7568
 2223TIP3    H1 6612   3.721   5.949   2.393 -0.1961  0.3992  0.2621
 2223TIP3    H2 6613   3.661   5.814   2.359 -0.0957 -0.0644  1.8518
 2224TIP3   OH2 6614   4.576   3.966   6.052 -0.2226  0.0768  0.0424
 2224TIP3    H1 6615   4.490   4.007   6.043 -1.3218 -2.0807  0.2184
 2224TIP3    H2 6616   4.566   3.905   6.125  1.7785  0.4936  0.7330
 2225TIP3   OH2 6617   5.842   5.428   0.422  0.1090 -0.1711 -0.0035
 2225TIP3    H1 6618   5.859   5.357   0.360  1.8210 -0.0259  0.2343
 2225TIP3    H2 6619   5.755   5.461   0.398 -0.4576 -1.9301 -0.5047
 2226TIP3   OH2 6620   2.989   2.422   6.037 -0.0142  0.1511 -0.0043
 2226TIP3    H1 6621   2.927   2.475   5.988 -0.2861 -0.8271 -0.7412
 2226TIP3    H2 6622   3.074   2.441   5.996  0.1458  1.1844  0.7489
 2227TIP3   OH2 6623   5.922   2.125   4.920  0.2491  1.0112 -0.4793
 2227TIP3    H1 6624   6.012   2.095   4.931  0.2837  0.9818 -0.8474
 2227TIP3    H2 6625   5.873   2.078   4.989  0.5996  1.4318  0.0642
 2228TIP3   OH2 6626   5.775   3.357   2.959  1.0241  0.0645 -0.4382
 2228TIP3    H1 6627   5.699   3.343   2.902  0.0624  0.0498  0.7886
 2228TIP3    H2 6628   5.737   3.361   3.048  2.0358  3.5029 -0.0439
 2229TIP3   OH2 6629   8.048   2.243   1.277 -0.1774 -0.1170 -0.4121
 2229TIP3    H1 6630   8.005   2.328   1.268 -0.2972 -0.2209 -0.8174
 2229TIP3    H2 6631   8.054   2.209   1.188  0.1413 -0.4007 -0.2844
 2230TIP3   OH2 6632   4.935   1.082   2.305 -0.4331  0.1308 -0.3425
 2230TIP3    H1 6633   4.961   0.994   2.277  2.1021 -0.0299  2.0121
 2230TIP3    H2 6634   5.012   1.137   2.287 -1.3995  1.5166 -0.3611
 2231TIP3   OH2 6635   5.433   0.054   1.138 -0.6105  0.1433  0.6412
 2231TIP3    H1 6636   5.390   0.083   1.058 -1.6954  0.2537  1.2529
 2231TIP3    H2 6637   5.521   0.028   1.110 -1.0978 -0.1765 -0.6403
 2232TIP3   OH2 6638   4.107   1.328   3.943  0.1273  0.2615 -0.2725
 2232TIP3    H1 6639   4.050   1.356   4.015  0.0479  0.0558 -0.2549
 2232TIP3    H2 6640   4.188   1.300   3.986  0.2732  0.6286 -0.3035
 2233TIP3   OH2 6641   6.695   3.308   0.998  0.2329 -0.4581 -0.2849
 2233TIP3    H1 6642   6.769   3.313   0.937  0.4679 -1.0588 -0.0539
 2233TIP3    H2 6643   6.685   3.398   1.030 -0.9035  0.2385 -2.3674
 2234TIP3   OH2 6644   4.643   1.984   2.742  0.6576  0.4481 -0.1879
 2234TIP3    H1 6645   4.561   1.999   2.695  0.0284  0.5496  0.9184
 2234TIP3    H2 6646   4.709   2.027   2.689 -0.2359  1.7698 -0.2759
 2235TIP3   OH2 6647   6.779   0.379   1.451 -0.2746 -0.3642  0.5099
 2235TIP3    H1 6648   6.834   0.408   1.378 -0.0683  0.8467  1.1124
 2235TIP3    H2 6649   6.708   0.330   1.410 -0.4405  0.7140 -0.5446
 2236TIP3   OH2 6650   5.931   6.846   0.573  0.8191  0.8118 -0.1933
 2236TIP3    H1 6651   5.882   6.783   0.626  0.9486  0.5621 -0.3684
 2236TIP3    H2 6652   5.908   6.825   0.483  0.4289  1.3807 -0.2299
 2237TIP3   OH2 6653   6.476   5.495   1.478 -0.5485 -0.1602  0.0640
 2237TIP3    H1 6654   6.513   5.443   1.549 -1.2499  0.0006  0.5552
 2237TIP3    H2 6655   6.392   5.526   1.512 -0.0871  1.4163 -0.1678
 2238TIP3   OH2 6656   7.324   6.912   5.592  0.0336  0.7459 -0.1456
 2238TIP3    H1 6657   7.402   6.964   5.609 -0.1144  0.2795  2.3220
 2238TIP3    H2 6658   7.276   6.961   5.525  1.6283  1.8574 -0.5282
 2239TIP3   OH2 6659   2.372   6.571   3.925 -0.7014  0.3379  0.1104
 2239TIP3    H1 6660   2.361   6.541   4.016  1.2385  0.6452  0.4926
 2239TIP3    H2 6661   2.376   6.667   3.932 -2.8868  0.5343 -0.6231
 2240TIP3   OH2 6662   1.193   3.029   1.279 -0.7271  0.2600  0.4872
 2240TIP3    H1 6663   1.246   2.961   1.237  0.9633  0.8489  1.5273
 2240TIP3    H2 6664   1.239   3.111   1.258 -0.9054  0.7419  1.8796
 2241TIP3   OH2 6665   1.935   7.717   3.958  0.2135  0.1544  0.0797
 2241TIP3    H1 6666   1.875   7.669   3.902 -0.6602  1.3436 -0.0403
 2241TIP3    H2 6667   1.909   7.808   3.949  2.1129  0.7351 -0.0597
 2242TIP3   OH2 6668   2.471   6.006   3.627 -0.0119  0.1469  0.0202
 2242TIP3    H1 6669   2.556   6.003   3.583  0.7462 -1.0946  1.5088
 2242TIP3    H2 6670   2.491   5.994   3.719 -1.7182  1.0225  0.5473
 2243TIP3   OH2 6671   6.643   7.345   2.028  0.7337  0.0685  0.4648
 2243TIP3    H1 6672   6.708   7.276   2.031 -0.1401 -0.8586 -0.8504
 2243TIP3    H2 6673   6.632   7.365   1.935 -1.3262 -0.2916  0.5764
 2244TIP3   OH2 6674   4.859   7.238   6.004  0.5861  0.3889  0.0227
 2244TIP3    H1 6675   4.768   7.216   5.985  0.8453 -0.7981  0.0522
 2244TIP3    H2 6676   4.893   7.274   5.922 -0.1933  1.8773  0.3329
 2245TIP3   OH2 6677   1.779   5.913   4.310 -0.4044  0.7346 -0.2957
 2245TIP3    H1 6678   1.832   5.983   4.271 -0.2918  0.2867 -0.9527
 2245TIP3    H2 6679   1.771   5.847   4.241  0.7316 -0.5735  0.7594
 2246TIP3   OH2 6680   3.014   7.265   3.161  0.3483  0.2108  0.4580
 2246TIP3    H1 6681   3.043   7.215   3.237  1.7596  0.4663  0.1344
 2246TIP3    H2 6682   2.985   7.200   3.098  0.1733 -0.0665  0.8233
 2247TIP3   OH2 6683   3.591   1.768   4.760  0.1417  0.5338  1.3115
 2247TIP3    H1 6684   3.577   1.702   4.692 -1.4220  0.9666  1.1726
 2247TIP3    H2 6685   3.594   1.719   4.842  0.5249  0.1548  1.0722
 2248TIP3   OH2 6686   6.114   6.313   3.640  0.1128 -0.2075 -0.3165
 2248TIP3    H1 6687   6.163   6.377   3.692  0.4696 -0.1615 -0.7029
 2248TIP3    H2 6688   6.168   6.298   3.563 -0.2930 -0.4647 -0.5573
 2249TIP3   OH2 6689   5.605   0.439   6.328  0.1293 -0.5012 -0.0307
 2249TIP3    H1 6690   5.620   0.382   6.253  1.1582  0.6044 -0.6947
 2249TIP3    H2 6691   5.687   0.488   6.337 -0.7743  0.9697  0.4309
 2250TIP3   OH2 6692   8.078   3.301   4.128  0.2243  0.6902  0.1094
 2250TIP3    H1 6693   8.076   3.249   4.048 -0.5732  2.3552 -1.0059
 2250TIP3    H2 6694   8.030   3.247   4.192 -1.6157  0.5208 -1.3289
 2251TIP3   OH2 6695   0.433   6.534   1.799 -0.2556 -0.1244 -0.2724
 2251TIP3    H1 6696   0.354   6.483   1.778  0.4717 -1.0670 -0.8322
 2251TIP3    H2 6697   0.490   6.521   1.723  0.5043  0.4100  0.1986
 2252TIP3   OH2 6698   4.502   0.721   3.075 -0.2902  0.5272 -0.4873
 2252TIP3    H1 6699   4.575   0.720   3.013 -0.8667  1.1644 -1.1905
 2252TIP3    H2 6700   4.448   0.794   3.047 -2.4459 -1.3300 -1.4522
 2253TIP3   OH2 6701   7.281   4.320   2.002  0.2043 -0.2734 -0.0049
 2253TIP3    H1 6702   7.290   4.311   1.907 -0.8783  0.3699 -0.1832
 2253TIP3    H2 6703   7.189   4.300   2.019  0.5776 -1.2737  1.0358
 2254TIP3   OH2 6704   1.762   2.341   6.240  0.0128 -0.3079 -0.2080
 2254TIP3    H1 6705   1.695   2.281   6.209  0.2239 -1.5423  1.5345
 2254TIP3    H2 6706   1.783   2.309   6.328  1.4943  1.2098  0.0374
 2255TIP3   OH2 6707   0.249   5.382   0.704  0.2602  0.2089 -0.4054
 2255TIP3    H1 6708   0.290   5.464   0.731  0.0670  0.1495  0.0903
 2255TIP3    H2 6709   0.309   5.344   0.640  0.7035  0.3840 -0.0953
 2256TIP3   OH2 6710   0.329   5.109   4.896  0.2006 -0.0256 -0.2672
 2256TIP3    H1 6711   0.420   5.115   4.869  0.1324  0.6233 -0.3802
 2256TIP3    H2 6712   0.294   5.198   4.883 -0.2747 -0.1103  0.3700
 2257TIP3   OH2 6713   7.305   2.364   0.502  0.0634  0.0232 -0.1408
 2257TIP3    H1 6714   7.281   2.284   0.548  1.7542  0.7984  2.2563
 2257TIP3    H2 6715   7.364   2.410   0.561 -1.1372  3.2687 -1.2294
 2258TIP3   OH2 6716   6.128   2.383   1.430  0.1342  0.5998  0.1966
 2258TIP3    H1 6717   6.119   2.306   1.486  1.0701  0.8217  0.6608
 2258TIP3    H2 6718   6.152   2.348   1.344  2.7128  0.4409  0.9046
 2259TIP3   OH2 6719   1.363   1.414   4.329 -0.0325 -0.0816 -0.3119
 2259TIP3    H1 6720   1.419   1.342   4.357  0.5048  0.3799 -0.1876
 2259TIP3    H2 6721   1.423   1.485   4.308 -0.6043  0.9288  1.2660
 2260TIP3   OH2 6722   0.582   4.980   4.108  0.5016  0.2629 -0.2072
 2260TIP3    H1 6723   0.566   4.986   4.014  1.1997 -0.5394 -0.3832
 2260TIP3    H2 6724   0.654   5.042   4.124 -0.8060  1.7584  0.1189
 2261TIP3   OH2 6725   7.274   7.217   5.064 -0.2823 -0.0639  0.2906
 2261TIP3    H1 6726   7.334   7.253   4.999 -0.3009  0.7120  0.6875
 2261TIP3    H2 6727   7.224   7.293   5.095 -0.7706 -0.5404  0.6824
 2262TIP3   OH2 6728   3.038   3.549   3.959 -0.2462 -0.2673 -0.2565
 2262TIP3    H1 6729   2.976   3.481   3.931 -1.6789  1.1386 -0.6455
 2262TIP3    H2 6730   3.117   3.531   3.909 -0.7067 -1.4585 -0.5945
 2263TIP3   OH2 6731   6.301   0.701   4.978  0.5521 -0.1021  0.1889
 2263TIP3    H1 6732   6.216   0.667   4.950 -0.0693  0.0743  1.7347
 2263TIP3    H2 6733   6.280   0.769   5.042  1.8568  0.3236  0.2049
 2264TIP3   OH2 6734   0.535   6.972   1.439 -0.1825  0.7980 -0.3724
 2264TIP3    H1 6735   0.514   6.962   1.531  1.0546 -0.1294 -0.1561
 2264TIP3    H2 6736   0.451   6.983   1.396 -0.9310 -0.4824  0.6845
 2265TIP3   OH2 6737   1.743   3.721   3.449 -0.3542 -0.5132 -0.3561
 2265TIP3    H1 6738   1.792   3.664   3.508 -1.6036  0.1800  1.4389
 2265TIP3    H2 6739   1.698   3.782   3.506 -1.1850  0.5799 -2.0862
 2266TIP3   OH2 6740   8.147   7.162   5.526 -0.3938  0.1336 -0.5151
 2266TIP3    H1 6741   8.150   7.216   5.448  1.7381  0.8552 -0.0076
 2266TIP3    H2 6742   8.147   7.072   5.493 -0.2711  0.4283 -1.3357
 2267TIP3   OH2 6743   5.220   1.962   4.622 -0.1651 -0.0184  0.4548
 2267TIP3    H1 6744   5.276   1.895   4.661  0.5362  0.7449  0.7756
 2267TIP3    H2 6745   5.222   1.943   4.528  2.1950  1.1094  0.2079
 2268TIP3   OH2 6746   0.756   6.274   4.255 -0.0108 -0.1694 -0.3573
 2268TIP3    H1 6747   0.793   6.211   4.316 -1.1558 -3.1154 -2.4686
 2268TIP3    H2 6748   0.829   6.333   4.234  1.6541 -1.8697  0.3519
 2269TIP3   OH2 6749   5.361   1.859   5.725 -0.4592 -0.5023  0.0865
 2269TIP3    H1 6750   5.304   1.786   5.749  0.3293 -0.8821  0.8685
 2269TIP3    H2 6751   5.301   1.929   5.697 -1.2640 -1.1014  0.2891
 2270TIP3   OH2 6752   5.862   1.601   3.090  0.0041  0.7966  0.2249
 2270TIP3    H1 6753   5.805   1.671   3.059  1.9471  1.8430 -1.1858
 2270TIP3    H2 6754   5.921   1.645   3.153  1.2823  0.4939 -0.7234
 2271TIP3   OH2 6755   5.537   2.831   4.055  0.0194 -0.0564 -0.1609
 2271TIP3    H1 6756   5.559   2.797   3.969 -0.5421  0.3771 -0.4848
 2271TIP3    H2 6757   5.501   2.918   4.038 -0.1043  0.0309  0.5077
 2272TIP3   OH2 6758   0.234   3.579   0.503  0.7258 -0.3258 -0.6318
 2272TIP3    H1 6759   0.249   3.659   0.453  2.0743  2.5660  3.8337
 2272TIP3    H2 6760   0.292   3.514   0.464 -0.2386  0.7759 -4.2753
 2273TIP3   OH2 6761   2.243   1.157   6.618  0.5058  0.4397  0.2436
 2273TIP3    H1 6762   2.232   1.064   6.638  0.2783  0.2891 -0.5390
 2273TIP3    H2 6763   2.207   1.167   6.530 -1.9916  1.7896  1.3006
 2274TIP3   OH2 6764   0.739   7.537   5.659  0.1983  0.0288 -0.0926
 2274TIP3    H1 6765   0.658   7.544   5.711 -1.3497  1.0589 -2.4856
 2274TIP3    H2 6766   0.795   7.607   5.693 -1.1726  1.3242 -0.4231
 2275TIP3   OH2 6767   0.448   0.299   0.123 -0.1003 -0.6657 -0.1831
 2275TIP3    H1 6768   0.385   0.241   0.079  1.0911 -1.1493 -1.3250
 2275TIP3    H2 6769   0.439   0.277   0.216 -1.9183 -0.3846 -0.2381
 2276TIP3   OH2 6770   7.864   5.723   6.342 -0.4573 -0.5309 -0.2417
 2276TIP3    H1 6771   7.820   5.797   6.384  1.6268 -0.9754  3.0675
 2276TIP3    H2 6772   7.910   5.761   6.268 -1.4499  0.9911 -0.1246
 2277TIP3   OH2 6773   0.172   2.616   5.655  0.0780  0.2628 -0.1672
 2277TIP3    H1 6774   0.112   2.589   5.585 -0.5038  0.2888  0.3057
 2277TIP3    H2 6775   0.114   2.648   5.725  0.5786 -0.8486  0.7989
 2278TIP3   OH2 6776   4.527   7.699   1.921  0.4270  0.7206  0.0796
 2278TIP3    H1 6777   4.513   7.657   1.836  1.9585 -1.7768  0.9374
 2278TIP3    H2 6778   4.461   7.658   1.978  1.1060  0.4129  0.6542
 2279TIP3   OH2 6779   6.244   4.061   4.178  0.6003 -0.3251  0.0380
 2279TIP3    H1 6780   6.202   4.066   4.264  3.1366 -0.1444  1.3548
 2279TIP3    H2 6781   6.244   3.968   4.156  0.7466 -0.4748  0.6650
 2280TIP3   OH2 6782   0.553   1.650   1.961  0.3787 -0.0811 -0.5187
 2280TIP3    H1 6783   0.640   1.689   1.965 -0.9061  2.9716  1.4869
 2280TIP3    H2 6784   0.512   1.675   2.044 -2.5273 -1.0633 -1.5400
 2281TIP3   OH2 6785   1.663   5.234   0.570 -0.4854 -0.3320 -0.0598
 2281TIP3    H1 6786   1.712   5.259   0.491 -0.3893  0.4700  0.2402
 2281TIP3    H2 6787   1.588   5.186   0.538  0.2523 -1.1734 -0.5615
 2282TIP3   OH2 6788   6.989   4.426   1.996  0.2463  0.2344  0.6906
 2282TIP3    H1 6789   6.893   4.429   1.993  0.1747  0.0126  2.0765
 2282TIP3    H2 6790   7.013   4.506   2.044  0.7733  0.4246  0.1133
 2283TIP3   OH2 6791   0.069   2.092   4.202 -0.0123  0.3105  0.0705
 2283TIP3    H1 6792   0.052   2.050   4.118  1.5305  1.2598 -0.7674
 2283TIP3    H2 6793   0.041   2.183   4.189 -1.5036  0.0400  1.2151
 2284TIP3   OH2 6794   1.472   2.086   5.330  0.2341 -0.3913  0.0982
 2284TIP3    H1 6795   1.401   2.058   5.272  0.4972  0.5133 -0.6940
 2284TIP3    H2 6796   1.549   2.040   5.298  0.1936 -0.6339  0.3474
 2285TIP3   OH2 6797   2.091   1.004   5.003 -0.1894  0.3276 -0.1412
 2285TIP3    H1 6798   2.065   0.976   4.915 -0.7075 -0.4021  0.2332
 2285TIP3    H2 6799   2.085   1.100   5.001  0.7702  0.3840 -1.1956
 2286TIP3   OH2 6800   1.689   0.498   5.710  0.1670 -0.3530 -0.0955
 2286TIP3    H1 6801   1.599   0.482   5.682  0.8003  0.4533 -2.8853
 2286TIP3    H2 6802   1.685   0.581   5.758 -0.5471 -0.1760 -0.4503
 2287TIP3   OH2 6803   6.780   1.514   5.434  0.1900  0.5212  0.0047
 2287TIP3    H1 6804   6.826   1.566   5.500  0.7122 -1.5462  1.3582
 2287TIP3    H2 6805   6.689   1.512   5.464  0.5467 -0.9746  1.1276
 2288TIP3   OH2 6806   6.731   5.291   4.954 -0.1069  0.5957  0.0979
 2288TIP3    H1 6807   6.677   5.212   4.954  0.2209  0.3590 -1.1644
 2288TIP3    H2 6808   6.743   5.312   4.861  2.9730 -0.0342  0.2680
 2289TIP3   OH2 6809   3.162   1.091   5.509  0.2561  0.3878 -0.2936
 2289TIP3    H1 6810   3.198   1.018   5.559  1.0912  0.2036 -1.1333
 2289TIP3    H2 6811   3.222   1.102   5.436 -2.3126 -1.1625 -2.8795
 2290TIP3   OH2 6812   1.552   0.446   3.914  0.1242  0.1608  0.2669
 2290TIP3    H1 6813   1.582   0.438   4.004 -0.8069  1.2815  0.6978
 2290TIP3    H2 6814   1.589   0.529   3.883  0.4976 -0.2451 -0.4162
 2291TIP3   OH2 6815   4.693   2.426   2.732  0.4552 -0.1162  0.0514
 2291TIP3    H1 6816   4.653   2.495   2.678 -0.3968 -0.6720 -0.0490
 2291TIP3    H2 6817   4.783   2.455   2.745  0.1961  0.8586 -0.2566
 2292TIP3   OH2 6818   5.010   4.133   0.755 -0.2542  0.0862 -0.2214
 2292TIP3    H1 6819   4.989   4.184   0.833 -2.2250 -0.7552 -0.1314
 2292TIP3    H2 6820   4.937   4.071   0.747 -0.6836  0.8372 -3.2977
 2293TIP3   OH2 6821   7.528   2.498   2.351  0.0559 -0.3371 -0.3764
 2293TIP3    H1 6822   7.562   2.435   2.415  1.4890  0.0516 -0.7062
 2293TIP3    H2 6823   7.487   2.566   2.404 -1.0134 -1.2464  0.0042
 2294TIP3   OH2 6824   8.162   0.969   2.432 -0.1005 -0.1412  0.1724
 2294TIP3    H1 6825   8.224   0.929   2.493 -0.2195 -0.6621 -0.0437
 2294TIP3    H2 6826   8.096   1.009   2.489  0.1231 -0.0866  0.3955
 2295TIP3   OH2 6827   2.941   3.091   0.229 -0.2467 -0.1493 -0.6147
 2295TIP3    H1 6828   2.921   3.128   0.315  1.9952  1.5978 -0.7574
 2295TIP3    H2 6829   2.885   3.138   0.168  0.6319  1.1662 -0.4603
 2296TIP3   OH2 6830   0.823   4.838   0.593 -1.0153  0.3510 -0.1415
 2296TIP3    H1 6831   0.814   4.752   0.552 -2.5229  0.7697 -0.7512
 2296TIP3    H2 6832   0.733   4.864   0.614 -0.4599  1.1021  1.4764
 2297TIP3   OH2 6833   4.098   4.638   1.412 -0.2510  0.4314  0.5058
 2297TIP3    H1 6834   4.104   4.728   1.382  2.0482  0.1189 -0.1836
 2297TIP3    H2 6835   4.066   4.589   1.336 -0.5236  0.5294  0.5583
 2298TIP3   OH2 6836   2.573   2.313   2.357  0.2576  0.0962  0.2737
 2298TIP3    H1 6837   2.531   2.334   2.440  3.3496 -1.5373  2.4542
 2298TIP3    H2 6838   2.648   2.373   2.352  0.2716 -0.0099 -1.2317
 2299TIP3   OH2 6839   6.589   7.058   2.922 -0.1747  0.8390  0.2776
 2299TIP3    H1 6840   6.560   7.042   3.012 -1.0173  1.1282  0.0664
 2299TIP3    H2 6841   6.509   7.082   2.875 -0.3088 -2.3086 -1.3014
 2300TIP3   OH2 6842   2.358   7.213   3.551  0.2493  0.1465 -0.1091
 2300TIP3    H1 6843   2.316   7.296   3.573  0.6293  0.5322 -0.8030
 2300TIP3    H2 6844   2.301   7.173   3.486 -0.0086 -0.2093  0.3310
 2301TIP3   OH2 6845   4.620   0.208   4.630  0.2556 -0.1005 -0.1952
 2301TIP3    H1 6846   4.628   0.134   4.570  1.0782  0.0078 -0.2366
 2301TIP3    H2 6847   4.582   0.171   4.710 -0.2965 -0.3586 -0.5708
 2302TIP3   OH2 6848   7.118   6.492   1.804  0.5193 -0.3827  0.5392
 2302TIP3    H1 6849   7.035   6.446   1.797  0.0765  0.2931  1.2626
 2302TIP3    H2 6850   7.181   6.435   1.759 -0.1143 -1.4170  0.9447
 2303TIP3   OH2 6851   3.386   6.282   5.467 -0.7848 -0.4219  0.3069
 2303TIP3    H1 6852   3.361   6.356   5.521 -1.3747 -1.5495  1.6335
 2303TIP3    H2 6853   3.433   6.321   5.393 -0.2565  1.1974  1.4371
 2304TIP3   OH2 6854   5.291   1.753   2.294 -0.5302  0.1089  0.7681
 2304TIP3    H1 6855   5.248   1.812   2.231 -0.1948 -1.1354 -0.6731
 2304TIP3    H2 6856   5.231   1.751   2.369 -1.1154  1.3589  0.3652
 2305TIP3   OH2 6857   4.441   3.333   3.821  0.2822 -0.3912  0.0457
 2305TIP3    H1 6858   4.363   3.277   3.820  0.0219 -0.0208 -0.4707
 2305TIP3    H2 6859   4.409   3.419   3.796  0.5834  0.1279  1.3305
 2306TIP3   OH2 6860   7.216   5.574   5.158  0.3590  0.4533 -0.1577
 2306TIP3    H1 6861   7.206   5.577   5.063 -0.0889  1.5276 -0.0848
 2306TIP3    H2 6862   7.179   5.657   5.189  1.0933  0.4047  0.8962
 2307TIP3   OH2 6863   1.361   1.147   3.528 -0.1995 -0.2157  0.1947
 2307TIP3    H1 6864   1.443   1.196   3.521  0.5258 -1.3745  0.3148
 2307TIP3    H2 6865   1.331   1.138   3.438 -1.6190  2.4771  0.3110
 2308TIP3   OH2 6866   0.230   3.729   5.913  1.1008  0.4500  0.0782
 2308TIP3    H1 6867   0.177   3.686   5.979 -0.2450 -0.6601 -1.6468
 2308TIP3    H2 6868   0.294   3.781   5.963 -0.4809  0.4523  2.2095
 2309TIP3   OH2 6869   2.890   5.081   5.321  0.0106  0.1627  0.2421
 2309TIP3    H1 6870   2.862   5.170   5.345 -0.5386  0.2307 -0.6217
 2309TIP3    H2 6871   2.829   5.054   5.252 -0.4877 -1.2919  1.2058
 2310TIP3   OH2 6872   2.322   0.442   4.473  0.3134 -0.1986  0.1527
 2310TIP3    H1 6873   2.237   0.478   4.499 -0.3727 -2.0266  0.5610
 2310TIP3    H2 6874   2.364   0.418   4.556  0.7178 -0.4148 -0.1106
 2311TIP3   OH2 6875   7.977   5.630   5.003  0.8246 -0.1926  0.2838
 2311TIP3    H1 6876   8.014   5.546   4.975  0.8563 -0.3311  0.7371
 2311TIP3    H2 6877   8.023   5.650   5.085 -1.2652 -1.2070  1.8059
 2312TIP3   OH2 6878   5.465   4.936   0.842 -0.1037 -0.0072 -0.2096
 2312TIP3    H1 6879   5.519   5.009   0.870 -1.3271  1.1624 -0.8032
 2312TIP3    H2 6880   5.525   4.882   0.789  0.1089  2.2452 -2.4759
 2313TIP3   OH2 6881   2.609   6.528   0.408 -0.1988  1.1150 -0.1336
 2313TIP3    H1 6882   2.664   6.454   0.434 -1.0482  0.4573 -0.1262
 2313TIP3    H2 6883   2.653   6.605   0.443  1.9741  0.9082 -2.1417
 2314TIP3   OH2 6884   0.041   2.116   0.281  0.4717  0.6272 -0.0008
 2314TIP3    H1 6885  -0.005   2.033   0.292  0.6959  0.5624  0.4409
 2314TIP3    H2 6886  -0.021   2.182   0.312  0.8010  0.5105  0.9463
 2315TIP3   OH2 6887   3.256   6.690   2.691 -0.5029  0.1461  0.3563
 2315TIP3    H1 6888   3.220   6.602   2.676  0.1551  0.1087 -1.2885
 2315TIP3    H2 6889   3.256   6.700   2.786 -0.6436 -1.6239  0.5877
 2316TIP3   OH2 6890   0.930   0.139   4.573  0.2739  0.2146  0.1740
 2316TIP3    H1 6891   1.017   0.134   4.535  0.1321  1.3317 -0.3309
 2316TIP3    H2 6892   0.944   0.138   4.668  0.9593  2.0742  0.1105
 2317TIP3   OH2 6893   4.831   6.144   5.472 -0.1683  0.1899  0.1002
 2317TIP3    H1 6894   4.782   6.084   5.529 -1.9303  1.5790  0.1314
 2317TIP3    H2 6895   4.922   6.133   5.500 -0.9535  0.8907  3.3409
 2318TIP3   OH2 6896   0.431   4.013   1.527  0.4987  0.1367 -0.4651
 2318TIP3    H1 6897   0.449   4.072   1.454 -1.5867  0.6646 -0.6284
 2318TIP3    H2 6898   0.516   3.997   1.567  1.4133  1.4748 -1.7692
 2319TIP3   OH2 6899   2.452   2.470   4.736  0.0417  0.1212  0.0777
 2319TIP3    H1 6900   2.523   2.525   4.768 -0.0548  0.4314 -0.2400
 2319TIP3    H2 6901   2.386   2.474   4.804  0.3048 -0.1198  0.3476
 2320TIP3   OH2 6902   3.188   2.811   6.717  0.2310  0.3808  0.4602
 2320TIP3    H1 6903   3.128   2.863   6.663  0.7102  1.1478  0.6373
 2320TIP3    H2 6904   3.166   2.835   6.807 -2.5395 -3.0550  0.8574
 2321TIP3   OH2 6905   1.183   0.409   0.617 -0.5239  0.2177 -0.1022
 2321TIP3    H1 6906   1.166   0.412   0.523  0.2374 -0.9145 -0.3027
 2321TIP3    H2 6907   1.109   0.454   0.657 -1.2627  0.0109 -1.2048
 2322TIP3   OH2 6908   0.685   7.356   4.691  0.0482  0.4904 -0.1680
 2322TIP3    H1 6909   0.689   7.428   4.627 -2.2106  0.8589  0.0004
 2322TIP3    H2 6910   0.666   7.279   4.639  2.3596 -0.0364 -0.3343
 2323TIP3   OH2 6911   3.921   0.694   4.882  0.5110 -0.1255 -0.0202
 2323TIP3    H1 6912   3.987   0.677   4.949  2.2862 -1.1824 -1.9251
 2323TIP3    H2 6913   3.970   0.728   4.808 -1.2282 -0.0500 -1.1964
 2324TIP3   OH2 6914   5.038   7.117   5.304 -0.1011  0.1327  0.0942
 2324TIP3    H1 6915   5.065   7.087   5.217 -0.5168  1.0322 -0.3651
 2324TIP3    H2 6916   5.115   7.162   5.339 -0.0554  0.1199  0.0118
 2325TIP3   OH2 6917   1.429   1.785   5.410 -0.0008 -0.2022  0.3127
 2325TIP3    H1 6918   1.486   1.842   5.462  1.3472 -0.1200 -1.1946
 2325TIP3    H2 6919   1.467   1.697   5.420  1.6223  0.1212 -2.1836
 2326TIP3   OH2 6920   0.854   0.782   4.460  0.8583  0.1404  0.3838
 2326TIP3    H1 6921   0.842   0.709   4.520  0.5836 -0.0811  0.0610
 2326TIP3    H2 6922   0.793   0.849   4.491 -0.9915 -0.8240 -0.9918
 2327TIP3   OH2 6923   0.594   6.243   5.896 -0.4787  0.5682 -0.3506
 2327TIP3    H1 6924   0.565   6.209   5.981  0.5783 -1.3021 -0.6839
 2327TIP3    H2 6925   0.641   6.170   5.856  1.4337  2.2685 -1.3888
 2328TIP3   OH2 6926   1.541   5.281   5.290  0.2289 -0.0667 -0.0877
 2328TIP3    H1 6927   1.472   5.325   5.240  0.0148 -2.0520 -1.6927
 2328TIP3    H2 6928   1.530   5.313   5.379 -1.2738  1.4152 -0.7445
 2329TIP3   OH2 6929   3.326   3.722   5.164 -0.3009 -0.4137  0.4871
 2329TIP3    H1 6930   3.351   3.689   5.250  0.4560  3.1692  1.8248
 2329TIP3    H2 6931   3.401   3.776   5.137 -1.0949 -0.3732 -1.8285
 2330TIP3   OH2 6932   7.815   6.627   0.603  0.6262  0.0646  0.4390
 2330TIP3    H1 6933   7.839   6.661   0.516  0.4927 -1.9029 -0.4073
 2330TIP3    H2 6934   7.813   6.532   0.592 -0.1938 -0.1859  2.4120
 2331TIP3   OH2 6935   7.320   6.705   3.738 -0.3644 -0.0860 -0.3819
 2331TIP3    H1 6936   7.397   6.743   3.696  0.3323 -1.5429 -0.4648
 2331TIP3    H2 6937   7.282   6.778   3.788 -0.8454  1.5579 -2.9272
 2332TIP3   OH2 6938   1.687   5.098   5.124  0.4396  0.1639 -0.0126
 2332TIP3    H1 6939   1.734   5.146   5.055  1.8180  1.4029  1.6830
 2332TIP3    H2 6940   1.641   5.166   5.173  0.7002 -0.4737  1.1568
 2333TIP3   OH2 6941   4.810   3.106   2.353  0.2572  0.2995  0.8176
 2333TIP3    H1 6942   4.890   3.159   2.357  2.2868 -2.3821 -0.7321
 2333TIP3    H2 6943   4.772   3.126   2.267  1.4390 -1.1613 -0.0970
 2334TIP3   OH2 6944   7.396   2.576   3.188  0.2666 -0.0933 -0.9621
 2334TIP3    H1 6945   7.457   2.509   3.156  0.8160  0.5055 -1.2023
 2334TIP3    H2 6946   7.371   2.546   3.275 -0.8106 -1.4709 -1.7122
 2335TIP3   OH2 6947   2.338   6.934   2.855  0.2109 -0.6568 -0.1859
 2335TIP3    H1 6948   2.405   6.980   2.905 -0.5264 -0.4595  0.6423
 2335TIP3    H2 6949   2.387   6.886   2.788  0.9555  1.7535 -1.4684
 2336TIP3   OH2 6950   5.525   0.095   6.615  0.1681 -0.0647  0.6200
 2336TIP3    H1 6951   5.598   0.126   6.562 -0.1594 -1.2408 -0.5826
 2336TIP3    H2 6952   5.561   0.023   6.667  0.6084  1.3985  2.4262
 2337TIP3   OH2 6953   6.255   5.733   5.578  0.5514 -0.4644  0.3562
 2337TIP3    H1 6954   6.300   5.665   5.628 -0.3130 -0.0494  1.7659
 2337TIP3    H2 6955   6.307   5.812   5.592 -0.0766 -0.1874  1.2371
 2338TIP3   OH2 6956   1.359   5.493   1.510 -0.4009 -0.3436 -0.2352
 2338TIP3    H1 6957   1.406   5.572   1.538 -0.1743 -0.6271  0.2001
 2338TIP3    H2 6958   1.341   5.508   1.417  0.8071 -0.3414 -0.4971
 2339TIP3   OH2 6959   6.166   4.576   2.907 -0.4297 -0.8974 -0.5402
 2339TIP3    H1 6960   6.162   4.671   2.923  2.1433 -0.9548  0.9099
 2339TIP3    H2 6961   6.101   4.539   2.966  1.1458 -0.2359  1.7315
 2340TIP3   OH2 6962   7.972   4.256   3.488 -0.2285 -0.4813  0.2353
 2340TIP3    H1 6963   8.016   4.217   3.563  2.9284 -0.1949 -1.2850
 2340TIP3    H2 6964   7.908   4.191   3.461 -0.7947 -0.9723  2.5590
 2341TIP3   OH2 6965   3.875   1.059   5.461 -0.5250  0.3348 -0.5545
 2341TIP3    H1 6966   3.941   1.120   5.493 -2.0246  1.4257  0.6207
 2341TIP3    H2 6967   3.849   1.095   5.376 -2.0180  1.9369  0.5048
 2342TIP3   OH2 6968   0.354   3.382   3.164  0.0393  0.2597 -0.5131
 2342TIP3    H1 6969   0.329   3.353   3.076 -1.2395 -0.6079  0.1094
 2342TIP3    H2 6970   0.296   3.333   3.223  2.1704 -0.6782  0.9362
 2343TIP3   OH2 6971   1.727   3.349   3.798  0.5083 -0.4219  0.2794
 2343TIP3    H1 6972   1.733   3.328   3.891  0.5898 -2.3217 -0.1141
 2343TIP3    H2 6973   1.635   3.370   3.783  0.9225  2.5553  1.2448
 2344TIP3   OH2 6974   6.381   3.561   1.756  0.1792  0.1416 -0.2608
 2344TIP3    H1 6975   6.462   3.610   1.742 -1.2224  2.4052 -0.9181
 2344TIP3    H2 6976   6.399   3.507   1.834  2.2138  0.7218 -0.2664
 2345TIP3   OH2 6977   8.151   5.494   2.410  0.0396  0.1889 -0.8860
 2345TIP3    H1 6978   8.175   5.544   2.488 -1.3697 -1.1947  0.4999
 2345TIP3    H2 6979   8.093   5.552   2.361  0.6218  0.9188 -0.7380
 2346TIP3   OH2 6980   8.099   2.537   4.148 -0.7856  0.3757  0.1036
 2346TIP3    H1 6981   8.167   2.572   4.090 -1.5542  0.0235 -1.0529
 2346TIP3    H2 6982   8.018   2.573   4.114 -1.2016  0.7610  1.4495
 2347TIP3   OH2 6983   2.199   5.058   1.107  0.3516  0.3870  0.4390
 2347TIP3    H1 6984   2.139   5.124   1.140  0.2306 -0.2653  1.5546
 2347TIP3    H2 6985   2.163   4.974   1.137  1.1399 -0.1062  0.0607
 2348TIP3   OH2 6986   7.239   3.218   5.515  0.4212 -0.5462 -0.3918
 2348TIP3    H1 6987   7.264   3.129   5.539 -0.7903 -0.3629  1.7634
 2348TIP3    H2 6988   7.245   3.219   5.419  1.9164 -2.4621 -0.3928
 2349TIP3   OH2 6989   2.089   3.230   6.517 -1.0493  0.5422 -0.4132
 2349TIP3    H1 6990   2.079   3.187   6.602 -1.7178  0.3118 -0.6066
 2349TIP3    H2 6991   2.069   3.322   6.533 -0.4847  0.6290 -0.1810
 2350TIP3   OH2 6992   0.731   4.153   0.622 -0.0407 -0.0838 -0.7013
 2350TIP3    H1 6993   0.641   4.136   0.652 -0.8127  1.2700 -2.1119
 2350TIP3    H2 6994   0.743   4.247   0.636  0.4326  0.1261 -2.3127
 2351TIP3   OH2 6995   1.672   1.935   1.180 -0.3341 -0.3472  0.6312
 2351TIP3    H1 6996   1.654   1.886   1.100  0.3044  1.3772 -0.6259
 2351TIP3    H2 6997   1.601   1.910   1.239 -1.0311 -1.4032 -0.5958
 2352TIP3   OH2 6998   2.578   4.485   2.490  0.0818 -0.3961  0.0563
 2352TIP3    H1 6999   2.578   4.420   2.560  0.5247  0.3882  0.8062
 2352TIP3    H2 7000   2.494   4.531   2.500 -0.2427 -0.8641 -0.4893
 2353TIP3   OH2 7001   7.304   1.042   3.048 -0.3204 -0.2148 -0.1868
 2353TIP3    H1 7002   7.325   1.101   3.121  0.1848  1.2857 -1.5091
 2353TIP3    H2 7003   7.326   0.955   3.082  0.8297  0.5439  1.1305
 2354TIP3   OH2 7004   2.071   5.857   4.159 -0.3870 -0.6687 -0.0016
 2354TIP3    H1 7005   2.158   5.883   4.129 -1.1686  0.5064 -1.3853
 2354TIP3    H2 7006   2.014   5.931   4.136 -1.6785 -1.2022  1.3025
 2355TIP3   OH2 7007   4.467   0.171   3.615  0.0692 -0.1872 -0.2215
 2355TIP3    H1 7008   4.499   0.258   3.641  1.4768 -0.3937 -1.1581
 2355TIP3    H2 7009   4.377   0.187   3.584  0.3129  0.9490 -0.3979
 2356TIP3   OH2 7010   5.112   2.755   0.382 -0.0138  0.8242  0.2879
 2356TIP3    H1 7011   5.185   2.723   0.328 -0.2989 -0.0693  0.4181
 2356TIP3    H2 7012   5.042   2.771   0.319 -1.0201 -2.1381  0.5524
 2357TIP3   OH2 7013   2.366   3.155   6.721 -0.2179  0.1449  0.4342
 2357TIP3    H1 7014   2.312   3.224   6.759  0.9145  1.2338  0.1554
 2357TIP3    H2 7015   2.441   3.202   6.684  0.0680 -1.1484 -0.6901
 2358TIP3   OH2 7016   0.617   2.574   5.101  0.3236  0.1325 -0.0520
 2358TIP3    H1 7017   0.561   2.535   5.034  0.0503  2.5008 -1.3020
 2358TIP3    H2 7018   0.556   2.606   5.168  0.3303  0.7215 -0.3210
 2359TIP3   OH2 7019   7.662   3.492   2.759 -0.0569  0.4562  1.0055
 2359TIP3    H1 7020   7.620   3.415   2.719  0.9294  0.4557 -0.0764
 2359TIP3    H2 7021   7.593   3.531   2.813 -1.1127 -0.2026  0.1906
 2360TIP3   OH2 7022   0.730   1.217   0.222 -0.3280 -0.6125 -0.5617
 2360TIP3    H1 7023   0.774   1.144   0.266 -0.4021 -1.3840 -1.7091
 2360TIP3    H2 7024   0.762   1.295   0.266  3.2213 -1.0146 -2.1538
 2361TIP3   OH2 7025   1.524   6.701   1.014  0.3644  0.1408 -0.1953
 2361TIP3    H1 7026   1.488   6.620   0.979 -1.6573  0.4047  1.1330
 2361TIP3    H2 7027   1.507   6.766   0.946  2.0036 -0.4998 -1.2684
 2362TIP3   OH2 7028   7.025   4.838   5.292 -0.2400  0.5937  0.0092
 2362TIP3    H1 7029   7.084   4.775   5.251  1.3494  0.4497  2.3101
 2362TIP3    H2 7030   6.946   4.788   5.313 -0.2440  0.1822 -0.9435
 2363TIP3   OH2 7031   3.696   4.922   3.435 -0.1920 -0.1950  0.0257
 2363TIP3    H1 7032   3.734   5.005   3.464 -0.8449  0.4587 -0.9165
 2363TIP3    H2 7033   3.768   4.879   3.388 -0.0147  0.1065  0.0126
 2364TIP3   OH2 7034   7.136   5.348   4.213  0.1386 -0.1148 -0.4359
 2364TIP3    H1 7035   7.132   5.398   4.131 -0.0535 -1.9273 -1.6025
 2364TIP3    H2 7036   7.046   5.318   4.226  0.1253  0.3524  0.5807
 2365TIP3   OH2 7037   3.969   4.780   2.554 -0.0709  0.2039 -0.0956
 2365TIP3    H1 7038   3.875   4.767   2.571  0.2516  0.0615  1.8133
 2365TIP3    H2 7039   4.011   4.763   2.638  1.6238  0.9024 -0.7561
 2366TIP3   OH2 7040   1.200   2.074   0.091  0.1806  0.2837 -0.2384
 2366TIP3    H1 7041   1.284   2.103   0.054 -0.4495  1.4407 -0.8181
 2366TIP3    H2 7042   1.201   2.106   0.181  1.0249 -1.1205  0.2850
 2367TIP3   OH2 7043   5.376   7.505   4.886 -0.4455 -0.1170 -0.8118
 2367TIP3    H1 7044   5.345   7.563   4.816 -0.7721  0.6621 -0.0389
 2367TIP3    H2 7045   5.413   7.429   4.840 -0.1631  0.6263 -1.8406
 2368TIP3   OH2 7046   7.176   1.373   1.304 -0.2277 -0.5373 -0.9163
 2368TIP3    H1 7047   7.168   1.416   1.389 -0.2354  1.5827 -1.9256
 2368TIP3    H2 7048   7.186   1.280   1.325  0.1253 -0.0390  1.3967
 2369TIP3   OH2 7049   4.413   3.684   3.243 -0.5085  0.4689 -0.0366
 2369TIP3    H1 7050   4.427   3.598   3.203 -0.3232  0.4655  0.0359
 2369TIP3    H2 7051   4.425   3.669   3.336  0.1500  0.7020 -0.0809
 2370TIP3   OH2 7052   7.095   4.752   3.313  0.0284 -0.2051 -0.1165
 2370TIP3    H1 7053   7.170   4.792   3.270  0.5324 -0.8481  0.1386
 2370TIP3    H2 7054   7.019   4.798   3.278  0.5901  1.0740  0.2893
 2371TIP3   OH2 7055   3.187   5.540   6.658  0.5327 -0.6797 -0.2819
 2371TIP3    H1 7056   3.234   5.517   6.738  0.9436  1.3296  0.0867
 2371TIP3    H2 7057   3.108   5.583   6.688  0.6027 -0.0692 -0.9529
 2372TIP3   OH2 7058   7.221   0.804   5.296  0.5634  0.0490  0.3464
 2372TIP3    H1 7059   7.244   0.790   5.388 -0.6825  0.8305  0.8034
 2372TIP3    H2 7060   7.240   0.897   5.281  0.6166 -0.0408 -0.1359
 2373TIP3   OH2 7061   5.284   1.956   2.077 -0.1670 -0.5323  0.2886
 2373TIP3    H1 7062   5.265   1.868   2.045 -0.6087 -1.8761  3.8245
 2373TIP3    H2 7063   5.374   1.973   2.050  0.4663 -2.7550  0.8424
 2374TIP3   OH2 7064   8.162   0.471   5.277  0.1599  0.2946  0.4389
 2374TIP3    H1 7065   8.108   0.516   5.213  0.8458 -0.7252 -0.9095
 2374TIP3    H2 7066   8.103   0.450   5.349 -1.1004 -0.2244 -0.7039
 2375TIP3   OH2 7067   4.179   4.048   0.506  0.1394  0.0072 -0.0943
 2375TIP3    H1 7068   4.171   3.977   0.570 -0.1917  0.3878  0.2959
 2375TIP3    H2 7069   4.273   4.060   0.494  0.1983 -0.2339  0.1366
 2376TIP3   OH2 7070   8.202   1.756   4.007 -0.6752  0.4646 -0.0143
 2376TIP3    H1 7071   8.158   1.841   4.013 -0.7911  0.3546  0.8400
 2376TIP3    H2 7072   8.150   1.699   4.064 -0.2797 -0.0426 -0.1616
 2377TIP3   OH2 7073   6.480   6.417   4.943  0.0089  0.1643 -0.3858
 2377TIP3    H1 7074   6.553   6.393   5.000 -1.0175 -0.9699  0.5174
 2377TIP3    H2 7075   6.409   6.440   5.003 -0.6155  0.4959 -1.2291
 2378TIP3   OH2 7076   3.615   2.543   2.725  0.1821  0.3716 -0.4831
 2378TIP3    H1 7077   3.645   2.621   2.677  1.1452 -0.2315 -0.8902
 2378TIP3    H2 7078   3.592   2.576   2.812  3.0500  0.7674  0.2373
 2379TIP3   OH2 7079   7.451   7.747   1.810  0.2333 -0.6913 -0.0460
 2379TIP3    H1 7080   7.481   7.727   1.721 -1.8677 -0.6664 -0.8392
 2379TIP3    H2 7081   7.383   7.814   1.797 -0.6873 -1.2794  1.4837
 2380TIP3   OH2 7082   6.441   6.449   4.545  0.2006 -0.3772  0.4741
 2380TIP3    H1 7083   6.530   6.484   4.551  0.0400  0.2985 -0.7043
 2380TIP3    H2 7084   6.386   6.518   4.581  0.1750 -1.0659  1.8359
 2381TIP3   OH2 7085   3.433   4.227   4.542 -0.1773  0.0424 -0.4028
 2381TIP3    H1 7086   3.365   4.243   4.607  0.2656  2.9566 -0.5285
 2381TIP3    H2 7087   3.515   4.226   4.592 -0.0777 -1.1518 -0.5478
 2382TIP3   OH2 7088   5.579   4.780   0.122  0.6047 -0.6293  0.7375
 2382TIP3    H1 7089   5.512   4.835   0.082  2.1173  0.6637 -0.1349
 2382TIP3    H2 7090   5.532   4.701   0.150 -1.0017 -0.4679 -1.2796
 2383TIP3   OH2 7091   5.146   0.019   3.994  0.4000 -0.5929  0.0321
 2383TIP3    H1 7092   5.228   0.036   3.947 -0.2038 -0.8228 -1.1603
 2383TIP3    H2 7093   5.171  -0.036   4.068  1.3946 -0.2272 -0.0274
 2384TIP3   OH2 7094   6.685   0.750   5.977  0.4821 -0.4457 -0.3846
 2384TIP3    H1 7095   6.618   0.782   5.916  0.1045 -1.0222 -0.2850
 2384TIP3    H2 7096   6.761   0.731   5.922  1.2765  2.0865 -0.2516
 2385TIP3   OH2 7097   1.653   7.632   3.794 -0.2115  0.1217 -0.5761
 2385TIP3    H1 7098   1.671   7.644   3.701  1.4611  1.6469 -0.1028
 2385TIP3    H2 7099   1.673   7.540   3.811 -0.3884 -0.1336 -1.6703
 2386TIP3   OH2 7100   3.827   2.269   2.990  0.0600  0.5670  0.0636
 2386TIP3    H1 7101   3.795   2.268   2.900  1.6778  1.6458 -0.5592
 2386TIP3    H2 7102   3.913   2.228   2.986  0.0464  0.3836  1.1809
 2387TIP3   OH2 7103   7.857   4.940   6.040  0.2283  0.3503  0.6738
 2387TIP3    H1 7104   7.826   4.969   5.955  0.4918  2.3016  1.1903
 2387TIP3    H2 7105   7.938   4.989   6.055  1.3824 -1.5881  1.1283
 2388TIP3   OH2 7106   7.971   3.790   3.631 -0.4799 -0.0092 -0.2811
 2388TIP3    H1 7107   8.058   3.754   3.648  0.2656  1.8307  0.0259
 2388TIP3    H2 7108   7.940   3.820   3.717 -1.3007 -0.3945 -0.4327
 2389TIP3   OH2 7109   1.828   3.338   4.509 -0.1774 -0.6728  0.1990
 2389TIP3    H1 7110   1.751   3.395   4.501 -0.4526 -1.1515 -0.5963
 2389TIP3    H2 7111   1.896   3.395   4.544 -0.6186 -0.0009 -0.0202
 2390TIP3   OH2 7112   6.492   2.438   2.450  0.2151 -0.0367  0.4310
 2390TIP3    H1 7113   6.465   2.522   2.488  0.5755 -0.2489  1.1827
 2390TIP3    H2 7114   6.586   2.434   2.466  0.6262  0.3958 -1.5571
 2391TIP3   OH2 7115   4.100   3.505   3.018  0.2914  0.6985 -0.3607
 2391TIP3    H1 7116   4.017   3.458   3.013  0.6748 -0.1621  0.8048
 2391TIP3    H2 7117   4.164   3.437   3.038  0.9287  1.6532  0.9827
 2392TIP3   OH2 7118   8.220   3.238   3.133  0.2244 -0.2486 -0.5808
 2392TIP3    H1 7119   8.298   3.267   3.181  0.3035 -0.9883 -0.2387
 2392TIP3    H2 7120   8.251   3.225   3.043  0.7075 -1.3352 -0.2724
 2393TIP3   OH2 7121   3.900   0.840   1.970 -0.0936  0.1140  0.8237
 2393TIP3    H1 7122   3.976   0.829   2.027 -0.4748 -0.8177  1.1680
 2393TIP3    H2 7123   3.825   0.819   2.026 -0.4185 -1.9910 -0.3061
 2394TIP3   OH2 7124   3.725   7.526   4.515  0.4210 -0.4542  0.2369
 2394TIP3    H1 7125   3.662   7.500   4.448  0.7857  0.1782 -0.3721
 2394TIP3    H2 7126   3.779   7.593   4.472  1.2130 -0.6564  0.8894
 2395TIP3   OH2 7127   4.832   7.050   6.241 -0.0793 -0.2534 -0.2233
 2395TIP3    H1 7128   4.873   7.050   6.154  1.0523  0.4762  0.2852
 2395TIP3    H2 7129   4.740   7.072   6.224  0.3623  1.0236 -1.1418
 2396TIP3   OH2 7130   3.849   3.277   3.274  0.2948 -0.1509  0.2981
 2396TIP3    H1 7131   3.910   3.211   3.308  0.2988  0.1668  0.9225
 2396TIP3    H2 7132   3.866   3.355   3.328  0.3260  0.3778 -0.4625
 2397TIP3   OH2 7133   2.608   7.696   4.549 -0.1584  0.4151  0.0065
 2397TIP3    H1 7134   2.621   7.788   4.526 -2.2860  1.1483  1.5205
 2397TIP3    H2 7135   2.666   7.682   4.624  0.0207  0.5547 -0.1031
 2398TIP3   OH2 7136   4.517   6.247   1.403  0.2187  0.2019  0.1661
 2398TIP3    H1 7137   4.507   6.157   1.436  0.6526  0.1760  0.2349
 2398TIP3    H2 7138   4.531   6.299   1.482 -0.9752  0.4759  0.2136
 2399TIP3   OH2 7139   0.826   3.606   3.359 -0.1373 -0.6497 -0.0251
 2399TIP3    H1 7140   0.757   3.667   3.332  0.8231  1.3628  1.7647
 2399TIP3    H2 7141   0.907   3.653   3.343  0.6086 -1.0659  2.2044
 2400TIP3   OH2 7142   2.742   3.214   5.433 -0.4747  0.3195  0.6387
 2400TIP3    H1 7143   2.811   3.280   5.430 -0.8915  0.8086 -2.7740
 2400TIP3    H2 7144   2.693   3.234   5.512  0.7486  2.7182  0.8828
 2401TIP3   OH2 7145   7.937   7.571   2.235 -0.3574 -0.4051 -0.0830
 2401TIP3    H1 7146   7.912   7.511   2.305  0.6296 -2.4019 -1.3568
 2401TIP3    H2 7147   8.017   7.533   2.198  1.4222  2.6903  0.2094
 2402TIP3   OH2 7148   8.212   1.447   4.098  0.8630  0.1500 -0.4027
 2402TIP3    H1 7149   8.199   1.408   4.011  0.9541  0.0934 -0.3907
 2402TIP3    H2 7150   8.299   1.486   4.093  0.5664  0.8040 -0.5880
 2403TIP3   OH2 7151   3.239   3.081   5.047  0.2833 -0.1349  0.2528
 2403TIP3    H1 7152   3.154   3.065   5.004  1.0444 -0.7013 -1.1199
 2403TIP3    H2 7153   3.265   3.168   5.016 -0.7455  0.9900  2.3755
 2404TIP3   OH2 7154   6.879   6.222   0.208 -0.2384  0.3982  0.2855
 2404TIP3    H1 7155   6.838   6.271   0.279 -1.0149 -0.8541  0.7310
 2404TIP3    H2 7156   6.971   6.214   0.234 -0.0791  1.6745  0.1583
 2405TIP3   OH2 7157   0.654   4.920   1.461 -0.2510 -0.2210  0.2147
 2405TIP3    H1 7158   0.744   4.942   1.439 -0.4956  0.5185 -0.0933
 2405TIP3    H2 7159   0.648   4.933   1.555 -0.1018 -0.0045  0.1949
 2406TIP3   OH2 7160   4.913   3.406   1.892 -0.2328  0.2202 -0.4062
 2406TIP3    H1 7161   4.825   3.380   1.866  0.2835 -0.6841 -1.3622
 2406TIP3    H2 7162   4.917   3.500   1.875 -0.9127  0.2086 -0.6476
 2407TIP3   OH2 7163   3.203   6.508   0.605 -0.1150  0.4071  0.4423
 2407TIP3    H1 7164   3.280   6.459   0.633 -0.0723  0.4924  0.4755
 2407TIP3    H2 7165   3.229   6.600   0.612 -0.1982  0.4349  0.3921
 2408TIP3   OH2 7166   7.201   0.888   1.917 -0.8079 -0.9271 -0.3770
 2408TIP3    H1 7167   7.249   0.829   1.859 -0.1636  0.0524 -0.8663
 2408TIP3    H2 7168   7.256   0.895   1.995 -1.1943 -1.4704 -0.0539
 2409TIP3   OH2 7169   6.372   0.698   4.381 -0.6997  0.9355  0.0612
 2409TIP3    H1 7170   6.465   0.685   4.367 -0.3934  3.6757 -0.9699
 2409TIP3    H2 7171   6.331   0.669   4.300 -0.3462  2.9797 -0.9047
 2410TIP3   OH2 7172   5.694   1.271   6.709  0.3993 -0.1759 -0.5574
 2410TIP3    H1 7173   5.609   1.231   6.724  0.1746  0.4915 -0.0185
 2410TIP3    H2 7174   5.676   1.363   6.695  1.2116  0.5079  2.2406
 2411TIP3   OH2 7175   6.042   1.776   2.467  0.1618 -0.5364  0.6709
 2411TIP3    H1 7176   5.949   1.756   2.479  0.2297 -2.3704 -1.1843
 2411TIP3    H2 7177   6.044   1.845   2.401  0.0783 -1.9646 -0.9094
 2412TIP3   OH2 7178   2.176   3.789   5.194 -0.0522 -0.1709  0.7521
 2412TIP3    H1 7179   2.248   3.774   5.133 -0.2041  0.1324  0.4958
 2412TIP3    H2 7180   2.171   3.884   5.204  0.0786 -0.2221  1.3734
 2413TIP3   OH2 7181   7.545   4.002   1.619  0.8538  0.0049 -0.1080
 2413TIP3    H1 7182   7.556   4.091   1.651 -0.8406  0.5631 -0.9548
 2413TIP3    H2 7183   7.456   3.978   1.646  0.6876 -0.8060 -1.3032
 2414TIP3   OH2 7184   0.486   2.287   5.927  0.1628  0.4288  0.3737
 2414TIP3    H1 7185   0.500   2.357   5.990 -0.2107  0.5802  0.2909
 2414TIP3    H2 7186   0.547   2.306   5.856 -0.7618  1.3361 -0.1911
 2415TIP3   OH2 7187   7.834   3.477   4.749  0.0670 -0.1180  0.2459
 2415TIP3    H1 7188   7.819   3.421   4.825  1.2124 -0.6208  0.1226
 2415TIP3    H2 7189   7.895   3.544   4.780 -0.0914  0.1496 -0.0142
 2416TIP3   OH2 7190   2.822   5.665   1.763 -0.2728  0.4524  0.4565
 2416TIP3    H1 7191   2.817   5.576   1.729 -0.8025  0.8403 -0.5266
 2416TIP3    H2 7192   2.758   5.667   1.835 -0.6662  0.1820  0.1218
 2417TIP3   OH2 7193   5.367   0.868   0.579 -0.2214  0.1894  0.1286
 2417TIP3    H1 7194   5.294   0.819   0.543  2.2166 -2.7286 -1.3128
 2417TIP3    H2 7195   5.337   0.897   0.665 -2.9481 -1.0549 -0.3079
 2418TIP3   OH2 7196   6.303   5.869   0.374  0.1686  0.2192 -0.0703
 2418TIP3    H1 7197   6.299   5.860   0.470  0.1861  0.4458 -0.0481
 2418TIP3    H2 7198   6.318   5.962   0.359 -0.1149  0.2296 -0.3030
 2419TIP3   OH2 7199   5.046   7.366   3.536 -0.4026 -0.3800  0.0094
 2419TIP3    H1 7200   5.041   7.412   3.620 -1.6565 -0.7312  0.1425
 2419TIP3    H2 7201   5.080   7.432   3.475  3.0200 -0.8090  1.2352
 2420TIP3   OH2 7202   2.050   7.294   0.747  0.3473 -0.1968  0.4583
 2420TIP3    H1 7203   2.140   7.274   0.771 -0.3130 -2.7893  1.1281
 2420TIP3    H2 7204   2.019   7.214   0.704 -1.3038  1.0520 -0.7936
 2421TIP3   OH2 7205   1.061   1.232   5.639  0.3298  0.0947 -0.2162
 2421TIP3    H1 7206   1.025   1.290   5.706 -1.7676 -1.3648  0.0119
 2421TIP3    H2 7207   1.156   1.239   5.650  0.1076  2.2808  0.7859
 2422TIP3   OH2 7208   1.672   2.884   6.492  0.2639  0.8343 -0.0939
 2422TIP3    H1 7209   1.756   2.925   6.510 -0.2434  1.9297 -0.0971
 2422TIP3    H2 7210   1.611   2.958   6.486 -0.6266  0.0851 -0.4440
 2423TIP3   OH2 7211   1.672   1.589   1.875  0.1315 -0.2185  0.4644
 2423TIP3    H1 7212   1.609   1.527   1.838  1.5756 -0.4749 -1.7993
 2423TIP3    H2 7213   1.646   1.598   1.966 -2.1290 -1.5943  0.0490
 2424TIP3   OH2 7214   5.814   1.555   2.491  0.2688 -0.0019 -0.3342
 2424TIP3    H1 7215   5.741   1.584   2.436 -0.8412  0.8128  1.4970
 2424TIP3    H2 7216   5.784   1.568   2.580  2.0584 -1.2144  0.5034
 2425TIP3   OH2 7217   3.365   7.792   3.630 -0.8556 -0.4520 -0.3202
 2425TIP3    H1 7218   3.357   7.706   3.671 -1.5448  0.0183  0.5539
 2425TIP3    H2 7219   3.435   7.836   3.678  0.5817 -1.0515 -1.7608
 2426TIP3   OH2 7220   7.008   1.476   6.049 -0.4531 -0.2745 -0.1847
 2426TIP3    H1 7221   7.045   1.564   6.050 -0.1997 -0.3486 -1.5612
 2426TIP3    H2 7222   6.915   1.489   6.065 -0.3368  0.1939  0.1270
 2427TIP3   OH2 7223   8.090   0.067   0.843  0.6088  0.5490 -0.4168
 2427TIP3    H1 7224   8.135   0.142   0.884 -0.8118  0.6624  1.0200
 2427TIP3    H2 7225   8.056   0.102   0.761  0.7514  1.2215 -0.1978
 2428TIP3   OH2 7226   1.212   0.400   2.562 -0.4785  0.2370  0.6582
 2428TIP3    H1 7227   1.260   0.480   2.541  0.1067 -0.5174 -1.0323
 2428TIP3    H2 7228   1.239   0.378   2.651  3.2567 -0.7328 -0.5395
 2429TIP3   OH2 7229   7.158   0.799   6.647 -0.2936 -0.4898 -0.0612
 2429TIP3    H1 7230   7.208   0.845   6.715 -0.4936 -0.5330  0.1183
 2429TIP3    H2 7231   7.067   0.825   6.663 -0.3704 -0.6924 -0.1612
 2430TIP3   OH2 7232   7.045   3.928   3.457  0.6918  0.1101 -0.3459
 2430TIP3    H1 7233   6.953   3.953   3.460  0.5020 -0.6464  0.2185
 2430TIP3    H2 7234   7.092   4.012   3.456 -0.0056  0.5070 -1.2920
 2431TIP3   OH2 7235   3.943   7.284   5.025 -0.6942 -0.4723 -0.3643
 2431TIP3    H1 7236   3.957   7.367   5.068  0.2438 -0.6281 -0.3549
 2431TIP3    H2 7237   3.967   7.218   5.090  2.4187 -0.7050 -1.5895
 2432TIP3   OH2 7238   2.517   1.973   2.965 -0.2237  0.3047 -0.0200
 2432TIP3    H1 7239   2.477   1.932   2.887  0.7052  0.4927 -0.6036
 2432TIP3    H2 7240   2.463   1.942   3.038 -0.9797 -0.0512 -0.7128
 2433TIP3   OH2 7241   0.144   7.540   3.239 -0.2206  0.5526  0.1202
 2433TIP3    H1 7242   0.186   7.454   3.240  0.4858  0.6737 -3.5797
 2433TIP3    H2 7243   0.060   7.525   3.194 -0.4055  1.6738  0.0692
 2434TIP3   OH2 7244   8.179   1.578   1.634  0.5012 -0.0586  0.0728
 2434TIP3    H1 7245   8.246   1.632   1.592  0.1585 -0.2226 -0.7104
 2434TIP3    H2 7246   8.125   1.640   1.684 -0.4792  0.4937 -1.5972
 2435TIP3   OH2 7247   6.931   2.229   6.415  0.0898 -0.2998 -0.1246
 2435TIP3    H1 7248   6.927   2.265   6.504  1.5502  2.2876 -1.0137
 2435TIP3    H2 7249   6.841   2.203   6.396 -0.4847  0.2162  1.6708
 2436TIP3   OH2 7250   2.759   6.117   1.069  0.1972  0.5863  0.3007
 2436TIP3    H1 7251   2.687   6.172   1.037 -2.3233 -2.3712  0.3404
 2436TIP3    H2 7252   2.798   6.081   0.989 -0.6340 -0.3834  0.3094
 2437TIP3   OH2 7253  -0.005   3.597   6.691 -0.2817  0.0412 -0.1552
 2437TIP3    H1 7254  -0.047   3.643   6.618  1.9214  2.1540 -0.1853
 2437TIP3    H2 7255   0.062   3.657   6.723 -1.0795 -0.8015  3.6284
 2438TIP3   OH2 7256   4.002   3.953   2.426  0.0641 -0.7195  0.3592
 2438TIP3    H1 7257   3.996   4.020   2.358  0.4636 -1.1166 -0.0639
 2438TIP3    H2 7258   3.963   3.875   2.387 -0.0606 -0.8425  0.7236
 2439TIP3   OH2 7259   0.786   7.667   2.418 -0.1549  0.0438 -0.0329
 2439TIP3    H1 7260   0.868   7.710   2.446 -0.3943  0.4681  0.0320
 2439TIP3    H2 7261   0.798   7.652   2.324 -1.2428  3.0622 -0.7786
 2440TIP3   OH2 7262   0.760   5.970   2.367 -0.8071  0.0612 -0.3389
 2440TIP3    H1 7263   0.829   5.903   2.364 -1.0984 -0.3057  0.7466
 2440TIP3    H2 7264   0.729   5.976   2.276  0.8064  0.4140 -0.8975
 2441TIP3   OH2 7265   5.764   1.671   4.151 -0.2865 -0.5730  0.4006
 2441TIP3    H1 7266   5.776   1.614   4.227  0.2692 -1.3084 -0.2078
 2441TIP3    H2 7267   5.815   1.749   4.171  1.1689 -1.4063  0.1609
 2442TIP3   OH2 7268   2.735   6.891   3.575  0.3777  0.5745  0.0713
 2442TIP3    H1 7269   2.701   6.979   3.559  0.7241  0.2155 -3.4380
 2442TIP3    H2 7270   2.825   6.905   3.605 -0.4909  1.4030  2.4167
 2443TIP3   OH2 7271   3.847   5.122   3.550  0.3540  0.0537  0.0709
 2443TIP3    H1 7272   3.807   5.180   3.615  1.2857  0.6403  0.1380
 2443TIP3    H2 7273   3.923   5.171   3.518  1.9475 -1.6605  1.0839
 2444TIP3   OH2 7274   7.437   3.430   4.248  0.3127 -0.0008 -0.5197
 2444TIP3    H1 7275   7.348   3.428   4.211 -0.4277 -0.6435  1.1549
 2444TIP3    H2 7276   7.489   3.376   4.189 -0.6533 -0.4673 -0.9733
 2445TIP3   OH2 7277   5.127   6.154   2.499  0.4206 -0.1074 -0.4632
 2445TIP3    H1 7278   5.175   6.168   2.581 -1.9095 -1.2850  1.2303
 2445TIP3    H2 7279   5.146   6.232   2.446  1.6344  0.9356  1.3899
 2446TIP3   OH2 7280   2.998   6.119   0.744  0.0220 -0.1604 -0.3297
 2446TIP3    H1 7281   3.016   6.047   0.805 -2.0374 -1.2427 -0.8894
 2446TIP3    H2 7282   2.903   6.113   0.728  0.4340  0.1492 -3.4971
 2447TIP3   OH2 7283   0.922   7.386   1.354 -0.3757 -0.0092  0.1479
 2447TIP3    H1 7284   0.920   7.434   1.437  0.8593 -0.9673  0.7623
 2447TIP3    H2 7285   0.871   7.307   1.371  0.6106 -0.6344  0.3057
 2448TIP3   OH2 7286   5.988   7.089   1.382  0.4059 -0.8077  0.1381
 2448TIP3    H1 7287   5.966   7.182   1.380  0.7906 -0.7127  0.1023
 2448TIP3    H2 7288   6.082   7.088   1.402  0.2584 -1.2111  0.8474
 2449TIP3   OH2 7289   1.830   3.903   1.805  0.1641  0.5511  0.1794
 2449TIP3    H1 7290   1.859   3.966   1.739  0.6397  0.0117 -0.1387
 2449TIP3    H2 7291   1.736   3.894   1.791 -0.3419  2.7754  1.6033
 2450TIP3   OH2 7292   7.962   6.043   1.840 -0.7079 -0.0269  0.4128
 2450TIP3    H1 7293   8.014   6.033   1.920  0.3858  0.6951 -0.1817
 2450TIP3    H2 7294   7.904   5.966   1.840  1.1902 -1.5387  0.5066
 2451TIP3   OH2 7295   4.878   5.215   0.036  0.0654  0.5142  0.0613
 2451TIP3    H1 7296   4.815   5.286   0.021  0.4999  0.7062 -0.9164
 2451TIP3    H2 7297   4.886   5.172  -0.049  0.5673 -0.0867  0.4068
 2452TIP3   OH2 7298   4.120   5.209   2.170 -0.2368  0.7522 -0.0599
 2452TIP3    H1 7299   4.104   5.292   2.125 -1.1954  1.1390  0.9346
 2452TIP3    H2 7300   4.047   5.153   2.145 -0.0017  0.4684 -0.1238
 2453TIP3   OH2 7301   3.464   0.230   1.596  0.4017  0.1055 -0.0619
 2453TIP3    H1 7302   3.533   0.240   1.663 -0.1423 -2.1187  0.9274
 2453TIP3    H2 7303   3.400   0.297   1.618  0.0313 -0.8312  1.9859
 2454TIP3   OH2 7304   4.256   2.797   1.771  0.1721  0.3310 -0.0327
 2454TIP3    H1 7305   4.195   2.778   1.700  0.8421 -2.3971 -0.0119
 2454TIP3    H2 7306   4.326   2.733   1.759  0.8339  0.5008  2.4569
 2455TIP3   OH2 7307   5.829   7.764   1.620  0.0344 -0.1050  0.1496
 2455TIP3    H1 7308   5.912   7.776   1.574 -0.5135 -0.3409 -0.9182
 2455TIP3    H2 7309   5.762   7.782   1.555 -0.7859  1.0762  1.2622
 2456TIP3   OH2 7310   5.195   2.194   1.957  0.0071  0.0984 -0.2643
 2456TIP3    H1 7311   5.223   2.118   2.009 -1.3764 -1.3127 -1.4873
 2456TIP3    H2 7312   5.277   2.232   1.925  0.7128 -2.5357 -1.8625
 2457TIP3   OH2 7313   6.217   6.621   5.404 -0.1458  0.0067 -0.2251
 2457TIP3    H1 7314   6.123   6.637   5.404 -0.2346 -0.4103  0.6746
 2457TIP3    H2 7315   6.257   6.708   5.406 -0.5045  0.1894 -0.9426
 2458TIP3   OH2 7316   6.290   5.870   1.769 -0.7630 -0.3378  0.6350
 2458TIP3    H1 7317   6.317   5.942   1.826 -0.1079 -0.1121  0.0583
 2458TIP3    H2 7318   6.345   5.797   1.795 -0.6729 -0.3207  0.4919
 2459TIP3   OH2 7319   6.681   6.964   3.664  0.0886 -0.4794  0.1708
 2459TIP3    H1 7320   6.633   6.989   3.585  0.6683  0.9185  0.2335
 2459TIP3    H2 7321   6.700   6.871   3.652  1.1545 -0.0714 -1.9017
 2460TIP3   OH2 7322   2.418   6.972   3.244  0.3301  0.5478  0.3751
 2460TIP3    H1 7323   2.464   7.008   3.168  0.1953  0.9179  0.4680
 2460TIP3    H2 7324   2.484   6.920   3.290  0.8955  1.7421  0.9612
 2461TIP3   OH2 7325   2.708   6.699   2.804 -0.4646 -0.1821 -0.2234
 2461TIP3    H1 7326   2.624   6.653   2.802 -0.0231 -1.0037 -0.2714
 2461TIP3    H2 7327   2.692   6.776   2.858 -1.3119 -0.2034 -0.4376
 2462TIP3   OH2 7328   4.636   1.297   0.186  0.2254 -0.1790  0.2225
 2462TIP3    H1 7329   4.549   1.333   0.166 -0.1946  0.9282  3.4565
 2462TIP3    H2 7330   4.645   1.222   0.127 -2.7732 -0.1328 -0.4608
 2463TIP3   OH2 7331   7.204   5.546   2.265  0.0677  0.1472 -0.5572
 2463TIP3    H1 7332   7.273   5.491   2.303  0.3576 -0.1096 -1.4340
 2463TIP3    H2 7333   7.157   5.488   2.205 -2.1184 -0.2065  1.3648
 2464TIP3   OH2 7334   4.804   5.405   0.718  0.3231 -0.3951 -0.2345
 2464TIP3    H1 7335   4.869   5.464   0.679  2.3532 -1.3203  1.5374
 2464TIP3    H2 7336   4.846   5.319   0.714 -1.6724 -1.3903 -0.7931
 2465TIP3   OH2 7337   2.365   7.047   6.340 -0.0226  0.2010 -0.2570
 2465TIP3    H1 7338   2.382   7.105   6.265  1.1995 -0.6184 -0.6390
 2465TIP3    H2 7339   2.445   7.049   6.391 -0.1531 -0.7487  0.0029
 2466TIP3   OH2 7340   0.086   7.601   4.247  0.1380  0.1704 -0.4070
 2466TIP3    H1 7341   0.056   7.632   4.161  0.6188  1.0265 -0.2840
 2466TIP3    H2 7342   0.017   7.542   4.277 -0.4162  0.4874 -1.0346
 2467TIP3   OH2 7343   5.775   0.109   1.533 -0.1084  0.1757  0.4622
 2467TIP3    H1 7344   5.722   0.171   1.582 -2.7741 -0.1089 -1.7861
 2467TIP3    H2 7345   5.858   0.106   1.579 -2.1073  0.3935  4.4991
 2468TIP3   OH2 7346   7.993   1.605   5.578  0.2914  0.4412 -0.2473
 2468TIP3    H1 7347   8.081   1.570   5.582  0.4525  0.8043 -0.5250
 2468TIP3    H2 7348   7.967   1.593   5.486 -0.5158 -1.0204  0.1446
 2469TIP3   OH2 7349   5.074   2.924   3.352  0.1541  0.8544 -0.7916
 2469TIP3    H1 7350   5.127   2.911   3.274  0.6891  0.6275 -0.3959
 2469TIP3    H2 7351   5.118   2.994   3.401  0.4969  0.1880 -0.1216
 2470TIP3   OH2 7352   0.260   3.084   3.645 -0.0989  0.4200  0.5700
 2470TIP3    H1 7353   0.330   3.150   3.644  0.5626 -0.2491  1.4535
 2470TIP3    H2 7354   0.305   3.000   3.649 -0.9461 -0.0717  0.0584
 2471TIP3   OH2 7355   6.463   3.424   1.970  0.0453  0.3951  0.0950
 2471TIP3    H1 7356   6.465   3.460   2.059 -0.3893 -0.1402  0.3292
 2471TIP3    H2 7357   6.508   3.340   1.977  0.2784  0.4886 -0.2598
 2472TIP3   OH2 7358   8.058   4.680   2.031  0.3706  0.0433 -0.6228
 2472TIP3    H1 7359   8.026   4.619   1.965  0.7409 -0.2127 -0.5679
 2472TIP3    H2 7360   8.122   4.734   1.984 -0.5159  0.9078 -0.8688
 2473TIP3   OH2 7361   5.607   5.147   0.951  0.0342 -0.2305  0.4204
 2473TIP3    H1 7362   5.675   5.111   1.008 -0.3481  0.6666  1.5055
 2473TIP3    H2 7363   5.624   5.241   0.950 -1.0138 -0.0204  0.4879
 2474TIP3   OH2 7364   7.354   5.670   1.711 -0.4097  0.2418 -0.1816
 2474TIP3    H1 7365   7.300   5.624   1.648 -0.9656  0.0013  0.4595
 2474TIP3    H2 7366   7.302   5.672   1.791  1.1652 -1.4647  0.9659
 2475TIP3   OH2 7367   1.457   1.532   0.644  0.1920 -0.4332  0.5699
 2475TIP3    H1 7368   1.421   1.588   0.713  1.7598  1.5095 -0.1067
 2475TIP3    H2 7369   1.531   1.487   0.686  0.2323 -0.3855  0.5500
 2476TIP3   OH2 7370   4.124   0.693   6.058  0.1534 -0.1484  0.2152
 2476TIP3    H1 7371   4.042   0.724   6.019 -0.4001  0.2269  1.6176
 2476TIP3    H2 7372   4.099   0.619   6.113  0.7141  0.0814  0.8005
 2477TIP3   OH2 7373   5.350   7.224   6.040  0.0615  0.3540  0.4785
 2477TIP3    H1 7374   5.309   7.201   5.957  0.6947  1.1143 -0.0641
 2477TIP3    H2 7375   5.280   7.216   6.105 -1.0641  1.9233 -0.4689
 2478TIP3   OH2 7376   6.903   3.594   1.440  0.1862  0.1801  0.2067
 2478TIP3    H1 7377   6.953   3.654   1.384  0.2347 -0.3781 -0.3533
 2478TIP3    H2 7378   6.969   3.545   1.489  0.1470  0.5542  0.6386
 2479TIP3   OH2 7379   5.919   3.370   1.102 -0.2974 -0.4739  0.5337
 2479TIP3    H1 7380   5.932   3.336   1.014  0.6197 -0.5438  0.6847
 2479TIP3    H2 7381   5.922   3.465   1.091  2.7251 -0.4259  0.8250
 2480TIP3   OH2 7382   3.585   3.246   0.773  0.0027 -0.2376  0.0337
 2480TIP3    H1 7383   3.652   3.211   0.714  1.1823  0.6589  0.8177
 2480TIP3    H2 7384   3.623   3.326   0.809 -1.7187  0.6214  0.0602
 2481TIP3   OH2 7385   3.233   7.282   5.362 -0.4150 -0.3263 -0.1787
 2481TIP3    H1 7386   3.164   7.252   5.304 -0.2616 -1.0426 -0.0078
 2481TIP3    H2 7387   3.276   7.352   5.315 -1.3792  0.2645 -0.2075
 2482TIP3   OH2 7388   5.814   4.687   6.161  0.2353  0.0104  0.5310
 2482TIP3    H1 7389   5.873   4.675   6.087  0.7042 -0.4973  0.9743
 2482TIP3    H2 7390   5.845   4.767   6.204  1.0708 -0.6447  1.1779
 2483TIP3   OH2 7391   5.729   3.242   0.797  0.0744  0.1134 -0.0321
 2483TIP3    H1 7392   5.728   3.196   0.713 -0.2439  0.4746 -0.2287
 2483TIP3    H2 7393   5.817   3.229   0.831  0.3174  0.2735 -0.5919
 2484TIP3   OH2 7394   7.597   5.980   0.269 -0.7042 -0.0177 -0.5982
 2484TIP3    H1 7395   7.690   6.002   0.261 -0.8670  1.6204  1.3281
 2484TIP3    H2 7396   7.554   6.031   0.200 -0.1091 -1.8717 -2.4502
 2485TIP3   OH2 7397   7.071   4.175   4.040  0.6637  0.1487  0.2742
 2485TIP3    H1 7398   7.122   4.177   4.120  0.6673 -1.5598  0.3554
 2485TIP3    H2 7399   7.086   4.088   4.004  1.0208  1.0188 -1.8342
 2486TIP3   OH2 7400   4.173   1.234   3.262 -0.1053 -0.0136 -0.0847
 2486TIP3    H1 7401   4.155   1.253   3.355  1.2337  0.0828  0.1804
 2486TIP3    H2 7402   4.186   1.140   3.259 -0.9183 -0.1265 -0.3309
 2487TIP3   OH2 7403   7.313   5.554   1.317  0.0025 -0.4001 -0.3613
 2487TIP3    H1 7404   7.390   5.535   1.371 -0.9741 -1.7411  0.6253
 2487TIP3    H2 7405   7.340   5.532   1.228  0.1500 -2.8713  0.2403
 2488TIP3   OH2 7406   0.931   2.183   0.547 -0.8352  0.0554  0.5057
 2488TIP3    H1 7407   0.955   2.271   0.520 -0.6967 -0.2323 -0.3762
 2488TIP3    H2 7408   0.959   2.128   0.474 -1.4169 -0.6481  0.7970
 2489TIP3   OH2 7409   3.696   1.734   3.013 -0.6540  0.1811  0.3304
 2489TIP3    H1 7410   3.703   1.826   2.985 -0.2694 -0.0897 -0.5004
 2489TIP3    H2 7411   3.646   1.738   3.094 -1.7292  1.0177 -0.3367
 2490TIP3   OH2 7412   5.630   6.468   5.827  0.4501  0.3547 -0.0324
 2490TIP3    H1 7413   5.597   6.530   5.762  1.1155  0.8206  0.0681
 2490TIP3    H2 7414   5.702   6.513   5.870  0.9739 -0.4940  0.0159
 2491TIP3   OH2 7415   7.495   0.133   6.051  0.3446  0.2380  0.7020
 2491TIP3    H1 7416   7.513   0.088   5.969 -2.4299  2.0060 -1.0517
 2491TIP3    H2 7417   7.576   0.182   6.069  1.7740 -1.8335  0.2677
 2492TIP3   OH2 7418   6.679   4.274   2.643  0.1297  0.2144 -0.0670
 2492TIP3    H1 7419   6.775   4.269   2.648  0.2260  1.2868 -0.5609
 2492TIP3    H2 7420   6.661   4.314   2.558 -0.7908 -0.6415 -0.2877
 2493TIP3   OH2 7421   3.542   4.455   2.783  0.3898 -0.0656  0.0880
 2493TIP3    H1 7422   3.485   4.531   2.768 -1.6133 -1.3888  0.5902
 2493TIP3    H2 7423   3.563   4.423   2.696 -3.2708 -2.0621 -0.2218
 2494TIP3   OH2 7424   4.122   5.721   5.310  0.4082 -0.1970 -0.2319
 2494TIP3    H1 7425   4.100   5.752   5.222  1.7501  1.9069  0.1014
 2494TIP3    H2 7426   4.051   5.753   5.366  1.2257  1.4537 -0.0715
 2495TIP3   OH2 7427   2.051   6.584   5.112  0.0117  0.2914 -0.9621
 2495TIP3    H1 7428   1.962   6.606   5.140 -1.0878 -2.5599 -1.7856
 2495TIP3    H2 7429   2.054   6.606   5.019 -1.0509 -2.4860 -1.7583
 2496TIP3   OH2 7430   3.493   0.836   5.116  0.0304 -0.1113 -0.4425
 2496TIP3    H1 7431   3.493   0.792   5.031 -0.7182 -0.7498 -0.1238
 2496TIP3    H2 7432   3.401   0.834   5.144  0.3751 -0.5044  0.6820
 2497TIP3   OH2 7433   7.589   0.833   4.625  0.0071 -0.1560 -0.1313
 2497TIP3    H1 7434   7.532   0.877   4.687 -0.0208  0.3878 -0.5336
 2497TIP3    H2 7435   7.677   0.843   4.661  0.0167  0.3647 -0.2967
 2498TIP3   OH2 7436   6.688   5.949   0.838  0.2759  0.1103 -0.0072
 2498TIP3    H1 7437   6.622   5.947   0.768 -1.0851  0.7529  1.2179
 2498TIP3    H2 7438   6.656   6.015   0.899  1.3423 -0.5798  1.3354
 2499TIP3   OH2 7439   4.576   5.238   0.767  0.0705  0.4718  0.2848
 2499TIP3    H1 7440   4.541   5.266   0.852 -1.1311  2.5088 -0.7993
 2499TIP3    H2 7441   4.636   5.309   0.742  0.3634 -0.0705 -0.6024
 2500TIP3   OH2 7442   0.186   2.250   6.444 -0.0427  0.3671 -0.1700
 2500TIP3    H1 7443   0.156   2.159   6.443 -2.5102  1.1124 -1.4161
 2500TIP3    H2 7444   0.257   2.252   6.380  0.8152 -0.8827  0.6934
 2501TIP3   OH2 7445   6.082   0.961   2.738  0.0479 -0.1049 -0.5074
 2501TIP3    H1 7446   6.025   0.988   2.810 -0.5526 -0.2365 -0.9199
 2501TIP3    H2 7447   6.041   0.881   2.704  0.5032 -0.2229 -0.7834
 2502TIP3   OH2 7448   2.038   3.207   1.146  0.1201 -0.0882  0.3010
 2502TIP3    H1 7449   2.112   3.174   1.095 -0.0508 -0.9375  0.5895
 2502TIP3    H2 7450   2.014   3.135   1.204 -0.0675  0.6475  1.1739
 2503TIP3   OH2 7451   5.033   1.889   5.299  0.6967  0.1619  0.2885
 2503TIP3    H1 7452   4.992   1.975   5.304  0.0978 -0.1876  1.9718
 2503TIP3    H2 7453   5.030   1.866   5.206 -1.1582  1.0097  0.0983
 2504TIP3   OH2 7454   5.521   4.608   1.732  0.6702 -0.4189 -0.4823
 2504TIP3    H1 7455   5.615   4.598   1.746  0.7277  0.7136  0.0319
 2504TIP3    H2 7456   5.485   4.626   1.819  0.2417  1.0036 -0.9324
 2505TIP3   OH2 7457   8.068   7.752   5.324  0.4399 -0.4181  0.1057
 2505TIP3    H1 7458   8.142   7.805   5.294  2.6277 -2.8143  0.9550
 2505TIP3    H2 7459   8.072   7.759   5.420 -0.8135 -0.1627  0.1565
 2506TIP3   OH2 7460   6.168   0.406   4.548  0.3904 -0.2043 -0.5174
 2506TIP3    H1 7461   6.257   0.409   4.514  0.8290 -0.3494  0.5841
 2506TIP3    H2 7462   6.157   0.317   4.580  0.0794 -0.0016 -0.0493
 2507TIP3   OH2 7463   0.185   1.833   2.981  0.3815  0.0229 -0.0538
 2507TIP3    H1 7464   0.240   1.910   2.965  2.2481 -0.9650  1.1998
 2507TIP3    H2 7465   0.206   1.774   2.908 -1.6422  0.9313 -1.4581
 2508TIP3   OH2 7466   5.249   1.999   5.113  0.0438 -0.3446 -0.2126
 2508TIP3    H1 7467   5.246   2.050   5.032 -0.7739  1.5530  0.9386
 2508TIP3    H2 7468   5.255   2.065   5.182 -3.2115 -1.6328  1.5249
 2509TIP3   OH2 7469   7.415   3.207   3.023 -0.0903  0.4579  0.5921
 2509TIP3    H1 7470   7.506   3.199   3.052  0.8531  1.2419 -1.9381
 2509TIP3    H2 7471   7.391   3.296   3.048 -0.2459  0.1912  1.4232
 2510TIP3   OH2 7472   7.236   6.419   0.949 -0.1657 -0.2522  0.3466
 2510TIP3    H1 7473   7.241   6.329   0.918 -0.2350  0.0095 -0.4395
 2510TIP3    H2 7474   7.176   6.462   0.889 -0.0909  0.3348  0.6833
 2511TIP3   OH2 7475   8.268   0.279   4.803 -0.6641 -0.5589 -0.1253
 2511TIP3    H1 7476   8.227   0.218   4.865 -2.5329 -0.8920 -1.5887
 2511TIP3    H2 7477   8.260   0.236   4.718  1.1829  0.2109 -0.7227
 2512TIP3   OH2 7478   3.815   5.090   4.739 -0.1934  0.2465 -0.6084
 2512TIP3    H1 7479   3.886   5.037   4.775 -1.5716 -0.9237  0.5220
 2512TIP3    H2 7480   3.826   5.084   4.645  1.0824 -0.0734 -0.4592
 2513TIP3   OH2 7481   0.632   3.952   4.698  0.1349  0.5108  0.1553
 2513TIP3    H1 7482   0.638   4.034   4.747 -0.3526  0.5105  0.2269
 2513TIP3    H2 7483   0.649   3.977   4.607 -1.0735  0.8928  0.0096
 2514TIP3   OH2 7484   6.224   5.635   3.994 -0.3507 -0.5089  0.2730
 2514TIP3    H1 7485   6.147   5.591   4.029  0.1552 -1.5559  0.0820
 2514TIP3    H2 7486   6.298   5.580   4.019  0.3420  0.4043  0.3250
 2515TIP3   OH2 7487   7.133   2.033   4.741  0.0375 -0.0550 -0.4493
 2515TIP3    H1 7488   7.185   2.000   4.668  0.9196  2.5897 -1.1328
 2515TIP3    H2 7489   7.056   1.975   4.744  0.5211 -0.9090 -2.7519
 2516TIP3   OH2 7490   0.238   3.826   0.362 -0.4001 -0.1561 -0.4633
 2516TIP3    H1 7491   0.153   3.848   0.399 -0.1051  0.7730 -0.3087
 2516TIP3    H2 7492   0.246   3.882   0.284  0.7101  0.9324  0.3836
 2517TIP3   OH2 7493   7.198   2.058   2.778  0.1574  0.3513  0.7584
 2517TIP3    H1 7494   7.106   2.074   2.755  0.1822  1.3166  1.2704
 2517TIP3    H2 7495   7.217   1.971   2.743 -0.3506  0.9710 -1.1859
 2518TIP3   OH2 7496   2.093   0.547   5.113 -0.0989 -0.1794 -0.5375
 2518TIP3    H1 7497   2.043   0.593   5.045 -2.0079 -2.3331 -0.6891
 2518TIP3    H2 7498   2.176   0.525   5.070 -0.3364  0.5061 -1.3982
 2519TIP3   OH2 7499   6.756   4.562   6.306  0.6430  0.3173 -0.1402
 2519TIP3    H1 7500   6.812   4.612   6.247 -1.0833  2.5703  0.0038
 2519TIP3    H2 7501   6.792   4.474   6.304  2.4825  1.0261 -2.1606
 2520TIP3   OH2 7502   1.116   1.326   1.353 -0.5938  0.3888  0.2795
 2520TIP3    H1 7503   1.196   1.312   1.301 -0.7840  1.0159 -0.1856
 2520TIP3    H2 7504   1.129   1.410   1.396 -0.4030 -0.1676  1.3325
 2521TIP3   OH2 7505   4.796   4.648   5.232  0.5287  0.1713  0.2457
 2521TIP3    H1 7506   4.802   4.624   5.140 -0.7672  0.9874 -0.0718
 2521TIP3    H2 7507   4.763   4.738   5.232 -0.3062 -0.0977  1.5123
 2522TIP3   OH2 7508   3.765   5.110   3.890 -0.1940 -0.4378 -0.1808
 2522TIP3    H1 7509   3.859   5.093   3.889  0.1648  1.2999  0.6051
 2522TIP3    H2 7510   3.756   5.194   3.935 -2.0578 -0.1471 -1.0023
 2523TIP3   OH2 7511   4.034   3.557   6.449  0.0076 -0.2819 -0.2052
 2523TIP3    H1 7512   4.003   3.543   6.539  1.3127 -0.3397  0.2727
 2523TIP3    H2 7513   4.108   3.617   6.459 -0.3795  0.4192 -1.3566
 2524TIP3   OH2 7514   1.921   2.794   4.298  0.4128  0.2584 -0.4283
 2524TIP3    H1 7515   1.942   2.763   4.386  0.1684 -0.4547 -0.6138
 2524TIP3    H2 7516   1.972   2.874   4.288  0.9239  0.0137  0.1347
 2525TIP3   OH2 7517   0.813   2.710   2.727  0.3086  0.2074  0.4847
 2525TIP3    H1 7518   0.865   2.784   2.695 -1.1337  1.2595  0.4228
 2525TIP3    H2 7519   0.843   2.635   2.676 -0.0802  1.3142 -1.4717
 2526TIP3   OH2 7520   4.215   5.309   0.837  0.0351 -0.1581 -0.1164
 2526TIP3    H1 7521   4.168   5.271   0.912  0.5407 -3.3521 -1.2447
 2526TIP3    H2 7522   4.304   5.324   0.870 -0.5913  1.8210  0.8229
 2527TIP3   OH2 7523   3.331   4.146   0.838 -0.1782  0.2112 -0.2748
 2527TIP3    H1 7524   3.327   4.063   0.790 -0.2851 -1.3218  2.2443
 2527TIP3    H2 7525   3.275   4.205   0.787 -0.4432 -1.3471 -1.9030
 2528TIP3   OH2 7526   7.340   5.378   5.872 -0.4229  0.1899 -0.4257
 2528TIP3    H1 7527   7.382   5.299   5.839 -1.3228 -0.7733  0.6686
 2528TIP3    H2 7528   7.382   5.393   5.957 -0.1928  0.9478 -0.6676
 2529TIP3   OH2 7529   3.918   3.298   0.928 -0.6166 -0.2436  0.2612
 2529TIP3    H1 7530   3.859   3.360   0.970  1.5536  2.0800  0.1156
 2529TIP3    H2 7531   3.998   3.302   0.980  0.8445 -0.1462 -1.8687
 2530TIP3   OH2 7532   1.961   6.830   6.181  0.1145  0.2132  0.0633
 2530TIP3    H1 7533   1.955   6.767   6.109  0.5095 -0.0203  0.2336
 2530TIP3    H2 7534   2.012   6.902   6.145  1.6568 -0.5888  0.5862
 2531TIP3   OH2 7535   0.269   1.255   2.321 -0.3907 -0.4809  0.0540
 2531TIP3    H1 7536   0.349   1.215   2.286 -0.7498  0.2524 -1.7443
 2531TIP3    H2 7537   0.274   1.346   2.293 -2.9415 -0.9161 -2.2801
 2532TIP3   OH2 7538   1.570   1.908   0.541  0.3207 -0.0188 -0.3545
 2532TIP3    H1 7539   1.570   1.832   0.484 -3.3851  0.6949 -1.6158
 2532TIP3    H2 7540   1.571   1.983   0.482  0.6524  0.8638  0.7259
 2533TIP3   OH2 7541   3.928   6.758   2.530 -0.3340 -0.0034 -0.6962
 2533TIP3    H1 7542   3.941   6.811   2.608 -0.1578  0.7772 -1.2354
 2533TIP3    H2 7543   3.976   6.805   2.461  2.7517 -2.5990 -0.5464
 2534TIP3   OH2 7544   6.785   2.781   2.784  0.3720 -0.4002  0.5616
 2534TIP3    H1 7545   6.699   2.807   2.816  0.2720  1.5760 -1.0960
 2534TIP3    H2 7546   6.845   2.806   2.854 -0.1992  0.3655  0.7977
 2535TIP3   OH2 7547   4.701   3.596   3.000  0.4263 -0.0784  0.5576
 2535TIP3    H1 7548   4.650   3.676   2.986 -0.0674 -0.6633 -1.2956
 2535TIP3    H2 7549   4.647   3.543   3.059 -0.6240 -0.2063 -0.4801
 2536TIP3   OH2 7550   3.455   1.563   1.259  0.0722  0.3176 -0.4188
 2536TIP3    H1 7551   3.482   1.478   1.294  0.0786  0.5884  0.2514
 2536TIP3    H2 7552   3.363   1.571   1.283  0.6814  1.5788  1.7871
 2537TIP3   OH2 7553   0.761   7.160   1.358 -0.3544 -0.0792  0.1840
 2537TIP3    H1 7554   0.806   7.143   1.441 -1.8762 -0.2487  1.0125
 2537TIP3    H2 7555   0.816   7.119   1.292  1.2981  0.7043  1.0038
 2538TIP3   OH2 7556   2.330   4.657   6.362  0.3689 -0.1298 -0.6911
 2538TIP3    H1 7557   2.364   4.746   6.374 -1.2323  0.4641 -0.3573
 2538TIP3    H2 7558   2.259   4.667   6.298  0.0869 -1.1476 -0.5537
 2539TIP3   OH2 7559   4.515   4.608   3.879 -0.0901 -0.1349 -0.2008
 2539TIP3    H1 7560   4.522   4.533   3.821 -2.1967  1.6099 -2.9400
 2539TIP3    H2 7561   4.430   4.599   3.921  0.1625  0.1476  0.4028
 2540TIP3   OH2 7562   1.361   0.864   5.326  0.0353  0.1204 -0.1065
 2540TIP3    H1 7563   1.419   0.836   5.397 -0.5812  0.0776  0.3872
 2540TIP3    H2 7564   1.298   0.921   5.368  1.1904  2.2287 -1.0559
 2541TIP3   OH2 7565   1.715   6.551   1.248 -0.4250  0.0441 -0.1408
 2541TIP3    H1 7566   1.641   6.559   1.308 -0.8885  0.9128 -0.8240
 2541TIP3    H2 7567   1.702   6.619   1.183  0.8545  0.0568 -0.4124
 2542TIP3   OH2 7568   7.811   6.940   5.325  0.2254 -0.4226  0.3881
 2542TIP3    H1 7569   7.745   6.873   5.306 -1.0672  1.0605 -0.6517
 2542TIP3    H2 7570   7.885   6.916   5.270 -0.2329 -0.9865  0.0037
 2543TIP3   OH2 7571   4.666   6.312   3.369  0.0709  0.3273  0.0749
 2543TIP3    H1 7572   4.761   6.328   3.376 -0.1817  1.3908  1.5952
 2543TIP3    H2 7573   4.631   6.340   3.454 -1.4441 -1.4153  0.0816
 2544TIP3   OH2 7574   5.151   2.453   0.410 -0.4421 -0.3723  0.0005
 2544TIP3    H1 7575   5.168   2.547   0.424 -0.4927 -0.1384 -1.3229
 2544TIP3    H2 7576   5.232   2.410   0.436 -0.5882 -0.0149  1.0816
 2545TIP3   OH2 7577   4.569   6.346   6.587 -0.0245  0.6679 -0.0705
 2545TIP3    H1 7578   4.630   6.316   6.655 -0.3824 -0.8531 -0.3943
 2545TIP3    H2 7579   4.495   6.383   6.636  1.2826  2.9427  0.3295
 2546TIP3   OH2 7580   7.555   6.492   4.246  0.1729  0.3951 -0.7801
 2546TIP3    H1 7581   7.590   6.410   4.283  1.5121  1.6482  0.9223
 2546TIP3    H2 7582   7.522   6.467   4.160 -0.2589 -2.1033  0.0131
 2547TIP3   OH2 7583   6.629   1.194   2.779 -0.9271 -0.7489 -0.0373
 2547TIP3    H1 7584   6.583   1.246   2.713 -0.6168 -0.7903 -0.2891
 2547TIP3    H2 7585   6.719   1.227   2.777 -0.8312 -0.9989  0.1111
 2548TIP3   OH2 7586   7.635   4.528   1.849 -0.0407  0.0543  0.2292
 2548TIP3    H1 7587   7.560   4.534   1.909  0.7299  1.6772  1.0961
 2548TIP3    H2 7588   7.610   4.583   1.774  0.0293  0.0908  0.2328
 2549TIP3   OH2 7589   4.793   4.830   4.863  0.4839 -0.2464 -0.2160
 2549TIP3    H1 7590   4.767   4.768   4.795  0.0720 -0.5852  0.2389
 2549TIP3    H2 7591   4.735   4.810   4.936  0.7255  0.3085  0.1324
 2550TIP3   OH2 7592   3.047   2.815   1.365  0.3704 -0.1109 -0.6102
 2550TIP3    H1 7593   2.991   2.835   1.440  1.8455 -0.2309  0.5786
 2550TIP3    H2 7594   3.003   2.856   1.290 -0.2403  1.5811  0.6091
 2551TIP3   OH2 7595   7.414   4.449   1.305  0.1092 -0.1463  0.1492
 2551TIP3    H1 7596   7.503   4.473   1.332  0.6796 -0.4469 -1.3413
 2551TIP3    H2 7597   7.357   4.489   1.371  1.3004  0.8256  0.6355
 2552TIP3   OH2 7598   6.653   5.768   2.754 -0.9406 -0.1248 -0.5087
 2552TIP3    H1 7599   6.704   5.727   2.685 -1.8667 -2.5960  0.1793
 2552TIP3    H2 7600   6.650   5.861   2.729  1.6431 -0.3202 -1.8969
 2553TIP3   OH2 7601   2.555   2.876   4.189  0.3627  0.2519  0.5766
 2553TIP3    H1 7602   2.465   2.910   4.186  0.3362  0.1479  0.0836
 2553TIP3    H2 7603   2.578   2.878   4.281 -0.0876  0.4420  0.6893
 2554TIP3   OH2 7604   4.683   5.535   1.633  0.4824 -0.4176 -0.3291
 2554TIP3    H1 7605   4.598   5.546   1.592  0.0189  0.5278  0.8163
 2554TIP3    H2 7606   4.663   5.504   1.722  1.3025  0.0302  0.0261
 2555TIP3   OH2 7607   6.938   6.217   1.083  0.1213  0.3042 -0.4159
 2555TIP3    H1 7608   6.956   6.295   1.136  1.3856 -0.4616  0.3174
 2555TIP3    H2 7609   6.965   6.144   1.138  0.2292 -0.5899 -1.6292
 2556TIP3   OH2 7610   6.927   5.393   5.594 -0.3715 -0.7438  0.3432
 2556TIP3    H1 7611   6.982   5.403   5.516 -1.1790  2.1545  0.0673
 2556TIP3    H2 7612   6.841   5.368   5.560 -2.1867  5.1274 -0.4962
 2557TIP3   OH2 7613   6.733   7.209   4.649  0.4395 -0.6784 -0.2550
 2557TIP3    H1 7614   6.706   7.247   4.565 -0.6074 -2.6303 -0.8653
 2557TIP3    H2 7615   6.824   7.236   4.659 -0.4676  2.7516 -0.1109
 2558TIP3   OH2 7616   5.546   4.787   0.595 -0.0331 -0.2061  0.3619
 2558TIP3    H1 7617   5.456   4.769   0.566  0.3633 -0.3668 -0.8205
 2558TIP3    H2 7618   5.585   4.701   0.606  0.2132 -0.1292  0.0956
 2559TIP3   OH2 7619   8.140   6.532   3.991 -0.8768 -0.0427  0.4349
 2559TIP3    H1 7620   8.165   6.451   3.946 -0.6858  0.5758 -0.5899
 2559TIP3    H2 7621   8.196   6.533   4.069  0.1932 -0.1553 -0.3156
 2560TIP3   OH2 7622   3.294   6.962   2.604  0.0123  0.2233  0.0618
 2560TIP3    H1 7623   3.381   6.999   2.617 -0.1565  0.6457  0.0113
 2560TIP3    H2 7624   3.299   6.874   2.641  0.5198  0.1683 -0.1252
 2561TIP3   OH2 7625   1.804   6.734   5.230 -0.2615 -0.5272 -0.4445
 2561TIP3    H1 7626   1.731   6.771   5.180  0.7076 -1.1913 -2.4304
 2561TIP3    H2 7627   1.865   6.808   5.240 -1.1284  0.0080  1.1516
 2562TIP3   OH2 7628   6.629   4.895   2.143 -0.3074 -0.5547 -0.1708
 2562TIP3    H1 7629   6.657   4.809   2.174 -2.0733 -1.3490 -0.6185
 2562TIP3    H2 7630   6.535   4.885   2.127 -0.7147  1.6721  0.4479
 2563TIP3   OH2 7631   0.858   2.114   5.228 -0.3193  0.2068 -1.0516
 2563TIP3    H1 7632   0.934   2.084   5.277 -0.4855  0.4340 -0.6556
 2563TIP3    H2 7633   0.858   2.209   5.238 -0.0971  0.3029 -1.8670
 2564TIP3   OH2 7634   3.980   1.857   2.825  0.2927 -0.5194  0.8006
 2564TIP3    H1 7635   3.953   1.770   2.796 -1.4695  0.3615 -0.3813
 2564TIP3    H2 7636   3.900   1.896   2.860  0.6369  1.1942 -0.2161
 2565TIP3   OH2 7637   4.629   3.956   2.123  0.4536 -0.7283 -0.0740
 2565TIP3    H1 7638   4.622   3.974   2.217  0.4077  2.6483 -0.6167
 2565TIP3    H2 7639   4.540   3.965   2.091  0.8961  1.2778 -0.8554
 2566TIP3   OH2 7640   0.922   5.409   1.721  0.7885  0.0263 -0.2925
 2566TIP3    H1 7641   1.013   5.380   1.719  0.7251 -0.4261  1.3943
 2566TIP3    H2 7642   0.920   5.477   1.789 -0.4882 -1.4989  1.3253
 2567TIP3   OH2 7643   3.785   2.992   4.643  0.2851  0.5121 -0.3011
 2567TIP3    H1 7644   3.827   2.917   4.603  2.4801  2.1365 -1.2395
 2567TIP3    H2 7645   3.821   2.995   4.732 -0.1469  0.2147 -0.1133
 2568TIP3   OH2 7646   3.042   7.001   2.545 -0.6571  0.3338  0.4714
 2568TIP3    H1 7647   3.124   6.991   2.594 -1.6121  0.4418  2.2027
 2568TIP3    H2 7648   2.987   6.929   2.576 -1.2330  0.2928 -0.6237
 2569TIP3   OH2 7649   0.568   2.128   6.195 -0.0567  0.2837  0.5624
 2569TIP3    H1 7650   0.638   2.183   6.160 -0.0893 -0.8655 -1.4704
 2569TIP3    H2 7651   0.599   2.101   6.282  1.9394 -0.0477 -0.2170
 2570TIP3   OH2 7652   4.002   5.119   5.631  0.2111 -0.1161 -0.2259
 2570TIP3    H1 7653   4.066   5.189   5.647 -0.5163  0.7364 -0.9491
 2570TIP3    H2 7654   4.048   5.039   5.656  0.5161  0.7214  2.1575
 2571TIP3   OH2 7655   3.946   6.496   1.180  0.1027 -0.3159  0.8853
 2571TIP3    H1 7656   3.903   6.579   1.199 -1.5962 -0.5867 -1.3779
 2571TIP3    H2 7657   4.026   6.498   1.233  0.9226  3.4422 -0.1918
 2572TIP3   OH2 7658   4.419   4.307   1.396  0.4256  0.0681 -0.2575
 2572TIP3    H1 7659   4.409   4.258   1.315  0.7362  0.6793 -0.6765
 2572TIP3    H2 7660   4.514   4.312   1.410  0.3913 -2.8148  1.8902
 2573TIP3   OH2 7661   4.739   3.977   6.354  0.0539 -0.5571 -0.0443
 2573TIP3    H1 7662   4.792   4.011   6.282 -0.6265 -0.5528 -0.5539
 2573TIP3    H2 7663   4.783   3.896   6.380  1.1070  0.1702  0.4926
 2574TIP3   OH2 7664   6.421   0.770   3.042 -0.7626  0.3460 -0.0761
 2574TIP3    H1 7665   6.397   0.765   3.135 -1.7068 -0.4069 -0.3368
 2574TIP3    H2 7666   6.374   0.697   3.002 -0.6613  0.8888 -1.2153
 2575TIP3   OH2 7667   3.287   0.770   4.155  0.3013  0.4169 -0.2635
 2575TIP3    H1 7668   3.373   0.807   4.134  0.4084  0.4480  0.2264
 2575TIP3    H2 7669   3.226   0.816   4.096  0.4348  1.3665  0.3129
 2576TIP3   OH2 7670   2.782   5.285   5.517 -0.1625 -0.0571  0.6878
 2576TIP3    H1 7671   2.808   5.376   5.511 -0.0462 -0.0752  0.9039
 2576TIP3    H2 7672   2.710   5.284   5.580  0.3467 -0.2161  1.2787
 2577TIP3   OH2 7673   6.855   1.372   4.072  0.2706 -0.3765 -0.7051
 2577TIP3    H1 7674   6.902   1.369   4.155 -2.0762 -2.9274  0.6683
 2577TIP3    H2 7675   6.766   1.345   4.094 -0.8564  0.4084 -3.8335
 2578TIP3   OH2 7676   1.852   7.528   4.862 -0.3652 -0.1608 -0.8210
 2578TIP3    H1 7677   1.864   7.613   4.905 -0.7718 -0.5273  0.0365
 2578TIP3    H2 7678   1.760   7.529   4.833 -1.2619 -1.3743  1.6727
 2579TIP3   OH2 7679   7.001   5.309   1.288  0.0858 -0.0519 -0.0760
 2579TIP3    H1 7680   6.975   5.315   1.196 -0.6325  2.5602  0.2085
 2579TIP3    H2 7681   6.943   5.243   1.325 -1.3375  0.6217 -0.9964
 2580TIP3   OH2 7682   1.430   2.026   1.067  0.0886  0.2311  0.1835
 2580TIP3    H1 7683   1.507   2.068   1.105  0.3810  0.8572 -1.0447
 2580TIP3    H2 7684   1.464   1.974   0.994 -0.5294 -0.3246  0.2836
 2581TIP3   OH2 7685   3.057   7.228   2.415 -0.2870  0.5700 -0.0796
 2581TIP3    H1 7686   2.978   7.242   2.364 -0.1025 -0.8434 -0.8031
 2581TIP3    H2 7687   3.056   7.135   2.437  1.3050  0.4478 -0.3624
 2582TIP3   OH2 7688   7.093   2.458   4.196  0.1300  0.5630  0.2583
 2582TIP3    H1 7689   7.108   2.365   4.213  0.0211  0.0929 -1.8884
 2582TIP3    H2 7690   7.073   2.496   4.281 -1.4328 -1.6931  0.9745
 2583TIP3   OH2 7691   4.936   0.587   4.109 -0.3280  0.3283  0.1466
 2583TIP3    H1 7692   4.890   0.527   4.052 -1.8658 -0.3972  2.0597
 2583TIP3    H2 7693   4.967   0.533   4.182 -1.1085  1.6924  1.5453
 2584TIP3   OH2 7694   2.504   5.191   6.125  0.3197  0.4754 -0.0087
 2584TIP3    H1 7695   2.484   5.226   6.212  1.5851 -3.3705  2.0792
 2584TIP3    H2 7696   2.589   5.230   6.103  0.1401  1.2518  0.6291
 2585TIP3   OH2 7697   4.303   4.734   3.620 -0.3337 -0.1529  0.0458
 2585TIP3    H1 7698   4.349   4.782   3.689  0.8200  1.6482 -1.8439
 2585TIP3    H2 7699   4.228   4.695   3.664  0.5189  0.6122  2.3678
 2586TIP3   OH2 7700   1.161   3.210   3.400  0.1662 -0.2063 -0.3964
 2586TIP3    H1 7701   1.125   3.167   3.477  2.2961 -0.2967  0.6242
 2586TIP3    H2 7702   1.164   3.303   3.423 -1.0666  0.0554 -1.1953
 2587TIP3   OH2 7703   4.028   5.833   2.314 -0.2272 -0.4523 -0.3476
 2587TIP3    H1 7704   4.055   5.837   2.222  0.0212  0.0764 -0.2592
 2587TIP3    H2 7705   3.940   5.870   2.315  0.3806  1.0723 -0.1601
 2588TIP3   OH2 7706   0.952   3.704   2.441 -0.1016  0.7715 -0.3963
 2588TIP3    H1 7707   1.015   3.724   2.372  1.1202 -1.4493 -0.0199
 2588TIP3    H2 7708   0.950   3.782   2.496  3.8878  0.3000  0.7041
 2589TIP3   OH2 7709   3.639   3.101   1.741  0.1090 -0.1588  0.2027
 2589TIP3    H1 7710   3.629   3.188   1.703 -0.5996 -0.1536  0.3710
 2589TIP3    H2 7711   3.694   3.115   1.818 -0.9566  0.3622  0.9052
 2590TIP3   OH2 7712   0.679   0.546   5.076  0.4079 -0.5656 -0.1383
 2590TIP3    H1 7713   0.698   0.530   5.168  1.2299  1.2087  0.0591
 2590TIP3    H2 7714   0.765   0.540   5.033  0.3031  0.2846 -0.4863
 2591TIP3   OH2 7715   6.094   3.091   4.916  0.3308  0.0448  0.3821
 2591TIP3    H1 7716   6.188   3.104   4.900  0.4647 -1.6482 -0.4201
 2591TIP3    H2 7717   6.062   3.049   4.836 -0.5443 -1.8125  1.6372
 2592TIP3   OH2 7718   6.126   2.582   2.220 -0.4255  0.1240  0.3911
 2592TIP3    H1 7719   6.180   2.586   2.141 -1.5310  1.7237 -0.3397
 2592TIP3    H2 7720   6.043   2.545   2.190 -0.8029  0.6068  0.8420
 2593TIP3   OH2 7721   8.025   0.796   2.185  0.7027  0.0256  0.6923
 2593TIP3    H1 7722   8.090   0.865   2.195 -1.1876  1.7979  1.5054
 2593TIP3    H2 7723   7.982   0.816   2.101 -0.7387  0.6918  1.5495
 2594TIP3   OH2 7724   2.170   5.895   1.175  0.7952  0.2975  0.0706
 2594TIP3    H1 7725   2.188   5.956   1.247 -1.5937  0.2603  0.7638
 2594TIP3    H2 7726   2.151   5.952   1.100  0.8635  0.3602  0.1008
 2595TIP3   OH2 7727   5.205   1.075   2.866 -0.0599 -0.2156  0.2453
 2595TIP3    H1 7728   5.294   1.107   2.881  0.0358 -0.8140  1.0017
 2595TIP3    H2 7729   5.163   1.080   2.951 -0.4292 -0.9068  0.1122
 2596TIP3   OH2 7730   5.444   0.345   5.264 -0.2533 -0.0509  0.0830
 2596TIP3    H1 7731   5.473   0.420   5.213  0.4303 -0.1911  0.2558
 2596TIP3    H2 7732   5.467   0.366   5.354  1.6859 -1.2418 -0.0730
 2597TIP3   OH2 7733   3.242   2.668   3.309  0.1566  0.0682 -0.4893
 2597TIP3    H1 7734   3.187   2.631   3.377  0.4151  1.1677  0.3479
 2597TIP3    H2 7735   3.249   2.599   3.243 -1.6491 -0.3235 -0.3023
 2598TIP3   OH2 7736   5.105   2.381   5.771 -0.0593 -0.0097  0.0656
 2598TIP3    H1 7737   5.027   2.332   5.797 -0.3388 -0.2572 -1.1812
 2598TIP3    H2 7738   5.108   2.373   5.675  1.2009  0.4418  0.0493
 2599TIP3   OH2 7739   4.929   6.708   5.442 -0.4272 -0.1566  0.0934
 2599TIP3    H1 7740   4.866   6.675   5.379 -0.1814 -1.6705  0.5993
 2599TIP3    H2 7741   4.932   6.641   5.511  1.4300  0.0624  0.2744
 2600TIP3   OH2 7742   0.637   3.068   5.802 -0.2946 -0.3915 -0.0400
 2600TIP3    H1 7743   0.541   3.068   5.802 -0.3418  1.2130  1.3969
 2600TIP3    H2 7744   0.661   3.146   5.851  1.7661 -1.2576  0.4356
 2601TIP3   OH2 7745   0.811   7.017   3.901  0.4150 -0.5381 -0.2119
 2601TIP3    H1 7746   0.894   6.999   3.946 -0.7977 -0.2770  2.3267
 2601TIP3    H2 7747   0.826   7.101   3.857  0.4113  1.7480  3.6343
 2602TIP3   OH2 7748   2.425   4.927   0.488 -0.1407  0.4119 -0.1864
 2602TIP3    H1 7749   2.388   4.879   0.414  1.5033 -2.2410  0.5984
 2602TIP3    H2 7750   2.520   4.920   0.476  0.1484  1.0496  1.4839
 2603TIP3   OH2 7751   5.393   5.617   3.438  0.2031 -0.1613  0.0799
 2603TIP3    H1 7752   5.434   5.695   3.400  2.0052 -0.8531  0.5158
 2603TIP3    H2 7753   5.465   5.554   3.447 -1.1278 -1.7361  0.1325
 2604TIP3   OH2 7754   6.884   3.449   3.239  0.3605  0.0593 -0.2921
 2604TIP3    H1 7755   6.826   3.521   3.213 -0.7033 -0.6753 -0.0470
 2604TIP3    H2 7756   6.944   3.487   3.303 -0.4242  0.6569  0.1051
 2605TIP3   OH2 7757   1.201   5.808   0.054 -0.2839 -0.5616  0.5360
 2605TIP3    H1 7758   1.180   5.761  -0.027 -3.3973  0.4989  0.6100
 2605TIP3    H2 7759   1.235   5.741   0.113  2.5575 -1.2827 -1.6991
 2606TIP3   OH2 7760   5.541   2.740   1.875 -0.3980  0.2273 -0.3931
 2606TIP3    H1 7761   5.616   2.798   1.884  0.4280 -0.7131 -1.0035
 2606TIP3    H2 7762   5.534   2.723   1.781 -0.4030 -0.9078 -0.2052
 2607TIP3   OH2 7763   6.786   7.450   0.787 -0.2577 -0.1749  0.3930
 2607TIP3    H1 7764   6.711   7.487   0.740 -0.1417 -2.8071 -2.2160
 2607TIP3    H2 7765   6.860   7.505   0.763 -0.3873 -0.9172 -1.9519
 2608TIP3   OH2 7766   4.861   3.977   1.371 -0.0039  0.3231  0.2217
 2608TIP3    H1 7767   4.832   4.002   1.459 -1.4031 -1.4932  0.3407
 2608TIP3    H2 7768   4.949   3.942   1.385 -0.9231 -1.7453  1.2847
 2609TIP3   OH2 7769   2.311   5.602   0.507 -0.4557  0.0119 -0.1229
 2609TIP3    H1 7770   2.265   5.560   0.580 -1.7019 -0.1554 -0.9793
 2609TIP3    H2 7771   2.255   5.675   0.482 -0.8647 -0.8869 -1.9397
 2610TIP3   OH2 7772   7.102   5.135   6.100  0.0395  0.3180  0.0218
 2610TIP3    H1 7773   7.192   5.163   6.085  0.2296 -0.1417  0.2723
 2610TIP3    H2 7774   7.050   5.215   6.095  0.3532  0.4784 -0.9611
 2611TIP3   OH2 7775   4.085   5.429   5.304 -1.0420 -0.0039 -0.7752
 2611TIP3    H1 7776   4.162   5.396   5.351 -1.5373  0.9471  0.7842
 2611TIP3    H2 7777   4.098   5.524   5.301 -1.8837  0.1082 -0.9966
 2612TIP3   OH2 7778   2.648   7.795   6.353  0.2218 -0.3845  0.2645
 2612TIP3    H1 7779   2.694   7.820   6.433  0.9413  0.4767 -0.3897
 2612TIP3    H2 7780   2.647   7.699   6.354 -1.5503 -0.3998  2.2601
 2613TIP3   OH2 7781   4.459   2.957   5.512  0.1128 -0.0188 -0.3954
 2613TIP3    H1 7782   4.529   3.002   5.558  1.0759  0.2074 -2.0254
 2613TIP3    H2 7783   4.381   2.974   5.565  1.2035 -0.0529  1.3101
 2614TIP3   OH2 7784   0.551   4.342   1.405  0.0665 -0.1123  0.1806
 2614TIP3    H1 7785   0.505   4.426   1.408  1.0237  0.4271  0.0675
 2614TIP3    H2 7786   0.489   4.283   1.364 -0.1481  0.8727 -0.9752
 2615TIP3   OH2 7787   2.031   0.498   2.385  0.3890  0.3259 -0.3357
 2615TIP3    H1 7788   2.024   0.593   2.374 -0.7611  0.2861 -0.1674
 2615TIP3    H2 7789   2.124   0.479   2.379  0.6201  1.4518 -0.5040
 2616TIP3   OH2 7790   6.863   4.213   5.401  0.2210 -0.0305  0.1297
 2616TIP3    H1 7791   6.885   4.178   5.487  0.2026  2.2706  1.1393
 2616TIP3    H2 7792   6.768   4.227   5.405  0.4362  1.5642  0.3763
 2617TIP3   OH2 7793   2.197   7.415   5.340 -0.5066 -0.0387 -0.2661
 2617TIP3    H1 7794   2.164   7.489   5.288 -0.7960  0.1970  0.2472
 2617TIP3    H2 7795   2.131   7.402   5.408 -0.0342 -0.2197  0.1633
 2618TIP3   OH2 7796   6.130   3.737   1.524 -0.0873  0.3612  0.2331
 2618TIP3    H1 7797   6.039   3.714   1.543 -0.1648  0.6999  0.2790
 2618TIP3    H2 7798   6.124   3.802   1.454  0.1061  0.5788  0.4165
 2619TIP3   OH2 7799   2.106   0.197   0.541  0.0820  0.7551  0.0882
 2619TIP3    H1 7800   2.024   0.178   0.586 -1.3577  2.4154 -1.6756
 2619TIP3    H2 7801   2.091   0.167   0.451  1.8067  0.1496 -0.0241
 2620TIP3   OH2 7802   5.416   0.904   4.536  0.0067  0.1046  0.6437
 2620TIP3    H1 7803   5.476   0.867   4.601 -0.2056 -0.2596  0.6336
 2620TIP3    H2 7804   5.469   0.917   4.458  0.1965  0.2795  0.8022
 2621TIP3   OH2 7805   2.671   6.372   1.846 -0.1494 -0.0757  0.3034
 2621TIP3    H1 7806   2.727   6.308   1.802  1.1892  0.3610  1.2894
 2621TIP3    H2 7807   2.728   6.447   1.862 -0.8905  0.2183  1.7388
 2622TIP3   OH2 7808   7.551   2.843   0.027  0.4680 -0.0512  0.3701
 2622TIP3    H1 7809   7.540   2.792   0.108  0.3064 -0.0577  0.3443
 2622TIP3    H2 7810   7.520   2.785  -0.042  0.0871  0.1558  0.3625
 2623TIP3   OH2 7811   4.509   3.797   2.997  0.1340 -0.3918 -0.5238
 2623TIP3    H1 7812   4.451   3.755   3.061  0.7633 -0.3289  0.0919
 2623TIP3    H2 7813   4.463   3.877   2.972 -1.3706 -1.6559 -2.1508
 2624TIP3   OH2 7814   3.378   7.758   1.154  0.3154 -0.5031  0.7990
 2624TIP3    H1 7815   3.336   7.841   1.128  0.8731 -0.5485 -0.3223
 2624TIP3    H2 7816   3.328   7.728   1.229  2.0974  2.5247  3.4264
 2625TIP3   OH2 7817   1.592   3.352   6.681  0.1550  0.2278 -0.1435
 2625TIP3    H1 7818   1.668   3.316   6.728  0.7903  0.4441 -0.9824
 2625TIP3    H2 7819   1.524   3.359   6.748  0.4139 -1.3219  0.3142
 2626TIP3   OH2 7820   1.790   1.256   1.797 -0.1818  0.2150  0.3359
 2626TIP3    H1 7821   1.783   1.307   1.878  0.3939 -1.2718  1.3513
 2626TIP3    H2 7822   1.871   1.286   1.757 -0.0791  0.4071  0.6857
 2627TIP3   OH2 7823   3.629   3.889   1.605 -0.1206 -0.1978  0.2332
 2627TIP3    H1 7824   3.707   3.943   1.621 -0.2801 -0.0441  0.5063
 2627TIP3    H2 7825   3.576   3.901   1.684 -0.3764 -0.3768  0.0869
 2628TIP3   OH2 7826   4.710   2.017   3.448  0.3656 -0.4019  0.5513
 2628TIP3    H1 7827   4.664   1.966   3.515 -0.6162 -0.5595 -0.2135
 2628TIP3    H2 7828   4.647   2.025   3.377  1.4666 -0.4503 -0.4622
 2629TIP3   OH2 7829   0.226   3.852   1.619 -0.0688 -0.1174  0.1045
 2629TIP3    H1 7830   0.297   3.884   1.564  0.1683 -0.2709  0.3228
 2629TIP3    H2 7831   0.235   3.901   1.701 -1.2434  1.1329 -0.4565
 2630TIP3   OH2 7832   5.337   6.406   0.624  0.0640  0.0618 -0.3835
 2630TIP3    H1 7833   5.413   6.351   0.607 -0.3530 -0.9613  0.8951
 2630TIP3    H2 7834   5.265   6.343   0.633 -0.2158  0.6885  2.3061
 2631TIP3   OH2 7835   3.414   4.460   2.207  0.0521  0.0491  0.4834
 2631TIP3    H1 7836   3.373   4.538   2.169  0.2525 -0.1154 -0.0829
 2631TIP3    H2 7837   3.505   4.465   2.177  0.6312  0.7495  2.2338
 2632TIP3   OH2 7838   5.421   3.858   0.340  0.1058  0.2276  0.4509
 2632TIP3    H1 7839   5.488   3.893   0.398 -0.2997  2.6260 -0.4103
 2632TIP3    H2 7840   5.369   3.801   0.395  0.8791  0.9242  1.9660
 2633TIP3   OH2 7841   1.062   5.213   3.254 -0.0700  0.5185  0.1609
 2633TIP3    H1 7842   1.138   5.157   3.264 -0.4791 -0.0659  0.0738
 2633TIP3    H2 7843   1.061   5.237   3.162 -0.7740 -0.6463 -0.1666
 2634TIP3   OH2 7844   5.586   1.103   6.110 -0.5616 -0.3632 -0.0364
 2634TIP3    H1 7845   5.567   1.013   6.084 -2.5763  0.2425 -0.8037
 2634TIP3    H2 7846   5.612   1.146   6.029 -2.8499  0.5190 -0.3760
 2635TIP3   OH2 7847   1.316   4.606   1.237 -0.1077  0.3397 -0.4508
 2635TIP3    H1 7848   1.319   4.585   1.331 -0.6962 -1.5955 -0.8199
 2635TIP3    H2 7849   1.407   4.602   1.208 -0.0007  0.2769 -0.1086
 2636TIP3   OH2 7850   7.747   1.932   4.177  0.3982  0.5724 -0.1915
 2636TIP3    H1 7851   7.654   1.913   4.168  1.1457 -2.7463 -3.2321
 2636TIP3    H2 7852   7.759   2.016   4.132 -0.8570 -0.0745 -1.7994
 2637TIP3   OH2 7853   4.761   5.464   3.367 -0.6130 -0.1978  0.1262
 2637TIP3    H1 7854   4.850   5.451   3.333 -1.2519 -0.1650 -1.6984
 2637TIP3    H2 7855   4.730   5.375   3.387 -0.5930 -0.3379 -0.4372
 2638TIP3   OH2 7856   7.008   3.422   2.689  0.4863 -0.0828  0.0143
 2638TIP3    H1 7857   7.086   3.464   2.652  0.7756  1.3000  2.0724
 2638TIP3    H2 7858   6.972   3.372   2.616  1.7777  1.4129 -1.7566
 2639TIP3   OH2 7859   3.948   0.574   6.491 -0.5453 -0.4914 -0.0814
 2639TIP3    H1 7860   4.020   0.553   6.551  0.0718 -0.5528 -0.8377
 2639TIP3    H2 7861   3.938   0.495   6.438 -1.2801 -0.5377  0.1214
 2640TIP3   OH2 7862   4.097   2.028   1.422  0.5176 -0.0070  0.3138
 2640TIP3    H1 7863   4.110   2.074   1.505 -0.9314 -1.0161  1.1615
 2640TIP3    H2 7864   4.013   1.982   1.433  1.6831 -2.5721 -0.5627
 2641TIP3   OH2 7865   1.744   2.550   3.447  0.3950  0.6809 -0.6080
 2641TIP3    H1 7866   1.755   2.459   3.475  1.1622  0.6223 -1.0701
 2641TIP3    H2 7867   1.828   2.573   3.408 -0.2906  1.0732 -1.9422
 2642TIP3   OH2 7868   0.361   7.799   2.850  0.4320 -0.4892 -0.1819
 2642TIP3    H1 7869   0.332   7.786   2.941 -1.3223  1.0081 -0.4761
 2642TIP3    H2 7870   0.413   7.879   2.853 -1.3892  0.7750 -0.7875
 2643TIP3   OH2 7871   7.817   6.837   6.405  0.0484 -0.0266 -0.2224
 2643TIP3    H1 7872   7.799   6.921   6.449 -3.2218 -1.6359  1.9160
 2643TIP3    H2 7873   7.901   6.809   6.441  0.4456  1.5798  0.1963
 2644TIP3   OH2 7874   0.733   5.090   0.517  0.6743  0.8907 -0.2257
 2644TIP3    H1 7875   0.765   5.019   0.462  0.9929  0.5211  0.4310
 2644TIP3    H2 7876   0.768   5.169   0.475  1.8813  0.5378  0.0811
 2645TIP3   OH2 7877   6.933   6.559   0.218  0.1262  0.0466 -0.1229
 2645TIP3    H1 7878   7.025   6.533   0.216 -0.5572 -2.6197  0.0166
 2645TIP3    H2 7879   6.920   6.592   0.307  0.1170 -3.2618  1.2392
 2646TIP3   OH2 7880   1.354   4.513   4.960 -0.2780 -0.4180  0.5441
 2646TIP3    H1 7881   1.379   4.420   4.965  0.6815 -0.2809 -0.9070
 2646TIP3    H2 7882   1.398   4.545   4.881 -0.2420  1.3883  1.2457
 2647TIP3   OH2 7883   3.651   3.345   6.561 -0.1087  0.1045  0.0425
 2647TIP3    H1 7884   3.638   3.255   6.589 -0.4470  0.7120  1.9505
 2647TIP3    H2 7885   3.675   3.393   6.640  0.0536  1.7081 -0.9142
 2648TIP3   OH2 7886   5.007   0.497   2.617  0.1666  0.2049 -0.1745
 2648TIP3    H1 7887   4.962   0.469   2.697 -0.7854  1.4645 -0.2389
 2648TIP3    H2 7888   5.077   0.432   2.605 -1.2817 -1.5044  0.2159
 2649TIP3   OH2 7889   5.342   0.290   2.045  0.2477 -0.0314 -0.0259
 2649TIP3    H1 7890   5.285   0.224   2.084  0.4061 -0.9419 -1.2453
 2649TIP3    H2 7891   5.347   0.265   1.953  0.8861  1.2953 -0.3752
 2650TIP3   OH2 7892   7.746   2.578   4.763  0.3581 -0.6354 -0.4678
 2650TIP3    H1 7893   7.703   2.492   4.764  2.5663 -1.8228 -0.4606
 2650TIP3    H2 7894   7.826   2.564   4.712  0.3682  1.6742 -1.2190
 2651TIP3   OH2 7895   7.970   0.810   6.000 -0.5415 -0.0951  0.4767
 2651TIP3    H1 7896   7.998   0.901   5.995 -0.6404 -0.1162 -0.7120
 2651TIP3    H2 7897   8.001   0.780   6.086 -0.0699  0.9024  0.6687
 2652TIP3   OH2 7898   5.069   7.505   0.074 -0.3373  0.2023  0.3500
 2652TIP3    H1 7899   5.038   7.495   0.163 -3.4739 -2.1719 -0.8400
 2652TIP3    H2 7900   4.991   7.526   0.023  1.1605  0.4107 -2.0226
 2653TIP3   OH2 7901   1.388   3.931   5.858  0.0747 -0.2851  0.0818
 2653TIP3    H1 7902   1.452   3.861   5.851 -2.0744 -2.3218 -0.4350
 2653TIP3    H2 7903   1.414   3.995   5.792  2.9037  0.1976  1.5183
 2654TIP3   OH2 7904   3.135   2.693   0.693 -0.1075 -0.0548  0.3436
 2654TIP3    H1 7905   3.211   2.749   0.677  0.2669 -0.4660  0.6576
 2654TIP3    H2 7906   3.080   2.704   0.616  0.0835  0.5527  0.2916
 2655TIP3   OH2 7907   2.099   5.626   1.262 -0.2237  0.0998  0.0544
 2655TIP3    H1 7908   2.121   5.711   1.223 -0.3434  0.0530 -0.1196
 2655TIP3    H2 7909   2.171   5.568   1.235 -0.2595  0.0901 -0.0213
 2656TIP3   OH2 7910   7.250   6.230   3.795  0.0685  0.4211 -0.2750
 2656TIP3    H1 7911   7.345   6.239   3.798  0.0193  0.6132  1.2432
 2656TIP3    H2 7912   7.217   6.319   3.795 -0.1156  0.3555 -0.0193
 2657TIP3   OH2 7913   1.549   7.298   6.366  0.4115  0.0751  0.1908
 2657TIP3    H1 7914   1.638   7.307   6.332  0.7858 -2.6712  0.2653
 2657TIP3    H2 7915   1.495   7.286   6.288  0.4422 -0.4498  0.2453
 2658TIP3   OH2 7916   7.298   7.496   2.137 -0.0334 -0.0415 -0.0863
 2658TIP3    H1 7917   7.328   7.579   2.175 -0.8006  0.4790 -0.5805
 2658TIP3    H2 7918   7.320   7.430   2.203 -0.1015  0.6556  0.6549
 2659TIP3   OH2 7919   3.561   6.895   4.906 -0.2693  0.3000 -0.5046
 2659TIP3    H1 7920   3.475   6.924   4.936  0.0556 -1.0955  2.0670
 2659TIP3    H2 7921   3.614   6.975   4.906 -0.6037  0.5851  1.7159
 2660TIP3   OH2 7922   1.274   0.121   0.146 -0.3732  0.3242  0.5004
 2660TIP3    H1 7923   1.251   0.033   0.114 -0.5894  0.6587 -0.2875
 2660TIP3    H2 7924   1.235   0.180   0.082  1.8752  0.9508 -0.3695
 2661TIP3   OH2 7925   5.661   7.726   2.939  0.7885  0.0465 -0.2598
 2661TIP3    H1 7926   5.593   7.792   2.929 -0.9590 -1.8781 -1.9330
 2661TIP3    H2 7927   5.690   7.735   3.030 -0.9436  1.6247  0.2017
 2662TIP3   OH2 7928   5.814   0.371   5.338  0.0839  0.4633 -0.7627
 2662TIP3    H1 7929   5.883   0.437   5.331  0.6503 -0.0712 -0.2998
 2662TIP3    H2 7930   5.751   0.396   5.270  0.9397  0.7001 -1.4960
 2663TIP3   OH2 7931   2.197   1.770   5.402  0.8060 -0.5711  0.3681
 2663TIP3    H1 7932   2.285   1.761   5.437  1.3646  0.0131 -0.8278
 2663TIP3    H2 7933   2.209   1.779   5.308 -0.6180 -1.7640  0.0257
 2664TIP3   OH2 7934   7.928   0.849   4.089  0.0399 -0.4606  0.1131
 2664TIP3    H1 7935   7.902   0.934   4.124  0.1802 -0.5949  0.5524
 2664TIP3    H2 7936   7.993   0.869   4.022 -1.3436 -0.1048 -1.1756
 2665TIP3   OH2 7937   7.847   0.923   5.796 -0.0313  0.4968  0.6408
 2665TIP3    H1 7938   7.771   0.875   5.763 -0.9935  0.4771  2.7299
 2665TIP3    H2 7939   7.889   0.863   5.857  0.9541  0.9741  0.4477
 2666TIP3   OH2 7940   2.260   6.617   0.293  0.1839  0.5357  0.2823
 2666TIP3    H1 7941   2.321   6.601   0.364 -0.3336  1.0187  0.8442
 2666TIP3    H2 7942   2.313   6.655   0.223  0.7345 -0.1469  0.3203
 2667TIP3   OH2 7943   7.117   5.149   2.351 -0.6858 -0.0124 -0.4634
 2667TIP3    H1 7944   7.112   5.226   2.408  2.5610  1.1164 -1.4816
 2667TIP3    H2 7945   7.103   5.184   2.263 -0.1485 -0.7677 -0.8523
 2668TIP3   OH2 7946   4.753   1.087   3.933  0.1157 -0.4655 -0.2750
 2668TIP3    H1 7947   4.806   1.072   3.855  0.9148 -1.6538  0.4598
 2668TIP3    H2 7948   4.712   1.172   3.918  0.3255 -0.6154 -1.9342
 2669TIP3   OH2 7949   6.007   4.422   1.973  0.0113  0.1305  0.2867
 2669TIP3    H1 7950   5.937   4.473   1.932  0.7323  0.5221 -0.4881
 2669TIP3    H2 7951   6.024   4.466   2.056 -1.9129 -1.0453  1.3911
 2670TIP3   OH2 7952   0.586   6.377   6.458 -0.0549  0.8031 -1.1262
 2670TIP3    H1 7953   0.644   6.438   6.411 -0.3871  2.1878  0.1902
 2670TIP3    H2 7954   0.567   6.421   6.541 -0.5422 -1.0002 -0.2364
 2671TIP3   OH2 7955   3.457   6.092   6.752  0.5276  0.5411  0.0218
 2671TIP3    H1 7956   3.423   6.161   6.695  0.8004 -0.5315 -1.5086
 2671TIP3    H2 7957   3.552   6.096   6.740  0.5101 -0.4565 -0.5452
 2672TIP3   OH2 7958   1.714   1.546   2.753 -0.1611 -0.1107  0.1969
 2672TIP3    H1 7959   1.741   1.616   2.813  0.8216 -0.6288  0.3923
 2672TIP3    H2 7960   1.729   1.582   2.666  0.6652 -0.1815  0.3001
 2673TIP3   OH2 7961   4.996   2.522   2.528 -0.3827  0.1298 -0.3348
 2673TIP3    H1 7962   5.024   2.590   2.466 -1.2255  0.7068 -0.1079
 2673TIP3    H2 7963   5.025   2.553   2.613  1.1231 -0.8552 -0.4588
 2674TIP3   OH2 7964   4.434   0.367   3.954 -0.2795 -0.0727  0.7248
 2674TIP3    H1 7965   4.505   0.419   3.993 -1.0113 -1.2553  3.9580
 2674TIP3    H2 7966   4.368   0.432   3.929  0.3795  0.7863  1.1421
 2675TIP3   OH2 7967   7.447   0.658   5.069  0.0071 -0.3473  0.2577
 2675TIP3    H1 7968   7.399   0.576   5.085  0.3400 -0.4739  0.6115
 2675TIP3    H2 7969   7.389   0.708   5.011 -1.0288 -0.0623  1.5010
 2676TIP3   OH2 7970   1.177   5.339   6.772 -0.4516 -0.4620 -0.1211
 2676TIP3    H1 7971   1.167   5.431   6.748 -2.2874 -0.9582 -1.5143
 2676TIP3    H2 7972   1.222   5.300   6.697 -1.3398 -1.0093 -0.3858
 2677TIP3   OH2 7973   7.200   3.579   1.966  0.9329  0.1196 -0.1866
 2677TIP3    H1 7974   7.141   3.652   1.985  3.1104  2.0180 -0.2384
 2677TIP3    H2 7975   7.163   3.504   2.013 -0.2006  1.8044  1.7295
 2678TIP3   OH2 7976   7.405   6.454   1.923  0.1434  0.4133 -0.1150
 2678TIP3    H1 7977   7.481   6.451   1.866  1.2497  2.8668  1.0785
 2678TIP3    H2 7978   7.371   6.544   1.913  0.4158  0.9706  3.0281
 2679TIP3   OH2 7979   7.684   5.694   5.026  0.0551  0.6833  0.3688
 2679TIP3    H1 7980   7.628   5.771   5.032  0.4548  1.0469 -0.4078
 2679TIP3    H2 7981   7.773   5.729   5.022  0.1617  0.2891 -1.6956
 2680TIP3   OH2 7982   4.203   3.395   0.257 -0.6311  0.6517  0.1113
 2680TIP3    H1 7983   4.215   3.363   0.346 -3.0024 -0.7742 -0.0022
 2680TIP3    H2 7984   4.208   3.317   0.202  3.0663  1.7149 -1.4167
 2681TIP3   OH2 7985   0.226   7.459   5.063  0.7399 -0.0596  0.6636
 2681TIP3    H1 7986   0.283   7.407   5.007  0.8181 -0.2395  0.9124
 2681TIP3    H2 7987   0.283   7.492   5.132  1.1134  1.8808 -0.4763
 2682TIP3   OH2 7988   2.399   0.514   5.583 -0.2877  0.0991 -0.1631
 2682TIP3    H1 7989   2.472   0.466   5.545  0.3186  0.0786  0.9929
 2682TIP3    H2 7990   2.333   0.516   5.514 -0.2870 -2.2785 -0.3266
 2683TIP3   OH2 7991   5.382   1.593   1.583 -0.2043 -0.1013 -0.3075
 2683TIP3    H1 7992   5.330   1.658   1.535 -0.7970  0.1288  0.6153
 2683TIP3    H2 7993   5.321   1.520   1.598  0.3524 -0.7307 -1.0184
 2684TIP3   OH2 7994   2.030   1.798   3.038  0.5702 -0.6111 -0.8409
 2684TIP3    H1 7995   1.995   1.810   2.950 -2.0307  1.0817  0.2910
 2684TIP3    H2 7996   2.080   1.878   3.056 -0.3831 -0.1268 -0.2195
 2685TIP3   OH2 7997   8.103   5.144   3.787  0.4040  0.2769  0.5383
 2685TIP3    H1 7998   8.018   5.158   3.829  0.0333  0.1551 -0.1578
 2685TIP3    H2 7999   8.124   5.052   3.807 -1.3472 -0.8567 -2.2497
 2686TIP3   OH2 8000   6.272   0.346   0.623  0.0913 -0.2091  0.0303
 2686TIP3    H1 8001   6.312   0.381   0.543  0.8437  0.7495  0.8038
 2686TIP3    H2 8002   6.347   0.325   0.679 -0.3750 -2.1809 -0.0239
 2687TIP3   OH2 8003   8.111   1.287   3.112 -0.1669 -0.2986  0.0180
 2687TIP3    H1 8004   8.156   1.218   3.062 -0.1239  0.4653 -1.0371
 2687TIP3    H2 8005   8.110   1.362   3.053  0.8855  1.0247  1.5994
 2688TIP3   OH2 8006   6.095   5.196   2.174  0.0030 -0.0214  0.6606
 2688TIP3    H1 8007   6.143   5.114   2.175  1.6576  0.8962  1.6710
 2688TIP3    H2 8008   6.141   5.251   2.238 -1.7790  1.2783  0.9011
 2689TIP3   OH2 8009   6.525   1.274   5.012  0.2269 -0.0969 -0.1906
 2689TIP3    H1 8010   6.471   1.196   5.011  1.3167 -0.8672 -0.8237
 2689TIP3    H2 8011   6.480   1.337   4.956  0.0987 -0.8061 -0.8860
 2690TIP3   OH2 8012   3.236   3.029   1.450 -0.1945 -0.5168 -0.1260
 2690TIP3    H1 8013   3.168   2.983   1.402 -1.1934  0.7153  0.0659
 2690TIP3    H2 8014   3.308   3.039   1.388 -0.7077 -0.6703 -0.7497
 2691TIP3   OH2 8015   4.126   0.649   5.715  0.3511  0.6550  0.1087
 2691TIP3    H1 8016   4.147   0.615   5.628  0.8408  0.6991  0.2037
 2691TIP3    H2 8017   4.178   0.595   5.774 -0.3046  0.3479  0.4109
 2692TIP3   OH2 8018   1.980   3.801   0.761 -0.5141 -0.2694 -0.1938
 2692TIP3    H1 8019   1.939   3.753   0.833 -0.0223 -0.4170 -0.0082
 2692TIP3    H2 8020   2.069   3.766   0.757 -0.5376 -0.2527 -0.8676
 2693TIP3   OH2 8021   3.243   0.887   1.758 -0.3064  0.5454  0.7370
 2693TIP3    H1 8022   3.270   0.796   1.748  0.1527  0.7606 -0.1312
 2693TIP3    H2 8023   3.208   0.893   1.847  2.1390  0.1645  1.7873
 2694TIP3   OH2 8024   4.232   1.695   3.988  0.4627 -0.1702  0.1513
 2694TIP3    H1 8025   4.231   1.763   4.055 -1.8034  0.0773 -0.0317
 2694TIP3    H2 8026   4.166   1.632   4.016  0.5010 -0.8223 -1.1089
 2695TIP3   OH2 8027   5.829   1.122   1.650  0.3364 -0.1863 -0.5332
 2695TIP3    H1 8028   5.871   1.039   1.627 -0.9426 -0.3931 -2.2540
 2695TIP3    H2 8029   5.737   1.100   1.665 -0.2211  1.0272 -1.9143
 2696TIP3   OH2 8030   1.937   7.224   3.611  0.1734 -0.1734  0.5970
 2696TIP3    H1 8031   1.997   7.290   3.576  1.4945 -2.5816 -2.1064
 2696TIP3    H2 8032   1.853   7.244   3.572  0.2238  0.7069  0.9329
 2697TIP3   OH2 8033   6.150   2.984   0.524  0.2304 -0.7384 -0.3770
 2697TIP3    H1 8034   6.160   3.079   0.535  0.9629 -0.8067 -0.4145
 2697TIP3    H2 8035   6.224   2.947   0.572 -0.4481 -1.3297  0.2366
 2698TIP3   OH2 8036   8.095   5.905   2.611  0.0379 -0.0242  0.1490
 2698TIP3    H1 8037   8.151   5.839   2.570 -1.5767 -1.2497 -0.1796
 2698TIP3    H2 8038   8.147   5.940   2.683  0.4922 -2.5617  1.1282
 2699TIP3   OH2 8039   2.023   7.403   1.888 -0.0884 -0.1589  0.0715
 2699TIP3    H1 8040   2.009   7.393   1.794  1.5533 -1.6698 -0.0598
 2699TIP3    H2 8041   2.063   7.320   1.916 -1.4614 -0.1586  2.3049
 2700TIP3   OH2 8042   1.621   3.741   2.766  0.1762 -0.6013  0.7381
 2700TIP3    H1 8043   1.650   3.786   2.686 -0.2532 -0.5010  0.6387
 2700TIP3    H2 8044   1.543   3.789   2.793 -0.2280 -1.2293  0.6903
 2701TIP3   OH2 8045   4.606   6.744   4.038  0.2240  0.0360  0.4234
 2701TIP3    H1 8046   4.579   6.652   4.038  0.1506  0.0374  1.8947
 2701TIP3    H2 8047   4.527   6.792   4.064  0.5579  0.3988  0.7932
 2702TIP3   OH2 8048   0.096   5.619   4.748 -0.4680 -0.1553 -0.4948
 2702TIP3    H1 8049   0.087   5.648   4.839 -1.0291 -1.6996 -0.0301
 2702TIP3    H2 8050   0.149   5.687   4.706  0.3197  0.2778  1.1392
 2703TIP3   OH2 8051   3.761   7.713   6.651 -0.3529 -0.0429 -0.2864
 2703TIP3    H1 8052   3.811   7.642   6.690  1.5272  1.3089 -0.1040
 2703TIP3    H2 8053   3.728   7.764   6.725 -1.4518 -0.5439 -0.4169
 2704TIP3   OH2 8054   7.775   3.897   6.211 -0.4036 -0.1723 -0.0654
 2704TIP3    H1 8055   7.868   3.892   6.188 -0.0103 -1.3189  1.6458
 2704TIP3    H2 8056   7.761   3.989   6.235  0.4917 -0.1692  0.4702
 2705TIP3   OH2 8057   0.547   4.267   1.030 -0.1573 -0.0949 -0.0796
 2705TIP3    H1 8058   0.592   4.339   1.075  2.9369 -2.0177  0.1929
 2705TIP3    H2 8059   0.617   4.205   1.008 -2.3036 -1.8065 -2.6966
 2706TIP3   OH2 8060   3.899   6.412   6.167  0.0802  0.0683  0.0863
 2706TIP3    H1 8061   3.808   6.385   6.181  0.2338 -1.0295 -0.8867
 2706TIP3    H2 8062   3.948   6.373   6.239 -0.2603  0.9628  0.8164
 2707TIP3   OH2 8063   6.496   4.307   3.506 -0.1470  0.0492  0.1014
 2707TIP3    H1 8064   6.485   4.222   3.463  1.9743 -0.3799  0.3125
 2707TIP3    H2 8065   6.466   4.370   3.441 -0.6896 -0.7862 -0.4890
 2708TIP3   OH2 8066   2.680   5.521   4.413 -0.0281  0.2135  0.4435
 2708TIP3    H1 8067   2.700   5.560   4.328  0.7508 -2.3806 -0.6588
 2708TIP3    H2 8068   2.587   5.500   4.408  0.0331 -0.0036  0.2011
 2709TIP3   OH2 8069   4.166   4.104   0.849  0.3732  0.8666  0.0748
 2709TIP3    H1 8070   4.198   4.179   0.799  0.7028 -0.5730 -2.0083
 2709TIP3    H2 8071   4.073   4.098   0.827  0.0862  1.2568  1.0921
 2710TIP3   OH2 8072   8.056   0.706   2.852  0.4526 -0.0069  0.2218
 2710TIP3    H1 8073   8.151   0.692   2.862  0.7311  1.8676  0.4182
 2710TIP3    H2 8074   8.041   0.701   2.758  0.7361 -0.3172  0.1882
 2711TIP3   OH2 8075   7.374   6.448   1.414  0.1916  0.0243  0.0713
 2711TIP3    H1 8076   7.430   6.492   1.478 -1.0567  2.1227 -0.1912
 2711TIP3    H2 8077   7.317   6.392   1.467 -2.0861  3.0943  1.1857
 2712TIP3   OH2 8078   0.533   2.091   4.370 -0.4717 -0.0054 -0.4792
 2712TIP3    H1 8079   0.440   2.092   4.393 -0.3924 -0.5146 -0.1280
 2712TIP3    H2 8080   0.555   1.998   4.366  0.7404  0.0579  2.3718
 2713TIP3   OH2 8081   3.340   5.002   2.320  0.6048 -0.5241 -0.6089
 2713TIP3    H1 8082   3.307   4.987   2.409  1.5129  0.5940 -0.0679
 2713TIP3    H2 8083   3.265   5.035   2.272 -0.0297 -1.6117 -0.4159
 2714TIP3   OH2 8084   2.556   7.458   5.017  0.4163  0.2938  0.4579
 2714TIP3    H1 8085   2.562   7.553   5.018  2.1544  0.2281 -0.4982
 2714TIP3    H2 8086   2.613   7.431   4.946  0.1429 -1.4887  0.8676
 2715TIP3   OH2 8087   2.746   6.063   0.639  0.9075  0.2402 -0.1144
 2715TIP3    H1 8088   2.696   5.999   0.691 -1.9212  2.6680  0.4471
 2715TIP3    H2 8089   2.699   6.066   0.555  2.1266  0.3112 -0.8123
 2716TIP3   OH2 8090   0.640   3.324   6.737 -0.1934  0.0075  0.6544
 2716TIP3    H1 8091   0.579   3.254   6.715  1.3283 -0.7142 -1.6785
 2716TIP3    H2 8092   0.620   3.394   6.675  0.8855  0.0325  0.3210
 2717TIP3   OH2 8093   2.263   7.508   4.217  0.1455 -0.0846  0.1666
 2717TIP3    H1 8094   2.213   7.472   4.290  1.1269 -0.1451  0.8169
 2717TIP3    H2 8095   2.285   7.431   4.164 -0.3053 -0.0768 -0.0402
 2718TIP3   OH2 8096   0.696   0.847   0.649 -0.2718  0.6651  0.2174
 2718TIP3    H1 8097   0.775   0.859   0.701 -0.4196 -0.6303  0.7839
 2718TIP3    H2 8098   0.712   0.898   0.569  1.1859  0.3375  0.2679
 2719TIP3   OH2 8099   7.863   5.603   2.946  0.2440  0.3894 -1.0000
 2719TIP3    H1 8100   7.780   5.618   2.900 -0.2001 -1.5429 -0.9251
 2719TIP3    H2 8101   7.840   5.605   3.039  0.5834  1.3738 -0.9308
 2720TIP3   OH2 8102   1.869   7.162   0.095 -0.0164  0.1670 -0.0245
 2720TIP3    H1 8103   1.883   7.249   0.134 -0.6930  0.7349 -0.9962
 2720TIP3    H2 8104   1.828   7.111   0.165  1.2749  0.3217  0.8710
 2721TIP3   OH2 8105   1.921   3.838   3.250 -0.4207  0.2378 -0.1547
 2721TIP3    H1 8106   1.855   3.815   3.316 -1.9820  0.7672 -1.4621
 2721TIP3    H2 8107   2.000   3.856   3.301 -1.4812  0.3543  1.5526
 2722TIP3   OH2 8108   5.208   0.704   0.869 -0.0933 -0.2813 -0.2338
 2722TIP3    H1 8109   5.221   0.647   0.944  1.2158 -0.8720 -0.8719
 2722TIP3    H2 8110   5.276   0.771   0.877  0.9181 -1.0818 -1.5054
 2723TIP3   OH2 8111   0.528   2.920   1.658 -0.2863 -0.4826  0.4128
 2723TIP3    H1 8112   0.617   2.956   1.659 -1.2364  2.1706 -0.0473
 2723TIP3    H2 8113   0.497   2.931   1.747 -0.5625 -0.1887  0.2841
 2724TIP3   OH2 8114   5.671   2.668   5.359 -0.0636  0.4470 -0.4318
 2724TIP3    H1 8115   5.741   2.668   5.294  0.4745 -0.5197  0.1298
 2724TIP3    H2 8116   5.715   2.679   5.443 -0.5385 -0.5671 -0.0368
 2725TIP3   OH2 8117   0.361   6.123   0.805 -0.0313  0.1055 -0.1279
 2725TIP3    H1 8118   0.353   6.055   0.737 -0.3577  0.4983 -0.4882
 2725TIP3    H2 8119   0.279   6.171   0.800  0.0502  0.3020  0.3799
 2726TIP3   OH2 8120   1.411   0.064   2.214  0.0526 -0.9718 -0.8465
 2726TIP3    H1 8121   1.438   0.058   2.305 -2.6020 -0.6324  0.0556
 2726TIP3    H2 8122   1.449   0.146   2.182 -0.8829  0.1117  0.7112
 2727TIP3   OH2 8123   3.302   7.298   2.961  0.3358 -0.0318 -0.2561
 2727TIP3    H1 8124   3.331   7.288   3.052 -1.9165 -1.3590  0.4179
 2727TIP3    H2 8125   3.304   7.392   2.945  1.1747  0.1960  1.0218
 2728TIP3   OH2 8126   6.913   0.924   0.565 -0.0386 -0.8069 -0.5816
 2728TIP3    H1 8127   6.857   0.883   0.631 -0.8134  1.4521  0.2598
 2728TIP3    H2 8128   6.866   0.913   0.483 -0.6649 -0.8278 -0.2231
 2729TIP3   OH2 8129   2.694   3.801   2.612 -1.1069 -0.6033 -0.1247
 2729TIP3    H1 8130   2.698   3.780   2.518  0.2100 -1.4449  0.0859
 2729TIP3    H2 8131   2.780   3.837   2.632 -2.3052  2.3379  0.2072
 2730TIP3   OH2 8132   0.767   0.401   3.728 -0.0353  0.0860 -0.3350
 2730TIP3    H1 8133   0.783   0.481   3.778 -1.3556 -0.9914  1.9936
 2730TIP3    H2 8134   0.686   0.418   3.680 -1.8064 -0.5625  2.1610
 2731TIP3   OH2 8135   5.026   5.419   3.271  0.1880 -0.2519 -0.0126
 2731TIP3    H1 8136   5.070   5.429   3.186 -0.2785  0.2894 -0.1992
 2731TIP3    H2 8137   5.088   5.452   3.335 -0.1352  1.0142 -0.3243
 2732TIP3   OH2 8138   6.638   1.704   6.599  0.4622 -0.0648  0.1930
 2732TIP3    H1 8139   6.706   1.637   6.594 -0.3917 -1.2136  2.3243
 2732TIP3    H2 8140   6.660   1.767   6.530  2.0145 -1.8740 -1.0601
 2733TIP3   OH2 8141   6.862   5.518   4.054  0.2898 -0.4373  0.1909
 2733TIP3    H1 8142   6.952   5.510   4.022 -0.4294  0.1799 -2.1639
 2733TIP3    H2 8143   6.808   5.519   3.975 -1.6423  1.2863  1.4243
 2734TIP3   OH2 8144   4.562   3.890   1.025 -0.3753 -0.2342  0.3974
 2734TIP3    H1 8145   4.564   3.859   0.934 -0.3589 -1.9543  0.9553
 2734TIP3    H2 8146   4.472   3.874   1.053 -0.0425 -0.9868  1.0790
 2735TIP3   OH2 8147   4.906   7.637   5.744 -0.3911 -0.5552 -0.2801
 2735TIP3    H1 8148   4.838   7.631   5.677  0.2747 -1.0894 -0.9202
 2735TIP3    H2 8149   4.938   7.548   5.754 -0.4714 -0.4797  0.7516
 2736TIP3   OH2 8150   1.379   6.132   6.486  0.4144 -0.2780  0.1809
 2736TIP3    H1 8151   1.457   6.174   6.523  0.3752  1.3117 -1.4157
 2736TIP3    H2 8152   1.361   6.181   6.406 -0.2806 -2.7392 -1.2707
 2737TIP3   OH2 8153   4.462   5.765   2.131  0.0114 -0.0406 -0.0408
 2737TIP3    H1 8154   4.487   5.731   2.045 -0.3434 -2.6093  0.7992
 2737TIP3    H2 8155   4.370   5.790   2.120 -0.5189 -1.8361 -0.0730
 2738TIP3   OH2 8156   8.011   2.825   4.241  0.2520 -0.1983 -0.3554
 2738TIP3    H1 8157   7.934   2.813   4.186 -0.2705  2.9478 -0.5095
 2738TIP3    H2 8158   7.977   2.822   4.331  0.2956 -0.7672 -0.3585
 2739TIP3   OH2 8159   6.023   6.595   2.201 -0.4058  0.0339  0.1301
 2739TIP3    H1 8160   6.079   6.619   2.275 -0.1837 -2.2211  0.7860
 2739TIP3    H2 8161   5.935   6.622   2.228  0.1471  2.5985 -0.4368
 2740TIP3   OH2 8162   4.878   1.377   5.016 -0.8293 -0.4810  0.1922
 2740TIP3    H1 8163   4.847   1.398   4.927 -0.7180 -0.5396  0.1399
 2740TIP3    H2 8164   4.924   1.456   5.044 -1.2016 -0.3169  0.3502
 2741TIP3   OH2 8165   0.127   6.298   0.498 -0.2847 -0.4380 -0.2673
 2741TIP3    H1 8166   0.144   6.226   0.438 -0.2043 -1.4644  0.9305
 2741TIP3    H2 8167   0.043   6.275   0.539  0.0675 -0.2128  0.6107
 2742TIP3   OH2 8168   0.540   4.895   0.575  0.3018 -0.1149 -0.0943
 2742TIP3    H1 8169   0.559   4.987   0.557  0.3969 -0.1063  0.0442
 2742TIP3    H2 8170   0.446   4.892   0.588  0.4347  0.1707  1.0559
 2743TIP3   OH2 8171   0.700   3.432   4.596 -0.4027 -0.1220  0.4337
 2743TIP3    H1 8172   0.654   3.503   4.642 -1.2066 -0.1763 -0.2565
 2743TIP3    H2 8173   0.684   3.355   4.651 -1.6999 -0.2685 -0.1054
 2744TIP3   OH2 8174   4.955   1.062   2.667 -0.1779 -0.3741  0.3174
 2744TIP3    H1 8175   5.025   1.058   2.732 -0.6668 -1.2877  0.8096
 2744TIP3    H2 8176   4.968   0.984   2.613 -1.1921 -0.9295  0.8325
 2745TIP3   OH2 8177   3.674   7.694   4.822 -0.1647 -0.2890  0.1581
 2745TIP3    H1 8178   3.762   7.659   4.806  0.7159  1.0836  1.6591
 2745TIP3    H2 8179   3.685   7.789   4.813 -1.2934 -0.0356  1.2060
 2746TIP3   OH2 8180   7.004   3.764   2.002  0.4442 -0.4672  0.6381
 2746TIP3    H1 8181   6.916   3.772   2.038 -0.1587  2.2363 -1.1502
 2746TIP3    H2 8182   6.991   3.738   1.911  1.3631  1.0515  0.0263
 2747TIP3   OH2 8183   6.383   5.384   0.394 -0.8635 -0.1126 -0.7065
 2747TIP3    H1 8184   6.295   5.345   0.394 -0.6617 -0.5973 -1.2058
 2747TIP3    H2 8185   6.403   5.396   0.301 -0.2519 -0.3679 -0.6130
 2748TIP3   OH2 8186   6.109   1.291   2.995  0.4792 -0.1462 -0.4758
 2748TIP3    H1 8187   6.113   1.304   3.090  1.3585 -0.3128 -0.4851
 2748TIP3    H2 8188   6.040   1.226   2.983  1.2587 -1.1143  0.1562
 2749TIP3   OH2 8189   2.672   0.389   5.994 -0.1280 -0.1834  0.4123
 2749TIP3    H1 8190   2.677   0.387   6.089 -1.6347  0.2038  0.5265
 2749TIP3    H2 8191   2.578   0.382   5.974 -0.0480  1.8137 -0.9633
 2750TIP3   OH2 8192   4.056   7.604   4.165  0.2183  0.3301  0.3448
 2750TIP3    H1 8193   4.024   7.694   4.153  0.9321  0.4805 -0.5911
 2750TIP3    H2 8194   3.988   7.561   4.215 -0.3123  1.3001  0.4883
 2751TIP3   OH2 8195   4.030   4.476   3.804  0.3027 -0.2216  0.7173
 2751TIP3    H1 8196   3.985   4.402   3.844 -0.4435  0.3752  1.0039
 2751TIP3    H2 8197   3.993   4.482   3.715 -0.8706  0.8090  1.2422
 2752TIP3   OH2 8198   0.730   6.502   5.847  0.3301  0.1892  0.6148
 2752TIP3    H1 8199   0.676   6.564   5.895 -0.0844  0.4520 -0.1604
 2752TIP3    H2 8200   0.695   6.416   5.870  0.1343  0.3140  0.7792
 2753TIP3   OH2 8201   7.378   0.543   2.880 -0.1393 -0.3926  0.1694
 2753TIP3    H1 8202   7.455   0.594   2.908 -0.3825  0.4473 -0.6409
 2753TIP3    H2 8203   7.372   0.472   2.944  1.5839 -0.7467 -0.0054
 2754TIP3   OH2 8204   2.166   4.821   2.657  0.4141  0.2727 -0.6853
 2754TIP3    H1 8205   2.239   4.866   2.701  0.1789  0.0840 -0.1064
 2754TIP3    H2 8206   2.132   4.887   2.597  0.7723  0.5144 -0.6312
 2755TIP3   OH2 8207   5.756   5.758   3.172 -0.0072  0.1329 -0.6822
 2755TIP3    H1 8208   5.757   5.725   3.082 -1.2095  0.2552 -0.7573
 2755TIP3    H2 8209   5.806   5.839   3.169 -2.1110  1.4972 -1.8301
 2756TIP3   OH2 8210   3.790   6.482   0.917  0.0023 -0.0911 -0.2200
 2756TIP3    H1 8211   3.877   6.498   0.954  0.5319 -0.6795 -1.1798
 2756TIP3    H2 8212   3.755   6.409   0.967 -0.2763  0.6617  0.7010
 2757TIP3   OH2 8213   3.099   6.901   0.379  0.3243 -0.0446  0.0203
 2757TIP3    H1 8214   3.130   6.855   0.301  0.6024 -1.0618  0.7087
 2757TIP3    H2 8215   3.179   6.938   0.418  0.3745 -0.6516  0.5146
 2758TIP3   OH2 8216   0.194   0.945   1.083  0.5698 -0.0184 -0.0637
 2758TIP3    H1 8217   0.173   0.909   0.997 -1.1655 -1.0327  0.7392
 2758TIP3    H2 8218   0.114   0.990   1.111  0.5471 -1.0453  1.6652
 2759TIP3   OH2 8219   5.899   1.371   4.130 -0.1416  0.0279  0.0803
 2759TIP3    H1 8220   5.844   1.301   4.166  0.2074  0.5230  1.6540
 2759TIP3    H2 8221   5.883   1.446   4.187  0.1306  1.0093 -1.0784
 2760TIP3   OH2 8222   1.666   6.867   1.221 -0.0542  0.0280 -0.1864
 2760TIP3    H1 8223   1.584   6.898   1.259 -0.0988 -0.9964  0.5920
 2760TIP3    H2 8224   1.640   6.822   1.141  0.0619  2.4197 -1.6699
 2761TIP3   OH2 8225   4.508   1.134   1.770 -0.0691 -0.1491  0.3273
 2761TIP3    H1 8226   4.550   1.048   1.765 -0.4636 -0.3160 -0.1723
 2761TIP3    H2 8227   4.500   1.163   1.679  2.3776  1.5786  0.5689
 2762TIP3   OH2 8228   7.951   2.372   1.880  0.2228 -0.1145  0.2917
 2762TIP3    H1 8229   7.866   2.346   1.845 -0.0416  2.1190 -0.9044
 2762TIP3    H2 8230   8.004   2.292   1.879 -1.2985 -1.1465 -0.6301
 2763TIP3   OH2 8231   6.594   2.173   4.385  0.0860 -0.5843 -0.5270
 2763TIP3    H1 8232   6.564   2.083   4.395 -1.8413  0.1124  0.4178
 2763TIP3    H2 8233   6.529   2.214   4.329 -1.2587  1.1330  2.0839
 2764TIP3   OH2 8234   0.666   1.755   0.173 -0.0756 -0.0913 -0.2478
 2764TIP3    H1 8235   0.590   1.762   0.231  0.6110  0.7335  0.5817
 2764TIP3    H2 8236   0.645   1.810   0.098  0.1807  1.1455  0.5512
 2765TIP3   OH2 8237   0.904   5.376   1.464 -0.3673 -0.2308  0.3920
 2765TIP3    H1 8238   0.939   5.452   1.418 -1.6884 -0.3837 -0.9141
 2765TIP3    H2 8239   0.875   5.410   1.549  1.2116  0.2359  0.7656
 2766TIP3   OH2 8240   2.726   5.341   0.442 -0.2334  0.0663  0.6500
 2766TIP3    H1 8241   2.639   5.381   0.436 -0.6183 -0.9424 -1.1375
 2766TIP3    H2 8242   2.730   5.280   0.369  0.9784 -1.9177  2.2611
 2767TIP3   OH2 8243   2.973   6.750   2.414  0.2429 -0.1985  0.4343
 2767TIP3    H1 8244   2.976   6.724   2.506  1.1459 -1.1059  0.1633
 2767TIP3    H2 8245   2.892   6.712   2.380  1.3636 -2.4409  0.1331
 2768TIP3   OH2 8246   1.729   3.551   6.545 -0.1406 -0.4261 -0.2734
 2768TIP3    H1 8247   1.664   3.484   6.569 -0.8707  0.0521 -0.8838
 2768TIP3    H2 8248   1.736   3.545   6.450 -0.9623  1.0167 -0.4616
 2769TIP3   OH2 8249   6.503   5.657   6.715 -0.3964 -0.1189 -0.1670
 2769TIP3    H1 8250   6.469   5.661   6.804 -2.1838  0.7894 -0.8383
 2769TIP3    H2 8251   6.576   5.719   6.714 -1.1636  0.8232  0.3656
 2770TIP3   OH2 8252   2.612   1.178   6.312  0.0581 -0.0219  0.0765
 2770TIP3    H1 8253   2.559   1.196   6.390 -1.1546 -1.3453 -0.4031
 2770TIP3    H2 8254   2.688   1.130   6.346 -0.2429 -0.2160  0.4876
 2771TIP3   OH2 8255   6.983   4.436   3.070  0.3720  0.2590  0.5220
 2771TIP3    H1 8256   7.057   4.416   3.012  0.3342  0.9186  0.2320
 2771TIP3    H2 8257   7.017   4.424   3.158  0.4476 -0.7077  0.3768
 2772TIP3   OH2 8258   0.044   6.505   1.850  0.7025 -0.7771  0.0903
 2772TIP3    H1 8259   0.098   6.445   1.799  0.7075 -0.0731 -0.7644
 2772TIP3    H2 8260   0.085   6.591   1.836  0.7264 -0.5744  1.3163
 2773TIP3   OH2 8261   7.960   3.171   4.358  0.6614  0.3950  0.0288
 2773TIP3    H1 8262   7.976   3.110   4.430  1.0594  0.3852 -0.0637
 2773TIP3    H2 8263   7.962   3.258   4.398 -1.5786  0.3094  0.4707
 2774TIP3   OH2 8264   7.791   3.006   2.960 -0.0717 -0.1529  0.3634
 2774TIP3    H1 8265   7.748   2.941   3.015  0.0282 -2.2146 -1.7804
 2774TIP3    H2 8266   7.845   2.953   2.900  0.1676  1.9288 -1.3766
 2775TIP3   OH2 8267   2.060   0.415   2.120 -0.4095 -0.1932 -0.0111
 2775TIP3    H1 8268   2.118   0.340   2.130 -0.9256 -0.6915 -0.6539
 2775TIP3    H2 8269   2.026   0.431   2.207  1.0723  0.4362  0.4924
 2776TIP3   OH2 8270   7.483   5.864   1.014 -0.3409 -0.6566 -0.3301
 2776TIP3    H1 8271   7.470   5.872   0.919  0.7864 -2.2839 -0.6823
 2776TIP3    H2 8272   7.402   5.824   1.046 -0.3683 -0.9619 -0.7650
 2777TIP3   OH2 8273   7.122   7.477   6.278  0.2307  0.1258  0.2488
 2777TIP3    H1 8274   7.205   7.430   6.290 -0.5893 -1.5266 -0.3058
 2777TIP3    H2 8275   7.055   7.412   6.295 -0.9671  1.0836 -0.6559
 2778TIP3   OH2 8276   0.825   1.428   4.867 -0.2420 -0.0357 -0.0137
 2778TIP3    H1 8277   0.827   1.453   4.775  1.1112 -0.0969 -0.0175
 2778TIP3    H2 8278   0.886   1.355   4.874  0.2001  0.4019  1.0428
 2779TIP3   OH2 8279   5.667   7.701   2.470  0.6547  0.0661 -0.0141
 2779TIP3    H1 8280   5.711   7.785   2.473  0.2277  0.2792  0.3778
 2779TIP3    H2 8281   5.665   7.671   2.561 -2.0634  1.1573  0.3814
 2780TIP3   OH2 8282   0.359   1.202   1.862  0.5388  0.3307  0.1997
 2780TIP3    H1 8283   0.295   1.131   1.869  0.0252  0.8572  1.1046
 2780TIP3    H2 8284   0.437   1.161   1.825 -0.2579 -0.3644 -0.7757
 2781TIP3   OH2 8285   3.595   5.062   5.890 -0.6290  0.2530  0.5178
 2781TIP3    H1 8286   3.689   5.074   5.875 -0.7114  1.4496  0.8609
 2781TIP3    H2 8287   3.589   5.041   5.983 -0.5197 -2.4191  0.0068
 2782TIP3   OH2 8288   6.477   4.042   3.382  0.3225 -0.1371  0.4636
 2782TIP3    H1 8289   6.515   4.060   3.296 -0.4549  0.5921  0.2619
 2782TIP3    H2 8290   6.384   4.028   3.365  0.6107 -3.0582  0.7982
 2783TIP3   OH2 8291   7.119   3.476   5.039 -0.4774  0.0391 -0.2957
 2783TIP3    H1 8292   7.176   3.531   4.985 -1.9508 -0.2115 -2.2164
 2783TIP3    H2 8293   7.045   3.533   5.062 -0.0541  0.0263  1.2130
 2784TIP3   OH2 8294   4.131   7.825   2.382 -0.1232  0.2306 -0.0937
 2784TIP3    H1 8295   4.129   7.736   2.418  2.0867  0.2820  0.3198
 2784TIP3    H2 8296   4.158   7.814   2.291 -1.6525  0.3946 -0.5990
 2785TIP3   OH2 8297   3.940   0.607   1.823 -0.1533  0.4071 -0.6229
 2785TIP3    H1 8298   3.940   0.699   1.851 -1.6031  0.8234 -1.8391
 2785TIP3    H2 8299   3.875   0.565   1.879 -0.2734  0.3766 -0.7840
 2786TIP3   OH2 8300   7.776   1.790   0.187  0.2435  0.2571  0.8157
 2786TIP3    H1 8301   7.753   1.876   0.153 -0.4805  0.0983  0.8913
 2786TIP3    H2 8302   7.702   1.734   0.164  1.7916 -0.9914 -1.5633
 2787TIP3   OH2 8303   3.566   4.902   4.565  0.1247 -0.0972 -0.0916
 2787TIP3    H1 8304   3.535   4.887   4.654  1.9031 -1.0752  0.4224
 2787TIP3    H2 8305   3.554   4.818   4.520 -0.8031  0.4016 -0.8066
 2788TIP3   OH2 8306   1.564   2.142   6.770  0.1459 -0.0558 -0.1285
 2788TIP3    H1 8307   1.508   2.216   6.748 -0.1945 -0.3681 -0.3126
 2788TIP3    H2 8308   1.566   2.089   6.690 -1.2728 -1.3141  0.6404
 2789TIP3   OH2 8309   5.652   3.975   3.620  0.0223 -0.2719  0.1227
 2789TIP3    H1 8310   5.686   4.022   3.696 -1.1205 -0.2568  0.6440
 2789TIP3    H2 8311   5.655   3.882   3.645  1.6686 -0.4688 -0.6604
 2790TIP3   OH2 8312   7.808   7.133   2.346 -0.2688 -0.3316  0.6148
 2790TIP3    H1 8313   7.793   7.163   2.256 -1.5861 -0.1247  0.8809
 2790TIP3    H2 8314   7.841   7.043   2.336 -1.7196 -0.8308 -0.0796
 2791TIP3   OH2 8315   0.455   1.613   3.843 -0.1278  0.2966 -0.7125
 2791TIP3    H1 8316   0.460   1.590   3.936 -0.6167  1.7384 -0.3007
 2791TIP3    H2 8317   0.425   1.533   3.800 -1.7976  0.1181  0.6492
 2792TIP3   OH2 8318   5.912   0.859   1.560 -0.0215 -0.3372 -0.1217
 2792TIP3    H1 8319   5.963   0.798   1.508 -0.1037  0.5940 -1.3291
 2792TIP3    H2 8320   5.837   0.808   1.590  0.8586 -1.3222  0.4725
 2793TIP3   OH2 8321   3.187   5.180   1.827  0.3832  0.1751  0.1388
 2793TIP3    H1 8322   3.179   5.274   1.810  0.3509  0.0184 -0.7730
 2793TIP3    H2 8323   3.237   5.147   1.753 -1.3582 -0.8521 -0.6474
 2794TIP3   OH2 8324   4.216   6.122   2.860 -0.1442 -0.1380  0.3114
 2794TIP3    H1 8325   4.235   6.076   2.941  0.7120 -1.6353 -0.6848
 2794TIP3    H2 8326   4.300   6.124   2.813 -0.8844 -0.5154 -1.0954
 2795TIP3   OH2 8327   3.590   5.714   6.399 -0.3576 -0.1702  0.2624
 2795TIP3    H1 8328   3.599   5.719   6.304  1.5750 -1.8274  0.2876
 2795TIP3    H2 8329   3.505   5.672   6.413 -0.4798 -0.2775 -0.7423
 2796TIP3   OH2 8330   6.563   5.386   6.709 -0.1089 -0.0720 -0.1376
 2796TIP3    H1 8331   6.656   5.367   6.716  0.0330  0.1703 -1.2254
 2796TIP3    H2 8332   6.553   5.473   6.748 -0.0960 -0.6082  1.1045
 2797TIP3   OH2 8333   2.539   0.785   5.762 -0.8214  0.1111  0.1623
 2797TIP3    H1 8334   2.612   0.839   5.793 -0.4068  1.6796 -3.1628
 2797TIP3    H2 8335   2.582   0.712   5.717 -1.3734 -0.4965  0.5967
 2798TIP3   OH2 8336   1.081   6.207   0.932 -0.1405 -0.4674  0.5036
 2798TIP3    H1 8337   1.132   6.262   0.992  1.3940 -0.0528 -1.0800
 2798TIP3    H2 8338   1.010   6.264   0.902  0.9094  0.4026 -0.4260
 2799TIP3   OH2 8339   5.605   0.309   2.360 -0.7842  0.5012  0.1654
 2799TIP3    H1 8340   5.657   0.297   2.439  0.9625  2.6812 -0.5455
 2799TIP3    H2 8341   5.665   0.287   2.288 -1.8687  0.0034 -0.6223
 2800TIP3   OH2 8342   6.698   2.472   1.971  1.0385 -0.2462 -0.6709
 2800TIP3    H1 8343   6.647   2.486   1.891  0.5366 -1.2925 -0.5549
 2800TIP3    H2 8344   6.773   2.531   1.963 -0.5664  1.9455 -0.4932
 2801TIP3   OH2 8345   6.480   5.527   2.363 -0.4569  0.1251 -1.0128
 2801TIP3    H1 8346   6.557   5.576   2.333  2.5293 -3.0331  0.7038
 2801TIP3    H2 8347   6.444   5.580   2.433  2.3770  0.2417  0.5102
 2802TIP3   OH2 8348   4.788   6.016   0.028  0.1399 -0.3291 -0.3815
 2802TIP3    H1 8349   4.812   6.109   0.028 -0.3675 -0.1963 -0.1672
 2802TIP3    H2 8350   4.841   5.978  -0.042  1.4438 -0.1641  0.4887
 2803TIP3   OH2 8351   0.278   1.992   1.076  0.1074 -0.4322 -0.2980
 2803TIP3    H1 8352   0.352   2.051   1.063 -0.3300  0.2298  0.1499
 2803TIP3    H2 8353   0.317   1.908   1.101  0.6841  0.7795  3.5491
 2804TIP3   OH2 8354   1.455   5.096   6.181  0.0879  0.3604 -0.1949
 2804TIP3    H1 8355   1.382   5.157   6.188  1.4000  1.9976 -0.1445
 2804TIP3    H2 8356   1.423   5.015   6.221 -0.9023  1.7647  2.0372
 2805TIP3   OH2 8357   7.526   2.008   2.558  0.0152  0.0349 -0.1868
 2805TIP3    H1 8358   7.611   2.010   2.514 -0.1340 -1.1962 -0.5774
 2805TIP3    H2 8359   7.464   1.985   2.489 -0.5325  0.2200  0.2381
 2806TIP3   OH2 8360   6.465   1.102   3.756 -0.1231  0.3009 -0.1852
 2806TIP3    H1 8361   6.468   1.082   3.663 -0.3757 -0.3082 -0.0643
 2806TIP3    H2 8362   6.502   1.190   3.763  1.4102 -0.2751 -0.6702
 2807TIP3   OH2 8363   0.878   2.241   5.537  0.5324 -0.1780  0.6777
 2807TIP3    H1 8364   0.957   2.203   5.574  1.2564  0.8711  0.2433
 2807TIP3    H2 8365   0.843   2.171   5.481  1.2605 -0.5837  0.7077
 2808TIP3   OH2 8366   5.022   1.552   6.102 -0.4597  0.3037  0.4843
 2808TIP3    H1 8367   5.084   1.504   6.048 -1.0528  0.6888 -0.5586
 2808TIP3    H2 8368   4.951   1.491   6.118 -1.0572  0.7029 -0.5646
 2809TIP3   OH2 8369   4.240   4.424   4.170  0.0542 -0.0724 -0.5028
 2809TIP3    H1 8370   4.154   4.466   4.167  1.1941  2.4686  0.0546
 2809TIP3    H2 8371   4.255   4.404   4.262  0.1943 -0.2609 -0.5634
 2810TIP3   OH2 8372   5.927   5.204   3.991  0.1480 -0.3842 -0.3702
 2810TIP3    H1 8373   5.993   5.143   4.022  1.4947  1.1635 -0.0315
 2810TIP3    H2 8374   5.844   5.160   4.005  1.0460 -1.9454  0.2271
 2811TIP3   OH2 8375   7.388   3.839   3.545  1.0461 -0.1978  0.3899
 2811TIP3    H1 8376   7.385   3.875   3.457  2.2892  1.0405  0.8280
 2811TIP3    H2 8377   7.473   3.866   3.580  0.3434 -0.1502  2.1806
 2812TIP3   OH2 8378   6.549   0.085   1.773  0.3126  0.3421  0.4178
 2812TIP3    H1 8379   6.618   0.146   1.800  0.9146 -0.1691  0.0636
 2812TIP3    H2 8380   6.563   0.074   1.679  1.8388 -2.2918  0.8513
 2813TIP3   OH2 8381   4.552   6.922   0.412 -0.1072 -0.1437  0.0292
 2813TIP3    H1 8382   4.471   6.965   0.385  0.1758  1.1047  1.0702
 2813TIP3    H2 8383   4.562   6.945   0.504  1.9406  0.6070 -0.3174
 2814TIP3   OH2 8384   2.858   6.812   4.662  0.3901 -0.0119 -0.1229
 2814TIP3    H1 8385   2.933   6.754   4.648  0.8018  0.3651  0.4517
 2814TIP3    H2 8386   2.793   6.756   4.703  0.3337 -0.3571 -0.6794
 2815TIP3   OH2 8387   7.343   7.483   6.760 -0.3414  0.1797 -0.2350
 2815TIP3    H1 8388   7.275   7.436   6.712  2.4576 -2.0280 -2.4381
 2815TIP3    H2 8389   7.353   7.566   6.712  0.2398 -0.6445 -1.6274
 2816TIP3   OH2 8390   3.795   0.971   4.306  0.3221 -0.1337 -0.3145
 2816TIP3    H1 8391   3.844   0.890   4.293 -1.1751 -0.8975 -1.3584
 2816TIP3    H2 8392   3.779   0.974   4.400 -0.5391 -1.6242 -0.3847
 2817TIP3   OH2 8393   6.374   0.734   2.423  0.3687 -0.2736  0.1600
 2817TIP3    H1 8394   6.350   0.796   2.492  1.2690  0.2394  0.0349
 2817TIP3    H2 8395   6.329   0.767   2.345  0.1853 -0.2464  0.2785
 2818TIP3   OH2 8396   3.699   0.544   0.247  0.4776  0.0156 -0.4678
 2818TIP3    H1 8397   3.622   0.497   0.279  0.6798 -0.9489 -1.3644
 2818TIP3    H2 8398   3.773   0.492   0.277  0.7135 -0.0766 -1.1828
 2819TIP3   OH2 8399   2.857   5.713   1.199 -0.3682  0.2643 -0.2696
 2819TIP3    H1 8400   2.794   5.697   1.129  0.8380  0.8503 -1.5318
 2819TIP3    H2 8401   2.923   5.644   1.188 -0.1537  0.3773  0.2746
 2820TIP3   OH2 8402   3.363   6.745   0.756 -0.3182 -0.0995 -0.2829
 2820TIP3    H1 8403   3.437   6.793   0.718 -0.0663 -0.4037 -0.1827
 2820TIP3    H2 8404   3.403   6.681   0.814 -0.3884 -2.7258 -2.8643
 2821TIP3   OH2 8405   4.607   1.599   2.129  0.3012 -0.1480 -0.2332
 2821TIP3    H1 8406   4.695   1.572   2.156  1.7783  2.1434 -2.3961
 2821TIP3    H2 8407   4.576   1.528   2.073  1.0611 -0.6526 -0.0263
 2822TIP3   OH2 8408   5.453   4.501   0.121 -0.3054  0.5424 -0.1338
 2822TIP3    H1 8409   5.453   4.408   0.144 -1.9396  0.3155 -0.8504
 2822TIP3    H2 8410   5.498   4.504   0.036 -0.7069  0.3104 -0.3617
 2823TIP3   OH2 8411   5.195   3.193   4.944 -0.1486 -0.1851  0.9005
 2823TIP3    H1 8412   5.206   3.099   4.931 -0.7375 -0.2417  0.7480
 2823TIP3    H2 8413   5.100   3.206   4.939 -0.0205  0.5212  0.1565
 2824TIP3   OH2 8414   1.333   2.392   2.764 -0.8163  0.3100  0.2381
 2824TIP3    H1 8415   1.392   2.426   2.832 -0.1599  0.1237 -0.2374
 2824TIP3    H2 8416   1.312   2.469   2.711 -0.9503  0.3620  0.3644
 2825TIP3   OH2 8417   0.631   3.187   5.536 -0.6393 -0.5653  0.0811
 2825TIP3    H1 8418   0.646   3.281   5.541 -0.9466 -0.3629 -1.8848
 2825TIP3    H2 8419   0.635   3.157   5.627 -3.8862  1.8196  1.1785
 2826TIP3   OH2 8420   2.123   0.707   4.480 -0.4709 -0.2958 -0.2311
 2826TIP3    H1 8421   2.073   0.633   4.445  0.5890 -0.9996 -0.2959
 2826TIP3    H2 8422   2.068   0.783   4.460 -3.2802 -1.2611  2.8750
 2827TIP3   OH2 8423   6.782   5.057   1.237 -0.0252  0.1871 -0.1301
 2827TIP3    H1 8424   6.747   5.106   1.312 -2.6803 -0.3533 -0.9102
 2827TIP3    H2 8425   6.826   4.982   1.277 -0.8469  0.2417  0.9400
 2828TIP3   OH2 8426   1.653   0.721   0.475 -0.0141  0.4644  0.1502
 2828TIP3    H1 8427   1.614   0.641   0.510 -1.5382  1.2006  0.2224
 2828TIP3    H2 8428   1.620   0.790   0.532 -0.0495  1.3261 -0.8817
 2829TIP3   OH2 8429   2.206   1.972   4.778  0.1891  0.0332  0.3198
 2829TIP3    H1 8430   2.259   2.038   4.822 -0.8352  0.9733  0.1947
 2829TIP3    H2 8431   2.255   1.951   4.698  0.0328  1.4205 -0.1605
 2830TIP3   OH2 8432   4.075   6.954   4.383 -0.1180  0.3540 -0.0479
 2830TIP3    H1 8433   4.123   6.881   4.422 -0.6287 -0.6295 -1.1669
 2830TIP3    H2 8434   4.133   7.029   4.392  0.3786 -0.1537  1.2342
 2831TIP3   OH2 8435   5.639   3.324   3.204 -0.0832 -0.4204  0.4348
 2831TIP3    H1 8436   5.613   3.401   3.255 -0.6208 -0.0821 -0.3298
 2831TIP3    H2 8437   5.560   3.271   3.198 -0.4541  0.2555 -1.2627
 2832TIP3   OH2 8438   3.820   3.744   2.557 -0.4953  0.8400 -0.2333
 2832TIP3    H1 8439   3.823   3.653   2.530  1.5386  0.4669  1.0586
 2832TIP3    H2 8440   3.785   3.791   2.480 -2.3117 -1.0478 -0.6564
 2833TIP3   OH2 8441   2.393   4.750   4.791 -0.1679  0.0677  0.3443
 2833TIP3    H1 8442   2.301   4.761   4.813 -0.3636  0.1248 -0.4900
 2833TIP3    H2 8443   2.408   4.655   4.798  0.0603  0.1859  1.7946
 2834TIP3   OH2 8444   7.530   1.489   6.456  0.9165  0.1940 -0.4315
 2834TIP3    H1 8445   7.548   1.440   6.536 -0.7972 -0.6150 -0.5134
 2834TIP3    H2 8446   7.467   1.436   6.408 -0.1251  1.9367 -1.0784
 2835TIP3   OH2 8447   1.823   2.152   1.832  0.5303  0.0871  0.9106
 2835TIP3    H1 8448   1.814   2.242   1.800  1.3010 -0.0187  0.3797
 2835TIP3    H2 8449   1.907   2.151   1.878  0.7715 -0.4905  0.4649
 2836TIP3   OH2 8450   8.253   4.156   3.032 -0.0500  0.1791  0.5959
 2836TIP3    H1 8451   8.283   4.145   2.942 -0.1259  1.6986  0.3561
 2836TIP3    H2 8452   8.253   4.251   3.046 -0.4113 -0.0076  2.0715
 2837TIP3   OH2 8453   0.910   0.042   4.821 -0.4444  0.2819  0.2657
 2837TIP3    H1 8454   0.923  -0.041   4.776 -0.5535  0.6961 -0.5552
 2837TIP3    H2 8455   0.816   0.056   4.819 -0.2921  1.4995 -1.6654
 2838TIP3   OH2 8456   5.081   2.588   0.731 -0.3723 -0.5407  0.9424
 2838TIP3    H1 8457   5.163   2.613   0.689 -0.9063  0.2406  0.3264
 2838TIP3    H2 8458   5.013   2.614   0.669 -1.2285  1.2360  2.5217
 2839TIP3   OH2 8459   1.817   6.085   1.499  0.2305 -0.2236  0.3496
 2839TIP3    H1 8460   1.885   6.019   1.486  1.3829  0.6772  1.5207
 2839TIP3    H2 8461   1.849   6.162   1.452 -0.1717  0.0873  0.5790
 2840TIP3   OH2 8462   7.463   4.573   0.912  0.5974  0.2691  0.7131
 2840TIP3    H1 8463   7.485   4.660   0.879 -1.0324  0.2185 -0.6317
 2840TIP3    H2 8464   7.434   4.588   1.001  0.6526  1.0650  0.6059
 2841TIP3   OH2 8465   5.173   4.729   0.878  0.5822  0.0602  0.6388
 2841TIP3    H1 8466   5.258   4.701   0.844  1.1411 -0.3711  2.3258
 2841TIP3    H2 8467   5.187   4.745   0.971 -0.9164  1.1513  0.7237
 2842TIP3   OH2 8468   3.916   2.944   0.066  0.0212 -0.4586 -0.2742
 2842TIP3    H1 8469   3.847   3.005   0.040 -0.0033 -0.9224 -1.3401
 2842TIP3    H2 8470   3.929   2.961   0.160  0.3157  1.4774 -0.6254
 2843TIP3   OH2 8471   0.655   3.470   2.263  0.2823 -0.5264  0.0438
 2843TIP3    H1 8472   0.623   3.546   2.311 -0.6735 -0.2691 -0.9510
 2843TIP3    H2 8473   0.748   3.464   2.286 -0.1906 -0.5782  2.0740
 2844TIP3   OH2 8474   4.528   7.601   4.760 -0.5408  0.0222 -0.1756
 2844TIP3    H1 8475   4.550   7.694   4.748  0.4352 -0.2551 -0.6445
 2844TIP3    H2 8476   4.452   7.587   4.703 -1.1307  0.6878  0.4276
 2845TIP3   OH2 8477   6.283   1.232   1.289 -0.1403  0.8346  0.5152
 2845TIP3    H1 8478   6.360   1.280   1.260 -0.3720  0.6549 -0.4453
 2845TIP3    H2 8479   6.242   1.289   1.354  0.4062  1.2483  0.5015
 2846TIP3   OH2 8480   6.118   7.098   3.387  0.4975 -0.3375 -0.1882
 2846TIP3    H1 8481   6.117   7.050   3.304 -0.4506 -1.5272  0.4752
 2846TIP3    H2 8482   6.035   7.075   3.429  1.0780  0.0168  1.2166
 2847TIP3   OH2 8483   1.813   4.373   4.988  0.2768  0.3366 -0.2203
 2847TIP3    H1 8484   1.807   4.293   4.935 -0.6610 -0.1392  0.5753
 2847TIP3    H2 8485   1.755   4.357   5.062  0.9225  1.3373  0.5179
 2848TIP3   OH2 8486   2.626   7.527   6.423 -0.4346 -0.3052  0.1442
 2848TIP3    H1 8487   2.605   7.589   6.494  0.6132  0.8772 -0.5414
 2848TIP3    H2 8488   2.574   7.449   6.444 -1.0292  0.4278  1.5866
 2849TIP3   OH2 8489   6.381   0.707   0.538 -0.2961 -0.1089 -0.2266
 2849TIP3    H1 8490   6.359   0.648   0.466 -0.9414  2.0343 -1.8782
 2849TIP3    H2 8491   6.344   0.664   0.615 -0.7407 -1.8394 -1.3247
 2850TIP3   OH2 8492   7.997   6.851   0.764  0.1478  0.1210  0.2139
 2850TIP3    H1 8493   7.942   6.779   0.796  0.7060 -0.1647  0.5416
 2850TIP3    H2 8494   8.071   6.808   0.722 -0.0199  0.5046 -0.4799
 2851TIP3   OH2 8495   6.802   6.736   5.577 -0.2991  0.3964  0.1096
 2851TIP3    H1 8496   6.791   6.645   5.602  1.1524  0.0832 -0.3250
 2851TIP3    H2 8497   6.872   6.736   5.513  0.9727  2.0089  1.3943
 2852TIP3   OH2 8498   6.226   6.046   3.639  0.4588 -0.3729 -0.0262
 2852TIP3    H1 8499   6.185   6.129   3.662 -1.4174 -0.8689 -1.3000
 2852TIP3    H2 8500   6.226   5.995   3.720 -2.5078 -0.7258 -0.1482
 2853TIP3   OH2 8501   7.911   1.423   1.029  0.0007  0.1624 -0.0745
 2853TIP3    H1 8502   7.851   1.349   1.022 -0.7426  0.8457 -1.3362
 2853TIP3    H2 8503   7.853   1.500   1.035  0.7473  0.7300 -0.0096
 2854TIP3   OH2 8504   1.183   2.610   5.814 -0.3417  0.6252  1.0311
 2854TIP3    H1 8505   1.229   2.528   5.799  0.4550  1.0634  1.0355
 2854TIP3    H2 8506   1.102   2.585   5.859 -0.2994 -0.1889  0.6723
 2855TIP3   OH2 8507   6.527   5.593   3.106  0.1367  0.0238  0.9944
 2855TIP3    H1 8508   6.470   5.648   3.052  0.3733  1.2944  1.9799
 2855TIP3    H2 8509   6.580   5.545   3.043 -0.3956  0.5833  0.0873
 2856TIP3   OH2 8510   0.765   5.891   3.792  0.4271  0.8602 -0.3158
 2856TIP3    H1 8511   0.856   5.918   3.782  0.2971  1.5610  0.2913
 2856TIP3    H2 8512   0.769   5.803   3.829  0.8796  1.7482  1.9142
 2857TIP3   OH2 8513   4.945   2.906   5.558 -0.0501  0.3698  0.2826
 2857TIP3    H1 8514   4.985   2.880   5.474  2.2717  1.1207  1.0744
 2857TIP3    H2 8515   4.936   3.001   5.551  1.2853  0.5920  1.2994
 2858TIP3   OH2 8516   5.104   4.560   5.549  0.1552 -0.1219  0.2639
 2858TIP3    H1 8517   5.051   4.488   5.515  0.7996 -0.0659 -0.8855
 2858TIP3    H2 8518   5.193   4.526   5.548  0.4739  0.7207 -0.3775
 2859TIP3   OH2 8519   6.778   3.937   2.916 -0.2113 -0.2680  0.4759
 2859TIP3    H1 8520   6.832   3.895   2.850  0.5149 -1.0560  1.5349
 2859TIP3    H2 8521   6.825   4.018   2.937 -0.4318 -0.0276  0.0496
 2860TIP3   OH2 8522   6.102   1.495   2.700  0.1596  0.8394  0.6653
 2860TIP3    H1 8523   6.120   1.423   2.639 -1.8465  0.1062  0.8498
 2860TIP3    H2 8524   6.078   1.568   2.643 -1.0594  0.3533  0.5262
 2861TIP3   OH2 8525   3.349   4.519   0.896  0.2036 -0.4649  0.0157
 2861TIP3    H1 8526   3.437   4.537   0.865 -0.2246  0.5328 -0.6656
 2861TIP3    H2 8527   3.360   4.500   0.989  1.3430 -2.1750 -0.4152
 2862TIP3   OH2 8528   1.237   6.455   4.052 -0.6945 -0.7179 -0.1668
 2862TIP3    H1 8529   1.281   6.377   4.018  0.9184 -0.1573  0.5521
 2862TIP3    H2 8530   1.302   6.497   4.107 -1.0782  1.8327 -1.5467
 2863TIP3   OH2 8531   3.993   5.789   6.199  0.2592  0.0681  0.3559
 2863TIP3    H1 8532   4.050   5.777   6.275  0.1430  0.8293  0.5702
 2863TIP3    H2 8533   3.909   5.753   6.227  0.6323 -1.1046  0.0212
 2864TIP3   OH2 8534   5.981   7.681   6.473  0.3215 -0.0027 -0.6716
 2864TIP3    H1 8535   6.000   7.774   6.468 -0.9937  0.4553  1.8111
 2864TIP3    H2 8536   6.067   7.640   6.481  0.8134  1.2692  1.1667
 2865TIP3   OH2 8537   2.182   0.111   3.438  0.2287  0.2390 -0.2861
 2865TIP3    H1 8538   2.135   0.174   3.492  0.0357 -0.1725  0.0330
 2865TIP3    H2 8539   2.150   0.127   3.349  0.1724  0.5794 -0.2049
 2866TIP3   OH2 8540   3.484   5.094   6.227 -0.5339  0.3620 -0.3284
 2866TIP3    H1 8541   3.433   5.157   6.176  0.6426  0.0332 -1.9745
 2866TIP3    H2 8542   3.460   5.112   6.318  0.2191  3.6478 -0.6654
 2867TIP3   OH2 8543   5.937   1.999   0.488  0.3979 -0.3089 -0.6702
 2867TIP3    H1 8544   6.024   1.961   0.475  0.7637  0.3656 -0.2323
 2867TIP3    H2 8545   5.945   2.052   0.567 -0.2308  0.2949 -0.9945
 2868TIP3   OH2 8546   0.636   6.495   2.767 -0.0552  0.0172  0.8207
 2868TIP3    H1 8547   0.559   6.544   2.795 -0.7391 -0.5595 -0.0122
 2868TIP3    H2 8548   0.680   6.552   2.705  0.7314  0.7405  2.0010
 2869TIP3   OH2 8549   4.152   3.957   1.553  0.6504  0.1804  0.2548
 2869TIP3    H1 8550   4.210   3.882   1.566 -0.7701 -1.1907 -0.9819
 2869TIP3    H2 8551   4.176   3.991   1.467  0.0986  0.0406  0.0438
 2870TIP3   OH2 8552   8.194   7.770   6.574  0.0217 -0.1742 -0.1977
 2870TIP3    H1 8553   8.185   7.767   6.669 -2.6754 -1.4315 -0.4267
 2870TIP3    H2 8554   8.283   7.803   6.560  0.8240 -0.8355  2.7297
 2871TIP3   OH2 8555   4.228   5.996   5.615  0.4652  0.3331 -0.1138
 2871TIP3    H1 8556   4.151   5.978   5.562  0.7359 -0.1794 -0.3502
 2871TIP3    H2 8557   4.249   6.088   5.599 -1.1749  1.0425  1.3898
 2872TIP3   OH2 8558   4.467   3.505   1.110 -0.1646 -0.8170 -0.7029
 2872TIP3    H1 8559   4.558   3.478   1.098 -0.8152 -2.1509 -3.3468
 2872TIP3    H2 8560   4.418   3.423   1.106 -1.6165  0.0295 -0.7701
 2873TIP3   OH2 8561   6.291  -0.005   5.591 -0.1323  1.2816 -0.5631
 2873TIP3    H1 8562   6.286   0.082   5.632 -1.0874  1.4367 -0.9766
 2873TIP3    H2 8563   6.278   0.012   5.498  1.8220  0.9095 -0.9381
 2874TIP3   OH2 8564   5.789   7.104   3.918 -0.7036  0.1384  0.7883
 2874TIP3    H1 8565   5.746   7.036   3.969 -1.5166 -0.3429 -0.4839
 2874TIP3    H2 8566   5.881   7.078   3.915 -1.0649 -1.1438 -0.0121
 2875TIP3   OH2 8567   1.299   4.341   3.456 -0.0053 -0.7698  0.0436
 2875TIP3    H1 8568   1.238   4.415   3.460 -0.4419 -1.1074 -0.2866
 2875TIP3    H2 8569   1.287   4.304   3.369 -0.3243 -1.6746  0.4557
 2876TIP3   OH2 8570   5.089   1.959   0.113  0.4443 -0.5789  0.1067
 2876TIP3    H1 8571   5.154   1.951   0.044  0.3369 -1.0392  0.0568
 2876TIP3    H2 8572   5.005   1.969   0.067  0.3409 -1.1470  0.1642
 2877TIP3   OH2 8573   0.037   0.417   2.734  0.0394 -0.7197  0.3226
 2877TIP3    H1 8574   0.070   0.332   2.763  0.5481 -1.1142 -1.3522
 2877TIP3    H2 8575   0.037   0.412   2.639  1.6893  1.7444  0.1094
 2878TIP3   OH2 8576   7.497   1.961   3.837 -0.0534 -0.3475  0.3661
 2878TIP3    H1 8577   7.437   1.913   3.895 -1.8312  0.8200 -0.4125
 2878TIP3    H2 8578   7.457   2.047   3.828  1.7675  0.4763 -0.2298
 2879TIP3   OH2 8579   7.848   0.598   1.245 -0.1969 -0.5299 -0.4476
 2879TIP3    H1 8580   7.772   0.656   1.244 -0.1697 -0.4973 -1.5831
 2879TIP3    H2 8581   7.907   0.634   1.178  1.0067 -0.3275  0.6659
 2880TIP3   OH2 8582   2.003   3.462   0.638 -0.4012  0.1367  0.2157
 2880TIP3    H1 8583   2.076   3.404   0.617  1.9242  2.4310  1.3512
 2880TIP3    H2 8584   1.989   3.512   0.558  0.7021  1.0669  0.5771
 2881TIP3   OH2 8585   1.573   2.495   1.028  0.2995  0.6850  0.0723
 2881TIP3    H1 8586   1.513   2.527   1.095  0.3338 -1.0167  0.9617
 2881TIP3    H2 8587   1.521   2.490   0.948 -0.2272  1.0041  0.3956
 2882TIP3   OH2 8588   7.848   2.234   2.376 -0.0621  0.1525 -0.1064
 2882TIP3    H1 8589   7.782   2.243   2.444  0.3398  0.8688  0.2032
 2882TIP3    H2 8590   7.882   2.323   2.363  0.0195 -0.0060 -1.0946
 2883TIP3   OH2 8591   6.887   0.284   5.948 -0.1825  0.2503  0.2921
 2883TIP3    H1 8592   6.862   0.222   5.880 -1.4295  0.1541  0.8083
 2883TIP3    H2 8593   6.945   0.346   5.904 -1.7193  0.7694 -1.1203
 2884TIP3   OH2 8594   1.962   3.418   6.635 -0.1464 -0.1254 -0.0281
 2884TIP3    H1 8595   1.899   3.458   6.574 -0.5692  2.5221  1.9852
 2884TIP3    H2 8596   1.907   3.379   6.703  0.3125  1.3790  1.2473
 2885TIP3   OH2 8597   6.854   1.295   4.984 -0.3176 -0.3740 -0.3721
 2885TIP3    H1 8598   6.766   1.260   4.973 -0.3812  0.1252 -1.5119
 2885TIP3    H2 8599   6.841   1.376   5.034 -0.8308  1.0870 -2.7399
 2886TIP3   OH2 8600   4.440   3.435   2.576  0.6902  0.2939  0.0554
 2886TIP3    H1 8601   4.458   3.363   2.515  0.1606  0.4365 -0.2735
 2886TIP3    H2 8602   4.348   3.424   2.600  1.2875 -0.6776  2.0651
 2887TIP3   OH2 8603   1.983   0.120   5.777 -0.4558  0.2332 -0.3286
 2887TIP3    H1 8604   1.944   0.058   5.839 -0.6724  0.6581 -0.0296
 2887TIP3    H2 8605   1.932   0.200   5.789  0.5482  0.8299  0.1241
 2888TIP3   OH2 8606   4.401   3.176   1.995  0.0337 -0.5459  0.1996
 2888TIP3    H1 8607   4.365   3.264   1.995  1.5103  0.1057  1.6712
 2888TIP3    H2 8608   4.376   3.140   1.910 -0.7081  1.2227 -0.3802
 2889TIP3   OH2 8609   0.258   0.719   1.347 -0.2062 -0.5812 -0.1913
 2889TIP3    H1 8610   0.219   0.644   1.392 -0.9036 -1.0634 -1.5466
 2889TIP3    H2 8611   0.184   0.764   1.306  0.0650  1.4649  1.4033
 2890TIP3   OH2 8612   7.274   6.854   1.258  0.1142 -0.1190  0.6946
 2890TIP3    H1 8613   7.259   6.925   1.195 -0.7169 -0.6900  0.2281
 2890TIP3    H2 8614   7.356   6.878   1.301  0.2131  0.7686  0.0580
 2891TIP3   OH2 8615   6.668   3.751   5.087 -0.0241  0.2517 -0.1224
 2891TIP3    H1 8616   6.654   3.719   5.176  1.7591 -1.2072 -0.3026
 2891TIP3    H2 8617   6.589   3.724   5.040  0.8736 -3.1212  0.0179
 2892TIP3   OH2 8618   7.656   2.503   5.652 -0.6109  0.0666  0.1870
 2892TIP3    H1 8619   7.584   2.492   5.714 -1.4602  1.3678 -0.5104
 2892TIP3    H2 8620   7.620   2.474   5.568  0.8543 -2.6842  0.4171
 2893TIP3   OH2 8621   0.299   5.130   2.607  0.0771 -0.6420 -0.3266
 2893TIP3    H1 8622   0.369   5.184   2.644  0.0966  1.6580 -3.2820
 2893TIP3    H2 8623   0.218   5.173   2.634  0.0456  0.0094 -1.3859
 2894TIP3   OH2 8624   7.096   7.609   2.488 -0.0398 -0.3301  0.8361
 2894TIP3    H1 8625   7.071   7.518   2.471 -0.3760 -0.1195  0.1651
 2894TIP3    H2 8626   7.164   7.604   2.555 -0.6940 -1.0265  1.4641
 2895TIP3   OH2 8627   3.288   7.307   2.592  0.2802 -0.2383  0.5463
 2895TIP3    H1 8628   3.287   7.322   2.686 -0.3310  0.1585  0.4860
 2895TIP3    H2 8629   3.202   7.270   2.573 -0.3029  1.3736 -0.1044
 2896TIP3   OH2 8630   2.021   0.905   4.258 -0.5574  0.0577  0.0050
 2896TIP3    H1 8631   2.016   0.832   4.197  0.0283 -1.2277  1.4369
 2896TIP3    H2 8632   1.954   0.886   4.324 -0.3369  0.7639  0.4489
 2897TIP3   OH2 8633   2.929   0.270   6.556  0.4541 -0.6162 -0.8953
 2897TIP3    H1 8634   3.019   0.265   6.523  0.6951 -1.4254 -0.1373
 2897TIP3    H2 8635   2.898   0.180   6.554  0.9748 -0.9934  2.3728
 2898TIP3   OH2 8636   1.074   1.904   2.675  0.0929 -1.1783  0.1025
 2898TIP3    H1 8637   1.004   1.923   2.738  0.9663  0.0572  0.7343
 2898TIP3    H2 8638   1.147   1.959   2.703  1.1571 -2.0614 -0.8526
 2899TIP3   OH2 8639   4.818   6.739   6.340 -0.1467 -0.2664 -0.4512
 2899TIP3    H1 8640   4.786   6.714   6.426  0.2757  0.0847 -0.1870
 2899TIP3    H2 8641   4.800   6.833   6.334 -3.9301 -0.9123 -2.3769
 2900TIP3   OH2 8642   2.335   0.363   0.612  0.3802 -0.1424  0.1940
 2900TIP3    H1 8643   2.396   0.297   0.645 -0.0173 -1.1227 -0.9625
 2900TIP3    H2 8644   2.264   0.313   0.572 -0.7881  0.9799  0.7524
 2901TIP3   OH2 8645   7.892   6.069   0.576  0.3671 -0.1380  0.6225
 2901TIP3    H1 8646   7.936   6.030   0.652 -0.0184  0.0486  0.9474
 2901TIP3    H2 8647   7.858   5.995   0.526  3.4351 -0.5049 -1.1643
 2902TIP3   OH2 8648   7.482   7.777   5.539 -0.6525  0.1895 -0.3249
 2902TIP3    H1 8649   7.490   7.792   5.633 -1.4971  2.3267 -0.5457
 2902TIP3    H2 8650   7.555   7.825   5.501 -0.4904 -0.4199 -0.8050
 2903TIP3   OH2 8651   1.378   7.788   3.497 -0.4335 -0.0758  0.1009
 2903TIP3    H1 8652   1.365   7.845   3.572  0.3384 -0.2194  0.3492
 2903TIP3    H2 8653   1.338   7.705   3.523  1.1194 -0.5799  0.9397
 2904TIP3   OH2 8654   0.381   0.639   3.928  0.1717  0.1755  0.0904
 2904TIP3    H1 8655   0.397   0.730   3.904 -0.3287  0.5984  1.2799
 2904TIP3    H2 8656   0.371   0.641   4.023  1.3612 -1.3085  0.2830
 2905TIP3   OH2 8657   2.640   0.333   0.319 -0.4381 -0.4315 -0.1095
 2905TIP3    H1 8658   2.606   0.397   0.257 -1.1723 -0.3528  0.3595
 2905TIP3    H2 8659   2.719   0.298   0.277 -0.0987  0.6759 -0.4215
 2906TIP3   OH2 8660   1.490   1.250   6.413  0.4838  0.4191  0.2763
 2906TIP3    H1 8661   1.467   1.338   6.383  0.7941  0.8757  1.3539
 2906TIP3    H2 8662   1.550   1.264   6.486 -1.7458 -0.6218  2.4128
 2907TIP3   OH2 8663   7.520   3.066   0.985  0.6555  0.2905 -0.0864
 2907TIP3    H1 8664   7.481   3.138   1.034  0.3266  0.4756 -0.6101
 2907TIP3    H2 8665   7.448   3.028   0.936  0.9035 -0.1486 -0.1160
 2908TIP3   OH2 8666   7.042   0.608   4.290 -0.5357  0.0581  0.4462
 2908TIP3    H1 8667   6.999   0.540   4.238 -2.3336  1.8995 -0.6153
 2908TIP3    H2 8668   6.975   0.676   4.300  0.7642  1.1215  2.5779
 2909TIP3   OH2 8669   7.604   4.767   1.209  0.1650 -0.1587 -0.4997
 2909TIP3    H1 8670   7.516   4.738   1.183  0.3082 -2.2104  1.0872
 2909TIP3    H2 8671   7.663   4.707   1.163  0.6840  0.4066 -0.5731
 2910TIP3   OH2 8672   1.462   1.469   2.776  0.2706 -0.3513  0.5303
 2910TIP3    H1 8673   1.420   1.530   2.836  0.1947  0.8235 -0.6740
 2910TIP3    H2 8674   1.554   1.495   2.776 -0.1603  1.5802 -1.9539
 2911TIP3   OH2 8675   0.656   4.727   2.735 -0.1128 -0.4888 -0.3260
 2911TIP3    H1 8676   0.743   4.690   2.752 -0.6677 -2.3922 -1.2557
 2911TIP3    H2 8677   0.672   4.804   2.681  1.0029 -0.8148 -0.4750
 2912TIP3   OH2 8678   2.630   6.677   3.748  0.4018  0.0440  0.0934
 2912TIP3    H1 8679   2.709   6.627   3.768  0.2295 -0.8017 -1.2290
 2912TIP3    H2 8680   2.661   6.753   3.698  0.5382  0.6206  1.0404
 2913TIP3   OH2 8681   2.863   7.185   1.109  0.0468  0.4610  0.1767
 2913TIP3    H1 8682   2.928   7.255   1.115 -0.5016  0.8245  4.0669
 2913TIP3    H2 8683   2.912   7.105   1.126 -0.2910  0.6555  2.3056
 2914TIP3   OH2 8684   1.547   2.977   4.087 -0.5277  0.1230  0.4644
 2914TIP3    H1 8685   1.487   3.030   4.140 -1.3463  1.2013 -1.4315
 2914TIP3    H2 8686   1.536   3.011   3.998 -0.6422 -2.8719 -0.7648
 2915TIP3   OH2 8687   3.365   7.282   6.124  0.6564  0.1376  0.0714
 2915TIP3    H1 8688   3.333   7.231   6.198  0.0266  0.0947 -0.2272
 2915TIP3    H2 8689   3.445   7.237   6.098  1.7242  1.0155  1.6647
 2916TIP3   OH2 8690   1.619   2.429   0.180  0.3284 -0.1140 -0.0368
 2916TIP3    H1 8691   1.598   2.516   0.212 -1.7632  0.3698 -2.4578
 2916TIP3    H2 8692   1.614   2.436   0.085  1.3760 -2.5894 -0.3538
 2917TIP3   OH2 8693   5.674   0.722   1.561 -0.0978 -0.1990  0.0605
 2917TIP3    H1 8694   5.657   0.664   1.487  1.6871 -1.0645  0.2964
 2917TIP3    H2 8695   5.656   0.668   1.638  1.2816 -0.3702  0.2778
 2918TIP3   OH2 8696   1.121   7.428   5.091  0.0034  0.1236 -0.1357
 2918TIP3    H1 8697   1.170   7.349   5.066  0.8101  0.4786  0.2711
 2918TIP3    H2 8698   1.174   7.500   5.057  1.0468  0.6177  2.3620
 2919TIP3   OH2 8699   3.585   6.434   5.860 -0.3679 -0.0298  0.4123
 2919TIP3    H1 8700   3.533   6.513   5.873  2.2353  1.8264  0.3590
 2919TIP3    H2 8701   3.644   6.455   5.787  0.8539 -1.7595  0.8165
 2920TIP3   OH2 8702   0.177   4.358   3.904  0.1270 -0.2960 -0.0979
 2920TIP3    H1 8703   0.270   4.381   3.902  0.2320 -0.5983  0.7279
 2920TIP3    H2 8704   0.175   4.266   3.877  0.0769 -0.3034 -0.0691
 2921TIP3   OH2 8705   1.580   6.405   1.943  0.4394 -0.1207 -0.3943
 2921TIP3    H1 8706   1.598   6.332   1.884  1.5013  0.0430 -0.2979
 2921TIP3    H2 8707   1.654   6.405   2.004  2.2457  2.9296 -2.2775
 2922TIP3   OH2 8708   0.496   4.641   3.208 -0.3460 -0.0533 -0.1247
 2922TIP3    H1 8709   0.405   4.616   3.196 -0.3704 -0.3859  0.7125
 2922TIP3    H2 8710   0.508   4.645   3.303  0.2853  0.8223 -0.2316
 2923TIP3   OH2 8711   6.036   7.617   5.761 -0.0941  0.4297 -0.6165
 2923TIP3    H1 8712   5.972   7.684   5.741  0.8778  1.3685 -0.6893
 2923TIP3    H2 8713   6.102   7.625   5.692  1.3513  1.1586  0.7597
 2924TIP3   OH2 8714   2.630   3.204   6.086 -0.5446 -0.4934 -0.6495
 2924TIP3    H1 8715   2.615   3.110   6.092  1.9587 -0.9064  0.4061
 2924TIP3    H2 8716   2.650   3.231   6.176 -1.4279  1.0945 -0.9065
 2925TIP3   OH2 8717   6.246   2.191   5.043 -0.0027 -0.1936  0.2631
 2925TIP3    H1 8718   6.275   2.269   5.090  1.0525  0.8456 -1.9574
 2925TIP3    H2 8719   6.319   2.130   5.049  0.1688 -0.0246 -0.0822
 2926TIP3   OH2 8720   2.314   1.565   1.273 -0.5527 -0.3658 -0.7178
 2926TIP3    H1 8721   2.398   1.528   1.301 -1.0692 -1.9141 -1.1278
 2926TIP3    H2 8722   2.294   1.632   1.339  0.9079 -0.0729 -0.5233
 2927TIP3   OH2 8723   2.045   3.663   6.745  0.2091  0.7866 -0.2341
 2927TIP3    H1 8724   2.056   3.708   6.661 -1.1949  1.7810  0.0645
 2927TIP3    H2 8725   2.005   3.579   6.722  0.8078  0.6017 -0.6304
 2928TIP3   OH2 8726   4.977   1.899   4.089  0.0922 -0.4957  0.1243
 2928TIP3    H1 8727   5.062   1.857   4.107 -0.6887 -1.0830  2.8793
 2928TIP3    H2 8728   4.987   1.988   4.123 -0.4562 -0.6553  0.7189
 2929TIP3   OH2 8729   6.154   4.714   5.716  0.0415 -0.2091  0.4351
 2929TIP3    H1 8730   6.218   4.776   5.681  0.1869 -0.2710  0.5877
 2929TIP3    H2 8731   6.161   4.638   5.657 -0.6401  0.1920 -0.1697
 2930TIP3   OH2 8732   5.596   7.741   1.478 -0.1521  0.0254  0.1610
 2930TIP3    H1 8733   5.537   7.682   1.525 -0.5076 -0.7494 -1.2017
 2930TIP3    H2 8734   5.585   7.717   1.386  1.2636  0.8203 -0.2388
 2931TIP3   OH2 8735   0.604   2.355   3.834 -0.3648  0.1225  0.2611
 2931TIP3    H1 8736   0.540   2.286   3.854  0.0477  0.1276  1.6553
 2931TIP3    H2 8737   0.673   2.310   3.785 -0.7550 -0.1641 -0.0351
 2932TIP3   OH2 8738   1.297   6.736   3.890 -0.1205 -0.3410 -0.4699
 2932TIP3    H1 8739   1.232   6.666   3.893 -1.0820  0.5761  1.1836
 2932TIP3    H2 8740   1.307   6.756   3.797 -1.1149 -1.4912 -0.8374
 2933TIP3   OH2 8741   4.783   6.246   4.291 -0.2407 -0.0724 -0.0672
 2933TIP3    H1 8742   4.821   6.246   4.379 -1.4497 -0.3675  0.4804
 2933TIP3    H2 8743   4.770   6.154   4.270  0.3485 -0.0153 -0.7046
 2934TIP3   OH2 8744   0.387   1.184   4.388  0.1533  0.4999 -0.3855
 2934TIP3    H1 8745   0.357   1.104   4.432 -0.3424 -0.5489 -2.4966
 2934TIP3    H2 8746   0.426   1.236   4.458  0.9951 -1.8182  1.0091
 2935TIP3   OH2 8747   3.379   3.083   4.733  0.2533  0.6967  0.0061
 2935TIP3    H1 8748   3.309   3.075   4.798 -0.1995  1.8264 -0.3234
 2935TIP3    H2 8749   3.350   3.030   4.659 -1.0009  2.3012 -0.7260
 2936TIP3   OH2 8750   0.278   6.876   2.118 -0.2826 -0.0454  0.1247
 2936TIP3    H1 8751   0.270   6.961   2.075  0.7155  1.1443  2.1412
 2936TIP3    H2 8752   0.188   6.852   2.139 -0.6510  0.0596 -1.2489
 2937TIP3   OH2 8753   2.184   7.633   6.261  0.1479 -0.0501  0.0901
 2937TIP3    H1 8754   2.269   7.592   6.245 -0.0538  0.2084 -1.7930
 2937TIP3    H2 8755   2.120   7.564   6.243 -0.0878 -0.0046  0.7131
 2938TIP3   OH2 8756   8.108   3.390   0.283  0.5322 -0.7772  0.2363
 2938TIP3    H1 8757   8.152   3.418   0.203 -1.3515 -0.3956 -0.7402
 2938TIP3    H2 8758   8.172   3.404   0.352  2.5884 -2.0922 -1.3012
 2939TIP3   OH2 8759   2.728   4.868   1.576  0.3623  0.4795 -0.0431
 2939TIP3    H1 8760   2.639   4.840   1.555 -0.7084  4.1142 -1.1552
 2939TIP3    H2 8761   2.785   4.801   1.537 -1.8317 -1.9744  0.7705
 2940TIP3   OH2 8762   4.413   1.327   3.627  0.2069  0.1519 -0.0404
 2940TIP3    H1 8763   4.421   1.385   3.552  2.1719  1.0827  0.8148
 2940TIP3    H2 8764   4.365   1.377   3.693 -1.3025 -0.5748 -0.5477
 2941TIP3   OH2 8765   6.601   0.586   4.264  0.3410 -0.0434  0.6826
 2941TIP3    H1 8766   6.614   0.557   4.174 -2.0744 -2.6239  1.0242
 2941TIP3    H2 8767   6.677   0.641   4.284  1.9671 -1.0714 -2.2221
 2942TIP3   OH2 8768   7.678   0.898   3.628 -0.3604 -0.1428 -0.5129
 2942TIP3    H1 8769   7.716   0.980   3.659  1.1053 -0.1702 -2.1155
 2942TIP3    H2 8770   7.621   0.870   3.700 -1.1972  2.4363 -0.0614
 2943TIP3   OH2 8771   4.403   5.883   1.152  0.0097  0.0405 -0.8146
 2943TIP3    H1 8772   4.312   5.865   1.126  0.0768  1.0829 -1.8594
 2943TIP3    H2 8773   4.399   5.969   1.194  0.1553 -0.9640  1.3700
 2944TIP3   OH2 8774   0.865   6.920   4.240  1.0113  0.3524  0.6774
 2944TIP3    H1 8775   0.894   6.841   4.194 -0.2090  0.2564  0.0126
 2944TIP3    H2 8776   0.795   6.889   4.298 -0.4716  1.0995 -0.6107
 2945TIP3   OH2 8777   5.669   5.126   4.429  0.3661  0.3870 -0.6484
 2945TIP3    H1 8778   5.598   5.092   4.485  1.0996 -1.7052 -0.9101
 2945TIP3    H2 8779   5.669   5.068   4.353  2.7289 -0.0314 -0.3822
 2946TIP3   OH2 8780   3.520   7.142   2.941  0.6368 -0.1347 -0.7790
 2946TIP3    H1 8781   3.494   7.150   3.032  0.3847 -1.6406 -0.6903
 2946TIP3    H2 8782   3.459   7.198   2.893  1.3728  1.4121  0.0486
 2947TIP3   OH2 8783   5.572   4.303   2.989  0.3865  0.3165  0.3161
 2947TIP3    H1 8784   5.665   4.313   2.973  0.6312  0.4513  1.6901
 2947TIP3    H2 8785   5.566   4.281   3.082 -0.9311 -0.0103  0.1745
 2948TIP3   OH2 8786   7.075   5.106   0.979 -0.0111 -0.4888  0.5750
 2948TIP3    H1 8787   7.100   5.102   0.887 -0.0465  0.0618  0.5358
 2948TIP3    H2 8788   7.051   5.016   1.002  3.0423 -1.3099  0.9233
 2949TIP3   OH2 8789   3.048   4.624   2.233  0.2719 -0.1009 -0.3704
 2949TIP3    H1 8790   3.134   4.640   2.195  0.4072  2.7037  0.8403
 2949TIP3    H2 8791   3.054   4.659   2.322 -2.3115  0.9303 -0.5037
 2950TIP3   OH2 8792   7.023   7.248   4.653  0.5390 -0.5476  0.1343
 2950TIP3    H1 8793   7.043   7.318   4.715 -0.0208  1.1451 -1.5006
 2950TIP3    H2 8794   7.106   7.230   4.610  0.3165  0.5190 -0.7846
 2951TIP3   OH2 8795   5.303   2.051   1.196 -0.2099 -0.7628 -0.1238
 2951TIP3    H1 8796   5.384   2.070   1.243 -0.5243 -1.3312  0.6616
 2951TIP3    H2 8797   5.331   2.042   1.104  0.2761  1.2139 -0.2106
 2952TIP3   OH2 8798   1.788   1.077   3.449 -0.1264  0.2181  0.6209
 2952TIP3    H1 8799   1.789   1.086   3.354  0.0861 -1.1418  0.4771
 2952TIP3    H2 8800   1.870   1.032   3.470 -1.1088 -1.4049  1.2024
 2953TIP3   OH2 8801   2.314   6.771   4.755 -0.2155  0.0385 -0.5426
 2953TIP3    H1 8802   2.375   6.779   4.829  1.1983  2.6610 -1.8541
 2953TIP3    H2 8803   2.348   6.830   4.689 -4.3920  2.0864 -1.2378
 2954TIP3   OH2 8804   4.628   0.251   4.181  0.5383 -0.0672  0.5821
 2954TIP3    H1 8805   4.646   0.205   4.099  2.1689  0.9633  0.3156
 2954TIP3    H2 8806   4.584   0.331   4.153  0.6179  0.0372  0.7615
 2955TIP3   OH2 8807   5.700   5.546   2.984  0.0598  0.4730 -0.3860
 2955TIP3    H1 8808   5.613   5.531   3.020  0.1660 -0.1611 -0.3724
 2955TIP3    H2 8809   5.760   5.514   3.051  0.2551 -0.8437 -1.1500
 2956TIP3   OH2 8810   0.953   3.313   0.528 -0.3101  0.4380 -0.0451
 2956TIP3    H1 8811   1.005   3.284   0.603  0.4802  0.3462 -0.6141
 2956TIP3    H2 8812   1.005   3.383   0.488  0.2832 -0.8487 -1.6751
 2957TIP3   OH2 8813   7.858   5.271   0.891  0.4344 -0.5339 -0.2608
 2957TIP3    H1 8814   7.930   5.211   0.910 -1.5623 -3.3255 -0.7471
 2957TIP3    H2 8815   7.781   5.229   0.931 -1.2413  1.2314 -1.4570
 2958TIP3   OH2 8816   5.485   4.869   1.453  0.0363  0.0409  0.0044
 2958TIP3    H1 8817   5.556   4.857   1.516  1.0488 -1.7007 -1.3523
 2958TIP3    H2 8818   5.515   4.940   1.397  0.5364 -0.3780 -0.2792
 2959TIP3   OH2 8819   6.954   7.689   6.342 -0.5750 -0.2607 -0.4681
 2959TIP3    H1 8820   6.990   7.606   6.312  0.7325  0.1747 -0.1594
 2959TIP3    H2 8821   7.016   7.755   6.312 -2.0807  0.7342 -1.5379
 2960TIP3   OH2 8822   2.889   6.866   3.094  0.1827  0.0396  0.1984
 2960TIP3    H1 8823   2.927   6.850   3.181  0.3206 -0.9089 -0.0255
 2960TIP3    H2 8824   2.950   6.823   3.033 -1.4317 -1.9362 -0.1381
 2961TIP3   OH2 8825   6.212   6.435   6.441  0.1309 -0.6600 -0.6982
 2961TIP3    H1 8826   6.189   6.342   6.446 -0.6055 -0.5032 -0.9935
 2961TIP3    H2 8827   6.217   6.454   6.348 -0.0664 -0.3286 -0.6458
 2962TIP3   OH2 8828   2.284   6.766   4.278 -0.1940 -0.1860 -0.3156
 2962TIP3    H1 8829   2.345   6.835   4.252 -0.7697 -0.0510 -1.3615
 2962TIP3    H2 8830   2.340   6.690   4.294  0.2820  0.0288 -0.9210
 2963TIP3   OH2 8831   6.287   5.718   6.041  0.0482 -0.1630  0.6309
 2963TIP3    H1 8832   6.296   5.705   5.946  1.0707 -1.6540  0.9023
 2963TIP3    H2 8833   6.208   5.772   6.050 -1.6129 -2.1672 -0.9504
 2964TIP3   OH2 8834   7.342   6.543   3.011  0.0222  0.0580  0.6130
 2964TIP3    H1 8835   7.273   6.600   2.977 -0.1659  0.4067  1.5534
 2964TIP3    H2 8836   7.301   6.496   3.084  0.8328  0.4587  1.3519
 2965TIP3   OH2 8837   3.675   0.728   0.651  0.2409 -0.2773  0.0203
 2965TIP3    H1 8838   3.641   0.742   0.563  0.5374 -0.5580 -0.1457
 2965TIP3    H2 8839   3.673   0.814   0.692  0.8880  0.0218 -0.5523
 2966TIP3   OH2 8840   1.967   2.610   0.442  0.0759  0.1632  0.1151
 2966TIP3    H1 8841   2.050   2.640   0.478  0.3182  0.2445 -0.4873
 2966TIP3    H2 8842   1.903   2.675   0.471  0.4273  0.7371 -0.3736
 2967TIP3   OH2 8843   0.395   3.049   5.437  0.3275  0.2721 -0.1637
 2967TIP3    H1 8844   0.471   3.103   5.457 -1.3359  2.5756  0.4152
 2967TIP3    H2 8845   0.413   2.965   5.478  2.7287  0.5703 -0.4729
 2968TIP3   OH2 8846   5.899   4.947   3.922  0.3723 -0.4527  0.0112
 2968TIP3    H1 8847   5.975   4.929   3.868 -0.5786  0.4519 -1.7149
 2968TIP3    H2 8848   5.826   4.952   3.860 -1.0538 -1.0102  1.5707
 2969TIP3   OH2 8849   3.135   2.864   2.866  0.1292 -0.5823 -0.5712
 2969TIP3    H1 8850   3.047   2.896   2.886  0.3198 -0.2017 -0.3231
 2969TIP3    H2 8851   3.192   2.938   2.886  0.4682 -0.6864 -1.1307
 2970TIP3   OH2 8852   5.514   3.880   3.403  0.5388 -0.0637 -0.1929
 2970TIP3    H1 8853   5.520   3.897   3.497  0.3644 -0.1413 -0.1662
 2970TIP3    H2 8854   5.449   3.811   3.395  0.8566 -0.3485 -0.3418
 2971TIP3   OH2 8855   4.764   7.389   3.869  0.5159  0.1341 -0.3649
 2971TIP3    H1 8856   4.725   7.436   3.795 -2.2520 -1.1750  0.1455
 2971TIP3    H2 8857   4.735   7.437   3.946  1.2980  0.0462 -0.0069
 2972TIP3   OH2 8858   8.259   4.840   1.904 -0.0824  0.5090 -0.0666
 2972TIP3    H1 8859   8.232   4.922   1.864  0.1019  0.7165  0.2301
 2972TIP3    H2 8860   8.309   4.795   1.836 -0.2985  0.5785 -0.2744
 2973TIP3   OH2 8861   7.737   2.058   2.192 -0.6237 -0.4408  0.6229
 2973TIP3    H1 8862   7.663   2.118   2.179 -0.4362 -0.6023 -1.3726
 2973TIP3    H2 8863   7.797   2.108   2.248 -0.7942  0.9884 -0.3994
 2974TIP3   OH2 8864   0.198   4.227   0.385  0.5010 -0.7441  0.0732
 2974TIP3    H1 8865   0.180   4.162   0.317  3.0692 -1.2312 -0.2460
 2974TIP3    H2 8866   0.114   4.240   0.428 -0.5100 -2.8694 -1.0802
 2975TIP3   OH2 8867   7.587   1.499   3.352  0.4489  0.0326 -0.6737
 2975TIP3    H1 8868   7.509   1.447   3.371 -0.0295  0.7553 -0.6275
 2975TIP3    H2 8869   7.568   1.586   3.388  2.3565 -0.4519  1.8260
 2976TIP3   OH2 8870   2.563   3.459   4.099 -0.2126 -0.2351 -0.7821
 2976TIP3    H1 8871   2.511   3.387   4.064  0.3156 -0.7550 -0.5436
 2976TIP3    H2 8872   2.588   3.429   4.187 -0.2796  0.3972 -0.5426
 2977TIP3   OH2 8873   7.791   7.453   5.933  0.6248  0.4079  0.2206
 2977TIP3    H1 8874   7.733   7.495   5.997  1.9394  0.3622  1.4929
 2977TIP3    H2 8875   7.853   7.522   5.907  1.8797 -0.3045  1.2033
 2978TIP3   OH2 8876   1.430   0.492   3.642 -0.1768 -0.0319 -0.4925
 2978TIP3    H1 8877   1.366   0.476   3.573 -1.2433 -1.4186  0.7541
 2978TIP3    H2 8878   1.416   0.583   3.667 -0.4352  0.1941 -1.4309
 2979TIP3   OH2 8879   3.195   6.558   1.984 -0.0110  0.1969  0.1749
 2979TIP3    H1 8880   3.187   6.631   1.922  0.7736  0.2013  0.0760
 2979TIP3    H2 8881   3.109   6.554   2.026 -0.3692  0.5688 -0.4933
 2980TIP3   OH2 8882   2.343   6.281   2.344  0.1737 -0.1937  0.8959
 2980TIP3    H1 8883   2.403   6.214   2.376  0.3840 -1.5945 -2.1356
 2980TIP3    H2 8884   2.389   6.320   2.270 -1.7258  0.2849 -0.0735
 2981TIP3   OH2 8885   3.527   6.872   5.670 -0.3394  0.1425 -0.5400
 2981TIP3    H1 8886   3.522   6.812   5.596  0.3297  2.2062 -2.3874
 2981TIP3    H2 8887   3.441   6.914   5.674  0.1349  1.2053 -1.2288
 2982TIP3   OH2 8888   0.309   6.945   6.451  0.0848  0.6778 -0.8724
 2982TIP3    H1 8889   0.257   6.914   6.376 -1.2953  0.6296  0.0516
 2982TIP3    H2 8890   0.363   6.870   6.475  0.4637  0.6603 -1.7495
 2983TIP3   OH2 8891   1.662   2.353   2.385 -0.0548 -0.1365 -0.5047
 2983TIP3    H1 8892   1.567   2.365   2.377  0.0734  1.3070 -0.1052
 2983TIP3    H2 8893   1.694   2.360   2.295 -0.3070 -0.5100 -0.6274
 2984TIP3   OH2 8894   3.586   3.849   3.069 -0.3713 -0.6282  0.1032
 2984TIP3    H1 8895   3.664   3.887   3.027 -0.5686  0.4181  0.6534
 2984TIP3    H2 8896   3.524   3.836   2.997 -0.1673 -0.2287 -0.1455
 2985TIP3   OH2 8897   3.138   6.491   5.382 -0.0623  0.0772  0.3062
 2985TIP3    H1 8898   3.186   6.546   5.321 -0.3521  2.3978  2.0237
 2985TIP3    H2 8899   3.193   6.488   5.460 -0.0170 -2.2347  0.2417
 2986TIP3   OH2 8900   7.839   0.603   4.423  0.6405 -0.1337 -0.3331
 2986TIP3    H1 8901   7.848   0.605   4.518  1.0436  0.3151 -0.3793
 2986TIP3    H2 8902   7.846   0.695   4.396  1.4361 -0.3490 -0.8784
 2987TIP3   OH2 8903   3.962   4.223   1.803  0.2228 -0.3670 -0.5331
 2987TIP3    H1 8904   3.885   4.192   1.851 -0.0555  1.3267  0.1611
 2987TIP3    H2 8905   4.035   4.208   1.863 -0.0000  0.8650  0.0763
 2988TIP3   OH2 8906   5.063   5.595   1.763 -0.9469 -0.0241 -0.6218
 2988TIP3    H1 8907   5.033   5.521   1.816 -1.2351  0.2118 -0.4558
 2988TIP3    H2 8908   4.983   5.637   1.732 -0.7900  0.3941 -0.4681
 2989TIP3   OH2 8909   5.616   0.680   2.860  0.0894  0.2980  0.6957
 2989TIP3    H1 8910   5.537   0.636   2.890  0.3446 -0.2549  0.5846
 2989TIP3    H2 8911   5.585   0.760   2.818 -0.4818 -0.3116 -0.0794
 2990TIP3   OH2 8912   4.006   2.039   4.221  0.0652 -0.8585  0.0964
 2990TIP3    H1 8913   3.948   2.064   4.149 -0.1679 -0.2363  0.4845
 2990TIP3    H2 8914   3.946   2.008   4.289 -0.1072  2.1135  1.4666
 2991TIP3   OH2 8915   0.989   2.954   6.253 -0.1925 -0.1306  0.1362
 2991TIP3    H1 8916   0.896   2.970   6.241 -0.2879 -1.0242 -0.4375
 2991TIP3    H2 8917   1.001   2.863   6.226  0.5079 -0.6383  2.0304
 2992TIP3   OH2 8918   6.958   4.390   4.466 -0.3791 -0.3252  0.5204
 2992TIP3    H1 8919   6.884   4.435   4.426  0.4444  0.5761 -0.0498
 2992TIP3    H2 8920   6.998   4.457   4.522  2.0605  0.4067 -1.8598
 2993TIP3   OH2 8921   4.057   3.076   2.061  0.2719  0.1596 -0.2568
 2993TIP3    H1 8922   4.116   3.002   2.069  1.2813  1.0461  0.8553
 2993TIP3    H2 8923   4.065   3.104   1.970 -0.5637 -1.4134 -0.8462
 2994TIP3   OH2 8924   8.172   0.025   4.973  1.0981  0.1730 -0.8234
 2994TIP3    H1 8925   8.123   0.081   5.033 -2.0532 -0.6295 -2.4437
 2994TIP3    H2 8926   8.211  -0.042   5.030 -1.0320 -0.0475  0.4922
 2995TIP3   OH2 8927   0.421   2.659   5.287  0.5869 -0.0281  0.0993
 2995TIP3    H1 8928   0.366   2.717   5.234  2.1979  1.7615  0.2976
 2995TIP3    H2 8929   0.359   2.604   5.335 -1.0369  1.8304  0.2510
 2996TIP3   OH2 8930   6.100   1.607   5.322 -0.0339  0.8070  0.5924
 2996TIP3    H1 8931   6.126   1.517   5.303 -0.3835  0.5261  1.4193
 2996TIP3    H2 8932   6.005   1.603   5.331 -0.3748  1.7261 -1.8411
 2997TIP3   OH2 8933   6.749   1.351   0.941 -0.0146 -0.0895  0.1583
 2997TIP3    H1 8934   6.767   1.258   0.951 -1.2170 -0.1478  2.3248
 2997TIP3    H2 8935   6.813   1.395   0.997  1.3045  0.5220 -1.7282
 2998TIP3   OH2 8936   2.672   6.756   5.129 -0.1672  1.0293  0.4732
 2998TIP3    H1 8937   2.691   6.679   5.183  0.1306  1.7831  1.4964
 2998TIP3    H2 8938   2.594   6.795   5.169 -0.0430  1.5100  0.2624
 2999TIP3   OH2 8939   4.545   5.985   1.464  0.6622  0.5734  0.5558
 2999TIP3    H1 8940   4.507   5.923   1.527  1.3057 -0.7756 -0.3382
 2999TIP3    H2 8941   4.611   5.934   1.418  0.5255  1.6669 -0.9034
 3000TIP3   OH2 8942   2.024   0.437   5.550  0.2369  0.0813 -0.4260
 3000TIP3    H1 8943   2.105   0.393   5.575 -0.2046 -1.0151 -0.8227
 3000TIP3    H2 8944   2.021   0.428   5.455 -0.3649  0.0902 -0.4110
 3001TIP3   OH2 8945   8.185   5.416   4.461 -0.5090 -0.2800  0.0488
 3001TIP3    H1 8946   8.116   5.469   4.502  0.8542  1.0636  0.7278
 3001TIP3    H2 8947   8.228   5.476   4.400  0.0963 -1.0800 -0.3254
 3002TIP3   OH2 8948   3.626   3.366   1.642  0.3071  0.1153  0.6279
 3002TIP3    H1 8949   3.689   3.435   1.664 -3.0168  2.3311  4.4216
 3002TIP3    H2 8950   3.591   3.393   1.557  0.6213  1.9138  1.0211
 3003TIP3   OH2 8951   0.255   7.109   1.998 -0.3180 -0.5351 -0.2133
 3003TIP3    H1 8952   0.212   7.124   1.914  0.1699 -0.5538 -0.4712
 3003TIP3    H2 8953   0.255   7.195   2.041 -0.0537 -0.4047 -0.4777
 3004TIP3   OH2 8954   7.012   3.391  -0.004 -0.2695 -0.2537  0.0064
 3004TIP3    H1 8955   7.035   3.469   0.048  3.0658 -0.0121 -1.5877
 3004TIP3    H2 8956   7.037   3.318   0.052  0.1503 -0.0818  0.0486
 3005TIP3   OH2 8957   2.393   2.785   3.411  0.0081 -0.4816  0.3049
 3005TIP3    H1 8958   2.304   2.753   3.394 -0.0140  0.3033 -1.2407
 3005TIP3    H2 8959   2.404   2.858   3.349  2.3372 -1.6669 -0.7746
 3006TIP3   OH2 8960   7.627   7.548   2.571 -0.4214  0.2008 -0.0129
 3006TIP3    H1 8961   7.591   7.622   2.620 -0.4496 -0.2589  0.6626
 3006TIP3    H2 8962   7.717   7.540   2.602 -0.3469  0.0953 -0.2558
 3007TIP3   OH2 8963   2.179   1.086   2.190 -0.0789 -0.1536  0.7708
 3007TIP3    H1 8964   2.084   1.100   2.195  0.2072  1.9549  1.5682
 3007TIP3    H2 8965   2.202   1.053   2.277 -0.0411 -0.3045  0.7028
 3008TIP3   OH2 8966   2.943   0.443   4.246  0.4959 -0.1441 -0.4831
 3008TIP3    H1 8967   2.978   0.469   4.161 -0.4711  0.0400 -0.8436
 3008TIP3    H2 8968   2.909   0.524   4.283 -0.4321 -0.4728 -0.5880
 3009TIP3   OH2 8969   1.414   2.853   2.769  0.9164 -0.2963  0.7076
 3009TIP3    H1 8970   1.407   2.940   2.729 -1.2810 -0.3893  0.8004
 3009TIP3    H2 8971   1.473   2.805   2.711 -0.7726  0.1134 -1.4919
 3010TIP3   OH2 8972   3.791   6.985   0.928  0.2466 -0.6241  0.1448
 3010TIP3    H1 8973   3.762   6.897   0.904 -0.8912 -0.6767  1.5603
 3010TIP3    H2 8974   3.871   6.971   0.980  1.8895 -0.5876 -2.2424
 3011TIP3   OH2 8975   7.004   7.558   1.142 -0.1120  0.2927 -0.3353
 3011TIP3    H1 8976   6.991   7.596   1.228  0.4382 -1.8285  0.7588
 3011TIP3    H2 8977   7.018   7.633   1.084  0.6980  1.7294  1.6267
 3012TIP3   OH2 8978   7.186   3.424   5.789  0.3084 -0.1296 -0.5572
 3012TIP3    H1 8979   7.114   3.478   5.755 -1.5001 -1.8033  0.4122
 3012TIP3    H2 8980   7.237   3.402   5.711 -1.6156 -0.8368 -1.7036
 3013TIP3   OH2 8981   7.329   6.544   5.351  0.4217 -0.3105  0.3311
 3013TIP3    H1 8982   7.365   6.582   5.432 -0.5205  0.4673  0.4026
 3013TIP3    H2 8983   7.291   6.618   5.304  0.8559 -0.7752 -0.7874
 3014TIP3   OH2 8984   8.109   1.466   6.662 -0.1785 -0.9838  0.6924
 3014TIP3    H1 8985   8.126   1.381   6.705 -0.7928 -0.5602  1.8162
 3014TIP3    H2 8986   8.046   1.446   6.593 -2.6263 -1.0604  2.7976
 3015TIP3   OH2 8987   4.628   1.881   2.082 -0.1529 -0.1059  0.2366
 3015TIP3    H1 8988   4.686   1.876   2.006 -0.7568 -0.7591 -0.1887
 3015TIP3    H2 8989   4.617   1.790   2.110  0.2415  0.1434  1.2528
 3016TIP3   OH2 8990   0.611   1.606   4.086 -0.5651 -0.3951 -0.6702
 3016TIP3    H1 8991   0.638   1.514   4.087  0.7571 -0.0493 -1.3793
 3016TIP3    H2 8992   0.591   1.627   4.177 -1.5963 -1.5709 -0.6054
 3017TIP3   OH2 8993   4.403   0.702   3.514 -0.8270 -0.1622  0.2444
 3017TIP3    H1 8994   4.366   0.758   3.581  0.1018 -0.4061  0.9732
 3017TIP3    H2 8995   4.478   0.750   3.480  0.4375 -1.2665  1.4120
 3018TIP3   OH2 8996   1.767   2.034   4.822 -0.2005 -0.0819  0.5849
 3018TIP3    H1 8997   1.687   2.019   4.772  0.2904  0.2943 -0.3471
 3018TIP3    H2 8998   1.810   1.949   4.824 -0.8965 -0.4289  1.6137
 3019TIP3   OH2 8999   6.786   1.706   2.084 -0.5881  0.0846 -0.3300
 3019TIP3    H1 9000   6.860   1.651   2.111  0.1846  1.1964 -0.1215
 3019TIP3    H2 9001   6.713   1.677   2.138 -0.3787 -1.1951 -0.7094
 3020TIP3   OH2 9002   1.508   5.763   3.858 -0.7618 -0.2119  0.2966
 3020TIP3    H1 9003   1.497   5.830   3.791 -1.2961 -1.2121 -0.6472
 3020TIP3    H2 9004   1.419   5.734   3.878 -0.4935 -1.7042 -0.4650
 3021TIP3   OH2 9005   4.651   1.518   0.519 -0.2212 -0.6607  0.0428
 3021TIP3    H1 9006   4.608   1.603   0.511 -1.6668 -1.3981 -0.2940
 3021TIP3    H2 9007   4.613   1.479   0.598  0.7073 -0.8609  0.4130
 3022TIP3   OH2 9008   2.224   3.934   6.551 -0.3174  0.3345 -0.3466
 3022TIP3    H1 9009   2.131   3.914   6.540 -0.0723 -1.2112  0.1610
 3022TIP3    H2 9010   2.269   3.853   6.526  0.8269  0.6718  0.5488
 3023TIP3   OH2 9011   1.712   1.042   5.312 -0.3670 -0.3402  0.4198
 3023TIP3    H1 9012   1.797   1.087   5.314 -1.1527  1.5164 -2.6487
 3023TIP3    H2 9013   1.724   0.966   5.370  3.7785 -0.8412 -0.7631
 3024TIP3   OH2 9014   2.946   5.264   3.895  0.1828 -0.0425 -0.0310
 3024TIP3    H1 9015   2.923   5.279   3.987 -0.6224 -0.5034 -0.1377
 3024TIP3    H2 9016   3.017   5.325   3.877 -1.1766  1.6948  0.2588
 3025TIP3   OH2 9017   3.738   6.446   3.022 -0.2299 -0.4312  0.0357
 3025TIP3    H1 9018   3.747   6.530   2.977  0.1491  0.0881  1.0359
 3025TIP3    H2 9019   3.673   6.463   3.091 -0.2924 -1.0149  0.1262
 3026TIP3   OH2 9020   5.770   5.365   5.267  0.1992 -0.3910  0.0671
 3026TIP3    H1 9021   5.782   5.324   5.182 -1.6017 -1.1665  0.1296
 3026TIP3    H2 9022   5.697   5.427   5.254  2.4688  2.5348  0.1020
 3027TIP3   OH2 9023   8.034   3.944   6.125 -0.3052 -0.1220 -0.1354
 3027TIP3    H1 9024   8.017   3.960   6.032 -1.1776  0.0519  0.0457
 3027TIP3    H2 9025   8.126   3.916   6.128 -0.3364 -0.3643 -1.0712
 3028TIP3   OH2 9026   2.523   6.656   0.158 -0.6875 -0.1808 -0.2363
 3028TIP3    H1 9027   2.549   6.579   0.209 -0.3385  0.0756 -0.0281
 3028TIP3    H2 9028   2.511   6.622   0.069  2.0720 -0.0021 -0.7566
 3029TIP3   OH2 9029   6.367   2.281   0.902  0.3356 -0.0774 -0.1475
 3029TIP3    H1 9030   6.415   2.199   0.915  2.7931  1.5474  1.9598
 3029TIP3    H2 9031   6.354   2.285   0.807 -1.0241 -3.4121 -0.2597
 3030TIP3   OH2 9032   8.178   1.054   1.752  0.0420 -0.5720 -0.0924
 3030TIP3    H1 9033   8.170   1.149   1.756  0.0248 -0.5853  0.2991
 3030TIP3    H2 9034   8.171   1.032   1.659 -0.9053 -0.2787 -0.1033
 3031TIP3   OH2 9035   3.229   0.903   4.437 -0.4477  0.5402 -0.1623
 3031TIP3    H1 9036   3.243   0.908   4.343  0.1910 -0.3219 -0.1193
 3031TIP3    H2 9037   3.314   0.926   4.476  0.0333 -1.5752  0.1469
 3032TIP3   OH2 9038   3.468   2.852   0.946 -0.2653 -0.6282  0.6807
 3032TIP3    H1 9039   3.490   2.907   1.021  1.2247  0.0405 -0.1970
 3032TIP3    H2 9040   3.380   2.820   0.965 -0.1155 -0.1036  2.4780
 3033TIP3   OH2 9041   0.139   2.470   2.171 -0.4443 -0.1457  0.6872
 3033TIP3    H1 9042   0.059   2.446   2.124  0.0983  0.1989 -0.4453
 3033TIP3    H2 9043   0.205   2.482   2.103 -0.1694  2.5742  1.3186
 3034TIP3   OH2 9044   0.139   1.632   5.294  0.3482  0.2054  0.2572
 3034TIP3    H1 9045   0.045   1.611   5.289 -0.0283  1.6756  0.7241
 3034TIP3    H2 9046   0.142   1.718   5.334  1.9637 -0.1411  0.9409
 3035TIP3   OH2 9047   7.259   5.576   0.128  0.1547 -0.2574  0.0818
 3035TIP3    H1 9048   7.173   5.614   0.107  1.0791  1.6413 -0.4896
 3035TIP3    H2 9049   7.301   5.564   0.043  1.0013  0.1999  0.4244
 3036TIP3   OH2 9050   4.685   5.542   2.454 -0.3560  1.0041  0.0103
 3036TIP3    H1 9051   4.600   5.503   2.477  0.1411 -0.4427 -0.4945
 3036TIP3    H2 9052   4.738   5.533   2.533  0.6459 -1.9868 -0.8488
 3037TIP3   OH2 9053   3.365   7.082   3.495  0.4007 -0.0789 -0.1035
 3037TIP3    H1 9054   3.274   7.104   3.511  0.2958 -0.9245  0.5754
 3037TIP3    H2 9055   3.376   6.996   3.536  1.7304  0.4078  0.6229
 3038TIP3   OH2 9056   4.046   2.354   5.033  0.2857  0.0206  0.0257
 3038TIP3    H1 9057   4.093   2.428   4.993 -0.1951  0.3682  0.0850
 3038TIP3    H2 9058   4.113   2.305   5.080  0.5778  0.5565  0.1801
 3039TIP3   OH2 9059   1.879   2.957   5.151  0.2568  0.2557  0.5302
 3039TIP3    H1 9060   1.839   2.926   5.232  1.3185 -3.1364 -0.0667
 3039TIP3    H2 9061   1.853   2.893   5.085  4.6319 -1.0044 -0.3439
 3040TIP3   OH2 9062   2.071   7.473   6.777  0.0202  0.5748  0.0779
 3040TIP3    H1 9063   2.111   7.491   6.692 -0.7819 -0.2198 -0.4894
 3040TIP3    H2 9064   2.077   7.378   6.787 -2.4468  0.2919 -0.4468
 3041TIP3   OH2 9065   1.542   0.750   1.860  0.2151 -0.5423 -0.0783
 3041TIP3    H1 9066   1.569   0.821   1.918  0.5111 -0.5427 -0.2126
 3041TIP3    H2 9067   1.615   0.740   1.798 -0.3031 -0.2180 -0.7534
 3042TIP3   OH2 9068   2.539   3.686   5.813  0.4043  0.1590 -0.1103
 3042TIP3    H1 9069   2.566   3.603   5.775  1.3366  0.1913  0.4512
 3042TIP3    H2 9070   2.446   3.693   5.791  0.5838 -0.4915 -1.1193
 3043TIP3   OH2 9071   2.664   5.553   5.286 -0.0116 -0.2330 -0.4334
 3043TIP3    H1 9072   2.610   5.579   5.212 -0.4054  0.7659  0.1752
 3043TIP3    H2 9073   2.615   5.585   5.363  0.6948 -0.6755  0.2104
 3044TIP3   OH2 9074   2.192   3.186   4.379  0.3429 -0.2154  0.3321
 3044TIP3    H1 9075   2.175   3.278   4.358  0.5169 -0.3658 -0.4993
 3044TIP3    H2 9076   2.122   3.138   4.336 -0.4261 -0.3986  1.7444
 3045TIP3   OH2 9077   6.341   2.471   5.128 -0.0975 -0.1250  0.3578
 3045TIP3    H1 9078   6.428   2.459   5.166  0.5968  1.3309 -0.6760
 3045TIP3    H2 9079   6.356   2.518   5.045 -1.9097  0.8274  0.4956
 3046TIP3   OH2 9080   0.218   2.279   1.357  0.3372 -0.3338 -0.0846
 3046TIP3    H1 9081   0.147   2.310   1.300 -0.5139 -0.6058  0.8107
 3046TIP3    H2 9082   0.283   2.350   1.354 -0.1370  0.0898 -0.6062
 3047TIP3   OH2 9083   4.312   4.229   5.365  0.3831 -0.0540 -0.1407
 3047TIP3    H1 9084   4.262   4.211   5.444 -0.0413 -0.7239 -0.5487
 3047TIP3    H2 9085   4.249   4.270   5.305  0.6125  0.1308 -0.2595
 3048TIP3   OH2 9086   6.758   5.232   4.658 -0.0546  0.4865 -0.2458
 3048TIP3    H1 9087   6.713   5.159   4.617  1.1292 -0.1494 -0.4482
 3048TIP3    H2 9088   6.752   5.303   4.594  2.8384 -0.8444 -2.2053
 3049TIP3   OH2 9089   4.613   0.552   4.369 -0.4659 -0.1960 -0.1092
 3049TIP3    H1 9090   4.685   0.612   4.388 -0.7495  0.1685 -0.1649
 3049TIP3    H2 9091   4.562   0.597   4.302  0.4460 -1.3872 -1.6802
 3050TIP3   OH2 9092   2.097   7.346   6.459 -0.5476  0.8886 -0.0766
 3050TIP3    H1 9093   2.108   7.252   6.467  1.2186  1.1446  1.0977
 3050TIP3    H2 9094   2.103   7.363   6.365  0.1168 -0.0743 -0.2217
 3051TIP3   OH2 9095   0.246   2.532   1.744  0.2182 -0.1552  0.2019
 3051TIP3    H1 9096   0.231   2.591   1.818 -1.6458 -0.3622  0.0297
 3051TIP3    H2 9097   0.160   2.495   1.725  0.7817 -0.5882 -1.6689
 3052TIP3   OH2 9098   6.950   2.099   2.672 -0.4502  0.5245 -0.6552
 3052TIP3    H1 9099   6.870   2.062   2.635 -1.7937  2.5040  0.0793
 3052TIP3    H2 9100   6.919   2.160   2.739  1.7003  1.2378 -0.2298
 3053TIP3   OH2 9101   5.985   7.754   2.859 -1.0999 -0.4441 -0.1342
 3053TIP3    H1 9102   5.912   7.792   2.907 -0.4279  0.2332  0.3700
 3053TIP3    H2 9103   6.023   7.827   2.811 -0.5888 -0.7394 -0.1831
 3054TIP3   OH2 9104   4.169   4.359   1.071 -0.9539  0.1681  0.5635
 3054TIP3    H1 9105   4.159   4.276   1.026 -2.2265 -0.5218  2.0314
 3054TIP3    H2 9106   4.255   4.355   1.111  0.3570  0.9415 -1.9722
 3055TIP3   OH2 9107   8.029   7.529   1.478  0.2040 -0.0784 -0.0819
 3055TIP3    H1 9108   7.951   7.489   1.439  1.2245 -2.2237 -0.1152
 3055TIP3    H2 9109   8.006   7.543   1.570 -0.3801 -0.2917 -0.1944
 3056TIP3   OH2 9110   7.799   4.758   0.053 -0.0518  0.5577 -0.2668
 3056TIP3    H1 9111   7.814   4.666   0.035  0.5274  0.8083 -1.1168
 3056TIP3    H2 9112   7.712   4.761   0.093  1.0012 -0.6513  2.3415
 3057TIP3   OH2 9113   2.543   5.702   2.998  0.2760 -0.1811  0.2171
 3057TIP3    H1 9114   2.487   5.672   3.070 -0.9247 -1.6062 -1.2317
 3057TIP3    H2 9115   2.631   5.677   3.023  0.2836  1.6486  2.3275
 3058TIP3   OH2 9116   8.203   7.631   4.542  0.8640  1.0400  0.2745
 3058TIP3    H1 9117   8.196   7.700   4.608  2.6232  2.4601 -0.9135
 3058TIP3    H2 9118   8.122   7.639   4.492 -0.9776 -0.7230  2.7279
 3059TIP3   OH2 9119   6.348   1.167   5.971 -0.7675 -0.1715 -0.0557
 3059TIP3    H1 9120   6.345   1.117   5.889 -0.2888  0.0753 -0.2276
 3059TIP3    H2 9121   6.388   1.106   6.034 -1.5526 -0.5220  0.1199
 3060TIP3   OH2 9122   4.813   7.486   1.163  0.1471 -0.4052  0.2009
 3060TIP3    H1 9123   4.795   7.539   1.085 -0.8296  0.1800  0.8030
 3060TIP3    H2 9124   4.727   7.462   1.196  0.5736 -1.8958  0.2809
 3061TIP3   OH2 9125   6.515   4.684   6.371 -0.2495  0.1108 -0.7594
 3061TIP3    H1 9126   6.480   4.631   6.443 -0.2476 -1.3833 -1.7986
 3061TIP3    H2 9127   6.595   4.639   6.345 -0.1697  0.7070 -1.5930
 3062TIP3   OH2 9128   3.290   3.327   0.046  0.1990  0.3699 -0.3195
 3062TIP3    H1 9129   3.198   3.313   0.024 -0.4287  1.6277  1.3732
 3062TIP3    H2 9130   3.289   3.389   0.118  2.3489 -0.2815  0.3474
 3063TIP3   OH2 9131   8.000   5.239   1.211 -0.0959  0.0728 -0.2884
 3063TIP3    H1 9132   8.094   5.221   1.205 -0.0393  0.1325  0.3336
 3063TIP3    H2 9133   7.958   5.154   1.195  0.0297  0.2049 -1.3703
 3064TIP3   OH2 9134   1.146   1.105   6.095  0.2418  0.5208  1.1360
 3064TIP3    H1 9135   1.121   1.096   6.003  0.3028  0.6946  1.1007
 3064TIP3    H2 9136   1.110   1.028   6.138 -0.7193  0.9773  1.1690
 3065TIP3   OH2 9137   6.673   6.477   0.082 -0.3847  0.2642  0.0393
 3065TIP3    H1 9138   6.740   6.494   0.148 -0.2220 -1.4302  0.3441
 3065TIP3    H2 9139   6.617   6.410   0.121  0.8039 -2.2305 -2.2217
 3066TIP3   OH2 9140   0.877   1.429   4.320 -0.2936  0.3936  0.2723
 3066TIP3    H1 9141   0.969   1.422   4.296 -0.1200  0.8428  0.7995
 3066TIP3    H2 9142   0.852   1.518   4.294 -0.1701  0.8014  1.5059
 3067TIP3   OH2 9143   5.142   0.886   6.560  0.0351  0.1899  0.2733
 3067TIP3    H1 9144   5.137   0.877   6.655  2.7557  1.7253  0.6803
 3067TIP3    H2 9145   5.233   0.910   6.543 -0.5416  0.7094 -2.6773
 3068TIP3   OH2 9146   7.583   4.247   5.754  0.3371 -0.1426  0.4492
 3068TIP3    H1 9147   7.557   4.339   5.746  0.7895 -0.1551 -1.9174
 3068TIP3    H2 9148   7.549   4.220   5.839 -3.4403  1.1177 -0.4245
 3069TIP3   OH2 9149   4.719   3.294   0.343 -0.5360  0.2550  0.2103
 3069TIP3    H1 9150   4.649   3.319   0.282 -0.2830  0.3977 -0.0214
 3069TIP3    H2 9151   4.677   3.232   0.403 -0.6476 -0.2910 -0.4281
 3070TIP3   OH2 9152   6.793   6.252   2.038 -0.5930 -0.3274 -0.1475
 3070TIP3    H1 9153   6.752   6.332   2.071  1.7447  0.6230  0.6505
 3070TIP3    H2 9154   6.776   6.186   2.106  0.1434  0.3683  0.7433
 3071TIP3   OH2 9155   4.327   2.632   4.020 -0.7927 -0.2998  0.6833
 3071TIP3    H1 9156   4.302   2.562   4.080 -0.3737 -0.3076  0.8514
 3071TIP3    H2 9157   4.307   2.597   3.933 -1.0707 -0.4251  0.7948
 3072TIP3   OH2 9158   2.093   5.800   3.666  0.4774 -0.2546  0.0761
 3072TIP3    H1 9159   2.060   5.889   3.658 -0.2174 -0.4424  0.6832
 3072TIP3    H2 9160   2.021   5.745   3.633  0.7842 -0.6073 -0.0175
 3073TIP3   OH2 9161   0.218   0.342   1.200  0.8666 -0.7211 -0.0789
 3073TIP3    H1 9162   0.196   0.377   1.113 -1.2499 -1.6542  0.0314
 3073TIP3    H2 9163   0.287   0.278   1.183 -0.5935 -2.0417 -1.3385
 3074TIP3   OH2 9164   3.202   7.787   6.492  0.1115 -0.0037 -0.2533
 3074TIP3    H1 9165   3.251   7.747   6.564 -0.1387 -0.1004 -0.1344
 3074TIP3    H2 9166   3.262   7.850   6.454 -0.0102  0.5844  0.5113
 3075TIP3   OH2 9167   4.107   5.948   0.140  0.8004  0.5392  0.1289
 3075TIP3    H1 9168   4.185   5.973   0.091  2.0253 -1.1641  1.0978
 3075TIP3    H2 9169   4.088   5.859   0.111  0.2766  0.2927  1.1894
 3076TIP3   OH2 9170   1.466   1.693   2.474 -0.9035 -0.0916  0.6693
 3076TIP3    H1 9171   1.557   1.709   2.500 -1.3328 -0.3200  2.3894
 3076TIP3    H2 9172   1.449   1.760   2.407 -0.0409  1.1902  1.6735
 3077TIP3   OH2 9173   5.191   1.138   2.285 -0.1040  0.5125 -0.4604
 3077TIP3    H1 9174   5.247   1.109   2.213 -1.5000  0.8387 -1.7198
 3077TIP3    H2 9175   5.244   1.124   2.364  0.6438 -1.9582 -1.3148
 3078TIP3   OH2 9176   3.435   6.483   0.354  0.0385 -0.3902  0.3193
 3078TIP3    H1 9177   3.343   6.498   0.378 -0.5368  0.8384 -2.2883
 3078TIP3    H2 9178   3.450   6.391   0.377 -1.6897 -0.4904  1.2583
 3079TIP3   OH2 9179   1.073   5.984   3.104  0.1533 -0.1925 -0.3117
 3079TIP3    H1 9180   1.041   6.073   3.093  2.8882  1.1154  1.4015
 3079TIP3    H2 9181   1.008   5.941   3.160  0.2222  1.6637  1.2695
 3080TIP3   OH2 9182   0.381   6.963   2.582 -0.0575 -0.0030  0.1955
 3080TIP3    H1 9183   0.437   6.932   2.510 -0.0969 -1.4196  0.7557
 3080TIP3    H2 9184   0.343   6.884   2.619 -0.2546  0.7297  1.6194
 3081TIP3   OH2 9185   5.277   5.794   4.050 -0.3470 -0.0463 -0.0423
 3081TIP3    H1 9186   5.279   5.702   4.077 -1.0580 -0.2913 -0.8078
 3081TIP3    H2 9187   5.369   5.818   4.041 -0.1192 -1.5964 -2.8563
 3082TIP3   OH2 9188   8.289   0.476   6.516  0.2442 -0.5066 -0.2659
 3082TIP3    H1 9189   8.242   0.559   6.520 -0.1144 -0.7158 -0.1539
 3082TIP3    H2 9190   8.229   0.411   6.553 -0.6363 -1.3493 -2.8985
 3083TIP3   OH2 9191   6.407   4.974   1.930 -0.0589  0.0395 -0.2529
 3083TIP3    H1 9192   6.353   5.018   1.864  0.3623  1.0004  0.0303
 3083TIP3    H2 9193   6.493   5.014   1.921  0.3284 -0.7130  0.0392
 3084TIP3   OH2 9194   3.891   5.749   1.260  0.2726 -0.5600 -0.6440
 3084TIP3    H1 9195   3.887   5.835   1.302 -0.9502 -1.9158  2.3058
 3084TIP3    H2 9196   3.826   5.753   1.191  0.7247  1.0694 -1.0225
 3085TIP3   OH2 9197   0.568   1.987   0.879  0.2800 -0.0847 -0.3172
 3085TIP3    H1 9198   0.588   1.951   0.965  2.4320 -0.4729 -0.9204
 3085TIP3    H2 9199   0.567   1.911   0.820  0.0109  0.3080 -0.8350
 3086TIP3   OH2 9200   7.197  -0.017   4.593  0.4562  0.1438  0.6641
 3086TIP3    H1 9201   7.154   0.053   4.643 -1.5805  0.6593 -1.5846
 3086TIP3    H2 9202   7.276   0.025   4.557 -0.3847  1.1436 -0.0980
 3087TIP3   OH2 9203   7.703   6.912   5.868  0.1949  0.6227 -0.2613
 3087TIP3    H1 9204   7.691   6.820   5.892  0.2159  0.3477 -1.2510
 3087TIP3    H2 9205   7.792   6.932   5.895 -0.9221  1.4973  3.4188
 3088TIP3   OH2 9206   2.656   6.126   2.145  0.1342  0.3237  0.1482
 3088TIP3    H1 9207   2.636   6.043   2.188 -0.5986  0.1328 -0.5150
 3088TIP3    H2 9208   2.648   6.106   2.051  0.2545  1.0634 -0.0245
 3089TIP3   OH2 9209   6.963   7.359   1.866  0.2765 -0.6869 -0.9864
 3089TIP3    H1 9210   7.027   7.429   1.880 -0.2811 -0.0788 -1.4222
 3089TIP3    H2 9211   6.880   7.405   1.856 -0.1067 -1.4241 -1.1829
 3090TIP3   OH2 9212   1.380   2.065   1.608  0.2739 -0.1228  0.3897
 3090TIP3    H1 9213   1.466   2.107   1.596 -0.5257  0.9503 -2.6723
 3090TIP3    H2 9214   1.340   2.113   1.680  1.4668  0.7220  0.5329
 3091TIP3   OH2 9215   2.888   4.539   0.753 -0.3253  0.2810  0.1458
 3091TIP3    H1 9216   2.857   4.558   0.664 -1.4470 -0.7947  0.2844
 3091TIP3    H2 9217   2.911   4.625   0.789  2.4131  0.5719 -1.9439
 3092TIP3   OH2 9218   4.761   0.126   6.737 -0.8865  0.0264  0.7744
 3092TIP3    H1 9219   4.826   0.153   6.802 -1.1802 -0.0873  1.1203
 3092TIP3    H2 9220   4.812   0.108   6.658 -0.3994 -0.8493  1.2736
 3093TIP3   OH2 9221   2.539   3.223   5.638 -0.1370 -0.3433 -0.3014
 3093TIP3    H1 9222   2.544   3.288   5.708  1.8331 -0.7482  0.0233
 3093TIP3    H2 9223   2.490   3.265   5.568 -1.1785  0.4888  0.8831
 3094TIP3   OH2 9224   6.711   7.021   3.937  0.3133 -0.2891  0.0434
 3094TIP3    H1 9225   6.696   7.087   3.870  0.5872  0.4272  0.6682
 3094TIP3    H2 9226   6.676   6.940   3.900 -1.7063  0.5600  0.0062
 3095TIP3   OH2 9227   2.269   2.587   4.461 -0.0603 -0.0232  0.2924
 3095TIP3    H1 9228   2.258   2.495   4.487  1.3026  0.0248  1.0635
 3095TIP3    H2 9229   2.184   2.627   4.482 -1.4217 -1.4936 -1.9070
 3096TIP3   OH2 9230   7.724   7.716   6.242 -0.0624 -0.5291 -0.1892
 3096TIP3    H1 9231   7.687   7.645   6.189 -0.6632 -0.2077 -0.2104
 3096TIP3    H2 9232   7.754   7.781   6.179 -1.4491  0.1870 -0.1389
 3097TIP3   OH2 9233   7.472   3.283   1.531  0.1486  0.2179  0.0026
 3097TIP3    H1 9234   7.473   3.351   1.598  1.9522  0.4411 -0.2144
 3097TIP3    H2 9235   7.512   3.324   1.454  0.5780 -0.8593 -0.3660
 3098TIP3   OH2 9236   2.864   7.105   1.909  0.0689  0.0615  0.5644
 3098TIP3    H1 9237   2.790   7.104   1.970  1.0528  0.3848  1.8093
 3098TIP3    H2 9238   2.925   7.169   1.945  1.0175 -0.2786 -0.3638
 3099TIP3   OH2 9239   4.635   3.310   4.561  0.0405 -0.4549  0.4005
 3099TIP3    H1 9240   4.695   3.373   4.600 -0.7501 -0.5774  1.8753
 3099TIP3    H2 9241   4.571   3.292   4.629 -1.5089 -0.5672 -1.0263
 3100TIP3   OH2 9242   1.712   1.838   0.298 -0.0338 -0.1332  0.4796
 3100TIP3    H1 9243   1.663   1.760   0.326 -1.0116  1.1077  2.4168
 3100TIP3    H2 9244   1.645   1.895   0.259  0.5823 -0.0137 -0.4289
 3101TIP3   OH2 9245   2.837   2.304   3.247  0.3015 -0.2557 -0.4663
 3101TIP3    H1 9246   2.832   2.313   3.152 -0.9516 -0.3476 -0.4305
 3101TIP3    H2 9247   2.841   2.393   3.280 -1.1343 -0.1378 -0.5477
 3102TIP3   OH2 9248   4.853   1.462   0.189 -0.0420 -0.2154 -0.6388
 3102TIP3    H1 9249   4.773   1.410   0.182 -0.2614 -0.2100  1.3059
 3102TIP3    H2 9250   4.923   1.404   0.159 -0.3181 -1.6087  1.2090
 3103TIP3   OH2 9251   0.706   5.419   4.132 -0.1602 -0.2000 -0.3748
 3103TIP3    H1 9252   0.711   5.374   4.048 -2.7450  0.8408 -1.1562
 3103TIP3    H2 9253   0.676   5.351   4.193  0.3378 -0.6005 -0.5590
 3104TIP3   OH2 9254   6.445   4.049   5.106 -0.2208  0.0034  0.1790
 3104TIP3    H1 9255   6.370   4.082   5.156 -0.4999  2.6658 -1.7805
 3104TIP3    H2 9256   6.415   4.050   5.015  1.1324 -2.1976 -0.3814
 3105TIP3   OH2 9257   0.559   1.514   0.085 -0.5584 -0.2683 -0.6654
 3105TIP3    H1 9258   0.607   1.590   0.119  0.2810 -0.7921 -0.6279
 3105TIP3    H2 9259   0.518   1.475   0.161  0.1253 -0.6126 -0.4628
 3106TIP3   OH2 9260   1.010   1.650   6.587  0.6366 -0.1579  0.3433
 3106TIP3    H1 9261   1.095   1.630   6.627  0.8687  1.2268  0.6037
 3106TIP3    H2 9262   0.973   1.718   6.643  0.4192  0.9458 -1.0777
 3107TIP3   OH2 9263   7.844   2.181   1.490 -0.6077 -0.1532 -0.2771
 3107TIP3    H1 9264   7.844   2.195   1.585  0.8459  0.9994 -0.4117
 3107TIP3    H2 9265   7.932   2.205   1.462 -1.2198  0.2063 -2.0157
 3108TIP3   OH2 9266   5.590   7.167   2.455 -0.1725 -0.1427  0.0728
 3108TIP3    H1 9267   5.512   7.113   2.461 -1.4728  1.5984 -0.3764
 3108TIP3    H2 9268   5.631   7.140   2.372 -0.0775 -1.3077  0.4815
 3109TIP3   OH2 9269   4.971   1.700   5.555 -0.2878 -0.0900  0.5813
 3109TIP3    H1 9270   4.897   1.747   5.593  1.1218  2.4752  0.3383
 3109TIP3    H2 9271   5.005   1.758   5.488  1.2720 -1.7068 -0.0998
 3110TIP3   OH2 9272   1.004   4.356   1.511 -0.3373 -0.1509 -0.7831
 3110TIP3    H1 9273   1.068   4.362   1.583 -1.3175  0.1890  0.0877
 3110TIP3    H2 9274   1.010   4.265   1.482  0.4271 -0.1661 -0.6103
 3111TIP3   OH2 9275   2.031   4.882   3.796  0.1143  0.7373  0.4747
 3111TIP3    H1 9276   2.077   4.820   3.739 -1.1909 -1.0695  1.2841
 3111TIP3    H2 9277   2.077   4.965   3.783  0.5863  0.1471 -2.3272
 3112TIP3   OH2 9278   2.269   2.092   0.342  0.0153 -0.1786 -0.2685
 3112TIP3    H1 9279   2.219   2.172   0.357  1.8579  0.9742 -0.0753
 3112TIP3    H2 9280   2.202   2.025   0.328 -1.6226  0.9897  1.4251
 3113TIP3   OH2 9281   4.277   4.987   2.256 -0.3176  0.0834 -0.1418
 3113TIP3    H1 9282   4.206   5.006   2.317 -0.8989  0.5521 -0.9299
 3113TIP3    H2 9283   4.289   5.068   2.207  0.8553  0.0448  0.0545
 3114TIP3   OH2 9284   5.704   7.038   6.633 -0.0687  0.0284  0.2247
 3114TIP3    H1 9285   5.785   7.027   6.583 -1.8329 -0.2265 -2.7914
 3114TIP3    H2 9286   5.705   7.130   6.659  1.1163  0.0471  0.1929
 3115TIP3   OH2 9287   3.443   6.546   4.075  0.3619  0.3106  0.7427
 3115TIP3    H1 9288   3.369   6.592   4.115  1.1586  0.0037  2.6954
 3115TIP3    H2 9289   3.436   6.457   4.109  0.4391 -0.2860 -0.7540
 3116TIP3   OH2 9290   7.569   7.774   1.244  0.0883  0.2483  0.0185
 3116TIP3    H1 9291   7.542   7.719   1.318  1.6250 -0.1248  0.3332
 3116TIP3    H2 9292   7.556   7.863   1.274 -1.8835  0.1322 -0.2880
 3117TIP3   OH2 9293   4.198   0.859   4.299 -0.4987  0.0436  0.0576
 3117TIP3    H1 9294   4.178   0.818   4.383 -1.1198  0.5449  0.1617
 3117TIP3    H2 9295   4.114   0.859   4.252 -0.4204  0.8189 -0.0981
 3118TIP3   OH2 9296   1.606   2.072   5.704  0.0077 -0.2912  0.1229
 3118TIP3    H1 9297   1.658   2.147   5.674  1.1141 -0.1831  2.1082
 3118TIP3    H2 9298   1.631   2.001   5.645  1.5638  0.0805  0.2678
 3119TIP3   OH2 9299   2.288   5.735   2.144  0.5442 -0.5835 -0.4538
 3119TIP3    H1 9300   2.202   5.754   2.181  0.8558  1.1819 -0.5705
 3119TIP3    H2 9301   2.317   5.656   2.190  0.1262  0.4761  1.7352
 3120TIP3   OH2 9302   3.885   4.859   3.669  0.3632 -0.1547  0.0587
 3120TIP3    H1 9303   3.873   4.915   3.592  2.1968  0.6666  0.3036
 3120TIP3    H2 9304   3.907   4.920   3.739 -0.2380 -0.9909  0.9996
 3121TIP3   OH2 9305   0.124   0.167   2.700  0.5812  0.6826  0.3801
 3121TIP3    H1 9306   0.151   0.187   2.610  0.8555 -0.8869  0.0801
 3121TIP3    H2 9307   0.206   0.161   2.749  0.5507 -0.2049  0.3347
 3122TIP3   OH2 9308   7.002   5.621   4.286  0.2544  0.1286  0.1503
 3122TIP3    H1 9309   6.946   5.621   4.209  0.0913  1.6023  0.2230
 3122TIP3    H2 9310   6.949   5.582   4.355  0.1186 -0.4902 -0.3028
 3123TIP3   OH2 9311   8.234   5.317   1.937  0.1062  0.4196  0.8441
 3123TIP3    H1 9312   8.296   5.350   1.872  1.3588 -1.7269  0.8282
 3123TIP3    H2 9313   8.284   5.252   1.986 -1.1751  1.1045  3.1847
 3124TIP3   OH2 9314   0.766   4.864   5.444  0.2430 -0.1622 -0.3305
 3124TIP3    H1 9315   0.780   4.869   5.349 -0.7112 -0.4267 -0.5049
 3124TIP3    H2 9316   0.693   4.925   5.460 -0.1938 -0.7863  0.0908
 3125TIP3   OH2 9317   3.703   3.183   2.043 -0.1718  0.0349 -0.2365
 3125TIP3    H1 9318   3.652   3.261   2.064 -1.3051 -0.1425 -2.0557
 3125TIP3    H2 9319   3.690   3.125   2.117 -0.4962  1.0120  0.4913
 3126TIP3   OH2 9320   2.285   0.681   1.762 -0.3600 -0.2085 -0.4798
 3126TIP3    H1 9321   2.227   0.627   1.815 -0.8688 -0.0443 -0.8515
 3126TIP3    H2 9322   2.352   0.712   1.822 -0.9549  0.0178  0.0709
 3127TIP3   OH2 9323   6.265   2.647   2.993  0.5107  0.1994  0.5345
 3127TIP3    H1 9324   6.228   2.564   2.964 -0.3499  0.5579  0.5742
 3127TIP3    H2 9325   6.331   2.623   3.057  0.9534 -0.5012 -0.1650
 3128TIP3   OH2 9326   5.995   7.066   2.505  0.4174 -0.3263  0.1174
 3128TIP3    H1 9327   5.941   6.996   2.469  1.1117 -1.7178  1.6580
 3128TIP3    H2 9328   5.937   7.113   2.564  0.8246 -1.8477  1.8034
 3129TIP3   OH2 9329   0.699   3.862   1.924 -0.0693  0.0321  0.6094
 3129TIP3    H1 9330   0.657   3.793   1.975 -0.5847  0.4355  0.7389
 3129TIP3    H2 9331   0.692   3.941   1.979  0.2894  0.2410  0.3592
 3130TIP3   OH2 9332   8.179   0.956   5.593 -0.9381  0.3197 -0.4250
 3130TIP3    H1 9333   8.149   0.924   5.678  0.5876  0.8081  0.3151
 3130TIP3    H2 9334   8.203   1.047   5.608  1.1307 -0.0955 -0.8848
 3131TIP3   OH2 9335   4.622   6.952   2.758  0.0967 -0.2997  0.2650
 3131TIP3    H1 9336   4.571   6.922   2.682 -0.0471  0.1948  0.1595
 3131TIP3    H2 9337   4.711   6.921   2.741  0.0314 -0.3288 -0.0280
 3132TIP3   OH2 9338   7.886   1.983   3.877 -0.5359 -0.2917  0.0232
 3132TIP3    H1 9339   7.823   2.054   3.892  1.7588  1.9266 -0.0788
 3132TIP3    H2 9340   7.948   1.991   3.949  1.5070 -0.1290 -1.6655
 3133TIP3   OH2 9341   3.839   6.677   0.451 -0.0666  0.5578  0.1420
 3133TIP3    H1 9342   3.895   6.754   0.465 -1.7474  1.6741  1.1507
 3133TIP3    H2 9343   3.776   6.706   0.385  0.9612 -0.9676 -1.6276
 3134TIP3   OH2 9344   4.535   0.662   2.428  0.1476 -0.1933 -0.3765
 3134TIP3    H1 9345   4.571   0.720   2.495  1.2939  0.1815 -1.2636
 3134TIP3    H2 9346   4.572   0.696   2.346 -0.2198 -1.3924 -1.0586
 3135TIP3   OH2 9347   5.655   6.393   5.178 -0.2222  0.0853  0.0474
 3135TIP3    H1 9348   5.733   6.366   5.227 -0.6353  0.0006  0.6639
 3135TIP3    H2 9349   5.690   6.435   5.099  0.4648  0.8423  0.7355
 3136TIP3   OH2 9350   7.066   2.746   0.554  0.0143 -0.2317  0.8618
 3136TIP3    H1 9351   7.049   2.685   0.626 -1.6987 -0.2371  0.5041
 3136TIP3    H2 9352   7.048   2.832   0.590  0.2657 -0.1369  0.7604
 3137TIP3   OH2 9353   8.195   2.155   3.203  0.0197  0.4331  0.2281
 3137TIP3    H1 9354   8.178   2.222   3.269  2.0874  0.2613  0.9973
 3137TIP3    H2 9355   8.237   2.084   3.251 -0.0729 -0.4576 -0.9703
 3138TIP3   OH2 9356   0.305   4.480   1.143 -0.6656 -0.3398 -0.1868
 3138TIP3    H1 9357   0.331   4.502   1.232 -2.3927  0.5248  0.1232
 3138TIP3    H2 9358   0.249   4.403   1.152 -1.3342  0.1096 -0.4641
 3139TIP3   OH2 9359   4.310   4.256   1.736  0.1558  0.0163  0.0184
 3139TIP3    H1 9360   4.325   4.345   1.705  2.0784  0.6633  2.4006
 3139TIP3    H2 9361   4.346   4.200   1.668  1.6445  1.2175 -0.2373
 3140TIP3   OH2 9362   1.317   4.121   2.853 -0.0881  0.2950  0.4285
 3140TIP3    H1 9363   1.300   4.029   2.876 -0.4472  0.2114 -0.1404
 3140TIP3    H2 9364   1.262   4.171   2.913 -0.4044  0.1144  0.2891
 3141TIP3   OH2 9365   5.364   1.757   5.027 -0.7595  0.6033 -0.3054
 3141TIP3    H1 9366   5.330   1.847   5.028 -0.5036  0.7376 -1.4682
 3141TIP3    H2 9367   5.375   1.734   5.119 -1.5225  1.5003  0.0253
 3142TIP3   OH2 9368   6.476   5.433   0.110 -0.1416  0.0979  0.0050
 3142TIP3    H1 9369   6.539   5.439   0.039 -1.3337 -1.5041 -1.2860
 3142TIP3    H2 9370   6.391   5.447   0.067 -0.7647  1.0556  1.4822
 3143TIP3   OH2 9371   6.303   3.373   0.438  0.3903 -0.3923 -0.4211
 3143TIP3    H1 9372   6.337   3.311   0.372 -0.4542 -0.7025 -0.5829
 3143TIP3    H2 9373   6.311   3.458   0.396 -2.5403 -0.8038 -2.0529
 3144TIP3   OH2 9374   1.769   3.926   1.349 -0.1346 -0.2189 -0.9492
 3144TIP3    H1 9375   1.745   3.973   1.429  0.8361  2.8758 -2.3192
 3144TIP3    H2 9376   1.851   3.881   1.371  0.5025  1.1689 -0.3361
 3145TIP3   OH2 9377   8.040   3.302   6.712  0.3803 -0.2204  0.1021
 3145TIP3    H1 9378   7.997   3.217   6.717 -0.0855 -0.0055 -0.2199
 3145TIP3    H2 9379   8.067   3.320   6.802  0.7778 -0.8569  0.1181
 3146TIP3   OH2 9380   6.430   3.563   0.094  0.0877  0.3924 -0.4572
 3146TIP3    H1 9381   6.457   3.531   0.181  0.1978  0.1043 -0.5977
 3146TIP3    H2 9382   6.507   3.549   0.039  0.4461  1.6652 -0.3327
 3147TIP3   OH2 9383   7.657   5.383   3.932 -0.2084  0.2701 -0.2226
 3147TIP3    H1 9384   7.589   5.316   3.943 -1.2871  1.3503 -0.0741
 3147TIP3    H2 9385   7.625   5.436   3.859 -0.3090  1.7120  0.8304
 3148TIP3   OH2 9386   1.731   7.638   1.579 -0.5128  0.0561 -0.2808
 3148TIP3    H1 9387   1.745   7.596   1.494 -1.0416 -0.4135 -0.1409
 3148TIP3    H2 9388   1.716   7.730   1.557  0.8735  0.2340 -0.5680
 3149TIP3   OH2 9389   6.698   4.159   3.709 -0.3657 -0.1765 -0.3606
 3149TIP3    H1 9390   6.794   4.154   3.711 -0.3927 -0.5410  1.0041
 3149TIP3    H2 9391   6.669   4.089   3.767 -1.5375 -1.3597 -2.2905
 3150TIP3   OH2 9392   2.434   4.965   6.333  0.0515  0.0300  0.1610
 3150TIP3    H1 9393   2.523   4.949   6.364  0.0019 -1.0542 -0.2104
 3150TIP3    H2 9394   2.444   4.987   6.240 -0.0960 -0.4399  0.0335
 3151TIP3   OH2 9395   4.820   5.320   6.394  0.0416  0.4141  0.2390
 3151TIP3    H1 9396   4.879   5.256   6.433 -0.4708 -1.2732 -1.5913
 3151TIP3    H2 9397   4.785   5.370   6.468  1.0866 -0.8753  1.6415
 3152TIP3   OH2 9398   1.085   0.758   1.461 -0.4158  0.1466 -0.1349
 3152TIP3    H1 9399   0.993   0.739   1.442 -0.1209 -0.0444 -1.5070
 3152TIP3    H2 9400   1.088   0.854   1.468 -1.1928  0.0450  2.8084
 3153TIP3   OH2 9401   6.652   6.079   2.198 -0.7156  0.0860  0.1080
 3153TIP3    H1 9402   6.577   6.120   2.241 -0.3534  0.0658  0.7586
 3153TIP3    H2 9403   6.672   6.003   2.252 -0.9246 -0.5455 -0.6854
 3154TIP3   OH2 9404   2.180   0.917   3.409 -0.2390 -0.1532 -0.4246
 3154TIP3    H1 9405   2.231   0.979   3.460 -0.2399  1.0654 -1.8568
 3154TIP3    H2 9406   2.244   0.852   3.379 -0.3075 -1.1264  1.4197
 3155TIP3   OH2 9407   5.527   6.000   6.444 -0.1636  0.6874 -0.3656
 3155TIP3    H1 9408   5.482   6.043   6.517 -0.0864 -0.6963  0.5515
 3155TIP3    H2 9409   5.620   6.013   6.462 -0.1205 -0.3545  0.2720
 3156TIP3   OH2 9410   3.083   2.366   1.411 -0.1683 -0.0105 -0.0026
 3156TIP3    H1 9411   3.081   2.271   1.399 -0.3773 -0.1022  0.6842
 3156TIP3    H2 9412   3.173   2.386   1.436 -0.4187 -0.2125  1.1353
 3157TIP3   OH2 9413   5.924   6.429   5.772  0.1418  0.2987  0.0837
 3157TIP3    H1 9414   5.834   6.400   5.784  0.4563 -0.5731  0.4698
 3157TIP3    H2 9415   5.917   6.517   5.736 -0.8803 -0.4796 -1.8079
 3158TIP3   OH2 9416   4.736   4.688   2.934 -0.1694  0.2409  0.1557
 3158TIP3    H1 9417   4.721   4.765   2.989 -1.3228 -0.7545  1.3078
 3158TIP3    H2 9418   4.819   4.706   2.890 -0.1708  1.9215  0.7456
 3159TIP3   OH2 9419   0.339   0.374   5.356 -0.9524  0.4537 -0.1944
 3159TIP3    H1 9420   0.249   0.399   5.379 -1.1060  1.0671 -1.3758
 3159TIP3    H2 9421   0.372   0.449   5.306 -0.0514 -0.1045 -0.4462
 3160TIP3   OH2 9422   1.168   4.143   5.661  0.0055 -0.2438  0.3301
 3160TIP3    H1 9423   1.186   4.055   5.627 -1.7698 -0.4732 -0.0842
 3160TIP3    H2 9424   1.245   4.163   5.716  0.1661 -2.3217  0.9610
 3161TIP3   OH2 9425   5.753   2.557   1.095  0.8950 -0.5725  0.2910
 3161TIP3    H1 9426   5.665   2.593   1.087  2.3530  4.0914  1.9889
 3161TIP3    H2 9427   5.783   2.546   1.005 -0.7009 -0.2407 -0.3177
 3162TIP3   OH2 9428   6.605   5.051   0.781  0.0685  0.3420 -0.7067
 3162TIP3    H1 9429   6.598   5.143   0.756 -0.7305 -0.1296 -2.3944
 3162TIP3    H2 9430   6.601   5.003   0.698 -1.1369 -1.2778  0.2130
 3163TIP3   OH2 9431   5.074   1.269   3.673 -0.8129  0.5604 -0.9242
 3163TIP3    H1 9432   5.099   1.223   3.592  1.7866 -1.2657  0.7382
 3163TIP3    H2 9433   5.133   1.344   3.676 -0.6318  0.4014 -0.5365
 3164TIP3   OH2 9434   0.470   3.391   2.560  0.1444  0.2420 -0.2994
 3164TIP3    H1 9435   0.376   3.395   2.578  0.0683  0.6956 -0.7676
 3164TIP3    H2 9436   0.504   3.329   2.624 -0.2346  1.1864  0.8531
 3165TIP3   OH2 9437   2.844   6.176   1.728  0.0949  0.4200  0.2118
 3165TIP3    H1 9438   2.820   6.110   1.793 -0.9922 -0.7107 -1.2754
 3165TIP3    H2 9439   2.847   6.128   1.646  1.1836  1.8713 -0.6370
 3166TIP3   OH2 9440   6.143   2.313   5.302  0.9774  0.1852  0.3160
 3166TIP3    H1 9441   6.170   2.400   5.272  0.8257  0.2189  0.2763
 3166TIP3    H2 9442   6.076   2.286   5.239  0.8543  0.1398  0.4670
 3167TIP3   OH2 9443   5.093   3.520   2.981  0.2366  0.1172  0.1181
 3167TIP3    H1 9444   5.137   3.475   2.909 -0.3254 -2.2141  1.1668
 3167TIP3    H2 9445   5.014   3.557   2.941  0.7492  0.2797 -0.7775
 3168TIP3   OH2 9446   3.240   4.348   6.668  0.7417  0.4473  0.1314
 3168TIP3    H1 9447   3.257   4.293   6.744  3.3874 -1.8935 -1.9080
 3168TIP3    H2 9448   3.168   4.305   6.622  0.4832  0.7145  0.2814
 3169TIP3   OH2 9449   2.863   4.850   5.056 -0.3164  0.1441 -0.7408
 3169TIP3    H1 9450   2.797   4.912   5.087 -1.4010 -2.2607  2.2241
 3169TIP3    H2 9451   2.813   4.782   5.010  0.3807 -0.4585 -0.6258
 3170TIP3   OH2 9452   4.320   2.807   0.642  0.1915  0.0020  0.1328
 3170TIP3    H1 9453   4.346   2.732   0.589  0.2807  0.0951  0.0454
 3170TIP3    H2 9454   4.278   2.768   0.719 -0.1773 -0.1278 -0.1267
 3171TIP3   OH2 9455   1.209   4.760   4.915  0.1950  0.3556  0.3051
 3171TIP3    H1 9456   1.234   4.676   4.952  1.3443  0.6311  0.2153
 3171TIP3    H2 9457   1.293   4.801   4.892 -0.3221  1.6450  0.6424
 3172TIP3   OH2 9458   8.018   2.595   4.637 -0.1310 -0.0600  0.1835
 3172TIP3    H1 9459   8.059   2.659   4.695  0.6097  0.6027 -1.0467
 3172TIP3    H2 9460   8.072   2.595   4.558 -3.0083  1.5746 -1.9523
 3173TIP3   OH2 9461   6.824   1.352   5.835  0.0940 -0.1414 -0.1105
 3173TIP3    H1 9462   6.752   1.413   5.820 -0.0805 -0.7641 -2.0866
 3173TIP3    H2 9463   6.903   1.403   5.820  0.1421  0.6314  2.3925
 3174TIP3   OH2 9464   6.605   4.737   0.780 -0.4382  0.2619 -0.1204
 3174TIP3    H1 9465   6.623   4.766   0.870 -0.0850 -2.5388  0.8138
 3174TIP3    H2 9466   6.538   4.798   0.748 -0.3139  1.5492  1.9071
 3175TIP3   OH2 9467   2.079   2.520   0.825  0.2198 -0.3671 -0.5267
 3175TIP3    H1 9468   2.169   2.498   0.847 -0.4953 -3.1107  0.0151
 3175TIP3    H2 9469   2.083   2.550   0.734  1.7488  0.2663 -0.2757
 3176TIP3   OH2 9470   5.248   4.958   3.144 -0.1465 -0.2379  0.5866
 3176TIP3    H1 9471   5.271   4.868   3.121  0.1628 -0.0443  0.1086
 3176TIP3    H2 9472   5.157   4.967   3.116 -0.1144 -0.3421  0.4467
 3177TIP3   OH2 9473   4.160   1.087   4.518 -0.1305  0.3082  0.1545
 3177TIP3    H1 9474   4.246   1.108   4.555  0.0602 -1.8822  1.1241
 3177TIP3    H2 9475   4.180   1.026   4.446 -0.8520 -0.1458  0.3334
 3178TIP3   OH2 9476   0.365   5.638   5.699 -0.1392 -0.3627 -0.0932
 3178TIP3    H1 9477   0.297   5.700   5.723 -0.3081 -0.3124 -0.6891
 3178TIP3    H2 9478   0.338   5.604   5.613  0.3232 -0.7137 -0.1054
 3179TIP3   OH2 9479   0.389   5.555   4.327 -0.4505 -0.3553  0.0048
 3179TIP3    H1 9480   0.414   5.622   4.390 -1.7953 -0.4531  0.6600
 3179TIP3    H2 9481   0.395   5.599   4.242  0.7125 -0.0313  0.2297
 3180TIP3   OH2 9482   7.378   5.779   2.782 -0.5190 -0.6216 -0.2976
 3180TIP3    H1 9483   7.288   5.774   2.815 -0.8057  0.3433 -0.8688
 3180TIP3    H2 9484   7.368   5.781   2.687  0.1584 -1.1802 -0.3868
 3181TIP3   OH2 9485   4.602   4.668   2.661  0.0011  0.0742  0.7553
 3181TIP3    H1 9486   4.537   4.728   2.626 -0.6526 -1.6754 -1.2569
 3181TIP3    H2 9487   4.597   4.679   2.755 -1.8334  1.3809  0.5531
 3182TIP3   OH2 9488   4.938   3.655   1.780 -0.6132 -0.4361  0.4534
 3182TIP3    H1 9489   5.032   3.665   1.772 -0.6480  0.2545  0.7976
 3182TIP3    H2 9490   4.912   3.725   1.841 -1.1768 -1.3623  1.3190
 3183TIP3   OH2 9491   1.472   4.848   3.319  0.2513  0.0610 -0.8656
 3183TIP3    H1 9492   1.483   4.815   3.230  0.9288  0.1266 -0.8084
 3183TIP3    H2 9493   1.387   4.812   3.348 -1.0332  1.7677 -2.2954
 3184TIP3   OH2 9494   2.284   5.446   3.436 -0.3810  0.2148 -0.4783
 3184TIP3    H1 9495   2.350   5.486   3.493  0.8904 -1.1082 -0.9436
 3184TIP3    H2 9496   2.320   5.455   3.348 -0.3411 -1.3476 -0.6519
 3185TIP3   OH2 9497   2.421   4.614   0.610 -0.0539  1.0772  0.2042
 3185TIP3    H1 9498   2.431   4.521   0.625 -0.3001  0.7985 -1.2012
 3185TIP3    H2 9499   2.336   4.622   0.565  1.2868  1.6109 -2.4009
 3186TIP3   OH2 9500   5.459   4.345   2.206  0.4254  0.6104  0.6801
 3186TIP3    H1 9501   5.512   4.275   2.168 -0.2354 -0.5093  1.7260
 3186TIP3    H2 9502   5.493   4.355   2.295 -1.4962 -0.6565  1.6452
 3187TIP3   OH2 9503   2.968   0.675   5.930 -0.5271  0.2498  0.0019
 3187TIP3    H1 9504   3.009   0.736   5.992 -0.5240  0.4276 -0.1730
 3187TIP3    H2 9505   2.874   0.685   5.947 -0.4892 -0.5436  0.7672
 3188TIP3   OH2 9506   5.824   1.208   4.461 -0.3542  0.4846  0.1703
 3188TIP3    H1 9507   5.813   1.298   4.492 -0.6071  0.6993 -0.5278
 3188TIP3    H2 9508   5.774   1.205   4.379  0.4630 -0.0204 -0.3121
 3189TIP3   OH2 9509   0.025   4.939   5.210  0.4226  0.3309  0.5127
 3189TIP3    H1 9510   0.112   4.947   5.171 -0.5069 -1.2876 -2.1323
 3189TIP3    H2 9511  -0.035   4.945   5.136 -1.7129  0.7790  2.1932
 3190TIP3   OH2 9512   0.627   0.739   4.128 -0.2943 -0.0741 -0.1258
 3190TIP3    H1 9513   0.571   0.807   4.090  1.5632  1.3207 -0.5596
 3190TIP3    H2 9514   0.610   0.744   4.222 -0.8593  0.3457 -0.2432
 3191TIP3   OH2 9515   0.963   0.373   2.964  0.3003 -0.1980 -0.1326
 3191TIP3    H1 9516   0.974   0.279   2.959  0.7773 -0.1579  0.0803
 3191TIP3    H2 9517   1.041   0.409   2.921  1.0645  0.0952  1.4236
 3192TIP3   OH2 9518   5.989   3.190   3.507 -0.4383  0.1368  0.2296
 3192TIP3    H1 9519   6.012   3.273   3.548 -0.6622  0.7929 -0.9298
 3192TIP3    H2 9520   5.957   3.214   3.420  0.4408 -1.2172 -0.5092
 3193TIP3   OH2 9521   3.088   6.288   6.233  0.1602  0.4675 -0.0514
 3193TIP3    H1 9522   3.165   6.345   6.232  0.8678 -0.4666 -0.0766
 3193TIP3    H2 9523   3.041   6.311   6.153  1.5130 -0.3798 -1.1487
 3194TIP3   OH2 9524   3.389   3.977   1.788 -0.1810  0.2166  0.0380
 3194TIP3    H1 9525   3.398   4.069   1.814  0.0798  0.4540 -0.8390
 3194TIP3    H2 9526   3.418   3.927   1.864 -0.8986  0.8488  0.7363
 3195TIP3   OH2 9527   7.784   6.099   0.931  0.1595 -0.0173  0.1851
 3195TIP3    H1 9528   7.873   6.112   0.963  0.0254  0.6462  0.2959
 3195TIP3    H2 9529   7.770   6.171   0.869 -0.7132  0.5940  1.0553
 3196TIP3   OH2 9530   1.358   3.872   1.491 -0.8521 -0.6704  0.2911
 3196TIP3    H1 9531   1.341   3.829   1.407  1.9443 -2.4759  0.5123
 3196TIP3    H2 9532   1.284   3.847   1.546 -1.0252 -2.3842 -0.6424
 3197TIP3   OH2 9533   1.377   2.519   5.411 -0.1466 -0.1937  0.1615
 3197TIP3    H1 9534   1.297   2.561   5.442  0.5142  0.9538  0.3420
 3197TIP3    H2 9535   1.391   2.446   5.472  0.4498  1.2715  1.8554
 3198TIP3   OH2 9536   0.130   4.790   3.536 -0.1414  0.4428  0.7451
 3198TIP3    H1 9537   0.094   4.812   3.450 -1.4483 -1.0721  0.8567
 3198TIP3    H2 9538   0.055   4.794   3.595 -0.0694 -2.1049  1.1156
 3199TIP3   OH2 9539   0.420   1.873   3.815  0.5057 -0.0950 -0.8281
 3199TIP3    H1 9540   0.405   1.880   3.910 -1.1461  0.7637 -1.1209
 3199TIP3    H2 9541   0.428   1.779   3.799 -1.8366 -0.4642 -0.1733
 3200TIP3   OH2 9542   8.042   1.752   1.861  0.3716 -0.3526 -0.7330
 3200TIP3    H1 9543   7.995   1.762   1.778  1.7298  2.6144 -1.2585
 3200TIP3    H2 9544   7.983   1.790   1.927  0.5832  0.2196 -0.8652
 3201TIP3   OH2 9545   0.748   5.462   1.082  0.0889 -0.0145 -0.0525
 3201TIP3    H1 9546   0.670   5.414   1.109  0.2402 -0.6048 -0.6399
 3201TIP3    H2 9547   0.754   5.535   1.144 -0.8204 -0.0643  0.1073
 3202TIP3   OH2 9548   5.933   7.538   5.244  0.4578  0.6618 -0.3455
 3202TIP3    H1 9549   5.943   7.579   5.158  1.8986  1.5137  0.2007
 3202TIP3    H2 9550   6.000   7.470   5.246 -0.1314  0.0755 -0.2038
 3203TIP3   OH2 9551   2.394   2.224   2.164  0.2792  0.1072  0.1528
 3203TIP3    H1 9552   2.462   2.248   2.226  0.6214  2.7004 -1.0539
 3203TIP3    H2 9553   2.440   2.184   2.090  0.1037 -1.0754  0.6690
 3204TIP3   OH2 9554   5.512   4.185   4.746 -0.2148  0.0996 -0.5200
 3204TIP3    H1 9555   5.498   4.131   4.668 -0.3154  0.4561 -0.7528
 3204TIP3    H2 9556   5.485   4.273   4.719  0.1371  0.3058 -0.2067
 3205TIP3   OH2 9557   5.553   1.212   5.613 -0.1032  0.0446  0.1576
 3205TIP3    H1 9558   5.532   1.120   5.596 -0.4169 -0.4623  2.7786
 3205TIP3    H2 9559   5.467   1.254   5.620  0.0129  0.3064 -0.0258
 3206TIP3   OH2 9560   8.213   3.290   2.074  0.1338  0.3755 -0.3080
 3206TIP3    H1 9561   8.130   3.299   2.121  0.5041  0.7196  0.2926
 3206TIP3    H2 9562   8.276   3.338   2.128  0.9007 -0.6143 -0.3089
 3207TIP3   OH2 9563   7.236   2.862   2.248 -0.0445  0.4296  0.4968
 3207TIP3    H1 9564   7.153   2.816   2.238 -0.8580  1.5694  1.6236
 3207TIP3    H2 9565   7.270   2.871   2.159  0.4906 -2.8324  0.2588
 3208TIP3   OH2 9566   3.637   0.758   6.038  0.2468  0.1316 -0.3313
 3208TIP3    H1 9567   3.579   0.810   5.981  0.8396  1.6149  0.3648
 3208TIP3    H2 9568   3.577   0.706   6.091 -0.3620 -0.1510 -1.2615
 3209TIP3   OH2 9569   4.959   7.368   2.010 -0.3555 -0.4999 -0.3171
 3209TIP3    H1 9570   4.918   7.313   1.943  0.2968 -0.5357 -0.6914
 3209TIP3    H2 9571   4.952   7.457   1.976  0.8038 -0.6076 -0.8868
 3210TIP3   OH2 9572   5.985   3.228   3.902  0.1860 -0.1450 -0.6770
 3210TIP3    H1 9573   5.923   3.164   3.937 -0.5379  0.7561 -0.2893
 3210TIP3    H2 9574   5.932   3.286   3.848  0.7204  0.5291 -0.4906
 3211TIP3   OH2 9575   0.897   2.833   0.224  0.1662  0.2486  0.2783
 3211TIP3    H1 9576   0.808   2.870   0.221  0.0380 -0.1503 -1.5559
 3211TIP3    H2 9577   0.954   2.908   0.206  0.0561  0.0649 -0.8659
 3212TIP3   OH2 9578   1.134   1.034   0.752  0.5428 -0.3023 -0.2072
 3212TIP3    H1 9579   1.213   1.038   0.806 -0.0617 -0.4239  0.7087
 3212TIP3    H2 9580   1.063   1.025   0.815 -0.1892 -0.3752 -1.0317
 3213TIP3   OH2 9581   4.567   1.588   3.931  0.1664  0.5248 -0.0423
 3213TIP3    H1 9582   4.471   1.593   3.929  0.2383  2.9179 -0.5765
 3213TIP3    H2 9583   4.592   1.636   4.010  0.9575 -0.0576  0.0791
 3214TIP3   OH2 9584   5.641   2.838   6.483 -0.5348 -0.5146 -0.5999
 3214TIP3    H1 9585   5.726   2.855   6.523 -0.9584 -1.1339  0.6214
 3214TIP3    H2 9586   5.661   2.796   6.400  0.3719 -2.8255  0.6941
 3215TIP3   OH2 9587   7.101   1.622   0.149  0.2243  0.3494  0.1134
 3215TIP3    H1 9588   7.147   1.601   0.067 -1.6260  0.0586 -0.9041
 3215TIP3    H2 9589   7.170   1.625   0.215  1.5050 -1.8663 -1.0029
 3216TIP3   OH2 9590   7.608   7.123   4.571 -0.3704 -0.2733  0.2467
 3216TIP3    H1 9591   7.571   7.089   4.489 -1.6368  0.3933  0.5278
 3216TIP3    H2 9592   7.661   7.050   4.604 -2.0944 -1.5968  0.2454
 3217TIP3   OH2 9593   1.295   5.803   6.468  0.0884 -0.0625  0.1835
 3217TIP3    H1 9594   1.291   5.894   6.439 -1.7757  0.6909  2.5281
 3217TIP3    H2 9595   1.378   5.796   6.515  1.0086 -0.0943 -1.3623
 3218TIP3   OH2 9596   0.477   7.205   2.351 -0.4653 -0.4243 -0.2441
 3218TIP3    H1 9597   0.504   7.265   2.282  1.5602 -1.0967 -0.0835
 3218TIP3    H2 9598   0.494   7.118   2.315  2.2615 -0.7844  1.6323
 3219TIP3   OH2 9599   1.384   0.924   0.525 -0.0923  0.0639 -0.2693
 3219TIP3    H1 9600   1.367   1.006   0.571 -0.5732 -0.4839  0.5390
 3219TIP3    H2 9601   1.353   0.855   0.584 -1.0562 -0.6438 -1.5415
 3220TIP3   OH2 9602   0.007   6.983   3.768  0.1536  0.1431  0.1485
 3220TIP3    H1 9603  -0.046   6.912   3.804 -0.3954 -0.6463 -2.0812
 3220TIP3    H2 9604   0.059   7.014   3.843 -2.4042  0.0575  2.1192
 3221TIP3   OH2 9605   3.314   5.305   6.403 -0.0578  0.1495  0.0984
 3221TIP3    H1 9606   3.283   5.319   6.314 -0.1021  1.2502  0.2678
 3221TIP3    H2 9607   3.349   5.390   6.430 -1.0117  0.1370  1.4997
 3222TIP3   OH2 9608   2.746   1.592   0.978 -0.2520 -0.0368  0.0426
 3222TIP3    H1 9609   2.693   1.513   0.986 -1.2146  0.5271 -0.4852
 3222TIP3    H2 9610   2.682   1.663   0.975  0.6265  0.8526  1.4454
 3223TIP3   OH2 9611   2.599   6.560   5.517  0.1653 -0.1986  0.6734
 3223TIP3    H1 9612   2.510   6.551   5.550 -0.8416  2.4936 -0.8745
 3223TIP3    H2 9613   2.591   6.542   5.423  1.1774  0.3624  0.4669
 3224TIP3   OH2 9614   0.382   6.904   3.082  0.1018  0.0690 -0.0534
 3224TIP3    H1 9615   0.405   6.948   3.001 -0.9740  2.6013  0.9185
 3224TIP3    H2 9616   0.290   6.879   3.072  0.0589  0.0888  0.2629
 3225TIP3   OH2 9617   0.680   3.733   2.370  0.1867  0.3596  0.1871
 3225TIP3    H1 9618   0.759   3.688   2.403  1.1185  1.2732 -0.7187
 3225TIP3    H2 9619   0.662   3.800   2.436  1.1285  1.1799 -0.3700
 3226TIP3   OH2 9620   6.387   5.928   6.432 -0.4085  0.1059  0.0997
 3226TIP3    H1 9621   6.333   5.866   6.383  1.3472 -1.0494 -0.4695
 3226TIP3    H2 9622   6.473   5.924   6.389  0.9329 -0.2041  2.6171
 3227TIP3   OH2 9623   2.682   1.425   0.618  0.6140  0.0513  0.0336
 3227TIP3    H1 9624   2.732   1.352   0.582 -0.4227 -1.5255  1.6282
 3227TIP3    H2 9625   2.627   1.454   0.546  0.5724 -1.1892 -0.4514
 3228TIP3   OH2 9626   5.283   7.403   2.614 -0.4600  0.5658 -0.2594
 3228TIP3    H1 9627   5.256   7.367   2.529 -2.1799  3.0384 -0.8659
 3228TIP3    H2 9628   5.253   7.338   2.678 -1.2291 -0.2573 -1.4168
 3229TIP3   OH2 9629   5.112   6.995   3.068  0.8070 -0.1148  0.0453
 3229TIP3    H1 9630   5.134   7.030   3.155  2.1336 -0.1564 -0.2517
 3229TIP3    H2 9631   5.016   6.999   3.064  0.8251  2.2174  0.5579
 3230TIP3   OH2 9632   1.651   5.999   0.536  0.9198 -0.4475  0.3402
 3230TIP3    H1 9633   1.649   6.092   0.515 -0.1512 -0.4006  0.6020
 3230TIP3    H2 9634   1.670   5.996   0.630 -0.5916 -0.4191  0.6685
 3231TIP3   OH2 9635   0.848   6.658   4.040 -0.1808 -0.2609 -0.0777
 3231TIP3    H1 9636   0.903   6.586   4.071  1.6203  1.1974  0.3336
 3231TIP3    H2 9637   0.884   6.680   3.954 -1.2188 -0.3385 -0.5445
 3232TIP3   OH2 9638   2.470   5.260   2.537 -0.4291 -0.6807  0.2869
 3232TIP3    H1 9639   2.446   5.194   2.471  1.5091 -0.8882 -0.2812
 3232TIP3    H2 9640   2.498   5.208   2.613  0.9191 -0.5361 -0.0935
 3233TIP3   OH2 9641   4.495   6.115   2.756 -0.4788  0.3389 -0.0795
 3233TIP3    H1 9642   4.511   6.120   2.661  0.6360 -2.2503 -0.1234
 3233TIP3    H2 9643   4.579   6.086   2.792 -1.7965 -2.1637  1.2208
 3234TIP3   OH2 9644   2.896   4.111   5.739  0.1287  0.5626  0.3232
 3234TIP3    H1 9645   2.816   4.062   5.756 -0.6428  1.7828  0.3296
 3234TIP3    H2 9646   2.966   4.055   5.771 -0.7143 -0.5658  0.2406
 3235TIP3   OH2 9647   5.013   3.667   4.240 -0.0360  0.3300  0.1289
 3235TIP3    H1 9648   5.049   3.639   4.156 -1.3738  0.0284 -0.3667
 3235TIP3    H2 9649   4.976   3.753   4.224  0.7272  0.7744  0.7094
 3236TIP3   OH2 9650   4.125   1.724   2.553 -0.5718 -0.3820 -0.6766
 3236TIP3    H1 9651   4.067   1.648   2.546 -1.2404 -0.0123  0.5872
 3236TIP3    H2 9652   4.067   1.798   2.571  0.3544 -0.2590  2.2265
 3237TIP3   OH2 9653   1.808   2.204   1.364  0.6061 -0.2840 -0.1412
 3237TIP3    H1 9654   1.810   2.226   1.271  2.6135 -1.0976 -0.3403
 3237TIP3    H2 9655   1.895   2.227   1.397 -0.0962  0.1078  1.5780
 3238TIP3   OH2 9656   1.714   5.486   1.749 -0.5072  0.0978  0.0185
 3238TIP3    H1 9657   1.800   5.519   1.772 -0.1079 -0.8463 -0.0937
 3238TIP3    H2 9658   1.695   5.525   1.664  0.0819 -0.1767 -0.2432
 3239TIP3   OH2 9659   4.952   1.088   1.580 -0.0326  0.3719 -0.2930
 3239TIP3    H1 9660   4.964   1.167   1.632 -0.7429  0.8957 -0.8947
 3239TIP3    H2 9661   5.039   1.047   1.577  0.2822  0.9919  0.2443
 3240TIP3   OH2 9662   1.256   2.392   0.460 -0.2414 -0.1026  0.0233
 3240TIP3    H1 9663   1.313   2.403   0.536  0.4045 -1.4707 -0.2319
 3240TIP3    H2 9664   1.294   2.448   0.392  0.3940 -0.4778  0.0706
 3241TIP3   OH2 9665   5.970   0.449   2.058 -0.7750  0.0702 -0.0249
 3241TIP3    H1 9666   5.982   0.511   2.130  3.9303 -0.5351  0.0117
 3241TIP3    H2 9667   5.976   0.503   1.979  1.6584 -0.0004  0.0393
 3242TIP3   OH2 9668   6.560   2.994   4.971  0.3341  0.3168 -0.4636
 3242TIP3    H1 9669   6.589   3.080   5.002  0.1543  0.1785  0.1024
 3242TIP3    H2 9670   6.562   2.939   5.049  0.1981 -0.1301 -0.7723
 3243TIP3   OH2 9671   2.336   2.396   6.138 -0.0443 -0.0936  0.2590
 3243TIP3    H1 9672   2.306   2.383   6.048 -0.0321  0.1274  0.2241
 3243TIP3    H2 9673   2.264   2.362   6.192  0.4900 -1.4480  0.1605
 3244TIP3   OH2 9674   5.864   2.005   6.583 -0.0018 -0.0831 -0.0054
 3244TIP3    H1 9675   5.918   1.978   6.509 -1.5263 -1.0432 -0.8358
 3244TIP3    H2 9676   5.855   1.926   6.636 -0.0050  0.2479  0.4903
 3245TIP3   OH2 9677   5.942   7.508   3.994  0.1236 -0.4420  0.8007
 3245TIP3    H1 9678   5.891   7.579   3.955  0.9776  0.0152  0.4714
 3245TIP3    H2 9679   5.883   7.433   3.995  0.2409 -0.6782 -2.0701
 3246TIP3   OH2 9680   7.270   2.177   0.687 -0.2302 -0.1044 -0.1468
 3246TIP3    H1 9681   7.318   2.185   0.769  1.5043 -1.2953 -0.9757
 3246TIP3    H2 9682   7.248   2.084   0.681  0.3816 -0.1913 -1.3790
 3247TIP3   OH2 9683   4.515   7.565   6.678  0.3588  0.3437  0.2286
 3247TIP3    H1 9684   4.586   7.557   6.614  0.5792 -1.9306  0.6698
 3247TIP3    H2 9685   4.559   7.591   6.759  0.5172  0.1372  0.2099
 3248TIP3   OH2 9686   0.765   0.317   0.198 -0.4066  0.1719 -0.0373
 3248TIP3    H1 9687   0.702   0.389   0.195 -1.7891 -1.0074 -1.8262
 3248TIP3    H2 9688   0.819   0.335   0.275  0.0173  3.6370 -1.0091
 3249TIP3   OH2 9689   7.051   0.868   1.016  0.4922  0.0886 -0.1990
 3249TIP3    H1 9690   6.971   0.918   1.035  1.7301  1.8707  0.5613
 3249TIP3    H2 9691   7.122   0.924   1.046  1.9838 -2.3008  1.0075
 3250TIP3   OH2 9692   0.643   5.875   4.340 -0.0405  0.3275 -0.2254
 3250TIP3    H1 9693   0.665   5.860   4.248  1.0306  0.6708 -0.0442
 3250TIP3    H2 9694   0.717   5.836   4.388 -0.9335 -0.4910  0.5192
 3251TIP3   OH2 9695   2.825   4.426   6.423  0.4025  0.8472  0.0391
 3251TIP3    H1 9696   2.736   4.461   6.417 -0.9511 -1.9407  2.0617
 3251TIP3    H2 9697   2.827   4.354   6.360  0.9977  0.3997  0.5602
 3252TIP3   OH2 9698   3.425   7.665   4.269 -0.4723  0.3576 -0.0604
 3252TIP3    H1 9699   3.331   7.661   4.253 -0.5578 -0.0352  0.5037
 3252TIP3    H2 9700   3.445   7.758   4.273 -0.4402  0.5209 -2.3403
 3253TIP3   OH2 9701   2.005   1.180   5.651  0.3505  0.0958  0.4836
 3253TIP3    H1 9702   1.992   1.098   5.699 -1.1065 -0.7313 -1.2004
 3253TIP3    H2 9703   2.100   1.187   5.642  0.5176 -1.3526  0.7838
 3254TIP3   OH2 9704   7.577   0.880   5.438  0.3354  0.6989 -0.0666
 3254TIP3    H1 9705   7.574   0.976   5.439 -3.4103  0.8065 -2.0719
 3254TIP3    H2 9706   7.636   0.859   5.366  1.5591  1.4301  0.6871
 3255TIP3   OH2 9707   4.949   5.018   4.098 -0.1036  0.0558 -0.2272
 3255TIP3    H1 9708   4.861   5.020   4.061  0.6573  0.2563 -2.1080
 3255TIP3    H2 9709   5.007   5.006   4.023  1.4097 -1.5717  1.0913
 3256TIP3   OH2 9710   7.830   4.522   4.512 -0.1169 -0.2920  0.2490
 3256TIP3    H1 9711   7.916   4.545   4.548 -0.4294 -0.8126  1.3843
 3256TIP3    H2 9712   7.837   4.543   4.419  1.4269 -0.8739  0.2001
 3257TIP3   OH2 9713   0.780   4.928   6.030 -0.4124 -0.4315 -0.0182
 3257TIP3    H1 9714   0.828   4.989   6.086  0.6102 -0.0978 -1.2131
 3257TIP3    H2 9715   0.764   4.852   6.086  1.0158 -0.3180  0.5951
 3258TIP3   OH2 9716   4.745   2.510   1.830  0.4384  0.4860  0.1482
 3258TIP3    H1 9717   4.840   2.498   1.826  0.5799  1.6769 -0.5525
 3258TIP3    H2 9718   4.729   2.593   1.785 -0.9375  0.3285  0.2915
 3259TIP3   OH2 9719   7.051   3.373   2.972 -0.5436 -0.2239  0.3049
 3259TIP3    H1 9720   7.056   3.468   2.982 -0.0625 -0.2603  0.4422
 3259TIP3    H2 9721   7.026   3.360   2.881 -2.2518  0.0610  0.6882
 3260TIP3   OH2 9722   1.015   6.048   1.700  0.4327  0.4367  0.2823
 3260TIP3    H1 9723   1.003   6.012   1.612  1.8901 -2.6377  1.1878
 3260TIP3    H2 9724   1.110   6.055   1.710  0.3371 -0.1074  1.8643
 3261TIP3   OH2 9725   3.050   3.928   5.864  0.2662 -0.2345 -0.2384
 3261TIP3    H1 9726   3.051   3.833   5.852 -1.3779 -0.1700 -1.2187
 3261TIP3    H2 9727   3.141   3.950   5.886  1.1406 -1.7893 -1.9607
 3262TIP3   OH2 9728   5.998   7.475   3.205 -0.2221  0.7180  0.3636
 3262TIP3    H1 9729   5.992   7.462   3.111 -1.4538  1.6399  0.2861
 3262TIP3    H2 9730   6.013   7.569   3.216 -0.2617  0.6508  1.0869
 3263TIP3   OH2 9731   1.812   5.123   1.400 -0.0571  0.2655 -0.2861
 3263TIP3    H1 9732   1.726   5.162   1.415 -0.3448 -0.7306  0.8338
 3263TIP3    H2 9733   1.874   5.193   1.423 -0.5535  0.7727 -0.4531
 3264TIP3   OH2 9734   1.321   0.497   4.144 -0.5398 -0.1889 -0.8292
 3264TIP3    H1 9735   1.232   0.518   4.172 -0.1961  0.7133 -0.3751
 3264TIP3    H2 9736   1.363   0.582   4.132  1.3432 -0.5192  2.4381
 3265TIP3   OH2 9737   4.351   6.887   6.164 -0.1505  0.1293  0.1088
 3265TIP3    H1 9738   4.284   6.832   6.123 -1.9695  1.7910  0.6939
 3265TIP3    H2 9739   4.402   6.921   6.091 -1.7159  1.0058 -0.6394
 3266TIP3   OH2 9740   7.182   5.972   0.021  0.3525 -0.3358 -0.8226
 3266TIP3    H1 9741   7.210   5.915   0.092 -0.1387 -0.2237 -0.5317
 3266TIP3    H2 9742   7.088   5.984   0.035  0.0744 -0.9641 -1.9506
 3267TIP3   OH2 9743   2.211   7.771   3.307 -0.3728 -0.4487  0.3710
 3267TIP3    H1 9744   2.274   7.796   3.375  0.0578  0.7744 -0.4336
 3267TIP3    H2 9745   2.264   7.736   3.236 -0.8456 -1.9895  0.7349
 3268TIP3   OH2 9746   4.264   3.900   1.003 -0.1817  0.0733  0.1065
 3268TIP3    H1 9747   4.214   3.957   0.945 -0.0647 -0.9838 -1.0744
 3268TIP3    H2 9748   4.248   3.812   0.970  1.5779 -0.3863  0.3428
 3269TIP3   OH2 9749   3.206   5.358   5.733 -0.2460  0.2764  0.5425
 3269TIP3    H1 9750   3.201   5.335   5.641 -0.4484 -0.4273  0.7236
 3269TIP3    H2 9751   3.295   5.337   5.759 -0.9252 -2.2252  1.1736
 3270TIP3   OH2 9752   3.122   4.392   0.875  0.3832  0.1518  0.5027
 3270TIP3    H1 9753   3.092   4.393   0.784  1.2660 -0.9337  0.1791
 3270TIP3    H2 9754   3.202   4.443   0.874 -0.7954  2.1241  1.1581
 3271TIP3   OH2 9755   6.326   4.844   4.146  0.8144 -0.0153  0.1382
 3271TIP3    H1 9756   6.335   4.899   4.223  1.3608 -0.5221  0.4372
 3271TIP3    H2 9757   6.409   4.798   4.138  1.2173  0.9156 -1.4444
 3272TIP3   OH2 9758   0.337   4.256   1.661 -0.2647  0.0637 -0.0571
 3272TIP3    H1 9759   0.344   4.192   1.590 -0.0814  2.0312 -1.9111
 3272TIP3    H2 9760   0.243   4.274   1.668 -0.1673  1.0764 -1.0045
 3273TIP3   OH2 9761   0.725   5.456   3.393  0.2944 -0.2552  0.2477
 3273TIP3    H1 9762   0.681   5.490   3.315  1.1026 -1.0189 -0.5644
 3273TIP3    H2 9763   0.715   5.526   3.458 -3.2482 -0.8623  0.5936
 3274TIP3   OH2 9764   6.033   2.957   0.924  1.0705 -0.3886 -0.2838
 3274TIP3    H1 9765   5.963   2.918   0.976  3.0639 -1.2057  2.0093
 3274TIP3    H2 9766   6.037   2.904   0.845 -3.1627  1.9022 -2.3658
 3275TIP3   OH2 9767   1.492   0.186   2.954 -0.3071  0.0208 -0.1484
 3275TIP3    H1 9768   1.518   0.103   2.914 -0.7725 -0.5650  0.7347
 3275TIP3    H2 9769   1.574   0.233   2.966  0.2481 -1.2358  1.3494
 3276TIP3   OH2 9770   7.264   7.489   2.965  0.3313  0.2248 -0.1607
 3276TIP3    H1 9771   7.182   7.503   3.012  0.6391  1.7887 -0.0163
 3276TIP3    H2 9772   7.289   7.399   2.986 -1.7307 -0.5812 -0.8568
 3277TIP3   OH2 9773   6.586   1.462   3.431 -0.6998  0.2543 -0.4631
 3277TIP3    H1 9774   6.652   1.393   3.429 -0.4683  0.4623 -0.2178
 3277TIP3    H2 9775   6.505   1.418   3.456 -0.8235 -0.1323 -1.5201
 3278TIP3   OH2 9776   6.131   2.824   6.730  0.1798 -0.1037 -0.3029
 3278TIP3    H1 9777   6.118   2.877   6.808  0.8952  1.5231 -1.2405
 3278TIP3    H2 9778   6.222   2.794   6.736  0.5373  0.8025 -0.9350
 3279TIP3   OH2 9779   6.810   2.448   4.038  0.4201  0.0388 -0.1215
 3279TIP3    H1 9780   6.881   2.466   4.100  0.5651  0.0206 -0.2819
 3279TIP3    H2 9781   6.783   2.358   4.058  1.2680 -0.4032 -0.8705
 3280TIP3   OH2 9782   2.269   1.038   4.217 -0.3016 -0.2597 -0.1673
 3280TIP3    H1 9783   2.191   0.983   4.216 -0.3390 -0.2080 -0.1001
 3280TIP3    H2 9784   2.244   1.114   4.269 -0.4577  0.1334 -0.8200
 3281TIP3   OH2 9785   3.294   5.274   6.108  0.6079  0.3650 -0.2318
 3281TIP3    H1 9786   3.327   5.358   6.075 -1.0487  1.2294  0.1958
 3281TIP3    H2 9787   3.205   5.268   6.074 -0.3957  0.2581  2.1996
 3282TIP3   OH2 9788   6.062   0.592   5.119  0.3302 -0.2621  0.1005
 3282TIP3    H1 9789   6.108   0.510   5.102  1.4408  0.0327  1.4881
 3282TIP3    H2 9790   6.052   0.595   5.214 -0.5223  0.7795 -0.0011
 3283TIP3   OH2 9791   8.259   7.417   1.398 -1.0903 -1.0387  0.0573
 3283TIP3    H1 9792   8.327   7.483   1.407 -0.3350 -1.9546  1.5274
 3283TIP3    H2 9793   8.184   7.452   1.447 -0.7889 -1.1269  0.5928
 3284TIP3   OH2 9794   0.382   2.812   6.298  0.0909 -0.1336  0.0494
 3284TIP3    H1 9795   0.460   2.810   6.352  0.8592  1.0245 -0.9700
 3284TIP3    H2 9796   0.327   2.881   6.337  0.4739  0.4343 -0.4037
 3285TIP3   OH2 9797   2.147   4.567   6.079  0.0256  0.4162  0.0619
 3285TIP3    H1 9798   2.144   4.662   6.093  1.8542  0.5728 -0.4630
 3285TIP3    H2 9799   2.055   4.543   6.064 -0.3811  2.2202 -0.6271
 3286TIP3   OH2 9800   7.937   0.877   5.060 -0.3407 -0.0352  0.2707
 3286TIP3    H1 9801   7.894   0.948   5.012 -0.0692 -0.7978 -1.1357
 3286TIP3    H2 9802   8.030   0.888   5.041 -0.0491  0.5576  1.8907
 3287TIP3   OH2 9803   6.397   7.253   2.198 -0.1061 -0.7977 -0.4245
 3287TIP3    H1 9804   6.474   7.282   2.149  1.2015 -0.3223  1.7993
 3287TIP3    H2 9805   6.393   7.159   2.184 -0.1658 -0.5963 -1.9311
 3288TIP3   OH2 9806   1.750   0.561   4.360  0.1105  0.3106 -0.3264
 3288TIP3    H1 9807   1.709   0.599   4.437  0.5181  1.8838 -0.8434
 3288TIP3    H2 9808   1.684   0.503   4.323 -0.2266 -0.1398  0.9650
 3289TIP3   OH2 9809   1.107   2.739   6.082  0.0598 -0.0334 -0.1639
 3289TIP3    H1 9810   1.195   2.703   6.080 -0.1219 -0.7170  2.0929
 3289TIP3    H2 9811   1.050   2.664   6.062 -0.0596  0.2372 -0.8597
 3290TIP3   OH2 9812   1.045   5.545   2.659  0.3789  0.2591 -0.3699
 3290TIP3    H1 9813   0.969   5.590   2.621 -1.1071 -0.4492  1.5881
 3290TIP3    H2 9814   1.059   5.589   2.743  2.6304  0.8179 -0.9547
 3291TIP3   OH2 9815   7.528   4.087   5.186 -0.4430 -0.0117 -0.0680
 3291TIP3    H1 9816   7.535   3.992   5.191  0.7966  0.0613 -0.2264
 3291TIP3    H2 9817   7.434   4.104   5.183 -0.6936 -1.1850  0.7997
 3292TIP3   OH2 9818   7.154   2.600   3.048  0.2277  0.4217 -0.4400
 3292TIP3    H1 9819   7.242   2.603   3.085 -0.3851 -1.0606  1.2735
 3292TIP3    H2 9820   7.144   2.684   3.002  1.1288  2.3627  2.6270
 3293TIP3   OH2 9821   3.072   0.616   5.160 -0.4000  0.3840 -0.3842
 3293TIP3    H1 9822   3.084   0.674   5.234  0.6178 -0.8225  0.4287
 3293TIP3    H2 9823   2.983   0.581   5.171 -0.1117 -0.0969  0.5064
 3294TIP3   OH2 9824   7.523   7.073   3.727 -0.0017  0.2776  0.1686
 3294TIP3    H1 9825   7.578   7.143   3.692  0.3362 -0.5369 -0.9819
 3294TIP3    H2 9826   7.438   7.114   3.741  0.2266  0.9528 -0.3626
 3295TIP3   OH2 9827   5.887   2.498   1.586 -0.2139 -0.3495 -0.2745
 3295TIP3    H1 9828   5.973   2.457   1.573 -0.4495 -0.2658 -2.5684
 3295TIP3    H2 9829   5.905   2.592   1.583 -0.2577 -0.3152  0.3956
 3296TIP3   OH2 9830   5.695  -0.011   2.039 -0.2647  0.1131 -0.9220
 3296TIP3    H1 9831   5.750   0.061   2.069  1.9156 -1.5589 -0.6301
 3296TIP3    H2 9832   5.656   0.020   1.958  1.5080  1.2356 -1.3951
 3297TIP3   OH2 9833   7.037   3.098   2.350 -0.2247 -0.1610  0.0371
 3297TIP3    H1 9834   6.977   3.033   2.384 -0.5843 -0.9820 -2.0311
 3297TIP3    H2 9835   6.999   3.182   2.376 -0.7923 -0.7244  1.0722
 3298TIP3   OH2 9836   4.046   7.046   1.725 -0.3774  0.1802 -0.0878
 3298TIP3    H1 9837   4.117   7.026   1.787 -1.4515 -1.8102  0.5847
 3298TIP3    H2 9838   3.972   7.069   1.781 -0.2452  2.5268 -0.7894
 3299TIP3   OH2 9839   7.183   0.174   3.551 -0.8415 -0.0277  0.0330
 3299TIP3    H1 9840   7.262   0.137   3.511 -2.1005 -1.0040 -1.6580
 3299TIP3    H2 9841   7.212   0.203   3.638  2.0818  2.2476 -1.4767
 3300TIP3   OH2 9842   4.136   0.420   2.376  0.0535 -0.1021 -1.0258
 3300TIP3    H1 9843   4.165   0.413   2.285 -0.9776  0.2385 -1.3897
 3300TIP3    H2 9844   4.174   0.344   2.420  1.5758  0.3811 -1.4570
 3301TIP3   OH2 9845   2.983   0.054   4.632 -0.0865  0.1400 -0.6243
 3301TIP3    H1 9846   2.939  -0.026   4.660 -1.3136  1.3312  1.0409
 3301TIP3    H2 9847   2.993   0.044   4.537 -1.3700 -1.4051 -0.6349
 3302TIP3   OH2 9848   5.876   3.706   5.847  0.2696 -0.1153 -0.2967
 3302TIP3    H1 9849   5.918   3.674   5.767 -1.2474 -2.4079 -0.2710
 3302TIP3    H2 9850   5.792   3.660   5.851 -1.0981  2.2745  1.0297
 3303TIP3   OH2 9851   5.381   1.929   6.065  0.0749 -0.3879 -0.9480
 3303TIP3    H1 9852   5.464   1.972   6.083 -0.3761  0.4174 -0.7124
 3303TIP3    H2 9853   5.358   1.956   5.976 -0.3390  0.0966 -0.7017
 3304TIP3   OH2 9854   2.413   4.346   6.425  0.1509 -0.4337 -0.4031
 3304TIP3    H1 9855   2.410   4.429   6.376 -1.8758 -0.5598 -0.5882
 3304TIP3    H2 9856   2.395   4.279   6.359  0.5597 -0.9047 -0.0401
 3305TIP3   OH2 9857   0.184   4.203   3.489 -0.0144 -0.2696 -0.1399
 3305TIP3    H1 9858   0.190   4.117   3.530  1.5722  0.0065  0.2951
 3305TIP3    H2 9859   0.111   4.196   3.428  0.1992 -1.9668 -0.2493
 3306TIP3   OH2 9860   2.076   2.584   5.249 -0.2104 -0.5615 -0.1611
 3306TIP3    H1 9861   2.062   2.597   5.155 -0.5847 -1.1536 -0.1896
 3306TIP3    H2 9862   2.107   2.669   5.280 -1.9483  0.2146 -0.4527
 3307TIP3   OH2 9863   6.670   1.147   6.462  0.2670  0.0352 -0.6410
 3307TIP3    H1 9864   6.648   1.063   6.423  0.3398 -0.6599  0.7594
 3307TIP3    H2 9865   6.749   1.131   6.513 -0.1010  0.7756  0.2002
 3308TIP3   OH2 9866   8.089   0.285   0.369  0.6107  0.1089  0.0727
 3308TIP3    H1 9867   8.022   0.349   0.345  1.2982  1.1624  0.8926
 3308TIP3    H2 9868   8.145   0.280   0.292  0.3636  0.2402 -0.1180
 3309TIP3   OH2 9869   5.128   7.257   2.444 -0.5445 -0.4778  0.1191
 3309TIP3    H1 9870   5.134   7.209   2.362 -0.5240 -0.4288  0.0914
 3309TIP3    H2 9871   5.048   7.225   2.485 -1.9357  1.2777 -1.0712
 3310TIP3   OH2 9872   7.385   0.150   3.986  0.3494  0.3680  0.2198
 3310TIP3    H1 9873   7.315   0.178   3.928 -1.3052 -1.4871  1.1982
 3310TIP3    H2 9874   7.372   0.202   4.066  1.7510  1.8822 -0.4638
 3311TIP3   OH2 9875   1.681   1.019   2.438  0.3015 -0.4429  0.2793
 3311TIP3    H1 9876   1.659   0.928   2.418  1.8811 -1.4759  2.7490
 3311TIP3    H2 9877   1.637   1.036   2.521 -0.5383  1.3395 -0.4783
 3312TIP3   OH2 9878   7.603   2.358   3.262  0.6868  0.9739  0.5130
 3312TIP3    H1 9879   7.565   2.285   3.213 -0.6065  2.0515 -0.1609
 3312TIP3    H2 9880   7.646   2.317   3.337  0.3839 -0.5069 -0.0954
 3313TIP3   OH2 9881   0.847   2.029   2.553 -0.0138  0.1050 -0.3595
 3313TIP3    H1 9882   0.921   1.968   2.555 -0.8635 -1.1169 -2.6793
 3313TIP3    H2 9883   0.796   2.008   2.632  0.6948 -0.8866 -0.1485
 3314TIP3   OH2 9884   0.977   3.206   2.415  0.6654  0.3695 -0.8742
 3314TIP3    H1 9885   1.058   3.231   2.459 -0.4151 -1.6154  2.5748
 3314TIP3    H2 9886   0.909   3.254   2.460 -0.5617 -2.2506  0.2853
 3315TIP3   OH2 9887   0.553   3.694   4.655  0.3926  0.0583 -0.3951
 3315TIP3    H1 9888   0.572   3.782   4.688 -0.8713 -0.2782  1.4036
 3315TIP3    H2 9889   0.479   3.707   4.596  0.2619  0.2205 -0.1988
 3316TIP3   OH2 9890   4.595   6.180   5.104 -0.6178  0.4049  0.2371
 3316TIP3    H1 9891   4.562   6.230   5.178 -0.9534 -0.5889  0.7765
 3316TIP3    H2 9892   4.690   6.197   5.104 -0.7593  1.2153  0.2599
 3317TIP3   OH2 9893   6.311   1.081   2.115  0.1234 -0.3090 -0.0160
 3317TIP3    H1 9894   6.320   1.050   2.025  1.6341  1.9487 -0.7210
 3317TIP3    H2 9895   6.247   1.152   2.110 -0.6167 -0.8776  0.9215
 3318TIP3   OH2 9896   1.916   1.147   2.277  0.4002  0.3121  0.6610
 3318TIP3    H1 9897   1.917   1.180   2.367 -1.4362  1.0849  0.4495
 3318TIP3    H2 9898   1.885   1.057   2.285 -0.4648  0.6099  0.7637
 3319TIP3   OH2 9899   5.340   5.542   0.430  0.1678 -0.5514 -0.1690
 3319TIP3    H1 9900   5.290   5.526   0.350  2.0698  0.6344 -1.6932
 3319TIP3    H2 9901   5.339   5.637   0.441  0.1187 -0.6752  1.1256
 3320TIP3   OH2 9902   7.766   7.698   5.535  0.1787 -0.1100 -0.2039
 3320TIP3    H1 9903   7.708   7.662   5.467 -1.7731  0.5299  1.0250
 3320TIP3    H2 9904   7.753   7.793   5.530 -2.1152 -0.1297  2.6859
 3321TIP3   OH2 9905   2.790   0.628   0.350  0.1106 -0.5714 -0.0070
 3321TIP3    H1 9906   2.702   0.665   0.343  0.7647  0.8568 -1.5125
 3321TIP3    H2 9907   2.826   0.667   0.429 -0.5124 -0.9752  0.4852
 3322TIP3   OH2 9908   2.450   0.505   1.539 -0.3560 -0.0477 -0.2286
 3322TIP3    H1 9909   2.399   0.562   1.597  0.5303 -1.4159  2.0110
 3322TIP3    H2 9910   2.438   0.417   1.575  3.1282 -0.5140  0.1122
 3323TIP3   OH2 9911   7.591   2.860   6.332  0.0215 -0.1876  0.3770
 3323TIP3    H1 9912   7.514   2.917   6.339 -0.0854 -0.2937  0.0585
 3323TIP3    H2 9913   7.573   2.805   6.256  0.9372  0.5678 -0.4069
 3324TIP3   OH2 9914   6.436   0.571   1.075  0.0549 -0.5379 -0.5416
 3324TIP3    H1 9915   6.416   0.480   1.054  1.8719 -1.3356  0.8509
 3324TIP3    H2 9916   6.521   0.567   1.118 -1.5128  1.3653  3.1325
 3325TIP3   OH2 9917   7.363   4.864   0.648  0.1166 -0.1064  0.1577
 3325TIP3    H1 9918   7.421   4.853   0.723  0.9517 -0.6932 -0.5464
 3325TIP3    H2 9919   7.422   4.873   0.573 -0.6952 -0.6589 -0.5708
 3326TIP3   OH2 9920   1.871   6.005   6.483  0.1321  0.0230 -0.0518
 3326TIP3    H1 9921   1.947   6.054   6.451  0.9625  0.4219  2.3261
 3326TIP3    H2 9922   1.879   5.919   6.441  0.5400  0.7897 -1.6538
 3327TIP3   OH2 9923   1.603   1.462   5.824  0.0421 -0.1916  0.1536
 3327TIP3    H1 9924   1.556   1.424   5.898 -0.5645  0.2943  0.0294
 3327TIP3    H2 9925   1.664   1.525   5.863 -0.1796 -0.0386  0.2582
 3328TIP3   OH2 9926   5.903   6.861   2.331  0.4074  0.6061  0.4603
 3328TIP3    H1 9927   5.997   6.859   2.348  0.5559  1.1407 -0.2425
 3328TIP3    H2 9928   5.892   6.815   2.248  0.1273  1.0536  0.2425
 3329TIP3   OH2 9929   5.328   2.829   6.137 -0.2368  0.3837 -0.3113
 3329TIP3    H1 9930   5.361   2.741   6.121 -0.0538  0.5318 -0.7753
 3329TIP3    H2 9931   5.243   2.831   6.093  0.4524  0.9247 -1.6727
 3330TIP3   OH2 9932   3.119   6.264   4.531  0.3597 -0.6131  0.5365
 3330TIP3    H1 9933   3.126   6.205   4.606 -0.8436 -0.7874  0.5311
 3330TIP3    H2 9934   3.206   6.263   4.491  0.6222 -1.6186  1.1093
 3331TIP3   OH2 9935   0.063   0.168   0.529 -0.1835 -0.0184  0.4565
 3331TIP3    H1 9936   0.022   0.083   0.514 -0.4982  0.2256 -0.1079
 3331TIP3    H2 9937   0.145   0.164   0.480 -0.0393 -0.1157  0.7039
 3332TIP3   OH2 9938   4.840   5.690   3.692  0.4433  0.0554  0.2969
 3332TIP3    H1 9939   4.764   5.706   3.636  1.5974  0.3850 -1.2748
 3332TIP3    H2 9940   4.826   5.744   3.769 -0.1843  1.3482 -0.6854
 3333TIP3   OH2 9941   7.887   2.960   5.654  0.4229 -0.1660  0.0874
 3333TIP3    H1 9942   7.870   3.047   5.690 -1.5671 -0.8964  1.0504
 3333TIP3    H2 9943   7.880   2.971   5.559 -0.9701  0.5190  0.2505
 3334TIP3   OH2 9944   4.915   7.770   2.260 -0.1344 -0.5835 -0.0920
 3334TIP3    H1 9945   4.832   7.742   2.222 -0.0715 -1.0660  0.1146
 3334TIP3    H2 9946   4.947   7.692   2.307 -0.3376  0.0766  1.1692
 3335TIP3   OH2 9947   1.837   1.904   1.401  0.0416 -0.4396 -0.3810
 3335TIP3    H1 9948   1.792   1.924   1.319  0.4076  1.7399 -0.1091
 3335TIP3    H2 9949   1.767   1.904   1.467  0.1298  0.9039 -0.2626
 3336TIP3   OH2 9950   4.349   6.027   6.333 -0.1649 -0.0234  0.3717
 3336TIP3    H1 9951   4.378   6.048   6.245 -0.7360 -1.7925 -0.2739
 3336TIP3    H2 9952   4.258   6.055   6.336 -0.7526 -1.7409 -0.2996
 3337TIP3   OH2 9953   6.822   5.454   0.259 -0.0282  0.0938  0.1564
 3337TIP3    H1 9954   6.780   5.385   0.310 -0.3765  1.1490  1.3295
 3337TIP3    H2 9955   6.915   5.448   0.282  0.5391 -2.0396 -2.2075
 3338TIP3   OH2 9956   4.446   5.936   0.292  0.0410 -0.7589 -0.0249
 3338TIP3    H1 9957   4.487   5.992   0.358 -1.8915 -0.0897  0.6857
 3338TIP3    H2 9958   4.375   5.893   0.339 -1.2243 -0.4673 -1.5991
 3339TIP3   OH2 9959   3.936   1.591   2.732 -0.4665 -0.7271 -0.9124
 3339TIP3    H1 9960   3.867   1.566   2.794  0.1323 -1.4792 -0.5329
 3339TIP3    H2 9961   3.928   1.529   2.660  1.0254 -2.1022  0.0344
 3340TIP3   OH2 9962   2.798   1.451   6.492 -0.0423 -0.0576 -0.0606
 3340TIP3    H1 9963   2.738   1.387   6.454  0.8745 -0.4717 -0.8513
 3340TIP3    H2 9964   2.741   1.509   6.543 -0.8270 -1.9553  1.3937
 3341TIP3   OH2 9965   2.221   6.541   6.622 -0.0708 -0.7233  0.3929
 3341TIP3    H1 9966   2.226   6.449   6.594 -0.7880 -1.0562  1.2881
 3341TIP3    H2 9967   2.148   6.577   6.572 -1.1669 -1.2407  1.5555
 3342TIP3   OH2 9968   3.016   1.162   4.152  0.4792 -0.6718 -0.5940
 3342TIP3    H1 9969   2.942   1.166   4.212  0.6536  1.1423 -0.4474
 3342TIP3    H2 9970   3.090   1.193   4.204  1.0651 -1.1097 -1.1512
 3343TIP3   OH2 9971   4.750   5.291   1.320 -0.1295 -0.0903  0.5596
 3343TIP3    H1 9972   4.753   5.196   1.310 -0.3206 -0.0107 -0.3199
 3343TIP3    H2 9973   4.790   5.325   1.240  0.1635  0.5709  0.9805
 3344TIP3   OH2 9974   3.220   3.804   6.325 -0.1211  0.0187  0.1012
 3344TIP3    H1 9975   3.239   3.713   6.302 -0.5838 -0.1170  0.2587
 3344TIP3    H2 9976   3.254   3.814   6.414 -0.2066 -0.0440  0.1410
 3345TIP3   OH2 9977   0.828   5.123   2.125 -0.1040  0.3010 -0.0288
 3345TIP3    H1 9978   0.793   5.067   2.056 -0.5535  2.5017 -1.6745
 3345TIP3    H2 9979   0.760   5.122   2.193  0.1161 -1.4568  0.2324
 3346TIP3   OH2 9980   7.998   5.877   4.082 -0.2305  0.0634  0.0459
 3346TIP3    H1 9981   7.982   5.925   4.163 -1.8497 -0.5973  0.1583
 3346TIP3    H2 9982   7.938   5.916   4.018 -1.9421 -2.0098  0.2664
 3347TIP3   OH2 9983   0.583   7.713   5.185 -0.5430 -0.0557  0.2539
 3347TIP3    H1 9984   0.546   7.630   5.155 -1.8471 -0.2942  2.2938
 3347TIP3    H2 9985   0.646   7.687   5.253  2.2782  0.4445 -1.9898
 3348TIP3   OH2 9986   2.943   0.292   0.669  0.4698  0.3215  0.2796
 3348TIP3    H1 9987   2.856   0.303   0.629  1.0045 -1.6833 -1.6758
 3348TIP3    H2 9988   3.000   0.267   0.596  2.1894 -0.6993  1.8691
 3349TIP3   OH2 9989   0.938   7.545   1.587 -0.2594  0.5303  0.1718
 3349TIP3    H1 9990   1.001   7.605   1.546  0.5114 -0.4731 -0.1457
 3349TIP3    H2 9991   0.977   7.522   1.671  0.4739 -1.1293 -0.5848
 3350TIP3   OH2 9992   7.615   3.454   3.061 -0.2968 -0.4421 -0.4870
 3350TIP3    H1 9993   7.696   3.501   3.040 -0.9233  0.1301 -1.7748
 3350TIP3    H2 9994   7.644   3.378   3.111  0.9069  0.4202  0.1815
 3351TIP3   OH2 9995   7.677   0.817   5.003  0.0527  0.2854  0.1295
 3351TIP3    H1 9996   7.746   0.788   5.062 -0.4255  0.8484  0.9844
 3351TIP3    H2 9997   7.605   0.755   5.017 -0.4166  0.9805  0.8602
 3352TIP3   OH2 9998   2.042   4.982   5.750 -0.0346  0.1866  0.3190
 3352TIP3    H1 9999   2.101   4.938   5.689 -0.9604  1.0140 -1.2483
 3352TIP3    H210000   1.957   4.941   5.736 -0.1529 -0.0305  1.5317
 3353TIP3   OH210001   5.546   6.989   4.107  0.5709  0.1257 -0.0314
 3353TIP3    H110002   5.460   7.004   4.068  1.0393  1.4463 -0.6272
 3353TIP3    H210003   5.534   7.010   4.200  0.0859 -0.4067  0.0318
 3354TIP3   OH210004   6.012   2.193   6.707 -0.3708 -0.0477 -0.0902
 3354TIP3    H110005   6.076   2.149   6.763  0.7934  0.9441 -0.5906
 3354TIP3    H210006   5.964   2.122   6.665  0.5544 -0.8300  0.1295
 3355TIP3   OH210007   6.228   1.929   0.880 -0.0075  0.2705 -0.1844
 3355TIP3    H110008   6.292   1.885   0.936 -0.1069 -0.2770 -0.4902
 3355TIP3    H210009   6.189   1.997   0.935  0.0416 -0.1257  0.3380
 3356TIP3   OH210010   3.082   0.756   2.485 -0.0475 -0.3737  0.1184
 3356TIP3    H110011   2.987   0.765   2.472  0.1472  0.7750 -0.6313
 3356TIP3    H210012   3.105   0.676   2.438 -0.6535 -0.7491  0.4319
 3357TIP3   OH210013   1.202   7.591   5.499 -0.1004  0.4613  0.3204
 3357TIP3    H110014   1.265   7.520   5.515  0.7527  0.9566 -0.7479
 3357TIP3    H210015   1.238   7.666   5.547  0.1974  0.7780 -0.3901
 3358TIP3   OH210016   1.299   6.040   2.341 -0.0167 -0.1163  0.3602
 3358TIP3    H110017   1.260   5.987   2.410 -0.4614  0.6798  0.7385
 3358TIP3    H210018   1.317   6.124   2.383  1.6839 -0.2911  0.0818
 3359TIP3   OH210019   3.502   1.112   5.759  0.1266  0.6486 -0.1363
 3359TIP3    H110020   3.498   1.178   5.690 -0.3255  1.8634  1.0145
 3359TIP3    H210021   3.561   1.148   5.824 -0.1711 -0.0594  0.5464
 3360TIP3   OH210022   3.631   7.520   5.681 -0.0939 -0.3521  0.2308
 3360TIP3    H110023   3.676   7.584   5.626 -0.8961  0.1117  0.0936
 3360TIP3    H210024   3.701   7.463   5.714  0.6536  0.6289  0.4045
 3361TIP3   OH210025   0.372   5.843   3.220  0.7470  0.2306 -0.6173
 3361TIP3    H110026   0.344   5.857   3.129  1.1621 -2.3772 -1.2344
 3361TIP3    H210027   0.467   5.857   3.218  0.7613  0.1374 -0.6013
 3362TIP3   OH210028   0.130   1.889   0.879  0.8255  0.5929  0.2465
 3362TIP3    H110029   0.194   1.837   0.831  0.7818 -2.4003  3.0714
 3362TIP3    H210030   0.172   1.907   0.963 -1.2423  0.2469  1.4203
 3363TIP3   OH210031   5.108   3.505   5.195 -0.1008  0.3977  0.5914
 3363TIP3    H110032   5.084   3.575   5.133  0.0069  0.3483  0.4933
 3363TIP3    H210033   5.032   3.447   5.196  0.0518  0.1842  0.2002
 3364TIP3   OH210034   7.641   4.608   3.593 -0.0075 -0.3639  0.3618
 3364TIP3    H110035   7.663   4.695   3.627 -0.7905 -0.2217  0.5099
 3364TIP3    H210036   7.553   4.618   3.557 -0.9451 -1.5818  2.1954
 3365TIP3   OH210037   5.221   2.320   4.170 -0.8792 -0.4294  0.4900
 3365TIP3    H110038   5.166   2.398   4.170 -2.8077 -1.6934  1.6207
 3365TIP3    H210039   5.265   2.321   4.255 -1.8946 -1.1895  1.0406
 3366TIP3   OH210040   3.465   2.147   0.492  0.1292  0.4215  0.5018
 3366TIP3    H110041   3.486   2.142   0.585  1.4503 -0.4511  0.1688
 3366TIP3    H210042   3.371   2.128   0.488  0.1474  0.0256  1.6105
 3367TIP3   OH210043   6.715   7.522   4.857 -0.4336 -0.3196  0.3342
 3367TIP3    H110044   6.707   7.596   4.918 -2.0803  0.1471 -0.4083
 3367TIP3    H210045   6.685   7.446   4.907  0.8409 -0.4476  0.9552
 3368TIP3   OH210046   5.961   6.736   5.326  0.0140  0.2516 -0.2747
 3368TIP3    H110047   5.953   6.735   5.231  0.6524  0.2358 -0.3329
 3368TIP3    H210048   5.969   6.829   5.348 -1.4739  0.3704 -0.1034
 3369TIP3   OH210049   1.651   4.477   3.258 -0.3780  0.7695 -0.5035
 3369TIP3    H110050   1.716   4.540   3.226  0.3304  0.0480 -0.5367
 3369TIP3    H210051   1.589   4.467   3.186 -0.8962  1.9406 -0.2395
 3370TIP3   OH210052   1.584   6.073   2.958  0.8219  0.1475  0.0679
 3370TIP3    H110053   1.504   6.115   2.924  1.4954  0.1143 -1.6646
 3370TIP3    H210054   1.561   6.046   3.047 -1.8882 -1.9106 -1.1075
 3371TIP3   OH210055   0.221   4.302   2.230 -0.1439 -0.3267 -0.2030
 3371TIP3    H110056   0.266   4.308   2.315  0.9900 -0.7955 -0.7453
 3371TIP3    H210057   0.129   4.291   2.252  0.2496 -1.4108  0.9924
 3372TIP3   OH210058   2.391   4.324   3.543  0.0186  0.1859  0.7094
 3372TIP3    H110059   2.332   4.391   3.507 -0.4374 -0.6317 -0.1204
 3372TIP3    H210060   2.471   4.371   3.565 -0.8194  1.2677  1.5522
 3373TIP3   OH210061   1.786   5.221   2.859  0.0097 -0.6809 -0.2452
 3373TIP3    H110062   1.739   5.151   2.814 -1.1875  0.0464 -0.1563
 3373TIP3    H210063   1.866   5.232   2.808 -1.0556 -0.2574 -1.8956
 3374TIP3   OH210064   1.655   2.097   2.725  0.3667  0.5219  0.2259
 3374TIP3    H110065   1.564   2.098   2.697  0.0345  0.5799  1.2557
 3374TIP3    H210066   1.662   2.019   2.780  1.0951  0.1890 -0.3173
 3375TIP3   OH210067   8.155   6.323   6.659  0.2693 -0.5320 -0.3774
 3375TIP3    H110068   8.222   6.321   6.591  2.0109 -0.2384  1.2402
 3375TIP3    H210069   8.142   6.416   6.678  3.1258 -0.5759  2.6670
 3376TIP3   OH210070   1.369   5.011   4.497  0.1199  0.1138  0.5532
 3376TIP3    H110071   1.456   5.047   4.479 -0.1079 -0.2355 -1.5661
 3376TIP3    H210072   1.379   4.917   4.481 -1.1545  0.3638 -2.3586
 3377TIP3   OH210073   8.091   1.506   2.186  0.3046 -0.3139 -0.1852
 3377TIP3    H110074   8.028   1.520   2.256  0.7176 -0.4271  0.2114
 3377TIP3    H210075   8.147   1.436   2.217 -0.7388 -1.7843 -1.4733
 3378TIP3   OH210076   1.045   0.972   4.738 -0.2280 -0.1155  0.1829
 3378TIP3    H110077   1.068   0.923   4.659  1.8890 -0.0450  0.6881
 3378TIP3    H210078   0.962   1.015   4.716 -0.0919 -0.7088 -1.7195
 3379TIP3   OH210079   1.778   1.096   0.713  0.8062 -0.0697  0.7719
 3379TIP3    H110080   1.799   1.173   0.660  0.1706  0.5782  1.4391
 3379TIP3    H210081   1.809   1.118   0.801 -0.0947 -0.2458  1.1476
 3380TIP3   OH210082   6.440   3.463   1.263 -0.1485 -0.0798 -0.2100
 3380TIP3    H110083   6.397   3.526   1.205 -1.3385 -0.0003  0.7079
 3380TIP3    H210084   6.395   3.474   1.347 -1.0457 -2.7864 -0.2467
 3381TIP3   OH210085   7.258   4.534   4.312  0.3113 -0.6542  0.2452
 3381TIP3    H110086   7.234   4.448   4.278  0.4323  0.2550 -2.3961
 3381TIP3    H210087   7.177   4.585   4.309  0.2626 -0.6065  1.6925
 3382TIP3   OH210088   3.920   3.757   4.774  0.1908 -0.2222  0.0175
 3382TIP3    H110089   3.952   3.806   4.698 -0.7133  1.7377  0.8174
 3382TIP3    H210090   3.999   3.720   4.814  0.8106 -0.1534 -1.1145
 3383TIP3   OH210091   2.923   2.626   0.829  0.0760  0.2247 -0.4917
 3383TIP3    H110092   2.997   2.659   0.778 -0.8579 -1.0591 -2.8623
 3383TIP3    H210093   2.951   2.540   0.859  0.5051  0.8506  0.9855
 3384TIP3   OH210094   7.691   1.014   0.846  0.3331  0.0159  0.5259
 3384TIP3    H110095   7.762   0.977   0.794 -0.6147  0.5957 -1.2477
 3384TIP3    H210096   7.631   0.940   0.860  1.1966 -0.4545  1.9576
 3385TIP3   OH210097   5.303   3.627   4.784 -0.0602  0.3186  0.3620
 3385TIP3    H110098   5.214   3.663   4.788 -0.0728  0.3391 -0.0190
 3385TIP3    H210099   5.359   3.698   4.815 -0.0473  0.8303 -0.7619
 3386TIP3   OH210100   4.869   0.841   5.257  0.1348  0.7892  0.1384
 3386TIP3    H110101   4.916   0.782   5.315  1.3748  2.1339  0.5566
 3386TIP3    H210102   4.932   0.910   5.236 -1.0829  1.6802 -0.7719
 3387TIP3   OH210103   6.086   1.881   1.737 -1.1085  0.3162 -0.0521
 3387TIP3    H110104   6.122   1.922   1.658  1.0267  1.7057  1.5301
 3387TIP3    H210105   6.026   1.948   1.772 -0.0305  0.8279  0.8632
 3388TIP3   OH210106   2.308   3.471   1.813 -0.2706  0.2606 -0.1525
 3388TIP3    H110107   2.265   3.497   1.895  0.5264 -0.3430  0.4696
 3388TIP3    H210108   2.372   3.540   1.797 -2.2537  1.8642 -1.7731
 3389TIP3   OH210109   4.382   1.739   3.111 -0.0740 -0.0406  0.6511
 3389TIP3    H110110   4.392   1.740   3.016  2.1694 -2.0786  0.7661
 3389TIP3    H210111   4.301   1.690   3.126 -0.1029 -0.2725 -0.1858
 3390TIP3   OH210112   0.566   2.154   3.430  0.0366 -0.6261 -0.1427
 3390TIP3    H110113   0.489   2.188   3.384 -0.3480 -0.6302  0.4857
 3390TIP3    H210114   0.573   2.063   3.400 -1.0779 -1.0763  0.8702
 3391TIP3   OH210115   0.327   0.974   4.550  0.4115 -0.0673  0.1085
 3391TIP3    H110116   0.392   0.906   4.530  0.5265 -0.2479  1.0472
 3391TIP3    H210117   0.254   0.926   4.590  0.2592  0.2993  0.2724
 3392TIP3   OH210118   4.051   1.284   6.137  0.5582  0.1470  0.3360
 3392TIP3    H110119   4.098   1.288   6.221  0.8464  0.6312  0.1514
 3392TIP3    H210120   4.093   1.350   6.082 -0.2186  0.4684  0.1049
 3393TIP3   OH210121   5.776   2.903   1.868 -0.3147 -0.4348  0.4206
 3393TIP3    H110122   5.844   2.957   1.909  0.0725 -0.4856 -0.1384
 3393TIP3    H210123   5.747   2.954   1.793  0.7854 -1.4252 -0.7220
 3394TIP3   OH210124   7.408   0.689   5.541 -0.1819  0.4176 -0.3535
 3394TIP3    H110125   7.370   0.654   5.461 -2.2923 -0.2335  0.8659
 3394TIP3    H210126   7.464   0.761   5.512 -0.2138 -0.3503 -2.4543
 3395TIP3   OH210127   5.074   3.386   4.493  0.2096  0.3128 -0.3471
 3395TIP3    H110128   5.093   3.306   4.543 -1.1064 -1.0274 -1.8901
 3395TIP3    H210129   5.146   3.392   4.430  1.0839  1.1963  0.6890
 3396TIP3   OH210130   0.875   4.799   4.604 -0.1895 -0.1540  0.6960
 3396TIP3    H110131   0.840   4.851   4.676 -0.2942  0.5566  0.1489
 3396TIP3    H210132   0.823   4.826   4.528  1.5546  1.0035 -0.1562
 3397TIP3   OH210133   0.639   5.163   0.774  0.1126 -0.1254 -0.5923
 3397TIP3    H110134   0.713   5.224   0.775  1.8065 -2.0720  0.1840
 3397TIP3    H210135   0.654   5.107   0.698 -0.8947 -0.2134 -0.7463
 3398TIP3   OH210136   6.164   6.805   2.391 -0.2318 -0.2363 -0.0048
 3398TIP3    H110137   6.257   6.826   2.386 -0.3489  0.2120 -0.4994
 3398TIP3    H210138   6.155   6.752   2.470  0.5613 -0.9508 -0.3762
 3399TIP3   OH210139   2.842   0.482   5.212 -0.1086  0.0477 -0.2884
 3399TIP3    H110140   2.752   0.458   5.187 -0.6928 -0.4254  2.0012
 3399TIP3    H210141   2.889   0.399   5.212  0.2748  0.2496 -1.1423
 3400TIP3   OH210142   7.902   4.001   3.493  0.4852 -0.3892  0.2747
 3400TIP3    H110143   7.943   3.924   3.532 -0.3610 -1.6115 -1.1644
 3400TIP3    H210144   7.910   3.988   3.399 -1.4200  0.3074 -0.0214
 3401TIP3   OH210145   6.423   3.187   5.997  0.3875 -0.1666 -0.0227
 3401TIP3    H110146   6.405   3.132   5.920  1.5395 -0.6094  0.0143
 3401TIP3    H210147   6.462   3.266   5.961 -1.5688  0.8247 -0.1043
 3402TIP3   OH210148   3.567   0.686   1.500 -0.2101  0.4955 -0.0336
 3402TIP3    H110149   3.561   0.718   1.590  0.3879  0.7821 -0.0914
 3402TIP3    H210150   3.638   0.621   1.502 -1.8908 -1.4535  0.2502
 3403TIP3   OH210151   8.111   3.088   5.142  0.0757 -0.1680  0.6244
 3403TIP3    H110152   8.095   3.071   5.235  0.3666 -2.4349  0.3178
 3403TIP3    H210153   8.171   3.019   5.115 -1.5738 -0.8351 -1.6933
 3404TIP3   OH210154   7.521   5.065   3.159 -0.2081 -0.1171  0.0111
 3404TIP3    H110155   7.428   5.069   3.180 -0.4607 -0.5471 -0.9727
 3404TIP3    H210156   7.564   5.050   3.243 -0.7993  2.5252  0.9014
 3405TIP3   OH210157   0.140   6.035   5.305  0.2559  0.0489 -0.4028
 3405TIP3    H110158   0.160   5.959   5.359 -1.2193 -0.8930 -1.1173
 3405TIP3    H210159   0.223   6.083   5.300  1.0416 -1.1317  0.6417
 3406TIP3   OH210160   1.760   7.206   4.822  0.3568 -0.0254  0.1354
 3406TIP3    H110161   1.851   7.215   4.850  0.3579 -1.0140  0.4931
 3406TIP3    H210162   1.731   7.295   4.806  2.5434  0.2706 -3.7017
 3407TIP3   OH210163   4.931   2.310   6.159 -0.3567  0.3974  0.2191
 3407TIP3    H110164   4.878   2.335   6.235 -0.5663  0.4497  0.0576
 3407TIP3    H210165   4.994   2.247   6.193 -0.9928 -0.2212  0.2845
 3408TIP3   OH210166   0.774   6.852   0.699 -0.1767  0.5412 -0.3221
 3408TIP3    H110167   0.861   6.876   0.666  0.5299  0.1699  1.1920
 3408TIP3    H210168   0.769   6.893   0.785  0.1827 -2.7385  1.4201
 3409TIP3   OH210169   7.136   5.603   1.558 -0.0103  0.1768 -0.0097
 3409TIP3    H110170   7.163   5.632   1.471  0.3357 -0.2042 -0.0311
 3409TIP3    H210171   7.079   5.528   1.541 -1.4893  1.2600  0.0119
 3410TIP3   OH210172   6.566   1.599   1.729  0.1394  0.6247  0.4389
 3410TIP3    H110173   6.594   1.514   1.697  2.4726  1.4362  0.1454
 3410TIP3    H210174   6.470   1.592   1.736  0.0352 -1.2374 -1.7708
 3411TIP3   OH210175   3.981   3.917   3.633  0.2092 -0.1156 -0.3964
 3411TIP3    H110176   4.041   3.991   3.625  0.5278 -0.3002  0.2247
 3411TIP3    H210177   4.024   3.846   3.586  0.6849 -0.3621  0.3832
 3412TIP3   OH210178   7.957   5.586   0.991 -0.6976 -0.7020 -0.1157
 3412TIP3    H110179   8.007   5.665   1.012 -0.8263 -0.7208  0.2619
 3412TIP3    H210180   7.942   5.544   1.075 -0.1824 -1.4087 -0.3719
 3413TIP3   OH210181   2.957   7.110   5.396  0.0717 -0.3959  0.8341
 3413TIP3    H110182   2.958   7.185   5.337  1.0557 -1.2224 -0.2315
 3413TIP3    H210183   3.043   7.070   5.386 -0.4759 -1.7420  1.2887
 3414TIP3   OH210184   2.814   0.202   4.254 -0.3327  0.0153 -0.5547
 3414TIP3    H110185   2.867   0.281   4.266 -1.1765  0.3607  1.1510
 3414TIP3    H210186   2.752   0.226   4.184 -0.1322  0.6248 -0.5287
 3415TIP3   OH210187   3.836   5.485   2.103  0.1560  1.2186  0.0891
 3415TIP3    H110188   3.893   5.418   2.066 -1.1071 -0.6104  1.3004
 3415TIP3    H210189   3.872   5.503   2.189 -0.8965  0.2241  0.7672
 3416TIP3   OH210190   8.138   6.292   0.609  0.2101 -0.0643  0.0948
 3416TIP3    H110191   8.061   6.257   0.655  0.7778  1.4159  2.3638
 3416TIP3    H210192   8.102   6.350   0.543 -0.6377 -0.6953 -0.0168
 3417TIP3   OH210193   1.574   0.702   3.791  0.3515  0.0082 -0.4220
 3417TIP3    H110194   1.612   0.784   3.758 -1.3260  0.3508 -1.6476
 3417TIP3    H210195   1.510   0.731   3.857 -0.2770 -0.2943 -0.8926
 3418TIP3   OH210196   2.479   6.278   4.913 -0.0219  0.5359  0.3127
 3418TIP3    H110197   2.447   6.350   4.967 -0.6500 -0.3589  1.1546
 3418TIP3    H210198   2.544   6.233   4.968 -0.6359 -0.3543  0.3284
 3419TIP3   OH210199   5.468   1.247   1.314  0.0142 -0.3993  0.1645
 3419TIP3    H110200   5.560   1.221   1.317  0.8652  2.3094  0.4089
 3419TIP3    H210201   5.465   1.317   1.249 -1.8959 -0.4285  0.1684
 3420TIP3   OH210202   3.971   6.012   1.282  0.2947 -0.1826  0.3183
 3420TIP3    H110203   3.964   6.053   1.368 -0.3534 -0.5799  0.4643
 3420TIP3    H210204   3.987   6.084   1.222 -2.2924  0.5429  0.3656
 3421TIP3   OH210205   0.117   5.203   4.072  0.0662 -0.4215  0.2213
 3421TIP3    H110206   0.178   5.200   4.145  0.1004 -1.4556  0.1781
 3421TIP3    H210207   0.067   5.121   4.079  1.0504 -1.2651 -1.7127
 3422TIP3   OH210208   5.019   1.087   6.233 -0.2645  0.3745 -0.3071
 3422TIP3    H110209   5.112   1.079   6.209  0.0204  0.0531  0.8584
 3422TIP3    H210210   4.982   1.142   6.164  0.7061  0.1984 -1.0001
 3423TIP3   OH210211   4.478   2.646   1.815  0.4916  0.6202  0.1259
 3423TIP3    H110212   4.505   2.580   1.879  1.6062  0.3062 -0.6337
 3423TIP3    H210213   4.548   2.645   1.749 -2.1562 -1.6025 -2.9890
 3424TIP3   OH210214   8.023   4.110   4.088  0.2450  0.0773 -0.0310
 3424TIP3    H110215   8.106   4.088   4.130 -0.3742 -1.5442  0.4450
 3424TIP3    H210216   8.031   4.073   4.000  0.0083 -0.1569  0.0447
 3425TIP3   OH210217   5.540   5.884   4.067  0.4240 -0.3252  0.1377
 3425TIP3    H110218   5.595   5.811   4.095 -1.1445 -1.4367  0.3977
 3425TIP3    H210219   5.574   5.959   4.116  0.5982 -1.3369  1.6253
 3426TIP3   OH210220   4.454   3.971   6.344  0.1641  0.5029 -0.0326
 3426TIP3    H110221   4.548   3.988   6.347  0.2109  0.1750  1.2224
 3426TIP3    H210222   4.446   3.878   6.366 -0.4142  0.3554 -0.8339
 3427TIP3   OH210223   2.328   0.610   4.237  0.1039  0.0123  0.1360
 3427TIP3    H110224   2.247   0.656   4.262  0.5635  0.8566  0.1298
 3427TIP3    H210225   2.363   0.576   4.320  0.8394  1.5049  0.4843
 3428TIP3   OH210226   5.476   7.735   0.521  0.2670  0.2099  0.3447
 3428TIP3    H110227   5.460   7.670   0.590 -0.4014 -0.8653 -0.7754
 3428TIP3    H210228   5.560   7.708   0.484  0.3229  0.4057  0.3316
 3429TIP3   OH210229   1.398   2.326   1.998 -0.3448 -0.2506 -0.0384
 3429TIP3    H110230   1.450   2.343   1.919  0.4592  0.5342  0.6288
 3429TIP3    H210231   1.315   2.290   1.966 -0.0174  0.0209 -1.2289
 3430TIP3   OH210232   5.779   4.270   4.929  0.4877 -0.3744  0.1551
 3430TIP3    H110233   5.693   4.306   4.948  0.5399  0.0448 -0.3816
 3430TIP3    H210234   5.763   4.196   4.871  0.4666 -0.5216  0.3460
 3431TIP3   OH210235   6.493   4.722   0.073 -0.1254 -0.1911  0.4041
 3431TIP3    H110236   6.417   4.676   0.107  0.9804 -0.7078  2.3675
 3431TIP3    H210237   6.566   4.661   0.088  0.5535 -0.3400 -2.7438
 3432TIP3   OH210238   6.436   6.311   0.211 -0.1702  0.0757  0.3812
 3432TIP3    H110239   6.352   6.265   0.216 -0.4012  0.1675 -1.6987
 3432TIP3    H210240   6.448   6.349   0.298 -2.6491  0.6903  0.5306
 3433TIP3   OH210241   7.597   2.646   5.399  0.2781 -0.7229  0.2855
 3433TIP3    H110242   7.568   2.556   5.417  2.0632 -1.4474 -0.2582
 3433TIP3    H210243   7.607   2.686   5.485 -2.8146 -0.1903  0.5317
 3434TIP3   OH210244   5.661   2.958   6.093  0.0334  0.1218 -0.3682
 3434TIP3    H110245   5.580   2.972   6.044 -0.1125  0.0477 -0.1520
 3434TIP3    H210246   5.704   3.043   6.094 -0.0001  0.1419 -0.5572
 3435TIP3   OH210247   7.462   4.977   5.441 -0.0694 -0.1042 -0.1356
 3435TIP3    H110248   7.513   4.977   5.360 -0.3347  1.2894 -0.3293
 3435TIP3    H210249   7.407   5.055   5.434 -0.1747 -0.0310  1.3402
 3436TIP3   OH210250   5.056   4.623   4.291  0.3996 -0.0311 -0.0671
 3436TIP3    H110251   4.997   4.698   4.295  0.7918  0.3888 -1.5192
 3436TIP3    H210252   5.006   4.556   4.243  0.4869 -0.2816  0.1872
 3437TIP3   OH210253   2.540   3.647   6.707 -0.4186 -0.8903 -0.2922
 3437TIP3    H110254   2.506   3.725   6.663 -0.7411  0.1196  1.5925
 3437TIP3    H210255   2.474   3.626   6.772 -0.3179 -2.7649 -0.7458
 3438TIP3   OH210256   6.145   6.669   5.732 -0.3310 -0.5881 -0.7506
 3438TIP3    H110257   6.053   6.651   5.716 -0.6679  0.9985 -0.7685
 3438TIP3    H210258   6.147   6.758   5.767  1.1246 -0.9033  0.0827
 3439TIP3   OH210259   4.211   0.502   3.835 -0.2751 -0.2142  0.3034
 3439TIP3    H110260   4.142   0.486   3.899 -0.8534  1.6308  0.1913
 3439TIP3    H210261   4.178   0.574   3.781  1.1817 -0.1728 -0.6005
 3440TIP3   OH210262   4.007   3.508   6.717  0.6686  0.4588 -0.1235
 3440TIP3    H110263   3.915   3.507   6.741  1.0310  3.7184  2.0065
 3440TIP3    H210264   4.046   3.436   6.766 -0.4675  0.1274  0.3133
 3441TIP3   OH210265   4.588   6.598   4.990  0.1806  0.6098  0.5336
 3441TIP3    H110266   4.506   6.571   5.031 -0.2434 -1.8229 -1.5776
 3441TIP3    H210267   4.561   6.653   4.916  0.4626  0.2651  0.1657
 3442TIP3   OH210268   2.499   1.236   6.560 -0.3408 -0.4135  0.1102
 3442TIP3    H110269   2.418   1.185   6.555 -1.3084  1.0519  0.1674
 3442TIP3    H210270   2.485   1.297   6.632 -0.1178  1.3408 -1.2447
 3443TIP3   OH210271   5.243   2.265   5.240 -0.3728  0.0381 -0.2355
 3443TIP3    H110272   5.245   2.340   5.181 -1.1208  1.3387  1.2967
 3443TIP3    H210273   5.198   2.298   5.319  1.2646 -1.3611  1.3772
 3444TIP3   OH210274   2.316   1.780   0.739  0.3410 -0.9527  0.3438
 3444TIP3    H110275   2.323   1.726   0.661  1.3651 -2.1173  1.2146
 3444TIP3    H210276   2.234   1.751   0.781 -0.9675  0.6421 -0.9488
 3445TIP3   OH210277   0.627   1.903   2.339 -0.2328  0.1470  0.1689
 3445TIP3    H110278   0.692   1.946   2.394 -0.6188  0.0301  0.7181
 3445TIP3    H210279   0.594   1.972   2.282  0.1482  0.2731  0.1023
 3446TIP3   OH210280   2.315   6.493   5.082  0.0790 -0.2520 -0.4847
 3446TIP3    H110281   2.221   6.498   5.063 -0.5302  0.7910  2.3178
 3446TIP3    H210282   2.320   6.487   5.178  2.8995  0.3096 -0.5121
 3447TIP3   OH210283   5.153   5.940   0.896  0.2571 -0.2292 -0.2871
 3447TIP3    H110284   5.165   5.946   0.991  0.1397 -0.2836 -0.2676
 3447TIP3    H210285   5.161   6.030   0.865 -1.1015 -0.0005 -0.0532
 3448TIP3   OH210286   1.072   6.835   3.542  0.2121  0.0941  0.0351
 3448TIP3    H110287   1.014   6.830   3.466  0.5703  1.2262 -0.3284
 3448TIP3    H210288   1.071   6.927   3.568  0.3089 -0.2232  1.2519
 3449TIP3   OH210289   3.642   6.058   4.005 -0.5225  0.3121  0.2088
 3449TIP3    H110290   3.578   6.095   3.944  0.7905  0.9864 -0.7922
 3449TIP3    H210291   3.707   6.127   4.016  0.5271 -0.7003  0.4849
 3450TIP3   OH210292   0.648   1.664   0.999  0.0288 -0.1218 -0.0210
 3450TIP3    H110293   0.609   1.597   0.943 -0.1921 -0.5507  0.6250
 3450TIP3    H210294   0.743   1.653   0.987 -0.0274  1.0669 -1.7551
 3451TIP3   OH210295   5.779   0.103   3.021 -0.1636 -0.3413  0.2074
 3451TIP3    H110296   5.861   0.056   3.033  0.8981  0.5691 -2.6064
 3451TIP3    H210297   5.781   0.131   2.929 -3.4650  0.0275  0.1321
 3452TIP3   OH210298   3.000   0.666   4.862 -1.1004  0.2112 -0.1881
 3452TIP3    H110299   3.043   0.626   4.937 -1.4208 -0.5025 -0.3740
 3452TIP3    H210300   2.976   0.754   4.892 -1.5099 -0.1748  0.6447
 3453TIP3   OH210301   3.073   5.562   0.888 -0.5216  0.0688  0.7683
 3453TIP3    H110302   3.111   5.622   0.823 -0.4438  0.0767  0.8210
 3453TIP3    H210303   3.072   5.477   0.844  1.2443 -0.3157  1.3874
 3454TIP3   OH210304   0.557   4.650   0.216  0.2195  0.0200  0.0492
 3454TIP3    H110305   0.485   4.708   0.193 -0.6856 -0.4270  1.6476
 3454TIP3    H210306   0.529   4.607   0.297  2.1841 -0.3163  0.6082
 3455TIP3   OH210307   2.948   0.966   4.482 -0.3761 -0.2014 -0.6605
 3455TIP3    H110308   3.029   0.970   4.532 -0.3270  3.6975 -0.7699
 3455TIP3    H210309   2.968   0.909   4.408  2.4546  0.9296 -0.8884
 3456TIP3   OH210310   2.939   4.700   5.278  0.4528  0.2693 -0.5198
 3456TIP3    H110311   2.923   4.756   5.202  0.0460 -0.0956 -0.7071
 3456TIP3    H210312   3.033   4.683   5.276  0.8383  1.9987  0.2729
 3457TIP3   OH210313   6.936   4.180   0.585  0.1503 -0.1299 -0.4447
 3457TIP3    H110314   6.947   4.087   0.607  2.4367  0.3863  0.9433
 3457TIP3    H210315   6.912   4.180   0.493 -0.4688 -2.1141 -0.3409
 3458TIP3   OH210316   2.168   2.622   1.371  0.1479 -0.4867 -0.0946
 3458TIP3    H110317   2.091   2.567   1.384 -0.9421  0.7443 -1.1562
 3458TIP3    H210318   2.240   2.569   1.404 -1.2380 -1.3173  1.7557
 3459TIP3   OH210319   5.356   1.632   3.681 -0.5194 -0.0053  0.3171
 3459TIP3    H110320   5.353   1.537   3.669 -1.1639  0.0744 -0.2485
 3459TIP3    H210321   5.292   1.666   3.618 -0.0340  0.8316  0.2585
 3460TIP3   OH210322   2.209   1.654   6.720 -0.6959 -0.2366 -0.7144
 3460TIP3    H110323   2.154   1.577   6.733 -1.0889  0.2970  1.0306
 3460TIP3    H210324   2.149   1.722   6.689 -0.6890 -0.1365 -0.5080
 3461TIP3   OH210325   5.148   3.266   3.209  0.2339  0.1532  0.5385
 3461TIP3    H110326   5.133   3.354   3.176 -1.0017 -0.5258 -0.8307
 3461TIP3    H210327   5.237   3.244   3.180  0.4164  0.8034  0.5912
 3462TIP3   OH210328   6.783   2.202   5.699  0.2989  0.0873 -0.0500
 3462TIP3    H110329   6.844   2.162   5.760 -1.1729  1.0312  2.1843
 3462TIP3    H210330   6.827   2.282   5.670  0.9758 -0.3209 -0.1535
 3463TIP3   OH210331   2.336   3.709   2.623 -0.1953 -0.5836  0.0354
 3463TIP3    H110332   2.363   3.748   2.540 -2.4055  0.0440 -0.4713
 3463TIP3    H210333   2.382   3.760   2.689 -1.7115  1.9348 -0.6958
 3464TIP3   OH210334   4.523   2.868   0.231 -0.6991  0.2221 -0.1982
 3464TIP3    H110335   4.611   2.900   0.213 -1.2983  1.9133 -0.3316
 3464TIP3    H210336   4.477   2.877   0.148 -0.8563 -1.2655 -0.3037
 3465TIP3   OH210337   5.853   2.189   2.377  0.7972  0.0217 -0.6917
 3465TIP3    H110338   5.936   2.143   2.364 -0.0050 -1.4247 -1.0078
 3465TIP3    H210339   5.802   2.167   2.298 -0.2049  0.1147 -0.0781
 3466TIP3   OH210340   1.195   5.546   4.405  0.5282 -0.2556  0.0730
 3466TIP3    H110341   1.206   5.580   4.316  0.8446 -0.2869  0.1009
 3466TIP3    H210342   1.167   5.455   4.392 -0.0315 -0.0794  0.0024
 3467TIP3   OH210343   1.310   4.423   1.513  0.1517 -0.4737  0.6687
 3467TIP3    H110344   1.397   4.410   1.474 -0.2868  0.3356 -0.6556
 3467TIP3    H210345   1.249   4.395   1.444 -0.6423  0.2837  1.0517
 3468TIP3   OH210346   6.786   4.921   3.514 -0.1214 -0.0193 -0.4874
 3468TIP3    H110347   6.726   4.990   3.542 -2.3110 -1.9093 -0.1705
 3468TIP3    H210348   6.820   4.884   3.595 -1.2907 -1.1661 -0.4699
 3469TIP3   OH210349   7.701   1.490   3.665 -0.7079  0.3124 -0.3280
 3469TIP3    H110350   7.760   1.503   3.738  0.4171  1.1893 -1.3525
 3469TIP3    H210351   7.669   1.577   3.643 -1.1651  0.0446 -0.7590
 3470TIP3   OH210352   2.138   0.543   2.760  0.3211  0.6969  0.6626
 3470TIP3    H110353   2.071   0.493   2.714  0.1485  0.6023  1.0116
 3470TIP3    H210354   2.091   0.621   2.793  0.6610  1.2633 -0.1678
 3471TIP3   OH210355   0.081   1.349   4.903 -0.2155  0.1099  0.1967
 3471TIP3    H110356   0.039   1.376   4.821  0.7564 -2.0791 -1.1175
 3471TIP3    H210357   0.154   1.409   4.913  0.5897 -0.5270 -1.4415
 3472TIP3   OH210358   7.469   3.064   3.511 -0.1058  0.3609 -0.2775
 3472TIP3    H110359   7.402   3.108   3.458  0.1219  1.6778  0.4872
 3472TIP3    H210360   7.419   3.001   3.564 -0.6208  0.6931 -0.3588
 3473TIP3   OH210361   3.813   1.490   1.694 -0.1702 -0.6264  0.3546
 3473TIP3    H110362   3.860   1.410   1.666  0.7678  0.2277 -0.6155
 3473TIP3    H210363   3.739   1.496   1.633 -0.7903 -1.2451  1.0278
 3474TIP3   OH210364   3.111   0.106   2.028  0.0514 -0.1930 -0.5805
 3474TIP3    H110365   3.159   0.105   2.111 -1.9736 -0.8824  0.6786
 3474TIP3    H210366   3.059   0.187   2.031  0.1449 -0.0986 -1.2949
 3475TIP3   OH210367   0.462   3.003   1.064  0.4094 -0.0443  0.2744
 3475TIP3    H110368   0.539   3.029   1.113 -0.4882  1.3892  1.0078
 3475TIP3    H210369   0.408   2.955   1.128  0.5102 -0.7090 -0.1290
 3476TIP3   OH210370   3.599   7.030   1.180 -0.3651  0.1487  0.3459
 3476TIP3    H110371   3.611   6.938   1.205 -0.8310  0.1753  0.6746
 3476TIP3    H210372   3.526   7.028   1.118 -0.3878  0.2956  0.3680
 3477TIP3   OH210373   1.106   3.785   0.485  0.2205  0.2013 -0.2576
 3477TIP3    H110374   1.074   3.870   0.515 -0.6014 -0.0573 -0.3926
 3477TIP3    H210375   1.087   3.783   0.391  0.7146  0.0757 -0.3610
 3478TIP3   OH210376   7.184   0.515   4.971 -0.3542  0.4609 -0.1188
 3478TIP3    H110377   7.209   0.506   4.879  0.4832  0.1030  0.1317
 3478TIP3    H210378   7.089   0.531   4.969 -0.2576  0.9952 -1.0627
 3479TIP3   OH210379   4.214   4.656   5.852  0.0955  0.4232  0.1072
 3479TIP3    H110380   4.220   4.575   5.803 -0.1609  0.8786 -0.7047
 3479TIP3    H210381   4.246   4.635   5.940 -1.2562 -0.8943  0.3161
 3480TIP3   OH210382   2.702   0.352   3.300 -0.2198 -0.3271  0.1734
 3480TIP3    H110383   2.640   0.415   3.263 -2.2344 -1.1405  1.9586
 3480TIP3    H210384   2.674   0.267   3.266 -0.3009 -0.7352  1.2190
 3481TIP3   OH210385   7.649   7.665   3.602  0.3539  0.2675  0.4323
 3481TIP3    H110386   7.670   7.653   3.509 -1.8325 -0.1233 -0.0541
 3481TIP3    H210387   7.638   7.759   3.612 -0.0317  0.2547  0.1397
 3482TIP3   OH210388   3.826   6.909   3.965  0.0171 -0.4562  0.1584
 3482TIP3    H110389   3.860   6.833   3.918  1.1606  0.1160  0.0238
 3482TIP3    H210390   3.904   6.953   4.000 -0.6954  0.0581  1.1605
 3483TIP3   OH210391   3.446   2.998   5.410 -0.2795 -0.0251  0.0128
 3483TIP3    H110392   3.406   2.912   5.403  0.8705 -0.5294 -0.6816
 3483TIP3    H210393   3.387   3.056   5.362  0.1033 -0.8594 -1.5312
 3484TIP3   OH210394   4.040   6.206   0.834 -0.2726 -0.9304  0.4241
 3484TIP3    H110395   4.118   6.169   0.793 -0.8686 -0.8609 -0.8442
 3484TIP3    H210396   4.061   6.299   0.847 -0.6481 -0.5622 -1.3228
 3485TIP3   OH210397   7.545   2.847   2.544  0.1141  0.4357 -0.7851
 3485TIP3    H110398   7.583   2.935   2.550 -1.7745  1.2977 -0.6984
 3485TIP3    H210399   7.453   2.862   2.521 -0.1791 -1.5433 -1.0820
 3486TIP3   OH210400   4.712   1.513   4.337  0.3442 -0.5072 -0.2206
 3486TIP3    H110401   4.706   1.428   4.294  2.2522 -1.2638  0.8842
 3486TIP3    H210402   4.792   1.508   4.389 -0.0080  1.6316  0.6303
 3487TIP3   OH210403   5.329   0.532   3.389  0.0478  0.2576  0.4825
 3487TIP3    H110404   5.404   0.505   3.336 -0.9844  2.7004 -2.5405
 3487TIP3    H210405   5.356   0.613   3.431 -1.1931  1.9629 -1.7906
 3488TIP3   OH210406   7.859   3.135   4.678  0.0652  0.2064 -0.2041
 3488TIP3    H110407   7.877   3.121   4.771 -1.5659  0.1346  0.1360
 3488TIP3    H210408   7.844   3.229   4.671 -0.2081  0.1561 -0.3136
 3489TIP3   OH210409   7.502   7.104   2.082 -0.7754 -0.2563 -0.2746
 3489TIP3    H110410   7.506   7.008   2.086 -1.0144 -0.2615 -0.1097
 3489TIP3    H210411   7.410   7.124   2.098 -0.8621 -0.0322 -1.0406
 3490TIP3   OH210412   2.174   1.661   5.146 -0.4428 -0.7747  0.0948
 3490TIP3    H110413   2.089   1.636   5.109 -1.0604  0.0918  0.8942
 3490TIP3    H210414   2.200   1.738   5.096 -1.8864  1.1957  2.1783
 3491TIP3   OH210415   1.357   2.308   6.690  0.4112  0.3750 -0.1837
 3491TIP3    H110416   1.283   2.368   6.692  0.8616  0.9274  0.2370
 3491TIP3    H210417   1.320   2.224   6.664 -0.2834  0.7545 -0.4255
 3492TIP3   OH210418   6.376   2.011   6.585  0.3145  0.0815  0.2893
 3492TIP3    H110419   6.432   2.048   6.653  2.2247  0.7642 -1.5470
 3492TIP3    H210420   6.287   2.019   6.620  1.1343  1.2863  2.2698
 3493TIP3   OH210421   4.813   4.842   1.572 -0.1159 -0.0709 -0.9336
 3493TIP3    H110422   4.737   4.881   1.528 -0.4443 -0.0218 -0.3324
 3493TIP3    H210423   4.787   4.837   1.664  0.1847 -1.0997 -0.8999
 3494TIP3   OH210424   5.821   2.340   1.324  0.6585 -0.0321  0.2957
 3494TIP3    H110425   5.757   2.297   1.381 -0.4740 -0.7980 -1.4631
 3494TIP3    H210426   5.793   2.432   1.321  0.8455  0.0583  1.0929
 3495TIP3   OH210427   6.847   7.541   5.161  0.1253 -0.3531 -0.1636
 3495TIP3    H110428   6.849   7.550   5.256  0.2615  0.4520 -0.2344
 3495TIP3    H210429   6.765   7.582   5.135 -0.9970 -2.4964 -0.2279
 3496TIP3   OH210430   1.067   5.519   5.953 -0.2398  0.5294  0.0431
 3496TIP3    H110431   1.143   5.488   5.904 -0.8747 -0.2867 -0.4642
 3496TIP3    H210432   1.087   5.610   5.975  0.6849  0.4557 -0.4624
 3497TIP3   OH210433   0.279   6.862   3.816 -0.3959 -0.3280 -0.0071
 3497TIP3    H110434   0.281   6.938   3.757 -0.6869 -0.5392 -0.2932
 3497TIP3    H210435   0.288   6.900   3.903  0.9863 -0.0802 -0.2297
 3498TIP3   OH210436   7.813   2.487   4.167 -0.0514 -0.0806 -0.3417
 3498TIP3    H110437   7.735   2.461   4.215  0.9205 -1.4705  0.5370
 3498TIP3    H210438   7.795   2.461   4.076 -1.5695  1.8546 -0.6726
 3499TIP3   OH210439   2.821   3.687   2.984  0.4415 -0.0404  0.0886
 3499TIP3    H110440   2.766   3.725   3.052 -0.5489 -3.3694  1.3468
 3499TIP3    H210441   2.909   3.687   3.023 -0.0359 -1.5001  1.2517
 3500TIP3   OH210442   3.694   3.213   6.102  0.0068 -0.5161  0.3212
 3500TIP3    H110443   3.621   3.242   6.157  0.1401 -0.0091  0.2359
 3500TIP3    H210444   3.760   3.183   6.164 -0.4771 -1.4678  0.3831
 3501TIP3   OH210445   4.333   4.713   2.930  0.3888  0.1281  0.1144
 3501TIP3    H110446   4.308   4.701   2.838  0.4355  2.0072 -0.1769
 3501TIP3    H210447   4.320   4.806   2.947 -0.0484 -0.2625  2.1639
 3502TIP3   OH210448   0.350   4.868   2.671 -0.5065  0.0106 -0.3478
 3502TIP3    H110449   0.360   4.875   2.766 -0.2540  0.6193 -0.4155
 3502TIP3    H210450   0.364   4.957   2.639  0.6354 -0.3985 -1.0631
 3503TIP3   OH210451   8.075   1.815   2.313 -0.7085  0.6393  0.2626
 3503TIP3    H110452   8.153   1.866   2.334 -0.7776  0.3044  1.3996
 3503TIP3    H210453   8.106   1.724   2.314 -0.5372  0.6066 -1.9327
 3504TIP3   OH210454   1.146   3.262   3.768 -0.7107  0.0242 -0.2190
 3504TIP3    H110455   1.136   3.168   3.755 -0.9470 -0.0785  0.6579
 3504TIP3    H210456   1.058   3.294   3.785 -0.8603  0.6579 -1.9369
 3505TIP3   OH210457   6.227   4.564   5.129  0.3209 -0.2627  0.0972
 3505TIP3    H110458   6.297   4.596   5.072 -0.9197  0.8467 -0.8696
 3505TIP3    H210459   6.265   4.488   5.174  2.0431  0.1569 -0.5764
 3506TIP3   OH210460   5.980   4.483   4.900  0.6013 -0.0142 -0.5129
 3506TIP3    H110461   5.923   4.407   4.906  0.0009  0.4942  0.5878
 3506TIP3    H210462   5.960   4.535   4.978  0.2099  1.8174 -1.7544
 3507TIP3   OH210463   0.373   5.651   0.772 -0.2340  0.0379 -0.7057
 3507TIP3    H110464   0.458   5.612   0.753  0.2325  1.2600 -1.2597
 3507TIP3    H210465   0.385   5.698   0.854 -0.6883 -0.6674 -0.2279
 3508TIP3   OH210466   3.195   2.015   4.747  0.5010 -0.2858  0.4493
 3508TIP3    H110467   3.158   1.933   4.780 -2.3197  0.1282 -1.3009
 3508TIP3    H210468   3.162   2.082   4.807  1.2455 -0.2269  0.8012
 3509TIP3   OH210469   1.695   5.407   3.146  0.4318 -0.1007 -0.3680
 3509TIP3    H110470   1.776   5.433   3.191 -0.2279 -2.6103  2.5884
 3509TIP3    H210471   1.726   5.355   3.072  1.5197  1.8553 -1.3698
 3510TIP3   OH210472   5.696   2.075   4.428 -0.4780 -0.7309 -0.3414
 3510TIP3    H110473   5.625   2.097   4.488 -0.7820 -0.0034 -0.9479
 3510TIP3    H210474   5.775   2.083   4.481 -0.6783  0.6799 -0.2263
 3511TIP3   OH210475   1.129   2.936   3.318 -1.2332 -0.1349  0.4357
 3511TIP3    H110476   1.054   2.924   3.259  0.0458  0.1113 -1.3179
 3511TIP3    H210477   1.137   3.031   3.326  0.1265 -0.0877 -1.0967
 3512TIP3   OH210478   1.615   4.047   1.565 -0.0480 -0.1070  0.6945
 3512TIP3    H110479   1.619   4.124   1.508 -1.0872 -0.6426 -0.1439
 3512TIP3    H210480   1.552   3.988   1.521 -0.5279 -0.7289  2.1639
 3513TIP3   OH210481   8.234   1.712   0.628  0.3603  0.1571  0.1370
 3513TIP3    H110482   8.176   1.646   0.666  1.2202 -0.0477  1.1425
 3513TIP3    H210483   8.215   1.792   0.677  2.4390 -0.4253  2.0796
 3514TIP3   OH210484   5.048   7.150   1.351 -0.6645  0.0824  0.3444
 3514TIP3    H110485   5.077   7.211   1.284 -0.4698  0.0925  0.4391
 3514TIP3    H210486   4.952   7.160   1.352 -0.5589  1.1636  1.0974
 3515TIP3   OH210487   3.157   1.627   6.282 -0.2059  0.1423 -1.0494
 3515TIP3    H110488   3.199   1.631   6.196  1.1959 -2.0047 -0.5561
 3515TIP3    H210489   3.209   1.686   6.337  0.1695 -0.0489 -1.1969
 3516TIP3   OH210490   3.608   6.653   4.794  0.0677 -0.2724  0.1883
 3516TIP3    H110491   3.598   6.740   4.833 -0.8093 -0.6204  0.7660
 3516TIP3    H210492   3.523   6.636   4.753 -0.1975 -1.3628  1.1548
 3517TIP3   OH210493   0.994   4.281   4.447 -0.1059 -0.5979 -0.8814
 3517TIP3    H110494   0.918   4.327   4.413  0.3971 -0.6522 -2.1212
 3517TIP3    H210495   1.040   4.249   4.370  1.8661  0.5232 -0.2380
 3518TIP3   OH210496   2.012   0.778   0.637  0.0785  0.1326  0.0590
 3518TIP3    H110497   1.994   0.809   0.548 -0.5002 -1.1192 -0.2826
 3518TIP3    H210498   2.071   0.704   0.624  0.1851  0.0962  0.7412
 3519TIP3   OH210499   3.125   2.659   5.542 -0.2216 -0.3355  0.1063
 3519TIP3    H110500   3.069   2.725   5.583  0.3196  1.5479 -1.9553
 3519TIP3    H210501   3.212   2.677   5.576 -0.1764 -0.4023  0.0260
 3520TIP3   OH210502   1.844   7.281   6.532  0.7052  0.6586 -0.4908
 3520TIP3    H110503   1.937   7.301   6.544  0.7159 -0.4887  1.9408
 3520TIP3    H210504   1.803   7.366   6.515  2.0429  1.3309 -0.4580
 3521TIP3   OH210505   3.848   3.052   1.041 -0.3475 -0.2610 -0.1484
 3521TIP3    H110506   3.938   3.030   1.016 -0.2055 -0.5073  0.5645
 3521TIP3    H210507   3.826   3.129   0.989  0.5490  0.2649  0.2375
 3522TIP3   OH210508   0.184   6.617   5.535 -0.0642  0.0475  0.7812
 3522TIP3    H110509   0.164   6.693   5.590  0.5697 -1.1655  2.7816
 3522TIP3    H210510   0.279   6.618   5.527 -0.2199  1.4309 -2.2320
 3523TIP3   OH210511   6.355   2.236   2.308  0.0701 -0.2459 -0.1333
 3523TIP3    H110512   6.402   2.317   2.328  0.5896 -0.6746  0.3893
 3523TIP3    H210513   6.332   2.245   2.215  0.9776  0.0755 -0.3371
 3524TIP3   OH210514   4.702   1.799   2.461 -0.5824  0.0765  0.5476
 3524TIP3    H110515   4.711   1.704   2.475  0.7204  0.1206  0.1672
 3524TIP3    H210516   4.634   1.826   2.522  1.1830 -0.6026  2.9391
 3525TIP3   OH210517   1.169   6.443   0.594  0.4308  0.0368 -0.5290
 3525TIP3    H110518   1.153   6.423   0.502  0.9290  0.7730 -0.7914
 3525TIP3    H210519   1.255   6.406   0.612  1.1769  1.5265 -0.9062
 3526TIP3   OH210520   0.947   2.957   3.103  0.7340  0.0895  0.0154
 3526TIP3    H110521   0.910   3.017   3.039 -1.1123 -1.6894 -0.7010
 3526TIP3    H210522   0.976   2.882   3.051 -1.1997 -1.5906  1.2225
 3527TIP3   OH210523   1.458   6.899   1.535  0.3120  0.2663 -0.2341
 3527TIP3    H110524   1.433   6.919   1.445  0.2430 -0.9135 -0.4991
 3527TIP3    H210525   1.513   6.821   1.528 -2.6764 -2.1727  0.9913
 3528TIP3   OH210526   0.447   3.583   3.468 -0.3296  0.0966 -0.1378
 3528TIP3    H110527   0.523   3.540   3.508 -0.3386  1.0504  0.9596
 3528TIP3    H210528   0.484   3.636   3.398  0.0753  0.8388  0.6250
 3529TIP3   OH210529   0.180   7.036   4.008  0.1804  0.6810 -0.9714
 3529TIP3    H110530   0.273   7.024   4.026 -0.1915 -0.0485  0.7297
 3529TIP3    H210531   0.161   7.125   4.037  0.1984  0.5543 -0.5635
 3530TIP3   OH210532   6.552   6.526   1.410  0.4135 -0.1839  0.2764
 3530TIP3    H110533   6.584   6.454   1.356  0.1795  0.0872 -0.2248
 3530TIP3    H210534   6.614   6.530   1.483  1.4305  0.2226 -0.5896
 3531TIP3   OH210535   1.098   7.404   1.832 -0.1810 -0.3904  0.1897
 3531TIP3    H110536   1.065   7.318   1.858 -1.3134  0.3398  1.3080
 3531TIP3    H210537   1.189   7.405   1.862  0.0071 -1.3806 -0.3117
 3532TIP3   OH210538   1.073   1.182   4.376 -0.0590  0.1268 -0.3293
 3532TIP3    H110539   1.073   1.233   4.295 -1.1443 -2.9428 -2.4442
 3532TIP3    H210540   1.136   1.112   4.360 -0.1830 -0.4679  1.5650
 3533TIP3   OH210541   0.077   0.021   0.900 -0.2229  0.0282  0.1304
 3533TIP3    H110542   0.044   0.109   0.883  2.1978  0.9540 -0.2162
 3533TIP3    H210543   0.107   0.024   0.991 -0.2159 -0.4524  0.1429
 3534TIP3   OH210544   2.274   5.488   0.215  0.1416 -0.2907 -0.0916
 3534TIP3    H110545   2.278   5.492   0.310 -2.3805  0.3683  0.0640
 3534TIP3    H210546   2.339   5.421   0.191 -1.3460 -2.8419  2.3369
 3535TIP3   OH210547   0.529   1.243   2.172  0.0410  0.1532  0.1534
 3535TIP3    H110548   0.590   1.306   2.133  0.8501 -0.9193 -0.3481
 3535TIP3    H210549   0.467   1.223   2.102  1.3434 -1.5799 -0.5536
 3536TIP3   OH210550   4.593   5.016   6.646 -1.3522 -0.1091  0.2839
 3536TIP3    H110551   4.637   4.964   6.713  0.4982  0.1995 -0.6199
 3536TIP3    H210552   4.585   4.957   6.571  3.2703  1.4184 -1.7550
 3537TIP3   OH210553   6.522   7.390   3.537  0.5456  0.0409  0.1105
 3537TIP3    H110554   6.429   7.372   3.524  1.1790 -1.9211 -2.7590
 3537TIP3    H210555   6.529   7.485   3.530 -1.0954  0.1219 -0.9951
 3538TIP3   OH210556   2.030   6.104   4.343  0.1685  0.1755 -0.5423
 3538TIP3    H110557   2.019   6.084   4.436  1.8153  1.3628 -0.0499
 3538TIP3    H210558   2.120   6.078   4.323  0.0987  0.6951 -1.5859
 3539TIP3   OH210559   4.521   5.109   2.497 -0.0037  0.0101 -0.2126
 3539TIP3    H110560   4.511   5.199   2.528 -0.9800  0.2426 -1.1342
 3539TIP3    H210561   4.606   5.108   2.454  0.5736  0.1495  0.9063
 3540TIP3   OH210562   4.942   0.373   0.936 -0.2839 -0.2739 -0.0820
 3540TIP3    H110563   4.960   0.280   0.944  2.9148  0.0709 -1.7258
 3540TIP3    H210564   5.011   0.415   0.988  0.0962  1.1637 -1.6636
 3541TIP3   OH210565   3.359   1.233   6.405  0.0538 -0.0433  0.2947
 3541TIP3    H110566   3.430   1.257   6.465  0.8464 -0.9547 -0.2415
 3541TIP3    H210567   3.296   1.186   6.459  0.5547 -0.4778  0.5102
 3542TIP3   OH210568   1.360   5.065   5.186  0.0665  0.3519 -0.1677
 3542TIP3    H110569   1.400   4.994   5.135 -0.3006 -0.9893  1.3392
 3542TIP3    H210570   1.427   5.088   5.250 -0.8626 -0.6964  1.2388
 3543TIP3   OH210571   2.918   7.747   2.705 -0.0431  0.1267  0.2888
 3543TIP3    H110572   2.998   7.759   2.757  0.3674  0.2204 -0.3614
 3543TIP3    H210573   2.849   7.733   2.771  0.6220 -0.6699  0.8328
 3544TIP3   OH210574   4.549   0.130   5.858 -0.5491 -0.2523  0.1649
 3544TIP3    H110575   4.456   0.148   5.875 -0.4038  0.2477  0.4288
 3544TIP3    H210576   4.581   0.092   5.939 -0.5771 -0.6620 -0.0104
 3545TIP3   OH210577   0.856   2.776   4.428  0.0628  0.2448  0.0369
 3545TIP3    H110578   0.847   2.871   4.434 -0.8706  0.0947  1.5316
 3545TIP3    H210579   0.887   2.761   4.339  2.0084  2.0583  0.3141
 3546TIP3   OH210580   4.838   3.970   1.644 -0.2209  0.0335  0.4798
 3546TIP3    H110581   4.909   3.974   1.708  0.0962 -2.0484  0.3383
 3546TIP3    H210582   4.802   3.882   1.654  0.8114 -0.9744 -3.1446
 3547TIP3   OH210583   1.962   5.808   0.660 -0.5429 -0.6242 -0.4819
 3547TIP3    H110584   2.023   5.771   0.724 -1.9098 -0.8015  0.7779
 3547TIP3    H210585   1.914   5.875   0.709 -1.2330 -0.3580 -1.4828
 3548TIP3   OH210586   3.259   7.770   1.715 -0.4035  0.0868 -0.3782
 3548TIP3    H110587   3.353   7.786   1.709 -0.4966  0.8614  0.0089
 3548TIP3    H210588   3.228   7.838   1.775 -1.2453 -0.0159 -0.6908
 3549TIP3   OH210589   5.748   0.131   6.467  0.2628  0.4440  0.5988
 3549TIP3    H110590   5.773   0.199   6.405  1.0149  1.1130  1.5938
 3549TIP3    H210591   5.821   0.069   6.467 -0.5161 -0.5057 -0.4659
 3550TIP3   OH210592   6.624   7.027   6.272  0.0498  0.3297  0.1827
 3550TIP3    H110593   6.582   7.067   6.347 -0.2917  0.3432 -0.0159
 3550TIP3    H210594   6.553   7.006   6.212  0.2834  0.0067  0.0088
 3551TIP3   OH210595   8.287   5.867   5.135 -0.1963  0.5037  0.2232
 3551TIP3    H110596   8.313   5.933   5.199  0.2541 -0.0320  0.5972
 3551TIP3    H210597   8.201   5.837   5.164  0.4782 -0.5439  1.2470
 3552TIP3   OH210598   4.950   3.502   2.350  0.5175 -0.0287 -0.8160
 3552TIP3    H110599   5.003   3.556   2.409  0.6239 -1.3337  0.3126
 3552TIP3    H210600   4.869   3.552   2.338  0.3330  0.0906  0.7492
 3553TIP3   OH210601   1.739   2.377   3.073 -0.0968 -0.1960 -0.6509
 3553TIP3    H110602   1.783   2.293   3.088 -0.5584 -0.4327 -0.6217
 3553TIP3    H210603   1.647   2.354   3.059 -0.3913  0.3766  0.2669
 3554TIP3   OH210604   2.380   0.993   6.207 -0.4069  0.3511 -0.4910
 3554TIP3    H110605   2.375   0.978   6.302 -0.0124  0.4179 -0.4564
 3554TIP3    H210606   2.473   1.009   6.191 -0.5518  0.9200 -0.8016
 3555TIP3   OH210607   1.450   4.091   3.374  0.9506  0.0725 -0.3318
 3555TIP3    H110608   1.442   4.050   3.288  1.7130  0.5935 -0.6682
 3555TIP3    H210609   1.404   4.174   3.365  0.9353  0.0776 -0.2077
 3556TIP3   OH210610   0.850   3.226   5.900 -0.2921  0.5879 -0.2733
 3556TIP3    H110611   0.941   3.257   5.909 -0.2327  0.1171  0.8769
 3556TIP3    H210612   0.854   3.161   5.829  0.3377  0.3326 -0.0142
 3557TIP3   OH210613   0.945   0.150   6.713  0.0055  0.5405 -0.2902
 3557TIP3    H110614   0.973   0.086   6.778 -2.4253 -0.0513  0.2934
 3557TIP3    H210615   1.016   0.154   6.650  1.0677 -1.2638  0.7230
 3558TIP3   OH210616   3.409   2.384   4.295 -0.3252 -0.3657 -0.3471
 3558TIP3    H110617   3.332   2.438   4.310 -0.9775 -1.1384 -0.8475
 3558TIP3    H210618   3.477   2.446   4.270 -0.8870  0.2798 -0.2998
 3559TIP3   OH210619   3.215   4.513   1.810 -0.5411  0.5714  0.1715
 3559TIP3    H110620   3.276   4.530   1.739  0.9795 -0.9565  1.0480
 3559TIP3    H210621   3.136   4.480   1.767 -0.5364  1.9108 -0.9306
 3560TIP3   OH210622   3.744   6.590   1.747 -0.2482  0.3958 -0.4658
 3560TIP3    H110623   3.753   6.638   1.829  1.5509  0.4841 -0.6924
 3560TIP3    H210624   3.657   6.615   1.715 -0.6681  0.9680  0.9986
 3561TIP3   OH210625   7.261   1.886   0.728  0.0068 -0.2967  0.1997
 3561TIP3    H110626   7.223   1.808   0.689  1.9911 -0.5212 -1.4956
 3561TIP3    H210627   7.353   1.863   0.744  0.7947  1.7729 -0.8258
 3562TIP3   OH210628   0.789   2.986   2.472  0.0336 -1.2016  0.2466
 3562TIP3    H110629   0.716   3.043   2.447  0.3352 -0.4597  1.0183
 3562TIP3    H210630   0.867   3.030   2.438  0.1054 -2.2515 -1.0301
 3563TIP3   OH210631   2.261   5.773   6.219  0.7388 -0.3371 -0.0867
 3563TIP3    H110632   2.254   5.680   6.240  0.5968 -0.5356 -0.9747
 3563TIP3    H210633   2.327   5.776   6.149 -0.1405  0.0918 -0.9100
 3564TIP3   OH210634   5.551   5.652   4.657 -0.0935 -0.1636 -0.4278
 3564TIP3    H110635   5.512   5.714   4.594  0.5034 -0.7788 -1.4312
 3564TIP3    H210636   5.477   5.624   4.711 -0.3624  1.4967  0.1332
 3565TIP3   OH210637   1.225   6.097   4.212 -0.4212 -0.0589 -0.3204
 3565TIP3    H110638   1.285   6.120   4.141 -0.8302  1.1177 -0.2973
 3565TIP3    H210639   1.152   6.158   4.203 -0.7509 -0.2760  0.7730
 3566TIP3   OH210640   2.533   1.055   5.126 -0.3833 -0.6889 -0.3209
 3566TIP3    H110641   2.518   0.984   5.064  0.0479  0.4701 -1.8243
 3566TIP3    H210642   2.625   1.045   5.152 -0.8718 -1.8618  1.0915
 3567TIP3   OH210643   3.434   3.424   1.441  0.4384 -0.1758  0.0476
 3567TIP3    H110644   3.366   3.387   1.497 -0.9301 -0.0946 -1.4987
 3567TIP3    H210645   3.406   3.403   1.352  2.1425  0.3861 -0.6565
 3568TIP3   OH210646   4.983   7.533   0.806 -0.0966 -0.4739  0.0913
 3568TIP3    H110647   4.946   7.584   0.734  0.2026 -0.0991  0.2008
 3568TIP3    H210648   4.921   7.546   0.878  0.3610  0.3295  0.3407
 3569TIP3   OH210649   4.452   6.609   4.718 -0.5002 -0.1691  0.2997
 3569TIP3    H110650   4.381   6.622   4.781 -1.6225  0.3178 -1.0131
 3569TIP3    H210651   4.507   6.541   4.756 -1.3246 -0.1025  1.6376
 3570TIP3   OH210652   1.380   7.717   5.730 -0.0249  0.3229 -0.3314
 3570TIP3    H110653   1.293   7.724   5.771 -0.2135 -0.5706 -0.5536
 3570TIP3    H210654   1.440   7.711   5.804 -0.2229  0.2506 -0.1723
 3571TIP3   OH210655   1.296   5.948   4.603 -0.2966 -0.1026  0.2482
 3571TIP3    H110656   1.363   6.012   4.580  0.7508 -1.4515 -0.5859
 3571TIP3    H210657   1.232   5.955   4.532  0.0879 -0.3435 -0.1268
 3572TIP3   OH210658   6.461   3.709   5.305 -0.5291  0.2729 -0.0073
 3572TIP3    H110659   6.378   3.681   5.344  0.2132 -2.8816 -0.4401
 3572TIP3    H210660   6.446   3.701   5.210  0.4176 -0.9850 -0.0781
 3573TIP3   OH210661   4.032   0.709   3.191 -0.3461  0.0986 -0.6911
 3573TIP3    H110662   3.985   0.675   3.267  0.9085  0.0301  0.0763
 3573TIP3    H210663   3.979   0.681   3.116 -1.4465 -0.0909  0.1206
 3574TIP3   OH210664   1.731   4.748   5.582  0.7168 -0.4984  0.0484
 3574TIP3    H110665   1.682   4.740   5.500  0.1263 -1.5108  0.4808
 3574TIP3    H210666   1.676   4.801   5.639  1.2973  0.5294 -0.3126
 3575TIP3   OH210667   4.994   1.922   1.545  0.3063  0.2388 -0.6382
 3575TIP3    H110668   5.016   1.988   1.479 -0.3984  1.0000 -0.1467
 3575TIP3    H210669   4.946   1.855   1.497  1.1795 -0.0056 -1.1784
 3576TIP3   OH210670   6.763   6.675   6.375 -1.0640 -0.7615  0.4737
 3576TIP3    H110671   6.776   6.580   6.367  0.6345 -0.5767  0.7944
 3576TIP3    H210672   6.736   6.688   6.466  3.3408 -0.5548  1.9472
 3577TIP3   OH210673   6.947   7.402   1.368  0.2554  0.0319 -1.0512
 3577TIP3    H110674   6.945   7.445   1.283  2.1953 -0.3832 -1.3680
 3577TIP3    H210675   6.944   7.309   1.349 -2.2247 -0.0579 -0.4599
 3578TIP3   OH210676   0.070   4.370   5.541  0.1814 -0.1162 -0.6308
 3578TIP3    H110677   0.041   4.294   5.491 -0.4395 -1.0422  1.0673
 3578TIP3    H210678  -0.002   4.433   5.533 -1.1305 -1.2871  1.1832
 3579TIP3   OH210679   2.636   0.996   4.626 -0.0492  0.4694  0.6661
 3579TIP3    H110680   2.721   1.027   4.659  1.6309  1.6381 -3.9319
 3579TIP3    H210681   2.589   1.076   4.604 -1.1327 -0.2026  0.4923
 3580TIP3   OH210682   1.567   7.510   2.100 -1.1850 -0.2112 -0.0674
 3580TIP3    H110683   1.558   7.529   2.194 -1.5613 -0.0578 -0.1327
 3580TIP3    H210684   1.662   7.504   2.086 -1.1199 -0.0575  0.2855
 3581TIP3   OH210685   2.358   2.385   5.084  0.1627  0.0659  0.0135
 3581TIP3    H110686   2.383   2.475   5.104  2.0643 -0.1772 -0.9940
 3581TIP3    H210687   2.307   2.391   5.004 -1.1150  0.3674  0.8274
 3582TIP3   OH210688   4.076   7.315   2.323 -0.0867 -1.2016 -0.4598
 3582TIP3    H110689   4.161   7.274   2.343 -0.3702 -2.0949 -1.0390
 3582TIP3    H210690   4.035   7.256   2.261 -2.4874 -2.4452  2.0893
 3583TIP3   OH210691   0.960   6.453   4.163 -0.0694  0.1342  0.3828
 3583TIP3    H110692   0.988   6.456   4.254 -0.4777  0.4806  0.5020
 3583TIP3    H210693   1.037   6.422   4.115  1.1812  2.8198  0.4629
 3584TIP3   OH210694   2.118   6.142   5.254  0.1878 -0.1773 -0.1119
 3584TIP3    H110695   2.031   6.175   5.277  0.0718 -0.2099 -0.4813
 3584TIP3    H210696   2.109   6.115   5.162  0.8749  0.7815 -0.4815
 3585TIP3   OH210697   0.671   3.835   5.024  0.0723 -0.1719 -0.5180
 3585TIP3    H110698   0.728   3.783   4.967  1.2287  0.8269 -0.3333
 3585TIP3    H210699   0.721   3.916   5.040 -0.9188  0.2534  0.5928
 3586TIP3   OH210700   0.290   0.747   6.322  0.1834  0.3993  0.2337
 3586TIP3    H110701   0.367   0.796   6.297  0.3630  0.8013  1.5228
 3586TIP3    H210702   0.322   0.678   6.380 -0.4213  0.6934  0.9511
 3587TIP3   OH210703   2.125   2.796   1.177 -0.3802 -0.1499  0.5684
 3587TIP3    H110704   2.061   2.847   1.227 -0.1105  1.6592 -0.8160
 3587TIP3    H210705   2.174   2.748   1.243 -0.5722  1.4998  1.9882
 3588TIP3   OH210706   7.244   5.527   3.370 -0.2371 -0.3482 -0.2241
 3588TIP3    H110707   7.182   5.598   3.354 -0.4614 -0.5367 -0.1939
 3588TIP3    H210708   7.192   5.459   3.414 -0.4683 -1.2788 -1.8300
 3589TIP3   OH210709   3.189   0.883   5.047 -0.1802 -0.0173 -0.8118
 3589TIP3    H110710   3.172   0.976   5.058 -0.3984 -0.0528 -0.8467
 3589TIP3    H210711   3.125   0.854   4.982  1.1526  0.2039 -2.2865
 3590TIP3   OH210712   3.800   6.095   1.756 -0.0596 -0.3861 -0.2421
 3590TIP3    H110713   3.726   6.043   1.786  0.0726 -0.5356 -0.1755
 3590TIP3    H210714   3.778   6.185   1.784 -0.7801 -0.2178 -1.2757
 3591TIP3   OH210715   7.798   5.552   2.039  0.4579 -0.0172 -0.0364
 3591TIP3    H110716   7.718   5.575   1.992  0.2539  1.1176  0.8328
 3591TIP3    H210717   7.868   5.594   1.989  0.2376  1.2162  0.6664
 3592TIP3   OH210718   6.723   7.370   1.525 -0.1521  0.0124  0.2286
 3592TIP3    H110719   6.777   7.295   1.551  0.0647  0.5390  1.3520
 3592TIP3    H210720   6.773   7.411   1.454 -0.1176 -0.7217 -0.1778
 3593TIP3   OH210721   4.724   2.436   4.348  0.5209 -0.1651 -0.4673
 3593TIP3    H110722   4.631   2.426   4.326  0.6755 -2.8709 -0.1946
 3593TIP3    H210723   4.730   2.410   4.440  1.4914  0.3534 -0.3771
 3594TIP3   OH210724   7.230   3.296   5.239  0.0386 -0.2022  0.0203
 3594TIP3    H110725   7.216   3.390   5.226 -1.6830 -0.2481  1.2413
 3594TIP3    H210726   7.220   3.258   5.152 -2.1012  0.4681 -0.0971
 3595TIP3   OH210727   5.507   0.048   1.804  0.1205 -0.1871 -0.8031
 3595TIP3    H110728   5.424   0.072   1.763 -0.9154  1.5087  1.9931
 3595TIP3    H210729   5.564   0.124   1.790  0.5654 -0.5741 -1.1159
 3596TIP3   OH210730   3.749   5.776   6.637 -0.0663  0.2745 -0.2586
 3596TIP3    H110731   3.743   5.694   6.685 -0.3070  0.4968  0.0981
 3596TIP3    H210732   3.712   5.757   6.551  1.0891 -0.3343 -0.6437
 3597TIP3   OH210733   8.155   1.296   3.880  0.1870 -0.1775 -0.1755
 3597TIP3    H110734   8.128   1.257   3.797  1.6726  0.5532 -1.0635
 3597TIP3    H210735   8.177   1.222   3.936  0.4290 -0.6602 -0.9030
 3598TIP3   OH210736   0.389   4.031   6.764  0.6358 -0.1403  0.1789
 3598TIP3    H110737   0.379   4.125   6.782  0.8891 -0.0547 -0.1101
 3598TIP3    H210738   0.300   3.999   6.753  0.5723  0.1936 -0.3165
 3599TIP3   OH210739   8.021   0.743   3.500  0.5927  0.0702  0.6607
 3599TIP3    H110740   8.003   0.823   3.452  1.6634  0.2441  0.5222
 3599TIP3    H210741   8.106   0.713   3.467 -0.0030 -1.3835  0.3552
 3600TIP3   OH210742   5.254   5.262   2.617  0.2641 -0.3741  0.0345
 3600TIP3    H110743   5.196   5.187   2.609  0.7881 -0.6710 -1.2596
 3600TIP3    H210744   5.326   5.231   2.672  0.1269 -0.5997  0.0874
 3601TIP3   OH210745   7.731   1.650   1.007 -0.2714  0.2997  0.1147
 3601TIP3    H110746   7.699   1.585   0.945 -1.0689  0.1905  0.6178
 3601TIP3    H210747   7.652   1.683   1.049  0.2050  0.8568  0.5889
 3602TIP3   OH210748   6.186   4.126   5.085  0.2474 -0.1662 -0.0652
 3602TIP3    H110749   6.176   4.173   5.168 -0.3744  1.8930 -1.2116
 3602TIP3    H210750   6.151   4.039   5.101  1.1429 -0.1742  2.1006
 3603TIP3   OH210751   0.643   3.467   0.352 -0.0651  0.0844 -0.1189
 3603TIP3    H110752   0.661   3.449   0.444 -0.2448  1.0321  0.1193
 3603TIP3    H210753   0.721   3.435   0.306  0.4104  0.3696  0.4629
 3604TIP3   OH210754   4.512   5.670   1.297 -0.3371 -0.7491  0.1632
 3604TIP3    H110755   4.488   5.760   1.274  0.9091 -1.0526 -2.7090
 3604TIP3    H210756   4.590   5.679   1.351 -1.0900 -0.0986  1.1775
 3605TIP3   OH210757   2.030   1.883   5.585  0.0297 -0.2979  0.6057
 3605TIP3    H110758   2.080   1.865   5.506  0.7522 -1.0076  1.1980
 3605TIP3    H210759   2.029   1.979   5.592  2.2145 -0.2435  1.0881
 3606TIP3   OH210760   7.970   6.717   1.184 -0.3078 -0.0560 -0.2415
 3606TIP3    H110761   7.906   6.699   1.253  2.2305 -0.0257  2.2805
 3606TIP3    H210762   8.041   6.655   1.200  0.2460 -0.2798 -3.1101
 3607TIP3   OH210763   1.031   6.482   3.547 -0.1003  0.6084  0.1541
 3607TIP3    H110764   1.064   6.499   3.458  1.2397 -0.9335  0.2975
 3607TIP3    H210765   1.105   6.502   3.604 -0.6433  0.6758  0.8485
 3608TIP3   OH210766   5.649   5.981   4.723 -0.1812 -0.2247 -0.0572
 3608TIP3    H110767   5.638   6.071   4.754  1.2949 -0.8210  2.5232
 3608TIP3    H210768   5.725   5.984   4.665  1.1976 -0.0712  1.6722
 3609TIP3   OH210769   8.266   2.307   3.685  0.4983 -0.7009 -1.0486
 3609TIP3    H110770   8.205   2.241   3.719  0.0784 -0.1512 -0.7147
 3609TIP3    H210771   8.319   2.331   3.761  1.1164 -1.1598 -1.3342
 3610TIP3   OH210772   2.624   2.936   6.050 -0.8835 -0.2585  0.3223
 3610TIP3    H110773   2.672   2.855   6.070 -0.8073 -0.1934  0.4067
 3610TIP3    H210774   2.635   2.948   5.956  0.8907  0.7700  0.5997
 3611TIP3   OH210775   0.589   6.417   0.141  0.0280  0.0145  0.0685
 3611TIP3    H110776   0.632   6.368   0.071  0.6896  0.6812 -0.0042
 3611TIP3    H210777   0.519   6.359   0.171 -0.5293 -0.1305 -1.4082
 3612TIP3   OH210778   1.371   7.341   6.106  0.1668 -0.4566  0.2985
 3612TIP3    H110779   1.367   7.437   6.106 -0.8167 -0.4899  0.2763
 3612TIP3    H210780   1.359   7.316   6.015  0.1446 -0.6089  0.3426
 3613TIP3   OH210781   1.679   1.725   4.058 -0.4441  0.3885  0.5119
 3613TIP3    H110782   1.738   1.758   4.126  1.0460 -1.4069  0.1316
 3613TIP3    H210783   1.609   1.790   4.055  0.6067  1.6836  2.1838
 3614TIP3   OH210784   6.449   6.877   2.404 -0.2702 -0.5071  0.6959
 3614TIP3    H110785   6.536   6.839   2.419  0.5091 -0.0968 -2.2344
 3614TIP3    H210786   6.447   6.953   2.462  0.8048 -1.2169  1.7299
 3615TIP3   OH210787   3.194   4.787   4.710 -0.2147 -0.1470 -0.2408
 3615TIP3    H110788   3.274   4.810   4.758  0.2463  0.2783 -1.1833
 3615TIP3    H210789   3.148   4.870   4.701 -0.6439 -0.3484  0.0711
 3616TIP3   OH210790   3.253   0.663   3.088 -0.1552  0.3625  0.0047
 3616TIP3    H110791   3.234   0.756   3.075  0.9667  0.6916  0.5741
 3616TIP3    H210792   3.297   0.660   3.173  1.6460 -0.4158 -0.9121
 3617TIP3   OH210793   3.227   3.487   4.146 -0.1480  0.2182 -0.6256
 3617TIP3    H110794   3.289   3.557   4.167  0.1952 -0.4122  0.5964
 3617TIP3    H210795   3.155   3.531   4.101  0.4688  1.2154 -0.6635
 3618TIP3   OH210796   7.839   2.341   3.436  0.1525 -0.1703 -0.0431
 3618TIP3    H110797   7.798   2.315   3.518 -1.0940 -1.1921 -0.9535
 3618TIP3    H210798   7.902   2.271   3.417 -1.8463 -1.6586 -1.5309
 3619TIP3   OH210799   7.942   1.464   2.424 -0.1830 -0.0506 -0.6955
 3619TIP3    H110800   7.862   1.516   2.420 -0.2950 -0.2482 -1.1610
 3619TIP3    H210801   7.914   1.377   2.454 -0.0975 -0.0295 -0.5543
 3620TIP3   OH210802   5.596   3.164   1.172 -0.0162  0.1194  0.3702
 3620TIP3    H110803   5.527   3.208   1.123 -0.7966 -1.0875  0.3416
 3620TIP3    H210804   5.630   3.231   1.232 -0.0102  1.2082 -0.8194
 3621TIP3   OH210805   7.884   5.332  -0.029  0.6810  0.0217  0.0512
 3621TIP3    H110806   7.898   5.320   0.065  2.3470 -0.7003 -0.2516
 3621TIP3    H210807   7.797   5.370  -0.036  0.9499  1.1033  1.9482
 3622TIP3   OH210808   0.577   7.565   2.834 -0.0408  0.0050  0.2189
 3622TIP3    H110809   0.559   7.652   2.797  1.9118  1.8271  3.1215
 3622TIP3    H210810   0.495   7.540   2.876 -0.9036 -0.0528 -1.3925
 3623TIP3   OH210811   3.583   3.249   3.378  0.0081 -0.2707  0.3275
 3623TIP3    H110812   3.568   3.331   3.424  0.2367  0.6341 -1.1522
 3623TIP3    H210813   3.674   3.254   3.348 -0.6873  0.0594 -1.8783
 3624TIP3   OH210814   7.021   0.426   3.476 -0.8702 -0.1088 -0.0306
 3624TIP3    H110815   6.988   0.340   3.502  2.2958 -1.1488  1.0009
 3624TIP3    H210816   7.104   0.407   3.432 -0.2401  2.4077 -0.0627
 3625TIP3   OH210817   0.659   0.065   6.169 -0.0044  0.1580  0.3088
 3625TIP3    H110818   0.705  -0.014   6.141  2.3974  1.7843 -0.6606
 3625TIP3    H210819   0.608   0.091   6.093  0.9278  0.6881 -0.1557
 3626TIP3   OH210820   2.177   7.605   2.178 -0.4695  0.2482 -0.0159
 3626TIP3    H110821   2.269   7.585   2.196 -0.3030  0.4168 -0.6749
 3626TIP3    H210822   2.129   7.531   2.217 -0.1226  0.5853  1.0874
 3627TIP3   OH210823   4.820   3.499   4.370 -0.3214  0.4410 -0.3931
 3627TIP3    H110824   4.882   3.552   4.320  0.0133  0.0238 -0.4326
 3627TIP3    H210825   4.861   3.492   4.457 -0.4173  0.3385 -0.3566
 3628TIP3   OH210826   4.146   7.764   6.333  0.6892  0.2082  0.2781
 3628TIP3    H110827   4.052   7.759   6.354  0.5224  0.5478 -0.3545
 3628TIP3    H210828   4.189   7.724   6.409  0.0199 -0.2312  0.4436
 3629TIP3   OH210829   2.584   5.747   3.501  0.2721 -0.1047 -0.2911
 3629TIP3    H110830   2.502   5.723   3.544  0.2837  0.3065 -0.0388
 3629TIP3    H210831   2.588   5.689   3.425  1.0132 -1.9556  1.0848
 3630TIP3   OH210832   0.719   5.248   3.603  0.1356 -0.1512 -0.5407
 3630TIP3    H110833   0.661   5.176   3.579 -0.6195 -0.0454  0.8906
 3630TIP3    H210834   0.758   5.276   3.520 -1.5286 -0.5044 -1.4863
 3631TIP3   OH210835   4.051   7.393   0.637  0.3454  0.7354 -0.3900
 3631TIP3    H110836   4.110   7.396   0.713  0.0995  0.6853 -0.1954
 3631TIP3    H210837   4.107   7.365   0.565  0.3200 -0.4358  0.0277
 3632TIP3   OH210838   1.140   0.361   4.427 -0.1176 -0.2651 -0.2220
 3632TIP3    H110839   1.164   0.268   4.434 -1.1642 -0.5532 -0.2725
 3632TIP3    H210840   1.104   0.370   4.339  0.0231  0.1999 -0.2311
 3633TIP3   OH210841   3.668   1.689   4.246 -0.0159 -0.3878 -0.0128
 3633TIP3    H110842   3.750   1.693   4.197 -0.7399  0.8023 -1.1831
 3633TIP3    H210843   3.679   1.753   4.316 -0.2048  0.2647 -0.5803
 3634TIP3   OH210844   6.916   3.893   5.214 -0.0827  0.2902 -0.1839
 3634TIP3    H110845   6.939   3.940   5.294  0.5460  0.6915 -0.5834
 3634TIP3    H210846   6.820   3.892   5.213 -0.1704 -2.1665  1.9522
 3635TIP3   OH210847   1.581   2.446   5.679  0.1139 -0.0864 -0.1257
 3635TIP3    H110848   1.671   2.440   5.649  0.7210  0.0831  1.5347
 3635TIP3    H210849   1.563   2.540   5.686  0.0678 -0.1176  0.2274
 3636TIP3   OH210850   0.932   1.999   0.765 -0.0677  0.4889 -0.4037
 3636TIP3    H110851   0.955   2.047   0.685 -3.3239  0.7399 -1.3089
 3636TIP3    H210852   0.860   2.049   0.803  0.3142 -0.5554  1.8189
 3637TIP3   OH210853   7.316   2.521   0.759  0.1613  0.2318  1.0189
 3637TIP3    H110854   7.359   2.589   0.707 -0.7134 -0.7857 -1.1253
 3637TIP3    H210855   7.223   2.530   0.739 -0.0327 -1.2054  1.1842
 3638TIP3   OH210856   3.458   2.714   5.446 -0.2034  0.5320  0.1191
 3638TIP3    H110857   3.499   2.642   5.494  1.7622  0.7532 -1.0804
 3638TIP3    H210858   3.369   2.685   5.430 -0.1493 -0.6161  1.6666
 3639TIP3   OH210859   6.404   3.643   3.548 -0.0527 -0.0047  0.1625
 3639TIP3    H110860   6.437   3.728   3.576  1.8751  0.0471 -1.9425
 3639TIP3    H210861   6.388   3.654   3.454 -0.3029 -1.8066 -0.0341
 3640TIP3   OH210862   6.866   1.752   0.116  0.5051 -0.6050  0.4239
 3640TIP3    H110863   6.948   1.708   0.137  0.9706 -0.2343 -0.5634
 3640TIP3    H210864   6.889   1.844   0.111  0.4324 -0.6379 -1.5379
 3641TIP3   OH210865   1.830   4.690   3.163  0.0699 -0.2247 -0.3754
 3641TIP3    H110866   1.810   4.772   3.118 -1.9023 -1.3414 -1.7151
 3641TIP3    H210867   1.842   4.626   3.093  0.6470 -1.2665  0.6381
 3642TIP3   OH210868   0.324   0.642   4.201  0.2486 -0.3454  0.5693
 3642TIP3    H110869   0.263   0.688   4.259 -0.2418  0.8705 -0.8644
 3642TIP3    H210870   0.289   0.553   4.195 -1.4016  0.3166 -0.1909
 3643TIP3   OH210871   2.036   6.580   3.214 -0.4000 -0.4939  0.1343
 3643TIP3    H110872   2.128   6.607   3.216 -0.8695  1.2254  2.1071
 3643TIP3    H210873   2.022   6.538   3.298 -1.3126 -1.2017 -0.3563
 3644TIP3   OH210874   5.559   1.540   1.365  0.4929  0.1612 -0.4287
 3644TIP3    H110875   5.554   1.634   1.347  0.3653  0.0221 -1.1725
 3644TIP3    H210876   5.510   1.529   1.446 -1.2106  0.4864 -1.3506
 3645TIP3   OH210877   6.770   6.681   3.648 -0.2652 -0.4275 -0.7040
 3645TIP3    H110878   6.730   6.690   3.735  1.3477  0.7578 -0.0242
 3645TIP3    H210879   6.861   6.710   3.661 -0.5349  1.9403 -3.2245
 3646TIP3   OH210880   6.384   4.711   5.323  0.0413  0.3133 -0.1840
 3646TIP3    H110881   6.431   4.790   5.296 -2.3349  1.7648 -0.3804
 3646TIP3    H210882   6.352   4.673   5.241  1.1377 -0.8651 -0.0852
 3647TIP3   OH210883   3.299   2.685   0.083  0.1157  0.1876  0.1687
 3647TIP3    H110884   3.229   2.659   0.023  0.8182  1.1101 -1.1191
 3647TIP3    H210885   3.375   2.635   0.054  0.5567  0.9181  0.0404
 3648TIP3   OH210886   1.073   2.223   2.845  0.2351 -0.5634 -0.0542
 3648TIP3    H110887   1.168   2.216   2.835  0.2758  0.0778 -0.1306
 3648TIP3    H210888   1.046   2.136   2.875  0.9501 -0.5110  0.7902
 3649TIP3   OH210889   5.839   1.856   2.720  0.6965 -0.5181 -0.8080
 3649TIP3    H110890   5.790   1.776   2.739 -0.5560  0.9478  3.2714
 3649TIP3    H210891   5.928   1.837   2.753 -0.0141  0.1370  1.7226
 3650TIP3   OH210892   8.064   0.348   1.093  0.0371  0.5929  0.3777
 3650TIP3    H110893   8.047   0.270   1.146 -1.6148  0.6229 -0.0517
 3650TIP3    H210894   8.097   0.412   1.155 -1.4549  0.4968  1.3281
 3651TIP3   OH210895   7.799   2.767   6.453 -0.1340  0.9885 -0.4549
 3651TIP3    H110896   7.880   2.763   6.402  0.3692 -0.3835  0.4296
 3651TIP3    H210897   7.731   2.786   6.388  0.8197  1.8047 -1.2546
 3652TIP3   OH210898   2.346   4.885   0.738  0.2936 -0.0527 -0.1191
 3652TIP3    H110899   2.331   4.793   0.717  3.4094 -0.4158 -1.1567
 3652TIP3    H210900   2.377   4.924   0.656 -0.3634  1.8336  0.4543
 3653TIP3   OH210901   0.567   3.673   2.076 -0.0692  0.1676  0.3024
 3653TIP3    H110902   0.600   3.583   2.083 -1.9123 -0.5163  0.8814
 3653TIP3    H210903   0.596   3.716   2.156 -0.0247 -0.2163  0.4963
 3654TIP3   OH210904   7.864   6.503   5.100 -0.2936 -0.3796 -0.1123
 3654TIP3    H110905   7.878   6.510   5.005  0.2009 -0.2767 -0.0329
 3654TIP3    H210906   7.950   6.519   5.138 -0.5764  0.0062  0.3729
 3655TIP3   OH210907   5.169   6.987   5.071 -0.0593  0.9794 -0.7673
 3655TIP3    H110908   5.219   7.065   5.045 -0.2753  1.0512 -0.9738
 3655TIP3    H210909   5.128   6.958   4.990 -0.3146  0.8920 -0.6051
 3656TIP3   OH210910   4.513   0.179   0.294 -0.2991 -0.1925  0.2593
 3656TIP3    H110911   4.466   0.177   0.211 -1.8750  1.0415  1.0546
 3656TIP3    H210912   4.446   0.199   0.359  0.6192 -2.4865  2.0635
 3657TIP3   OH210913   6.524   4.897   5.194 -0.1334  0.0827  0.5928
 3657TIP3    H110914   6.599   4.956   5.180 -0.7753  0.6225 -0.7038
 3657TIP3    H210915   6.531   4.832   5.124 -1.7361  1.0588 -0.5237
 3658TIP3   OH210916   3.040   3.924   5.518 -0.5645  0.5809  0.0658
 3658TIP3    H110917   2.961   3.962   5.555  0.2478  3.4462 -0.8495
 3658TIP3    H210918   3.049   3.967   5.432  2.0251  0.5042  0.2199
 3659TIP3   OH210919   8.266   5.404   6.303 -0.5432  0.4126 -0.2837
 3659TIP3    H110920   8.211   5.411   6.225 -0.0734 -0.1184 -0.6657
 3659TIP3    H210921   8.350   5.441   6.278 -1.2222  2.8937  0.8423
 3660TIP3   OH210922   5.234   1.907   3.095 -0.2085 -0.1856  0.3340
 3660TIP3    H110923   5.288   1.894   3.018 -0.1707 -1.1840  0.5164
 3660TIP3    H210924   5.147   1.926   3.061 -0.1682 -0.5144  0.0452
 3661TIP3   OH210925   4.903   1.839   6.606 -0.3600  0.2776 -0.4064
 3661TIP3    H110926   4.944   1.809   6.687  0.1018 -1.6798 -1.2989
 3661TIP3    H210927   4.886   1.759   6.557 -1.5397  1.3475 -1.8305
 3662TIP3   OH210928   2.697   7.001   0.566 -0.1556 -0.2188 -0.2327
 3662TIP3    H110929   2.663   7.089   0.580 -0.2294 -0.2628 -0.1273
 3662TIP3    H210930   2.789   7.013   0.543  0.2650 -0.1839  1.3303
 3663TIP3   OH210931   1.138   0.107   1.466  0.2120 -0.5483 -0.0304
 3663TIP3    H110932   1.063   0.165   1.455  0.4485 -0.4009 -0.9099
 3663TIP3    H210933   1.214   0.162   1.448  0.4541 -1.0578 -0.5914
 3664TIP3   OH210934   1.183   4.829   1.190  0.4593  0.2023 -0.2535
 3664TIP3    H110935   1.249   4.881   1.236  1.8613 -0.2812 -1.6309
 3664TIP3    H210936   1.197   4.739   1.220  0.9868 -0.0255 -1.1593
 3665TIP3   OH210937   5.203   4.906   1.595  0.0136  0.9668  0.5057
 3665TIP3    H110938   5.276   4.844   1.582 -0.0462  0.9891  0.0575
 3665TIP3    H210939   5.181   4.936   1.507 -0.3484  1.1826  0.6690
 3666TIP3   OH210940   0.875   4.184   5.750 -0.4305 -0.5519  0.4732
 3666TIP3    H110941   0.968   4.184   5.725 -0.1531  1.0402  1.3138
 3666TIP3    H210942   0.838   4.258   5.702 -1.1198 -0.8077  0.6102
 3667TIP3   OH210943   0.366   2.801   1.269 -0.3360 -0.3404  0.1875
 3667TIP3    H110944   0.353   2.736   1.199  0.6135 -1.1542  0.7484
 3667TIP3    H210945   0.338   2.757   1.349  1.9178 -0.7354  0.8389
 3668TIP3   OH210946   7.822   1.716   3.893  0.3662  0.1754 -0.2109
 3668TIP3    H110947   7.906   1.681   3.863  0.5243  0.7128 -0.4053
 3668TIP3    H210948   7.839   1.809   3.908 -0.6687  0.7178 -2.1168
 3669TIP3   OH210949   1.767   2.332   2.728  0.3737  0.0863  0.3275
 3669TIP3    H110950   1.704   2.260   2.730 -0.6526  0.9531  2.0327
 3669TIP3    H210951   1.834   2.306   2.791  0.5155  0.1988  0.2228
 3670TIP3   OH210952   5.643   3.004   0.869  0.0749  0.2920  0.3408
 3670TIP3    H110953   5.699   2.946   0.920  1.2279  0.8137 -0.3019
 3670TIP3    H210954   5.669   3.092   0.895 -0.8664  0.5494  0.4639
 3671TIP3   OH210955   0.283   3.559   5.102 -0.4311 -0.1730 -0.6479
 3671TIP3    H110956   0.342   3.553   5.027 -0.9383 -1.7705 -0.9692
 3671TIP3    H210957   0.212   3.498   5.081 -0.5927 -0.6394  1.1069
 3672TIP3   OH210958   0.090   4.858   0.338  0.1386 -0.6188  0.1200
 3672TIP3    H110959   0.011   4.864   0.391 -0.3787 -1.3382 -0.5504
 3672TIP3    H210960   0.123   4.948   0.334  0.3524 -0.6014  1.8792
 3673TIP3   OH210961   5.973   3.528   3.014  0.1888  0.3393  0.2369
 3673TIP3    H110962   5.904   3.463   3.000  0.2081  0.5001 -0.6618
 3673TIP3    H210963   6.026   3.492   3.085 -0.2710 -0.2354  0.2961
 3674TIP3   OH210964   4.886   0.698   1.941  0.3161 -0.4927  0.2145
 3674TIP3    H110965   4.861   0.666   2.028  0.0557  0.0275  0.3393
 3674TIP3    H210966   4.981   0.711   1.947  0.3272 -0.6405  0.3620
 3675TIP3   OH210967   0.012   6.351   0.132  0.0232  0.1332 -0.2452
 3675TIP3    H110968   0.094   6.335   0.180 -0.1583  0.0731  0.0425
 3675TIP3    H210969   0.036   6.335   0.040 -0.1799 -2.0185  0.0110
 3676TIP3   OH210970   3.873   7.429   4.283  0.4810 -0.2142 -0.6246
 3676TIP3    H110971   3.811   7.387   4.344 -1.0143 -0.1374 -2.0393
 3676TIP3    H210972   3.895   7.360   4.221  0.7551  0.1444 -0.9279
 3677TIP3   OH210973   6.509   3.191   0.826 -0.1199 -0.2797 -0.2399
 3677TIP3    H110974   6.592   3.220   0.865  0.6757 -2.7013  0.0094
 3677TIP3    H210975   6.448   3.191   0.900 -0.3472  1.3158 -0.3820
 3678TIP3   OH210976   5.554  -0.003   3.125 -0.0355  0.3718 -0.0611
 3678TIP3    H110977   5.524  -0.033   3.039  0.7824  3.1533 -1.4354
 3678TIP3    H210978   5.636   0.042   3.108  1.4333 -1.0538  2.6037
 3679TIP3   OH210979   5.826   0.373   5.851 -0.3714 -0.1568  0.0030
 3679TIP3    H110980   5.802   0.331   5.768 -2.4394 -1.1399  0.9929
 3679TIP3    H210981   5.913   0.340   5.870 -0.3730 -0.9205 -1.1661
 3680TIP3   OH210982   5.570   2.437   0.289 -0.3780 -0.5711 -0.1708
 3680TIP3    H110983   5.617   2.354   0.298 -1.0877 -0.9633  0.0237
 3680TIP3    H210984   5.612   2.481   0.216  1.2317 -0.2689  0.8819
 3681TIP3   OH210985   5.668   3.396   4.811 -0.2806 -0.5784  0.0528
 3681TIP3    H110986   5.581   3.385   4.850  0.1306  0.0260  1.1628
 3681TIP3    H210987   5.727   3.346   4.867  0.5385  1.4718  1.1208
 3682TIP3   OH210988   2.608   1.839   0.720 -0.2737 -0.2178 -0.0450
 3682TIP3    H110989   2.515   1.818   0.720 -0.4711  0.1375  3.2964
 3682TIP3    H210990   2.613   1.924   0.676 -1.9414  0.9601  1.8656
 3683TIP3   OH210991   7.463   2.188   4.090 -0.2703  0.6001 -0.5238
 3683TIP3    H110992   7.423   2.123   4.033 -0.3793 -0.8313  1.1031
 3683TIP3    H210993   7.546   2.209   4.048  0.4521 -1.7128 -0.3970
 3684TIP3   OH210994   3.053   5.662   4.200 -0.1192  0.1469 -0.0339
 3684TIP3    H110995   3.064   5.579   4.153 -2.3561 -0.5271  0.4857
 3684TIP3    H210996   2.958   5.674   4.204  0.0567  4.0699 -2.3449
 3685TIP3   OH210997   1.626   2.248   1.128 -0.1943 -0.1077  0.2008
 3685TIP3    H110998   1.632   2.266   1.222  0.9086  0.8728 -0.0296
 3685TIP3    H210999   1.600   2.332   1.090 -2.2169 -0.8822 -0.2482
 3686TIP3   OH211000   5.193   3.330   1.835 -0.6912 -0.1769 -0.5783
 3686TIP3    H111001   5.207   3.395   1.904  1.4462 -1.7622  0.5856
 3686TIP3    H211002   5.104   3.298   1.850 -1.5124  1.8747 -0.7202
 3687TIP3   OH211003   6.605   1.812   1.892 -0.1089 -0.4060  0.2631
 3687TIP3    H111004   6.586   1.741   1.830  1.2344 -0.4086 -0.1769
 3687TIP3    H211005   6.684   1.782   1.938 -2.3492 -1.5300  3.7139
 3688TIP3   OH211006   3.096   7.547   1.711 -0.1589 -0.0966  0.1410
 3688TIP3    H111007   3.005   7.573   1.725 -0.0086  0.7229 -0.2963
 3688TIP3    H211008   3.146   7.629   1.720  0.4736 -0.4479 -0.0937
 3689TIP3   OH211009   6.568   6.989   1.909 -0.3079  0.1878  0.1372
 3689TIP3    H111010   6.531   6.945   1.985  1.3125 -2.0004 -0.2511
 3689TIP3    H211011   6.641   7.041   1.944 -0.0583 -0.1878  0.1731
 3690TIP3   OH211012   1.969   5.443   2.903  0.3712 -0.2226 -0.0824
 3690TIP3    H111013   2.019   5.524   2.908 -0.5404  0.2801  2.3969
 3690TIP3    H211014   1.886   5.468   2.862  0.2651  0.0213  0.2764
 3691TIP3   OH211015   0.546   7.080   6.428  0.3993 -0.2110 -0.5532
 3691TIP3    H111016   0.453   7.063   6.440  0.1293  1.3509 -0.2293
 3691TIP3    H211017   0.552   7.128   6.346  1.0023 -0.9317 -0.9345
 3692TIP3   OH211018   0.137   1.883   1.858 -0.0676  0.0488 -0.0398
 3692TIP3    H111019   0.120   1.974   1.836  0.1107 -0.1583 -1.0904
 3692TIP3    H211020   0.183   1.848   1.781  1.3578 -0.4986  1.0196
 3693TIP3   OH211021   1.453   4.154   5.700 -0.7673 -0.1978 -0.7668
 3693TIP3    H111022   1.509   4.185   5.629 -1.6230  1.5015 -0.7542
 3693TIP3    H211023   1.476   4.210   5.774 -1.3940 -0.5048 -0.3299
 3694TIP3   OH211024   0.053   2.303   6.175 -0.0407  0.2202 -0.0389
 3694TIP3    H111025   0.109   2.307   6.252  0.3643  0.7810 -0.3606
 3694TIP3    H211026   0.110   2.322   6.101 -0.8134  1.7924 -0.2848
 3695TIP3   OH211027   1.011   3.920   2.638 -0.3473  0.1082  0.0505
 3695TIP3    H111028   0.935   3.966   2.674  1.0108  2.3034  0.3123
 3695TIP3    H211029   1.038   3.973   2.564  1.2186 -0.3282  0.2737
 3696TIP3   OH211030   3.436   6.118   3.617 -0.2613 -0.3315  0.0680
 3696TIP3    H111031   3.393   6.044   3.574 -1.6777  0.8018 -0.5513
 3696TIP3    H211032   3.516   6.133   3.566  0.3362 -1.7637  0.5499
 3697TIP3   OH211033   6.631  -0.009   5.168 -0.1240  0.2584 -1.0934
 3697TIP3    H111034   6.701   0.007   5.231 -0.0549  0.5350 -1.2441
 3697TIP3    H211035   6.618   0.074   5.123 -1.5404  0.6330 -0.0689
 3698TIP3   OH211036   4.229   3.154   3.878 -0.0418  0.0034 -0.1552
 3698TIP3    H111037   4.219   3.060   3.861  2.4498 -0.3525 -0.1081
 3698TIP3    H211038   4.207   3.163   3.971  0.0061 -0.6068 -0.0760
 3699TIP3   OH211039   2.339   2.563   0.079  0.1836  0.2903  0.4091
 3699TIP3    H111040   2.255   2.581   0.122  0.0105  0.2183  0.1062
 3699TIP3    H211041   2.323   2.582  -0.013 -0.0826 -1.6099  0.0212
 3700TIP3   OH211042   5.101   6.542   1.944  0.4144  0.0779 -0.1732
 3700TIP3    H111043   5.006   6.532   1.942  0.3171  0.8211  0.1567
 3700TIP3    H211044   5.131   6.471   2.000  0.0581 -0.1987 -0.3291
 3701TIP3   OH211045   8.261   4.316   0.037  0.3465  0.2631  0.3399
 3701TIP3    H111046   8.177   4.271   0.043  0.7801 -0.3841  2.0511
 3701TIP3    H211047   8.263   4.352  -0.052 -0.2867 -2.5522 -0.9043
 3702TIP3   OH211048   3.680   6.597   4.190 -0.0408  0.4626 -0.6055
 3702TIP3    H111049   3.689   6.692   4.195  0.2824  0.4047  0.0222
 3702TIP3    H211050   3.600   6.583   4.139 -0.5612  1.0785  0.0225
 3703TIP3   OH211051   7.480   2.912   4.361  0.0745 -0.3580 -0.0057
 3703TIP3    H111052   7.514   2.881   4.445  0.3634  0.9836  0.3931
 3703TIP3    H211053   7.497   2.840   4.301  0.1594 -1.2153  1.0138
 3704TIP3   OH211054   1.803   0.909   6.645 -0.5997 -0.0697 -0.0949
 3704TIP3    H111055   1.878   0.928   6.702  0.6585 -0.5168 -1.5190
 3704TIP3    H211056   1.757   0.837   6.688  1.2076 -1.4556 -0.3232
 3705TIP3   OH211057   2.163   0.905   6.700 -0.2186  0.3081  0.1178
 3705TIP3    H111058   2.140   0.812   6.700  0.5991  0.1004 -0.8995
 3705TIP3    H211059   2.088   0.947   6.743 -1.4420 -0.6189 -1.0142
 3706TIP3   OH211060   7.565   0.996   4.405 -0.1641 -0.1463  0.0657
 3706TIP3    H111061   7.576   0.950   4.489  0.2224  0.1051  0.1520
 3706TIP3    H211062   7.473   0.982   4.383 -0.1704 -0.5565  0.3313
 3707TIP3   OH211063   2.385   5.935   0.644 -0.6525  0.5435 -0.3500
 3707TIP3    H111064   2.379   5.918   0.738 -1.1520 -2.4365 -0.8035
 3707TIP3    H211065   2.469   5.980   0.633  0.3772 -0.8091  1.3706
 3708TIP3   OH211066   7.761   6.713   5.576  0.4509  0.2152 -0.3596
 3708TIP3    H111067   7.820   6.663   5.633 -0.1878  0.0843  0.2025
 3708TIP3    H211068   7.819   6.765   5.521  1.0846  0.8480  0.8722
 3709TIP3   OH211069   4.022   2.626   4.137  0.1220  0.1180  0.3485
 3709TIP3    H111070   3.989   2.716   4.139  0.9470  0.4161  1.4561
 3709TIP3    H211071   4.090   2.628   4.069 -0.7840 -0.0217 -0.5830
 3710TIP3   OH211072   0.073   5.822   0.163 -0.0984 -0.0897 -0.0420
 3710TIP3    H111073   0.167   5.835   0.176  0.1013  0.7037 -1.9321
 3710TIP3    H211074   0.059   5.729   0.182  0.9084 -0.0503  1.0030
 3711TIP3   OH211075   4.295   7.091   0.192  0.2320 -0.2267 -0.0607
 3711TIP3    H111076   4.217   7.122   0.146  0.7187  1.0813 -0.0395
 3711TIP3    H211077   4.338   7.032   0.129  0.4193  0.8345 -0.9666
 3712TIP3   OH211078   1.151   3.266   4.554 -0.1581  0.3158 -0.0377
 3712TIP3    H111079   1.103   3.251   4.636 -1.1754 -0.4079 -0.7446
 3712TIP3    H211080   1.143   3.360   4.538  0.2179  0.4955  0.7844
 3713TIP3   OH211081   2.098   1.376   3.470 -0.2239  0.1106  0.0520
 3713TIP3    H111082   2.071   1.464   3.445  0.1118  0.2394  0.1390
 3713TIP3    H211083   2.027   1.320   3.439  0.1838  0.2610 -1.1959
 3714TIP3   OH211084   8.250   3.108   5.845 -0.0573  1.2261 -0.3943
 3714TIP3    H111085   8.202   3.163   5.906 -1.0798  0.3534 -0.3795
 3714TIP3    H211086   8.316   3.166   5.807 -0.9925  2.4061 -0.2713
 3715TIP3   OH211087   6.097   2.841   1.263 -0.1466  0.3554  0.1978
 3715TIP3    H111088   6.160   2.912   1.254 -1.3818  1.7048  1.4912
 3715TIP3    H211089   6.021   2.882   1.305 -1.2982 -1.5234  0.0694
 3716TIP3   OH211090   4.781   7.769   1.999  0.4004  0.4318 -0.3070
 3716TIP3    H111091   4.786   7.865   1.999 -1.2201  0.5662 -1.7270
 3716TIP3    H211092   4.690   7.750   1.976  0.8307 -1.4590 -0.6012
 3717TIP3   OH211093   1.735   2.777   5.011  0.2803 -0.1801  0.2830
 3717TIP3    H111094   1.738   2.720   5.088  2.1487  1.3215  1.3906
 3717TIP3    H211095   1.647   2.815   5.013 -0.1475 -1.1512  0.8911
 3718TIP3   OH211096   6.056   7.051   3.991  0.1304 -0.7610 -0.0617
 3718TIP3    H111097   6.116   7.115   3.952 -1.2881  0.6425 -0.0346
 3718TIP3    H211098   6.101   6.967   3.980  3.6281  0.4487  2.7419
 3719TIP3   OH211099   4.054   6.773   5.015 -0.1734 -0.2174  0.8749
 3719TIP3    H111100   3.990   6.822   5.066 -1.7504 -0.4520 -0.7701
 3719TIP3    H211101   4.072   6.695   5.068 -0.7300  0.1773  1.6696
 3720TIP3   OH211102   1.413   2.587   6.684 -0.1471  0.0815  0.3747
 3720TIP3    H111103   1.505   2.609   6.673 -0.1339 -0.2862 -0.3086
 3720TIP3    H211104   1.406   2.495   6.658 -0.6891  0.0828  0.4927
 3721TIP3   OH211105   7.402   4.474   4.597 -0.4709  0.2288 -1.0622
 3721TIP3    H111106   7.331   4.455   4.658 -0.2387  0.8115 -0.6030
 3721TIP3    H211107   7.362   4.466   4.510 -0.8139 -0.5674 -0.8392
 3722TIP3   OH211108   7.701   0.932   1.603 -0.0780  0.3489 -0.2257
 3722TIP3    H111109   7.614   0.894   1.590  0.7779 -1.5537 -0.8984
 3722TIP3    H211110   7.760   0.870   1.559  1.5290  2.1199 -0.6980
 3723TIP3   OH211111   5.340   5.252   1.148 -0.1912  0.8405  0.6767
 3723TIP3    H111112   5.329   5.172   1.095  2.1078 -0.2759  1.7573
 3723TIP3    H211113   5.374   5.317   1.086 -0.3963  0.4669  0.1595
 3724TIP3   OH211114   6.997   3.338   3.943 -0.4443 -0.5059 -0.4773
 3724TIP3    H111115   6.921   3.370   3.895  0.2071  0.3597 -0.9530
 3724TIP3    H211116   7.051   3.294   3.877  0.6365  1.0190 -0.6542
 3725TIP3   OH211117   7.073   3.711   5.466  0.1443  0.0672  0.0483
 3725TIP3    H111118   7.050   3.680   5.378  0.4622 -0.2939  0.0920
 3725TIP3    H211119   7.002   3.772   5.489  1.2664  2.0815 -1.4465
 3726TIP3   OH211120   5.901   6.412   1.042  0.1297 -0.2626 -0.2760
 3726TIP3    H111121   5.921   6.430   0.950 -0.4887  1.1760 -0.1494
 3726TIP3    H211122   5.898   6.499   1.083 -2.7177 -0.6252  0.4576
 3727TIP3   OH211123   2.116   7.014   4.995 -0.0249 -0.0735 -0.4771
 3727TIP3    H111124   2.066   6.961   4.933  1.2287 -1.8554 -0.0586
 3727TIP3    H211125   2.081   6.991   5.081  1.0595 -0.9023 -0.2300
 3728TIP3   OH211126   1.770   7.169   1.570 -0.0936  0.4846  0.0816
 3728TIP3    H111127   1.734   7.216   1.645 -2.9154  0.2004 -0.9354
 3728TIP3    H211128   1.794   7.083   1.604 -2.0909  0.0684  0.5837
 3729TIP3   OH211129   6.794   2.449   5.170  0.4654 -0.6765  0.0201
 3729TIP3    H111130   6.720   2.392   5.192 -0.1547 -0.0907 -0.5022
 3729TIP3    H211131   6.871   2.391   5.173  0.3228 -0.8678  2.6801
 3730TIP3   OH211132   6.754   4.758   5.680 -0.3237 -0.2422  0.2113
 3730TIP3    H111133   6.845   4.788   5.679 -1.3527  3.5400  1.2564
 3730TIP3    H211134   6.713   4.801   5.605 -1.5685 -0.5856  0.6598
 3731TIP3   OH211135   5.913   1.329   6.524 -0.3811 -0.3471 -0.4830
 3731TIP3    H111136   5.960   1.250   6.498 -0.7233 -1.1066  1.1030
 3731TIP3    H211137   5.839   1.298   6.575 -1.3951  0.9458 -1.1075
 3732TIP3   OH211138   4.613   2.802   0.800 -0.0172  0.0901  0.0988
 3732TIP3    H111139   4.644   2.873   0.744 -0.7620  0.3503  0.0020
 3732TIP3    H211140   4.635   2.722   0.752  2.9247  0.1067  1.2531
 3733TIP3   OH211141   1.145   2.029   4.701 -0.0361  0.0816 -0.0250
 3733TIP3    H111142   1.197   2.002   4.625 -1.1948 -1.0571 -0.4418
 3733TIP3    H211143   1.056   1.999   4.681 -0.3600 -0.2662  1.7771
 3734TIP3   OH211144   2.309   1.384   1.774  0.0631  0.4079 -0.4094
 3734TIP3    H111145   2.306   1.389   1.679 -0.2082 -0.5382 -0.4631
 3734TIP3    H211146   2.370   1.313   1.793  0.4621  0.8879  0.1354
 3735TIP3   OH211147   5.467   0.772   6.426 -0.4161 -0.5631  0.2614
 3735TIP3    H111148   5.471   0.865   6.448 -0.4291 -0.6098  0.4624
 3735TIP3    H211149   5.453   0.728   6.510 -0.8155 -0.7179  0.1139
 3736TIP3   OH211150   1.643   6.249   2.691  0.3402 -0.3818  0.1385
 3736TIP3    H111151   1.732   6.282   2.688  1.2596 -2.7308 -1.0601
 3736TIP3    H211152   1.652   6.155   2.703 -1.9222 -0.8564 -1.1412
 3737TIP3   OH211153   4.625   5.791   3.932 -0.5143 -0.0596 -0.1937
 3737TIP3    H111154   4.685   5.865   3.938 -0.3329 -0.1955 -0.3342
 3737TIP3    H211155   4.567   5.812   3.859  0.4309 -0.7027 -1.1620
 3738TIP3   OH211156   7.542   7.385   4.509  0.0032  0.1755 -0.1476
 3738TIP3    H111157   7.503   7.422   4.589 -1.2453 -0.5744 -0.3766
 3738TIP3    H211158   7.579   7.301   4.538 -1.5963 -0.7141 -0.5684
 3739TIP3   OH211159   5.789   7.267   0.262  0.0336  0.0684 -0.5804
 3739TIP3    H111160   5.712   7.268   0.205  0.1301 -1.3122 -0.7690
 3739TIP3    H211161   5.759   7.225   0.342  0.2462  0.8020 -0.1034
 3740TIP3   OH211162   3.830   1.622   3.946 -0.1681 -0.3654 -0.1352
 3740TIP3    H111163   3.763   1.578   3.997 -0.3527  0.0200 -0.0359
 3740TIP3    H211164   3.888   1.663   4.010  0.4201 -1.0538 -0.2109
 3741TIP3   OH211165   4.676   4.425   0.299 -0.3617 -0.1382 -0.2192
 3741TIP3    H111166   4.762   4.453   0.332 -0.1800 -0.8540 -0.0669
 3741TIP3    H211167   4.621   4.419   0.377  0.4096 -3.0835  0.2399
 3742TIP3   OH211168   6.695   6.172   3.275  0.8202 -0.2581 -0.0536
 3742TIP3    H111169   6.699   6.244   3.212  1.4648 -0.6811 -0.5007
 3742TIP3    H211170   6.784   6.139   3.280  0.8273 -0.0689  1.2832
 3743TIP3   OH211171   3.210   7.293   4.470 -0.0269 -0.4890 -0.0556
 3743TIP3    H111172   3.119   7.319   4.464  0.3998  1.1983  0.2919
 3743TIP3    H211173   3.233   7.306   4.562  1.0230  0.8405 -0.4670
 3744TIP3   OH211174   0.065   5.629   1.818 -0.4624 -0.0116 -0.3451
 3744TIP3    H111175   0.129   5.559   1.806 -0.8042 -0.4944  0.5066
 3744TIP3    H211176  -0.010   5.602   1.765 -0.8249 -0.6102  0.4548
 3745TIP3   OH211177   5.282   0.314   0.611 -0.6213  0.1924  0.2187
 3745TIP3    H111178   5.296   0.235   0.559 -0.5099  0.0774  0.4184
 3745TIP3    H211179   5.346   0.377   0.577 -1.4338  0.5659 -0.6684
 3746TIP3   OH211180   7.580   5.040   4.941 -0.1173  0.3739 -0.7216
 3746TIP3    H111181   7.549   4.979   4.874 -1.9719 -0.0059  0.3987
 3746TIP3    H211182   7.675   5.032   4.939 -0.1993 -0.5818 -2.4095
 3747TIP3   OH211183   3.566   6.399   2.626 -0.4869 -0.0179 -0.0086
 3747TIP3    H111184   3.630   6.446   2.679 -0.0394 -0.3994 -0.1996
 3747TIP3    H211185   3.513   6.467   2.585 -0.8048  0.2831  0.8777
 3748TIP3   OH211186   3.333   6.495   5.603 -0.1564 -0.4195  0.2264
 3748TIP3    H111187   3.407   6.555   5.613 -0.7946  0.5122 -0.4990
 3748TIP3    H211188   3.304   6.478   5.693  0.8683 -0.7149  0.5091
 3749TIP3   OH211189   0.641   2.720   1.210 -0.0459  0.4366  0.1561
 3749TIP3    H111190   0.683   2.800   1.243 -0.4667  0.8316 -0.2443
 3749TIP3    H211191   0.602   2.680   1.287 -1.7773  1.8050  0.0534
 3750TIP3   OH211192   4.754   5.290   0.355 -0.4530  0.6397 -0.0809
 3750TIP3    H111193   4.808   5.355   0.310  1.0947 -0.3763  0.2404
 3750TIP3    H211194   4.808   5.260   0.428 -1.6572 -0.0595  0.5518
 3751TIP3   OH211195   2.000   0.392   5.296 -0.6383 -0.0565 -0.2364
 3751TIP3    H111196   2.016   0.433   5.211 -1.4615  1.7239  0.4210
 3751TIP3    H211197   1.942   0.318   5.276 -2.3363  1.4117 -1.0898
 3752TIP3   OH211198   0.874   6.323   4.689 -0.0043 -0.8681 -0.0606
 3752TIP3    H111199   0.807   6.363   4.745  1.2568  0.8601  0.3008
 3752TIP3    H211200   0.940   6.290   4.750  1.1867  0.6697 -0.4465
 3753TIP3   OH211201   6.497   7.594   4.027  0.6949 -0.1090 -0.2330
 3753TIP3    H111202   6.525   7.571   3.938  1.8871 -0.1703  0.1299
 3753TIP3    H211203   6.514   7.689   4.032 -1.9579  0.4725 -0.9462
 3754TIP3   OH211204   3.260   3.398   3.304  0.3753  0.3266  0.2328
 3754TIP3    H111205   3.301   3.313   3.320 -0.0646 -0.2738 -1.5680
 3754TIP3    H211206   3.266   3.444   3.388  0.9874 -1.3161  1.1356
 3755TIP3   OH211207   3.957   7.238   0.231  0.3789 -0.7603 -0.0883
 3755TIP3    H111208   3.903   7.182   0.287 -1.4443  0.4737 -0.5383
 3755TIP3    H211209   3.912   7.322   0.230  2.3931  0.3712 -0.4236
 3756TIP3   OH211210   0.826   5.703   3.559  0.9892 -0.0701  0.2848
 3756TIP3    H111211   0.749   5.745   3.597  0.8684 -0.6416  0.6864
 3756TIP3    H211212   0.859   5.766   3.495 -1.2335 -0.7776 -1.7180
 3757TIP3   OH211213   2.180   2.647   3.308  0.0771  0.2566 -0.0647
 3757TIP3    H111214   2.108   2.606   3.261  0.3115  0.3721 -0.5362
 3757TIP3    H211215   2.160   2.635   3.400  0.5790 -1.7218 -0.1803
 3758TIP3   OH211216   5.963   0.832   1.152  0.9480  0.5638  0.3800
 3758TIP3    H111217   5.922   0.917   1.140  2.7336  1.2267 -1.3940
 3758TIP3    H211218   6.041   0.850   1.204  3.3484  0.7535 -2.9724
 3759TIP3   OH211219   5.625   5.456   1.424  0.5490 -0.2538 -0.1083
 3759TIP3    H111220   5.577   5.468   1.342 -0.8980 -1.3863  0.5099
 3759TIP3    H211221   5.650   5.363   1.423  1.3422 -0.0488  0.3073
 3760TIP3   OH211222   8.246   4.218   3.351  0.4090 -0.1857  0.1377
 3760TIP3    H111223   8.160   4.226   3.392  0.9792 -0.5639  1.4494
 3760TIP3    H211224   8.247   4.286   3.284  0.4973  2.5495  2.6903
 3761TIP3   OH211225   4.075   2.133   0.223  0.2111  0.3734 -0.5662
 3761TIP3    H111226   4.003   2.156   0.282  0.2764 -0.3699 -0.1824
 3761TIP3    H211227   4.033   2.118   0.139  0.1839  1.9867 -0.8639
 3762TIP3   OH211228   2.644   6.358   5.772  0.4925  0.3512 -0.4191
 3762TIP3    H111229   2.583   6.425   5.740  0.3243  1.2159  1.5769
 3762TIP3    H211230   2.589   6.280   5.785 -0.4521  1.3379  2.0879
 3763TIP3   OH211231   0.132   0.259   1.859 -0.1517 -0.2640 -0.1155
 3763TIP3    H111232   0.091   0.262   1.945  0.4237 -1.1123  0.2041
 3763TIP3    H211233   0.060   0.271   1.798 -0.4055  1.5278  0.4928
 3764TIP3   OH211234   0.394   7.064   1.670 -0.0789 -0.4241  0.1500
 3764TIP3    H111235   0.301   7.088   1.679 -0.4354 -1.7537  0.2697
 3764TIP3    H211236   0.438   7.146   1.650 -1.3836  0.1416 -0.5533
 3765TIP3   OH211237   6.249   3.185   3.007  0.2236 -0.3934  0.1358
 3765TIP3    H111238   6.245   3.101   2.961 -0.2265 -0.3970  0.1849
 3765TIP3    H211239   6.295   3.165   3.088 -1.1770 -0.9099  0.8308
 3766TIP3   OH211240   1.615   2.080   6.160  1.0915 -0.2946  0.9162
 3766TIP3    H111241   1.675   2.007   6.145  0.5505 -0.5642  0.0153
 3766TIP3    H211242   1.590   2.072   6.253  0.7572 -1.4814  0.7446
 3767TIP3   OH211243   4.249   1.622   3.523  0.1356  0.0915 -0.4698
 3767TIP3    H111244   4.290   1.673   3.454  1.4027 -0.1807  0.0387
 3767TIP3    H211245   4.281   1.662   3.604 -0.0112 -0.5836 -0.0643
 3768TIP3   OH211246   5.114   1.836   3.543 -0.2524 -0.3326 -0.4518
 3768TIP3    H111247   5.090   1.809   3.454  1.5179  0.3271 -1.1742
 3768TIP3    H211248   5.055   1.786   3.599 -0.4214 -1.9229 -1.9331
 3769TIP3   OH211249   2.918   5.867   0.216  0.0129 -0.0223 -0.6654
 3769TIP3    H111250   2.869   5.947   0.232 -1.0746 -0.6230 -0.8845
 3769TIP3    H211251   2.885   5.835   0.132  0.8507 -0.4027 -0.8595
 3770TIP3   OH211252   1.379   0.700   5.543  0.2448  0.8821 -0.2221
 3770TIP3    H111253   1.285   0.683   5.533 -0.6337  4.2813  0.8128
 3770TIP3    H211254   1.417   0.615   5.564 -2.5703 -0.6202 -0.7374
 3771TIP3   OH211255   6.011   0.546   5.388  0.3800  0.2309 -0.2418
 3771TIP3    H111256   6.042   0.496   5.463 -0.4052  1.3551  0.8674
 3771TIP3    H211257   6.039   0.636   5.405 -2.6084  1.1501  0.3943
 3772TIP3   OH211258   4.578   2.806   5.212 -0.1202 -0.0411  0.5428
 3772TIP3    H111259   4.630   2.780   5.288 -1.0196  1.1701  1.6214
 3772TIP3    H211260   4.530   2.727   5.187  1.1468 -0.7886  0.4064
 3773TIP3   OH211261   7.500   5.482   1.503  0.3585 -0.1197  0.2126
 3773TIP3    H111262   7.557   5.554   1.530 -0.9697  0.5672  1.3431
 3773TIP3    H211263   7.492   5.427   1.581  0.1036 -0.6258 -0.1650
 3774TIP3   OH211264   1.572   6.553   2.849 -0.5370  0.2441  0.2189
 3774TIP3    H111265   1.518   6.489   2.894 -0.3988 -0.1159 -0.1206
 3774TIP3    H211266   1.659   6.513   2.844 -0.3073  0.6941  0.4999
 3775TIP3   OH211267   6.318   6.892   6.209 -0.7406 -0.4586  0.1903
 3775TIP3    H111268   6.236   6.843   6.202 -1.6907  1.0509  0.2506
 3775TIP3    H211269   6.376   6.834   6.258 -1.6712 -1.6864 -0.1054
 3776TIP3   OH211270   8.087   5.378   3.602 -0.5455  0.1773  0.0567
 3776TIP3    H111271   8.111   5.324   3.677  0.7448 -0.1845 -0.6008
 3776TIP3    H211272   8.125   5.463   3.621  0.6467 -0.1905 -0.6394
 3777TIP3   OH211273   7.717   1.685   6.126 -0.0420  0.2116 -0.4796
 3777TIP3    H111274   7.750   1.604   6.086 -0.6962  0.0166 -0.6355
 3777TIP3    H211275   7.711   1.746   6.053  0.1447  0.3056 -0.4175
 3778TIP3   OH211276   6.746   4.733   5.014  0.2525 -0.3568  0.0710
 3778TIP3    H111277   6.738   4.640   5.032 -1.4142 -0.2712 -0.0572
 3778TIP3    H211278   6.840   4.751   5.020  0.5965 -2.0197  0.1414
 3779TIP3   OH211279   1.418   5.442   1.812 -0.6019 -0.3340 -0.3997
 3779TIP3    H111280   1.504   5.464   1.847 -0.7825 -1.6244  0.9383
 3779TIP3    H211281   1.392   5.519   1.761  0.9453  0.4269 -0.0811
 3780TIP3   OH211282   3.529   2.272   1.219 -0.1510  0.1684  0.0426
 3780TIP3    H111283   3.495   2.347   1.169 -0.8268  0.4736  0.9281
 3780TIP3    H211284   3.533   2.201   1.155  0.4460  0.9421 -0.7980
 3781TIP3   OH211285   5.786   2.338   1.792  0.4083 -0.0033 -0.1389
 3781TIP3    H111286   5.743   2.383   1.865  0.7112  0.6113 -0.3369
 3781TIP3    H211287   5.812   2.408   1.732  3.0596 -0.1695  0.6906
 3782TIP3   OH211288   1.139   7.702   5.917  0.0582  0.3972 -0.5138
 3782TIP3    H111289   1.151   7.781   5.969  0.2811  0.0335 -0.0068
 3782TIP3    H211290   1.115   7.634   5.980 -1.4544  0.3419 -1.1004
 3783TIP3   OH211291   6.631   7.258   3.758  0.0635 -0.1767  0.6294
 3783TIP3    H111292   6.562   7.272   3.823 -0.9078  2.7556 -0.8743
 3783TIP3    H211293   6.586   7.262   3.673  1.6667 -1.2692 -0.3279
 3784TIP3   OH211294   5.675   0.179   4.828  0.1902 -0.0614 -0.4258
 3784TIP3    H111295   5.585   0.197   4.853 -0.7086 -3.3890 -0.8532
 3784TIP3    H211296   5.727   0.205   4.904 -1.4512 -0.8271  1.0085
 3785TIP3   OH211297   4.980   1.310   2.527  0.1500  0.3504  0.4547
 3785TIP3    H111298   4.889   1.314   2.497  0.0309 -2.6349  0.1879
 3785TIP3    H211299   4.987   1.227   2.573  3.1600 -0.3724 -1.0891
 3786TIP3   OH211300   6.823   2.581   3.771  0.2475  0.6565 -0.7283
 3786TIP3    H111301   6.864   2.495   3.764  0.8157  0.9784 -1.4881
 3786TIP3    H211302   6.791   2.585   3.861 -0.4542 -0.6390 -0.8939
 3787TIP3   OH211303   6.993   7.759   4.895 -0.5132 -0.2806 -0.1127
 3787TIP3    H111304   6.945   7.678   4.879  0.9344 -1.0786 -0.6214
 3787TIP3    H211305   7.008   7.759   4.990 -1.8040  0.1784  0.1158
 3788TIP3   OH211306   6.257   0.508   0.393  0.0922  0.6170 -0.3805
 3788TIP3    H111307   6.260   0.515   0.297 -0.2893  1.5524 -0.3327
 3788TIP3    H211308   6.182   0.451   0.410  2.2606 -2.5386 -0.7311
 3789TIP3   OH211309   4.037   6.242   1.128  0.1645  0.4549  0.6829
 3789TIP3    H111310   4.044   6.219   1.035 -2.1222  2.1524 -0.0082
 3789TIP3    H211311   4.008   6.333   1.128  0.5896  0.6710  3.1178
 3790TIP3   OH211312   5.601   3.552   1.957 -0.3608 -0.3247  0.0076
 3790TIP3    H111313   5.529   3.603   1.995 -0.3369  0.1694 -0.5901
 3790TIP3    H211314   5.566   3.518   1.875 -0.1391 -0.6703  0.0543
 3791TIP3   OH211315   6.412   2.075   4.171 -0.1518  0.8313 -0.3699
 3791TIP3    H111316   6.375   2.084   4.083 -1.7452 -1.7763 -0.0664
 3791TIP3    H211317   6.369   2.144   4.222 -1.3250  0.6268 -1.0405
 3792TIP3   OH211318   1.915   2.976   6.545 -0.1971  0.1074 -0.1570
 3792TIP3    H111319   1.968   3.018   6.613 -0.7030  0.3782  0.0789
 3792TIP3    H211320   1.955   3.006   6.463 -0.7642  1.3646  0.0003
 3793TIP3   OH211321   2.553   7.707   2.448 -0.5297  0.0649  0.2103
 3793TIP3    H111322   2.647   7.691   2.453 -0.3168  1.3195  0.6767
 3793TIP3    H211323   2.538   7.782   2.506 -1.5567  0.9345 -1.1067
 3794TIP3   OH211324   5.450   2.957   5.926  0.2168 -0.1848  0.0201
 3794TIP3    H111325   5.424   2.900   5.998  1.0072  0.5732  0.9138
 3794TIP3    H211326   5.376   2.951   5.864 -0.3453 -1.0513  0.7398
 3795TIP3   OH211327   1.610   1.787   3.747  0.5229 -0.3063  0.3653
 3795TIP3    H111328   1.668   1.849   3.791  1.2586 -0.6552 -0.0774
 3795TIP3    H211329   1.544   1.764   3.812  0.9462  0.0255  0.9182
 3796TIP3   OH211330   5.754   3.166   0.531 -0.1327  0.1925  0.3122
 3796TIP3    H111331   5.695   3.173   0.456 -1.9445 -2.0410  1.3911
 3796TIP3    H211332   5.835   3.210   0.503 -0.4819 -1.0953 -3.1499
 3797TIP3   OH211333   1.312   1.302   3.893  0.2202  0.0653 -0.4921
 3797TIP3    H111334   1.349   1.386   3.919  0.9781 -0.1752 -0.7555
 3797TIP3    H211335   1.352   1.284   3.808 -0.9607  0.0643 -1.0655
 3798TIP3   OH211336   0.006   4.113   2.039 -0.5211 -0.1963  0.6908
 3798TIP3    H111337  -0.053   4.037   2.039 -0.1742 -0.5191 -1.6268
 3798TIP3    H211338   0.093   4.076   2.052 -0.4064 -0.1625  0.0562
 3799TIP3   OH211339   2.014   3.937   5.570  0.2522  0.4453  0.1233
 3799TIP3    H111340   2.093   3.991   5.562 -0.0030  0.6505 -1.1302
 3799TIP3    H211341   2.046   3.847   5.563  0.4694  0.4895  0.4910
 3800TIP3   OH211342   7.483   5.048   2.846 -0.2846 -0.2170 -0.5546
 3800TIP3    H111343   7.453   5.139   2.849 -2.5323 -0.8715 -1.0740
 3800TIP3    H211344   7.555   5.045   2.909 -0.6827  1.7297  0.0950
 3801TIP3   OH211345   6.839   7.087   2.803  0.4253  0.6669  0.1397
 3801TIP3    H111346   6.748   7.112   2.815 -0.0178 -1.2835  1.1402
 3801TIP3    H211347   6.839   7.032   2.725  0.5480 -0.2089  0.7447
 3802TIP3   OH211348   6.057   1.727   2.002  0.2559 -0.2566 -0.9918
 3802TIP3    H111349   6.104   1.771   2.073  0.4118 -0.2757 -1.0847
 3802TIP3    H211350   5.971   1.708   2.040  0.0082  0.5807 -1.1152
 3803TIP3   OH211351   3.373   3.480   0.858  0.1331  0.1246 -0.3797
 3803TIP3    H111352   3.319   3.532   0.798 -0.4925 -0.3179 -0.2031
 3803TIP3    H211353   3.409   3.411   0.802  1.8757  1.3597 -0.8706
 3804TIP3   OH211354   3.346   3.364   4.897 -0.3031  0.1301  0.5471
 3804TIP3    H111355   3.394   3.373   4.815 -0.5106 -0.7710  0.3176
 3804TIP3    H211356   3.413   3.374   4.965  0.5017 -2.4308  0.2226
 3805TIP3   OH211357   5.656   2.106   2.210 -0.5158  0.3257  0.3645
 3805TIP3    H111358   5.615   2.075   2.291  1.9291 -3.3232  0.4308
 3805TIP3    H211359   5.619   2.049   2.142 -0.0959  1.1452 -0.5580
 3806TIP3   OH211360   5.570   3.815   0.745 -0.1954 -0.3057  0.4168
 3806TIP3    H111361   5.600   3.730   0.711  0.7962  0.2341 -0.0823
 3806TIP3    H211362   5.649   3.854   0.783 -0.6473  0.3957  0.6337
 3807TIP3   OH211363   0.085   0.701   3.101 -0.1502 -0.5276 -0.4213
 3807TIP3    H111364   0.162   0.758   3.099  0.6590 -1.5739  0.0348
 3807TIP3    H211365   0.058   0.694   3.009 -1.8646  2.6144 -0.3104
 3808TIP3   OH211366   3.450   4.245   0.072 -0.2683  0.3342 -0.8675
 3808TIP3    H111367   3.510   4.180   0.034  0.9205  0.3419  0.8855
 3808TIP3    H211368   3.399   4.195   0.137  0.4340  1.0438  0.2706
 3809TIP3   OH211369   0.050   0.321   3.498 -0.3522 -0.3871 -1.0244
 3809TIP3    H111370  -0.008   0.336   3.423  2.5139  0.1762 -3.3434
 3809TIP3    H211371   0.092   0.237   3.479  1.3234  0.3468 -0.7399
 3810TIP3   OH211372   0.392   2.834   6.029  0.0425 -0.2139 -0.0491
 3810TIP3    H111373   0.438   2.756   6.000  0.8148  0.6862 -1.3515
 3810TIP3    H211374   0.401   2.834   6.124  0.6883 -1.3054 -0.1024
 3811TIP3   OH211375   2.884   7.739   0.677 -0.2661  0.6848 -0.6400
 3811TIP3    H111376   2.823   7.806   0.646 -0.1153  0.8825 -0.5101
 3811TIP3    H211377   2.966   7.758   0.630 -0.6457 -0.3423 -1.7783
 3812TIP3   OH211378   5.247   5.997   1.568  0.0354  0.5986 -0.1146
 3812TIP3    H111379   5.184   6.008   1.640 -0.3925  2.5297 -0.7284
 3812TIP3    H211380   5.197   5.954   1.499  0.6843 -2.1174  0.9596
 3813TIP3   OH211381   5.535   2.528   0.554 -0.0729 -0.4125 -0.0064
 3813TIP3    H111382   5.625   2.563   0.557 -0.6065  1.1982 -1.5171
 3813TIP3    H211383   5.536   2.465   0.482 -0.1118 -0.5591  0.1199
 3814TIP3   OH211384   1.831   7.109   1.978  0.0902 -0.1496 -0.0153
 3814TIP3    H111385   1.895   7.148   2.037  0.7266  0.7170 -1.2257
 3814TIP3    H211386   1.844   7.015   1.987  0.4560 -0.0217  0.8966
 3815TIP3   OH211387   4.716   3.103   1.039 -0.2860  0.4983 -0.2308
 3815TIP3    H111388   4.628   3.129   1.064 -0.5366 -0.6161  0.1270
 3815TIP3    H211389   4.703   3.035   0.973  0.2441 -0.6296  0.7745
 3816TIP3   OH211390   2.875   3.751   0.222 -0.7740 -0.8374 -0.6660
 3816TIP3    H111391   2.861   3.844   0.205 -2.7728 -0.4968  2.1799
 3816TIP3    H211392   2.878   3.711   0.135 -3.0411  1.4921 -1.9558
 3817TIP3   OH211393   1.420   3.813   4.412 -0.3358  0.2589  0.1270
 3817TIP3    H111394   1.506   3.852   4.399 -0.4438  0.6415  0.5357
 3817TIP3    H211395   1.365   3.885   4.442 -0.8765  0.0835 -0.4093
 3818TIP3   OH211396   0.297   0.156   0.387 -0.2458  0.2035  0.1670
 3818TIP3    H111397   0.245   0.155   0.306  0.0101 -1.4346 -0.0101
 3818TIP3    H211398   0.361   0.086   0.375  2.1778  2.2318  0.3138
 3819TIP3   OH211399   4.554   1.968   0.179 -0.2245 -0.2989  0.3972
 3819TIP3    H111400   4.604   2.002   0.105  0.0982 -1.2132  0.1863
 3819TIP3    H211401   4.596   1.884   0.200 -1.2337 -0.7453  0.6668
 3820TIP3   OH211402   4.727   1.362   1.191  0.3631  0.1309  0.1958
 3820TIP3    H111403   4.747   1.270   1.176 -0.2600 -0.1633  1.0324
 3820TIP3    H211404   4.631   1.366   1.188  0.3566  0.6240  0.8031
 3821TIP3   OH211405   7.643   1.018   2.750 -0.1099  0.0667 -0.1422
 3821TIP3    H111406   7.697   0.939   2.754 -0.2298  0.0229  1.4934
 3821TIP3    H211407   7.663   1.064   2.831 -0.2970  1.5696 -0.9213
 3822TIP3   OH211408   6.489   1.744   3.758 -0.2561 -0.0795 -0.3668
 3822TIP3    H111409   6.510   1.750   3.851  1.2326 -0.2240 -0.6627
 3822TIP3    H211410   6.424   1.813   3.743 -1.0402 -0.4983  0.8943
 3823TIP3   OH211411   5.964   6.531   3.206  0.0420  0.3123 -0.1243
 3823TIP3    H111412   6.005   6.599   3.259 -0.0446  0.4446 -0.2256
 3823TIP3    H211413   5.905   6.579   3.147 -1.5432  0.0278  1.1535
 3824TIP3   OH211414   1.656   5.049   3.336 -0.6958 -0.1959 -0.1142
 3824TIP3    H111415   1.610   4.965   3.326 -0.4478 -0.2830 -0.5811
 3824TIP3    H211416   1.676   5.055   3.429 -2.7638  0.4320  0.3321
 3825TIP3   OH211417   4.081   2.530   2.581  0.5523  0.5030  0.0771
 3825TIP3    H111418   4.166   2.572   2.566  0.2999  1.6516  1.5515
 3825TIP3    H211419   4.102   2.453   2.635  0.5957  1.2662  1.1746
 3826TIP3   OH211420   7.105   7.514   6.582  0.8126 -0.0201 -0.4586
 3826TIP3    H111421   7.105   7.494   6.488 -1.1606  0.8347 -0.6924
 3826TIP3    H211422   7.029   7.467   6.616  1.0038  0.3836  0.5551
 3827TIP3   OH211423   1.102   4.143   2.405  0.2669  0.0303 -0.0591
 3827TIP3    H111424   1.181   4.093   2.390 -1.0245 -1.6946 -1.5858
 3827TIP3    H211425   1.080   4.180   2.319 -1.6485 -1.2844 -0.2138
 3828TIP3   OH211426   2.577   7.517   3.841 -0.0350  0.0359 -0.2425
 3828TIP3    H111427   2.644   7.508   3.773  1.8058  2.1886  1.1441
 3828TIP3    H211428   2.494   7.510   3.794  1.1255 -1.2100 -2.2564
 3829TIP3   OH211429   0.895   5.717   3.157  0.5751  0.0848 -0.1055
 3829TIP3    H111430   0.904   5.694   3.064  0.4156 -2.8141  0.5021
 3829TIP3    H211431   0.938   5.645   3.203 -2.1000 -0.2206  2.1524
 3830TIP3   OH211432   1.706   1.696   5.131 -0.2101  0.0768  0.2009
 3830TIP3    H111433   1.767   1.664   5.198  1.0557 -1.1558 -1.4496
 3830TIP3    H211434   1.634   1.633   5.132  0.0104 -0.1757  0.1124
 3831TIP3   OH211435   0.048   6.828   4.672  0.1318  0.4081 -0.3420
 3831TIP3    H111436   0.007   6.913   4.691  1.4252  0.8486  0.6122
 3831TIP3    H211437   0.133   6.850   4.634  1.1948 -0.4089  1.4461
 3832TIP3   OH211438   3.909   3.192   1.843 -0.0053 -0.2571 -0.0670
 3832TIP3    H111439   3.843   3.219   1.908 -0.3997 -0.0027 -0.5676
 3832TIP3    H211440   3.912   3.097   1.850 -1.0304 -0.3353 -0.6220
 3833TIP3   OH211441   5.712   2.007   4.149  0.4020  0.4354 -0.2849
 3833TIP3    H111442   5.799   1.974   4.168 -0.1140 -0.5064  0.5459
 3833TIP3    H211443   5.684   2.049   4.231 -0.2719 -0.0637 -0.2547
 3834TIP3   OH211444   6.753   5.233   0.417  0.2272 -0.2325 -0.0222
 3834TIP3    H111445   6.824   5.170   0.428  0.4966 -0.1467 -1.1038
 3834TIP3    H211446   6.719   5.247   0.505  1.0511 -0.8580  0.4103
 3835TIP3   OH211447   1.596   7.418   4.481  0.3991 -0.1685 -0.4454
 3835TIP3    H111448   1.635   7.439   4.566 -0.6202 -1.6696  0.4407
 3835TIP3    H211449   1.502   7.408   4.499  0.2896 -1.4279 -1.5416
 3836TIP3   OH211450   2.443   3.039   2.769 -0.1837 -0.3480 -0.0462
 3836TIP3    H111451   2.465   3.073   2.683  1.3627 -1.4205 -0.1125
 3836TIP3    H211452   2.385   2.965   2.752  1.7091 -1.8442 -0.3646
 3837TIP3   OH211453   4.894   5.769   2.264 -0.1865  0.0641  0.1003
 3837TIP3    H111454   4.815   5.813   2.295 -0.2514  0.1004 -0.1174
 3837TIP3    H211455   4.952   5.769   2.340 -1.3359 -2.2435  1.0712
 3838TIP3   OH211456   5.606   5.423   3.429 -0.1445  0.0512  0.0814
 3838TIP3    H111457   5.649   5.372   3.498 -2.3219  2.0147  3.1645
 3838TIP3    H211458   5.534   5.368   3.400  0.6243 -0.6851 -0.4753
 3839TIP3   OH211459   7.220   5.332   1.450  0.0995  0.2448 -0.5314
 3839TIP3    H111460   7.135   5.333   1.405 -1.6797 -1.0948  2.4504
 3839TIP3    H211461   7.268   5.405   1.413 -2.0318  0.5635 -2.9404
 3840TIP3   OH211462   7.827   6.235   2.392  0.2365 -0.0568  0.6853
 3840TIP3    H111463   7.761   6.167   2.396  0.3307 -0.1706  0.3651
 3840TIP3    H211464   7.833   6.269   2.481 -0.6297  0.3170  0.6172
 3841TIP3   OH211465   0.847   1.993   4.284  0.3736  0.4470  0.4927
 3841TIP3    H111466   0.890   2.062   4.234 -1.2792  1.6027  0.5754
 3841TIP3    H211467   0.871   2.010   4.375  0.1259  0.8124  0.4922
 3842TIP3   OH211468   0.886   1.669   3.584 -0.2690  0.1848  0.3840
 3842TIP3    H111469   0.954   1.691   3.648  0.6472  1.0251 -0.8293
 3842TIP3    H211470   0.823   1.617   3.633  0.0358  1.3936  2.1472
 3843TIP3   OH211471   0.388   6.002   4.053 -0.3464 -0.6247  0.0305
 3843TIP3    H111472   0.416   5.997   3.961  1.2802  2.3646  0.2499
 3843TIP3    H211473   0.303   6.045   4.050  0.9337  2.1660 -0.0876
 3844TIP3   OH211474   8.090   1.344   1.469  0.0564 -0.1288 -0.0806
 3844TIP3    H111475   8.102   1.414   1.534 -0.6126  0.4676 -0.5746
 3844TIP3    H211476   8.063   1.391   1.389  1.4425 -0.7843 -0.9640
 3845TIP3   OH211477   4.827   6.668   2.559  0.3813  0.6659  0.6090
 3845TIP3    H111478   4.737   6.637   2.543  0.6836  0.4763 -0.8683
 3845TIP3    H211479   4.876   6.589   2.579  0.8095  0.3162 -1.5492
 3846TIP3   OH211480   7.412   3.148   0.218  0.1431  0.3823  0.4710
 3846TIP3    H111481   7.379   3.230   0.181 -2.4795 -0.4287  0.8756
 3846TIP3    H211482   7.394   3.082   0.151 -0.3582 -0.3222  1.2846
 3847TIP3   OH211483   1.362   6.986   6.498  0.1798  0.2055  0.1253
 3847TIP3    H111484   1.323   6.899   6.498  0.2626  0.1585  1.1020
 3847TIP3    H211485   1.455   6.970   6.514  0.0490  0.5105  1.3238
 3848TIP3   OH211486   1.364   2.700   2.389  0.1687 -0.2643  0.2084
 3848TIP3    H111487   1.336   2.654   2.310 -0.5676  2.0162 -0.9177
 3848TIP3    H211488   1.284   2.711   2.441  0.5671 -1.3294  1.0905
 3849TIP3   OH211489   7.710   3.518   4.027  0.1526 -0.4799  0.0813
 3849TIP3    H111490   7.769   3.523   4.102 -1.3689  0.3510  1.2954
 3849TIP3    H211491   7.657   3.440   4.043 -1.7745  0.9605  1.2045
 3850TIP3   OH211492   7.112   1.924   5.579 -0.1197 -0.6389 -0.4527
 3850TIP3    H111493   7.170   1.907   5.654 -2.0907 -1.5925  0.9623
 3850TIP3    H211494   7.054   1.994   5.610 -1.9199 -2.0672 -0.4677
 3851TIP3   OH211495   8.115   4.321   2.667  0.3175  0.7472  1.0231
 3851TIP3    H111496   8.077   4.321   2.580 -0.9262  0.8043  1.5406
 3851TIP3    H211497   8.186   4.257   2.663  0.3444  0.8285 -0.0479
 3852TIP3   OH211498   7.340   4.819   4.443 -0.2490  0.2596 -0.3851
 3852TIP3    H111499   7.366   4.892   4.386 -0.3069  1.1918  0.7445
 3852TIP3    H211500   7.415   4.760   4.441 -0.5277 -0.0869 -1.9687
 3853TIP3   OH211501   1.725   0.540   3.436 -0.0629 -0.1223  0.0399
 3853TIP3    H111502   1.737   0.474   3.504  2.7005  0.8290  0.5975
 3853TIP3    H211503   1.751   0.622   3.477  1.9515  0.4547 -2.1798
 3854TIP3   OH211504   4.336   5.303   5.946 -0.2058  0.2510  0.1545
 3854TIP3    H111505   4.276   5.228   5.947 -2.5749  1.9175 -1.9680
 3854TIP3    H211506   4.327   5.343   6.032 -1.7948  0.1437  0.0645
 3855TIP3   OH211507   6.392   7.317   3.189 -0.0509  0.3125 -0.0465
 3855TIP3    H111508   6.446   7.370   3.248 -1.9839  0.3772  1.7699
 3855TIP3    H211509   6.420   7.342   3.102  3.3457 -0.1786  0.7535
 3856TIP3   OH211510   3.915   1.676   4.912 -0.8980  0.1241 -0.0052
 3856TIP3    H111511   3.976   1.676   4.986 -0.1099  0.7739 -0.6414
 3856TIP3    H211512   3.910   1.585   4.885 -1.0437 -0.0900  0.7327
 3857TIP3   OH211513   5.674   0.524   3.547 -0.3259 -0.5487  0.1730
 3857TIP3    H111514   5.732   0.453   3.521 -0.4883 -0.6276  0.0210
 3857TIP3    H211515   5.678   0.586   3.474  0.5209  0.0380  0.6978
 3858TIP3   OH211516   2.910   5.968   1.230 -0.0717 -0.2028 -0.3424
 3858TIP3    H111517   2.915   5.874   1.215 -0.1920 -0.4862  1.1537
 3858TIP3    H211518   2.854   6.001   1.161 -0.5159 -1.3299 -0.5379
 3859TIP3   OH211519   2.881   7.142   2.709 -0.0242  0.5242 -0.8076
 3859TIP3    H111520   2.945   7.162   2.777 -0.7447  0.3647 -0.0691
 3859TIP3    H211521   2.933   7.111   2.635  0.6749 -0.9227  0.2494
 3860TIP3   OH211522   2.366   0.861   5.555  0.2926 -0.8291  0.4003
 3860TIP3    H111523   2.407   0.923   5.495  1.2289 -1.0245  0.8206
 3860TIP3    H211524   2.409   0.777   5.537 -1.1959 -1.4667 -0.3998
 3861TIP3   OH211525   7.700   3.209   3.113 -0.3676 -0.1033 -0.2014
 3861TIP3    H111526   7.715   3.158   3.192  3.8417 -0.9954 -1.3420
 3861TIP3    H211527   7.733   3.155   3.042 -0.5550  2.1379 -2.1320
 3862TIP3   OH211528   1.554   5.883   2.506  0.3548 -0.1630  0.2072
 3862TIP3    H111529   1.579   5.899   2.597  1.6465 -0.4470 -0.0684
 3862TIP3    H211530   1.599   5.952   2.457  0.7255 -0.7722 -0.3275
 3863TIP3   OH211531   8.018   5.322   1.471  0.2790  0.1913 -0.5353
 3863TIP3    H111532   7.979   5.316   1.384 -2.5427  0.3541  0.5913
 3863TIP3    H211533   7.982   5.247   1.518  1.3665  0.3743  0.6428
 3864TIP3   OH211534   8.087   2.668   5.503  0.6658 -0.0282 -0.0327
 3864TIP3    H111535   8.156   2.730   5.479 -0.0963  1.2946  1.0768
 3864TIP3    H211536   8.020   2.679   5.436  1.0326 -0.5188 -0.4908
 3865TIP3   OH211537   1.860   5.812   5.660 -0.2500 -0.0343  0.4163
 3865TIP3    H111538   1.807   5.870   5.606  0.1963  0.9985  1.0559
 3865TIP3    H211539   1.803   5.785   5.731  0.0428  1.0598  1.0928
 3866TIP3   OH211540   6.003   3.008   5.190  0.3070  0.1985  0.6420
 3866TIP3    H111541   6.044   3.008   5.104 -0.8453 -0.6925  0.0510
 3866TIP3    H211542   6.032   2.926   5.230  0.9673  0.6854  1.1867
 3867TIP3   OH211543   6.974   7.696   0.707  0.4911  0.2046  0.1300
 3867TIP3    H111544   6.936   7.654   0.629  1.1203 -0.9615  0.4282
 3867TIP3    H211545   6.989   7.787   0.680 -0.8259  0.2473 -0.5671
 3868TIP3   OH211546   4.807   1.109   6.748  0.3514  0.1217 -0.3499
 3868TIP3    H111547   4.897   1.101   6.716  0.4392  1.0996 -0.3627
 3868TIP3    H211548   4.790   1.203   6.751 -0.5226 -0.0356  0.0812
 3869TIP3   OH211549   8.093   4.087   5.711 -0.5084  0.2353  0.6253
 3869TIP3    H111550   8.029   4.059   5.776 -0.1290 -2.1056  0.0914
 3869TIP3    H211551   8.063   4.048   5.629  1.5219 -0.8899  0.3595
 3870TIP3   OH211552   5.671   5.425   0.976  0.2698 -0.3948 -0.8650
 3870TIP3    H111553   5.754   5.471   0.990  1.0931 -1.8318 -0.9026
 3870TIP3    H211554   5.615   5.454   1.048  1.2246 -0.3635 -0.1228
 3871TIP3   OH211555   5.866   0.282   5.056  0.4159  0.4046  0.3945
 3871TIP3    H111556   5.818   0.364   5.057  0.6391  0.5417  0.1193
 3871TIP3    H211557   5.946   0.299   5.106  1.4570  0.9856 -1.3844
 3872TIP3   OH211558   2.339   5.653   3.610  0.4012  0.0435  0.2643
 3872TIP3    H111559   2.248   5.682   3.618  0.0472 -0.7131 -0.8773
 3872TIP3    H211560   2.363   5.627   3.699  0.5428  3.0849  1.2622
 3873TIP3   OH211561   4.560   5.085   1.807  0.0291 -0.1665 -0.2350
 3873TIP3    H111562   4.512   5.143   1.749 -1.8685 -2.1091 -0.7688
 3873TIP3    H211563   4.503   5.076   1.884  1.6866  0.9730  1.2173
 3874TIP3   OH211564   7.275   5.153   5.730  0.7333  0.0377  0.0611
 3874TIP3    H111565   7.294   5.177   5.639  0.7922 -1.1735 -0.2593
 3874TIP3    H211566   7.182   5.170   5.741 -0.4018 -3.9956 -1.6543
 3875TIP3   OH211567   4.093   3.126   5.227 -0.0774  0.3857  0.1023
 3875TIP3    H111568   4.168   3.067   5.217 -0.8651 -0.5553 -0.4179
 3875TIP3    H211569   4.031   3.097   5.159  0.0370  2.6416 -1.0598
 3876TIP3   OH211570   2.572   1.647   2.334  0.0871  0.4494 -0.6337
 3876TIP3    H111571   2.658   1.608   2.350 -0.6423 -0.6446  0.9240
 3876TIP3    H211572   2.565   1.716   2.400 -0.4716  0.0790 -0.2945
 3877TIP3   OH211573   3.995   0.711   1.071 -0.3212 -0.1972  0.1744
 3877TIP3    H111574   3.981   0.667   1.155  0.4773 -0.7536  0.0305
 3877TIP3    H211575   3.955   0.797   1.082  1.5026  0.5167  1.8545
 3878TIP3   OH211576   3.961   4.094   0.345 -0.1936  0.3578 -0.3714
 3878TIP3    H111577   4.026   4.106   0.414 -0.6258  0.3400  0.0524
 3878TIP3    H211578   4.005   4.119   0.264  0.4512 -0.0186 -0.1386
 3879TIP3   OH211579   2.943   5.349   6.169  0.5734 -0.2012 -0.3278
 3879TIP3    H111580   2.979   5.437   6.180  0.2358  0.0538 -1.1976
 3879TIP3    H211581   2.978   5.319   6.085 -1.0854  0.0004 -1.1361
 3880TIP3   OH211582   1.636   5.300   4.623  0.2846 -0.4754  0.2715
 3880TIP3    H111583   1.574   5.301   4.549  0.1688 -0.2587  0.3702
 3880TIP3    H211584   1.713   5.346   4.590  0.3785 -0.7099  0.1616
 3881TIP3   OH211585   0.417   4.085   3.981  0.2305  0.3776 -0.3001
 3881TIP3    H111586   0.342   4.074   3.923 -0.4069  1.0430  0.3819
 3881TIP3    H211587   0.438   4.179   3.976 -0.6645  0.7242  1.5229
 3882TIP3   OH211588   6.071   6.693   3.411  0.5851  0.7268  0.1835
 3882TIP3    H111589   6.135   6.761   3.389  2.1350 -1.2350 -1.7864
 3882TIP3    H211590   6.117   6.636   3.473  0.4888 -0.2349 -0.6012
 3883TIP3   OH211591   3.071   1.210   4.855  0.2511  0.6616  0.1783
 3883TIP3    H111592   3.154   1.177   4.821  0.5986  0.0008  1.5745
 3883TIP3    H211593   3.093   1.244   4.942 -0.4343  3.1011 -0.5493
 3884TIP3   OH211594   0.957   6.995   5.032  0.6000 -0.6091 -0.0381
 3884TIP3    H111595   0.949   7.088   5.012  0.9550 -0.6931 -0.5909
 3884TIP3    H211596   0.867   6.965   5.046  0.1115 -0.8760 -3.0530
 3885TIP3   OH211597   7.082   2.492   6.411 -0.1528  0.0547 -0.3272
 3885TIP3    H111598   6.991   2.486   6.437 -0.0737 -0.5898 -0.1847
 3885TIP3    H211599   7.106   2.584   6.426 -0.2361 -0.1816  1.4194
 3886TIP3   OH211600   7.554   2.912   3.885 -0.8863 -0.0673 -0.0516
 3886TIP3    H111601   7.533   2.824   3.854 -0.3259  0.0107 -0.6797
 3886TIP3    H211602   7.616   2.946   3.821  1.2980 -0.3582  1.7893
 3887TIP3   OH211603   4.207   4.072   6.276 -0.0494 -0.0798 -0.1178
 3887TIP3    H111604   4.150   4.003   6.310  0.1681  0.8073  2.2002
 3887TIP3    H211605   4.293   4.053   6.313  0.0087  1.4155  0.5772
 3888TIP3   OH211606   1.862   5.892   4.771 -0.6071 -0.1812 -0.6364
 3888TIP3    H111607   1.881   5.928   4.857 -1.5963 -0.3286 -0.3371
 3888TIP3    H211608   1.857   5.797   4.785 -2.4821 -0.0988 -0.4660
 3889TIP3   OH211609   4.216   2.843   2.085  0.1285  0.3647 -0.3968
 3889TIP3    H111610   4.223   2.829   1.991 -0.4013 -2.6468 -0.0692
 3889TIP3    H211611   4.285   2.787   2.123 -1.2877 -0.4556  1.0822
 3890TIP3   OH211612   1.336   4.130   4.709 -0.2133  0.3115 -0.2711
 3890TIP3    H111613   1.325   4.130   4.614  1.0537 -1.4600 -0.4742
 3890TIP3    H211614   1.386   4.050   4.728  1.1057  1.4957  1.6996
 3891TIP3   OH211615   1.329   5.320   4.665  0.0099  0.6432 -0.5683
 3891TIP3    H111616   1.416   5.284   4.686 -0.0776  1.1613  0.7837
 3891TIP3    H211617   1.302   5.365   4.745 -0.9887  1.5392 -1.3857
 3892TIP3   OH211618   1.277   6.195   2.901  0.4735  0.0108 -1.1018
 3892TIP3    H111619   1.196   6.238   2.875 -0.4662  0.1177  1.6465
 3892TIP3    H211620   1.268   6.105   2.870 -0.6985  0.0342 -0.8813
 3893TIP3   OH211621   0.656   4.036   6.080 -0.1673  0.6957  0.6734
 3893TIP3    H111622   0.653   3.963   6.142  1.5709  0.2264  0.2651
 3893TIP3    H211623   0.570   4.036   6.039 -0.7095 -0.1603  1.7534
 3894TIP3   OH211624   8.013   7.117   1.540  0.2625  0.0424 -0.3446
 3894TIP3    H111625   8.093   7.119   1.487  0.2209  0.5344 -0.3959
 3894TIP3    H211626   8.034   7.170   1.617 -0.4067  1.2241 -0.9459
 3895TIP3   OH211627   4.922   2.655   4.449 -0.2438 -0.1549  0.3009
 3895TIP3    H111628   5.003   2.655   4.398  0.0445  0.3864  0.7574
 3895TIP3    H211629   4.862   2.600   4.398  0.8841 -1.8806  0.7183
 3896TIP3   OH211630   1.550   7.713   5.927  0.3037 -0.2097 -0.3863
 3896TIP3    H111631   1.596   7.762   5.995 -1.2411  0.9133 -0.0864
 3896TIP3    H211632   1.605   7.636   5.911  2.9825  1.7213 -1.0746
 3897TIP3   OH211633   2.813   1.897   3.867 -0.2011  0.1635  0.1835
 3897TIP3    H111634   2.857   1.974   3.831  2.7986 -1.3749  0.2800
 3897TIP3    H211635   2.750   1.871   3.800 -0.4166  1.9724 -0.3486
 3898TIP3   OH211636   0.948   6.564   6.043  0.0645  0.0028 -0.1500
 3898TIP3    H111637   1.000   6.636   6.007  0.7925 -0.1898  0.5026
 3898TIP3    H211638   0.909   6.522   5.966  1.6165 -0.4165 -0.7388
 3899TIP3   OH211639   6.429   6.466   2.923 -0.1308  0.3264  0.6216
 3899TIP3    H111640   6.341   6.477   2.959 -1.1131  1.0057 -1.8238
 3899TIP3    H211641   6.452   6.553   2.888  1.1598 -0.0540  0.4462
 3900TIP3   OH211642   8.048   2.934   2.062  0.5358 -0.4262 -0.3239
 3900TIP3    H111643   8.126   2.879   2.069  2.6005  2.5415  2.3737
 3900TIP3    H211644   8.065   2.989   1.986  1.5580  0.8103  0.7680
 3901TIP3   OH211645   4.085   1.237   4.749  0.3549 -0.5731 -0.2441
 3901TIP3    H111646   4.065   1.180   4.823  0.9437 -0.5541 -0.0646
 3901TIP3    H211647   4.133   1.182   4.687  0.4717 -0.4065 -0.3027
 3902TIP3   OH211648   6.163   3.988   3.323 -0.0291 -0.6604  0.2035
 3902TIP3    H111649   6.111   4.012   3.246  0.3510 -0.2474  0.0744
 3902TIP3    H211650   6.110   3.922   3.368  0.3841 -1.9735 -1.1723
 3903TIP3   OH211651   4.146   6.510   3.298 -0.2115 -0.2829  0.2199
 3903TIP3    H111652   4.148   6.475   3.209 -2.0853 -3.2880  1.1749
 3903TIP3    H211653   4.157   6.432   3.354 -0.5892  1.2812  2.6220
 3904TIP3   OH211654   2.972   6.744   5.066 -0.3868 -0.0851  0.6549
 3904TIP3    H111655   2.954   6.797   4.988 -1.4829 -0.7638  0.4093
 3904TIP3    H211656   2.886   6.736   5.108  0.0628 -0.3544  1.5253
 3905TIP3   OH211657   3.979   3.679   5.935 -0.1494  0.9201 -0.2240
 3905TIP3    H111658   3.967   3.666   6.029 -0.4911  0.3359 -0.3444
 3905TIP3    H211659   3.920   3.616   5.894  1.1950  0.0130 -0.8317
 3906TIP3   OH211660   4.579   0.638   6.688  0.0603 -0.0479 -0.1382
 3906TIP3    H111661   4.617   0.554   6.665 -0.3856  0.3986 -2.9055
 3906TIP3    H211662   4.641   0.703   6.654 -0.7596  0.6928 -0.2848
 3907TIP3   OH211663   7.933   0.692   1.002 -0.2144  0.2723 -0.3666
 3907TIP3    H111664   7.956   0.631   0.932 -0.3709  0.6223 -0.7292
 3907TIP3    H211665   7.859   0.741   0.967 -0.1202  0.6378 -0.0615
 3908TIP3   OH211666   1.552   2.624   4.461 -0.3378  0.1883  0.7069
 3908TIP3    H111667   1.597   2.696   4.506  0.6370  1.1543 -1.6405
 3908TIP3    H211668   1.510   2.666   4.386 -1.1011 -1.4887  0.1547
 3909TIP3   OH211669   3.822   2.845   2.965  0.4777 -0.0246  0.0698
 3909TIP3    H111670   3.869   2.851   2.882 -0.0810 -1.5845 -0.3913
 3909TIP3    H211671   3.846   2.760   3.001  0.7337  0.6339  1.5495
 3910TIP3   OH211672   7.277   7.515   2.687 -0.2492 -0.6132  0.3751
 3910TIP3    H111673   7.273   7.501   2.782 -0.6879 -0.6259  0.3560
 3910TIP3    H211674   7.359   7.474   2.660 -0.3778 -1.0745  0.6706
 3911TIP3   OH211675   1.924   1.319   2.512 -0.1432  0.0806 -0.4880
 3911TIP3    H111676   1.860   1.281   2.573  0.0119 -0.0385 -0.4001
 3911TIP3    H211677   2.009   1.289   2.544  0.0443  1.1198  0.0284
 3912TIP3   OH211678   2.917   3.949   3.689 -0.6081 -0.2634  0.4463
 3912TIP3    H111679   2.903   3.860   3.655  0.3400 -0.5505  0.7691
 3912TIP3    H211680   2.891   4.006   3.617  0.5704 -0.8526 -0.4948
 3913TIP3   OH211681   3.462   2.044   0.197 -0.2410  0.0291  0.1251
 3913TIP3    H111682   3.415   2.127   0.188 -0.1838 -0.1571 -2.5594
 3913TIP3    H211683   3.461   2.006   0.110  3.3518 -0.8539  0.3397
 3914TIP3   OH211684   6.691   3.137   3.925  0.1820  0.9992  0.3823
 3914TIP3    H111685   6.604   3.150   3.964  0.5189  1.1226  1.1097
 3914TIP3    H211686   6.718   3.225   3.899  0.5783  1.1433  1.2367
 3915TIP3   OH211687   6.208   6.097   0.714 -1.0622 -0.1069 -0.0922
 3915TIP3    H111688   6.257   6.123   0.791 -0.1201  0.5396 -0.8974
 3915TIP3    H211689   6.139   6.163   0.705 -1.7435 -0.6925  0.7036
 3916TIP3   OH211690   4.226   6.681   6.565 -0.4292 -0.8425 -0.3022
 3916TIP3    H111691   4.261   6.761   6.604  0.9777 -1.0046 -1.1619
 3916TIP3    H211692   4.133   6.682   6.587 -0.1876  0.3881  0.7623
 3917TIP3   OH211693   2.540   2.973   1.373 -0.4838  0.1180 -0.8312
 3917TIP3    H111694   2.567   2.920   1.447 -2.3961 -0.2772 -0.3699
 3917TIP3    H211695   2.452   3.003   1.395 -0.9306  0.3616 -2.7493
 3918TIP3   OH211696   2.666   2.034   5.392 -0.2387 -0.0989  0.3463
 3918TIP3    H111697   2.643   1.978   5.467  0.3722 -1.1615 -0.2285
 3918TIP3    H211698   2.760   2.021   5.380 -0.5501 -1.0682 -1.4463
 3919TIP3   OH211699   5.141   0.861   4.206 -0.1279 -0.2322 -0.3764
 3919TIP3    H111700   5.056   0.841   4.169 -0.5049 -1.9421  1.2617
 3919TIP3    H211701   5.197   0.788   4.179  0.2099 -0.2661  0.3755
 3920TIP3   OH211702   5.131   7.197   3.286  0.0202  0.1642  0.3009
 3920TIP3    H111703   5.120   7.155   3.371 -0.8918  0.0684  0.1476
 3920TIP3    H211704   5.215   7.243   3.293  0.6896 -1.0781  0.7140
 3921TIP3   OH211705   0.316   7.336   3.896 -0.6537 -0.0871 -0.2105
 3921TIP3    H111706   0.372   7.410   3.874 -0.0289 -0.7153 -0.7663
 3921TIP3    H211707   0.227   7.367   3.879 -0.4278  0.6585 -0.0591
 3922TIP3   OH211708   4.297   1.527   4.428 -0.6251  0.3723 -0.1896
 3922TIP3    H111709   4.359   1.455   4.414  0.2593  0.3257  3.1277
 3922TIP3    H211710   4.352   1.605   4.435 -0.7594  0.3292  2.8181
 3923TIP3   OH211711   0.524   6.384   3.564  0.4798  0.8278 -0.1318
 3923TIP3    H111712   0.611   6.424   3.567  0.8503  0.3861 -2.7505
 3923TIP3    H211713   0.489   6.409   3.479 -1.6122  0.2335  0.5033
 3924TIP3   OH211714   3.545   3.897   4.558  0.5294  0.0092 -0.1345
 3924TIP3    H111715   3.587   3.815   4.584  1.2851  0.6570  0.8082
 3924TIP3    H211716   3.502   3.927   4.638  0.9055  0.8930 -0.2541
 3925TIP3   OH211717   1.376   7.009   2.434 -0.0569  0.0697 -0.9838
 3925TIP3    H111718   1.299   7.035   2.383 -1.0151 -1.0738 -0.2085
 3925TIP3    H211719   1.450   7.022   2.376 -0.6196  2.8095 -1.1958
 3926TIP3   OH211720   3.879   4.311   5.043 -0.1830  0.4978  0.4431
 3926TIP3    H111721   3.949   4.251   5.070 -1.9892 -1.4805  0.9849
 3926TIP3    H211722   3.893   4.324   4.949  0.2644 -0.7717  0.3262
 3927TIP3   OH211723   6.150   5.234   3.180  0.0524 -0.4162 -0.8183
 3927TIP3    H111724   6.077   5.173   3.168 -0.1871 -0.0669 -1.1185
 3927TIP3    H211725   6.142   5.263   3.271  1.0983 -2.0449 -0.1553
 3928TIP3   OH211726   1.956   6.272   1.970 -0.3089 -0.2911  0.3954
 3928TIP3    H111727   1.984   6.337   2.035 -1.5244 -1.3138  2.0292
 3928TIP3    H211728   1.974   6.187   2.011  0.2835 -1.0103 -1.2595
 3929TIP3   OH211729   4.986   4.256   1.779 -0.3378 -0.2830  0.2279
 3929TIP3    H111730   4.896   4.228   1.764 -0.4485  0.0030  0.3556
 3929TIP3    H211731   5.014   4.294   1.695  0.5215 -2.6505 -0.6306
 3930TIP3   OH211732   1.484   3.843   5.512  0.1026  0.4570  0.1994
 3930TIP3    H111733   1.507   3.751   5.522  2.3601  0.9433  0.0027
 3930TIP3    H211734   1.563   3.891   5.538  0.0796  2.2668 -2.6585
 3931TIP3   OH211735   6.567   0.190   6.231  0.1042 -0.4096 -0.9878
 3931TIP3    H111736   6.646   0.136   6.228  0.7318  0.4284 -0.1003
 3931TIP3    H211737   6.551   0.214   6.139  1.2081 -0.1270 -1.1238
 3932TIP3   OH211738   2.490   6.926   4.575 -0.4630  0.2392  0.2888
 3932TIP3    H111739   2.535   6.880   4.504 -2.5862  0.1722 -1.1040
 3932TIP3    H211740   2.485   7.017   4.547 -3.2303 -0.1460 -0.8220
 3933TIP3   OH211741   6.211   4.871   0.406 -0.0655  0.1557  0.3013
 3933TIP3    H111742   6.151   4.923   0.460 -0.6898 -0.6379  0.3875
 3933TIP3    H211743   6.295   4.917   0.413 -1.0207  2.3285 -1.2652
 3934TIP3   OH211744   5.435   5.933   1.167  0.5214 -0.1687  0.4413
 3934TIP3    H111745   5.353   5.976   1.190  0.2490 -0.0465 -0.6830
 3934TIP3    H211746   5.454   5.875   1.240 -0.3168  0.1585  0.9229
 3935TIP3   OH211747   1.589   2.209   3.987  0.0102  0.3961 -0.3379
 3935TIP3    H111748   1.589   2.300   3.958 -1.6196  0.6920  0.4547
 3935TIP3    H211749   1.624   2.213   4.076 -1.0161  0.4244  0.0830
 3936TIP3   OH211750   6.779   2.651   0.731 -0.3623 -0.3028  0.2729
 3936TIP3    H111751   6.857   2.597   0.721 -0.2848 -0.0519 -0.5097
 3936TIP3    H211752   6.810   2.731   0.772 -0.6937 -1.3679  2.7604
 3937TIP3   OH211753   5.920   4.906   2.876  0.0451 -0.2236 -0.4159
 3937TIP3    H111754   5.999   4.880   2.922 -0.5680 -1.3151  0.0489
 3937TIP3    H211755   5.920   4.854   2.795 -0.1129 -0.1000 -0.4987
 3938TIP3   OH211756   3.858   3.390   2.998  0.1052 -0.1575 -0.1003
 3938TIP3    H111757   3.855   3.329   2.924  2.8866 -1.1239  0.4911
 3938TIP3    H211758   3.852   3.335   3.075 -1.1513  0.7068  0.4536
 3939TIP3   OH211759   8.155   5.432   0.882 -0.2819 -0.4110 -0.6871
 3939TIP3    H111760   8.212   5.502   0.913 -0.4468  0.0956 -1.5064
 3939TIP3    H211761   8.071   5.448   0.925 -0.1679 -0.4144 -0.4637
 3940TIP3   OH211762   0.838   1.780   1.638  0.4898  0.0311 -0.1828
 3940TIP3    H111763   0.839   1.697   1.687  2.0846  0.5465  0.7080
 3940TIP3    H211764   0.820   1.754   1.548 -2.5451 -0.9524  0.5732
 3941TIP3   OH211765   6.160   7.268   5.972  0.1653  0.1751 -0.1941
 3941TIP3    H111766   6.116   7.195   5.929 -0.4745 -1.1676  2.5295
 3941TIP3    H211767   6.090   7.332   5.988  0.6504  1.3133 -2.2001
 3942TIP3   OH211768   0.520   4.040   3.170 -0.1396 -0.0205  0.1725
 3942TIP3    H111769   0.502   4.130   3.194 -1.8879 -0.5911  1.1753
 3942TIP3    H211770   0.609   4.024   3.200 -1.1178  0.2361  3.6354
 3943TIP3   OH211771   0.110   6.035   4.646 -0.2978  0.1863 -0.3871
 3943TIP3    H111772   0.129   5.999   4.733  0.0084  1.7209  0.2155
 3943TIP3    H211773   0.184   6.093   4.627  0.0522 -0.7580 -2.0597
 3944TIP3   OH211774   1.409   4.872   5.975 -0.4887 -0.1920 -0.4854
 3944TIP3    H111775   1.431   4.948   5.921 -0.0569 -0.5846 -0.8625
 3944TIP3    H211776   1.315   4.883   5.993  0.4311  3.2857  3.9121
 3945TIP3   OH211777   8.237   7.763   4.759 -0.9202 -0.4993  0.3606
 3945TIP3    H111778   8.205   7.811   4.835 -0.5916 -0.6740  0.6087
 3945TIP3    H211779   8.286   7.690   4.795  2.3677  1.3825  0.0514
 3946TIP3   OH211780   3.351   5.179   0.024 -0.2093  0.7544  0.0266
 3946TIP3    H111781   3.323   5.159   0.113  2.0741  0.9846  0.8559
 3946TIP3    H211782   3.325   5.270   0.010 -1.0059  0.5714  0.2538
 3947TIP3   OH211783   2.718   3.798   5.996  0.3135 -0.3231  0.0485
 3947TIP3    H111784   2.724   3.889   5.970 -0.5291 -0.7917 -2.0030
 3947TIP3    H211785   2.667   3.756   5.926  1.1817 -2.4800  0.6073
 3948TIP3   OH211786   0.346   3.796   6.539 -0.3873 -0.3148 -0.1097
 3948TIP3    H111787   0.286   3.813   6.612 -0.0859 -0.0664  0.0796
 3948TIP3    H211788   0.432   3.789   6.579 -0.1873  0.0390 -0.4654
 3949TIP3   OH211789   1.716   4.130   3.987  0.6972  0.0655  0.5132
 3949TIP3    H111790   1.765   4.205   3.953 -0.0815  0.1560 -0.4600
 3949TIP3    H211791   1.659   4.168   4.054  0.2145  0.3808 -0.0638
 3950TIP3   OH211792   0.172   6.253   4.856  0.3906  0.2206  0.0058
 3950TIP3    H111793   0.192   6.160   4.852  0.5515  0.2336  0.4645
 3950TIP3    H211794   0.076   6.257   4.849  0.4143  0.0564 -0.4929
 3951TIP3   OH211795   6.048   1.962   6.359  0.0304  0.5881  0.2128
 3951TIP3    H111796   6.102   1.909   6.301  0.6684  1.1708  0.2590
 3951TIP3    H211797   6.022   2.037   6.305 -2.8177 -0.8629 -0.6084
 3952TIP3   OH211798   1.613   2.918   1.723 -0.1388 -0.5942  0.1830
 3952TIP3    H111799   1.607   2.976   1.799 -1.3703 -1.4918  0.8027
 3952TIP3    H211800   1.582   2.833   1.755 -3.0325 -0.4557 -1.8566
 3953TIP3   OH211801   4.842   2.984   2.962  0.1347 -0.0382 -0.4641
 3953TIP3    H111802   4.896   3.045   3.011 -1.2185  0.5860  0.2961
 3953TIP3    H211803   4.768   3.036   2.931  0.9971 -0.3713 -3.3573
 3954TIP3   OH211804   6.485   7.265   1.186 -0.4016 -0.0643 -0.6176
 3954TIP3    H111805   6.456   7.311   1.265 -1.4380 -0.4657 -0.7488
 3954TIP3    H211806   6.546   7.326   1.144  0.3548  0.0615  0.6028
 3955TIP3   OH211807   8.225   6.402   2.990 -0.6712  0.0857 -0.1149
 3955TIP3    H111808   8.263   6.333   2.935 -1.6193 -2.2980  2.0643
 3955TIP3    H211809   8.140   6.368   3.016 -2.0574  2.9787 -0.4798
 3956TIP3   OH211810   4.598   6.591   2.327  0.5147 -0.0120  0.6172
 3956TIP3    H111811   4.640   6.506   2.322 -1.1435 -0.8971  0.9834
 3956TIP3    H211812   4.556   6.603   2.242  0.2400  0.1617  0.7755
 3957TIP3   OH211813   0.373   1.116   6.668 -0.2683 -0.2832  0.0136
 3957TIP3    H111814   0.378   1.025   6.697 -1.0751 -0.5405 -0.5902
 3957TIP3    H211815   0.435   1.163   6.723 -1.0156 -0.9177  1.4667
 3958TIP3   OH211816   1.728   3.997   5.569 -0.4554  0.3113  0.0693
 3958TIP3    H111817   1.720   4.089   5.594  0.8082  0.0294  1.6807
 3958TIP3    H211818   1.821   3.985   5.548 -0.9550 -0.1697 -2.1351
 3959TIP3   OH211819   4.269   6.993   1.857 -0.0938 -0.5782  0.2341
 3959TIP3    H111820   4.322   6.972   1.934 -0.2806 -1.9982  0.0021
 3959TIP3    H211821   4.328   6.979   1.783 -0.3806 -0.7868  0.0432
 3960TIP3   OH211822   1.855   2.696   6.021 -0.2519 -0.9629  0.0819
 3960TIP3    H111823   1.798   2.703   5.944  0.1067  1.7531 -0.0524
 3960TIP3    H211824   1.943   2.714   5.987 -0.1834  1.0135  1.1633
 3961TIP3   OH211825   2.957   6.340   6.003 -0.0484 -0.0865 -0.4230
 3961TIP3    H111826   2.961   6.295   5.919 -2.3281 -1.1326 -0.0343
 3961TIP3    H211827   2.929   6.429   5.981  1.0863  0.1722 -0.8924
 3962TIP3   OH211828   4.038   0.095   2.091 -0.3688  0.3854  0.4236
 3962TIP3    H111829   3.989   0.152   2.032  0.4425  0.7810  0.1298
 3962TIP3    H211830   4.077   0.029   2.034  1.7243  1.6668  0.2513
 3963TIP3   OH211831   1.939   4.691   5.216  0.1723 -0.0864 -0.2537
 3963TIP3    H111832   1.979   4.653   5.295  1.3418 -0.2921 -0.9201
 3963TIP3    H211833   1.862   4.737   5.248 -0.9913 -2.5130  0.6625
 3964TIP3   OH211834   4.577   4.659   0.169  0.0833  0.4597  0.0302
 3964TIP3    H111835   4.604   4.586   0.225 -3.3602 -0.6328  0.4516
 3964TIP3    H211836   4.565   4.732   0.229 -1.3910 -0.0797  0.4190
 3965TIP3   OH211837   4.132   5.398   3.509  0.1214  0.2599 -0.2131
 3965TIP3    H111838   4.216   5.424   3.471 -0.1413  0.3578 -0.7190
 3965TIP3    H211839   4.118   5.309   3.477  1.4404 -0.9170  2.1974
 3966TIP3   OH211840   2.899   3.351   5.615  0.2462  0.1536  0.2311
 3966TIP3    H111841   2.937   3.339   5.702  1.4596 -0.9505 -0.4021
 3966TIP3    H211842   2.912   3.267   5.572 -2.0688  0.0440 -0.4063
 3967TIP3   OH211843   2.969   2.752   0.472 -0.3910  0.0928 -0.0063
 3967TIP3    H111844   2.894   2.716   0.425 -0.7082  1.2504 -0.4206
 3967TIP3    H211845   2.962   2.847   0.460  1.2264  0.2175 -0.1849
 3968TIP3   OH211846   3.266   1.629   4.723 -0.4984  0.0776  0.3230
 3968TIP3    H111847   3.357   1.646   4.748 -1.3834  1.1632  3.1905
 3968TIP3    H211848   3.270   1.615   4.629  2.4883  1.1332  0.1669
 3969TIP3   OH211849   7.747   3.586   3.659  0.1970 -0.0569  0.2256
 3969TIP3    H111850   7.796   3.506   3.682  0.2882 -0.2518 -0.6074
 3969TIP3    H211851   7.814   3.646   3.626  0.1504  0.4323  0.9999
 3970TIP3   OH211852   8.309   1.770   4.596 -0.2574 -0.3236  0.2673
 3970TIP3    H111853   8.253   1.846   4.606 -0.3206  0.0987 -2.6330
 3970TIP3    H211854   8.259   1.709   4.543  1.0317 -0.9965 -0.2329
 3971TIP3   OH211855   2.585   2.154   6.012 -0.2290  0.0538  0.3802
 3971TIP3    H111856   2.679   2.148   5.998 -0.0904  2.2351  0.0901
 3971TIP3    H211857   2.553   2.210   5.941 -1.6586 -0.1423  0.8222
 3972TIP3   OH211858   6.359   1.514   2.469 -0.3873  0.2002  0.1923
 3972TIP3    H111859   6.391   1.530   2.380  3.1882 -1.6939  0.9166
 3972TIP3    H211860   6.284   1.456   2.458 -0.9125  1.1409 -1.5852
 3973TIP3   OH211861   7.015   3.120   2.746  0.0640 -0.3010  0.3172
 3973TIP3    H111862   7.011   3.050   2.681 -2.6558  1.9056 -2.1930
 3973TIP3    H211863   6.930   3.116   2.791  0.3664  0.6221  1.0081
 3974TIP3   OH211864   3.415   1.990   2.348 -0.2368 -0.3223 -0.0899
 3974TIP3    H111865   3.470   1.912   2.352  1.4869  0.8998  2.4555
 3974TIP3    H211866   3.440   2.032   2.265  4.2755  1.1059  1.6664
 3975TIP3   OH211867   4.411   0.991   4.042 -0.0437 -0.5462 -0.0493
 3975TIP3    H111868   4.400   1.080   4.076  1.7843 -0.6894  1.0801
 3975TIP3    H211869   4.461   1.002   3.961  3.0222 -0.6169  1.6743
 3976TIP3   OH211870   1.771   2.771   0.571 -0.9010  0.4013  0.1419
 3976TIP3    H111871   1.793   2.862   0.588 -0.5438  0.4902 -0.7069
 3976TIP3    H211872   1.752   2.733   0.657  0.9163  0.7565  0.7340
 3977TIP3   OH211873   2.323   7.814   5.062 -0.3192 -0.2552  0.3434
 3977TIP3    H111874   2.239   7.777   5.033  0.0280 -1.2119  0.5052
 3977TIP3    H211875   2.360   7.853   4.983 -0.8129 -0.0384  0.2174
 3978TIP3   OH211876   4.087   0.185   1.120 -0.5365 -0.5090  0.0967
 3978TIP3    H111877   4.130   0.181   1.034 -0.7867 -0.0911 -0.0492
 3978TIP3    H211878   4.052   0.097   1.133 -1.7073 -0.2203 -0.8584
 3979TIP3   OH211879   5.814   3.703   6.268 -0.3665  0.0361  0.0645
 3979TIP3    H111880   5.738   3.745   6.227 -0.7000 -1.1470 -0.5755
 3979TIP3    H211881   5.786   3.613   6.283  0.7923 -0.3150  0.1531
 3980TIP3   OH211882   7.644   0.925   3.104  0.0900  0.5584 -0.0599
 3980TIP3    H111883   7.690   0.929   3.188  0.5090  0.8504 -0.3050
 3980TIP3    H211884   7.552   0.913   3.129  0.6326 -4.6552  0.4547
 3981TIP3   OH211885   2.239   1.132   2.912 -0.7318 -0.3462 -0.4683
 3981TIP3    H111886   2.318   1.117   2.962 -0.9990 -1.4902 -0.3589
 3981TIP3    H211887   2.168   1.097   2.967 -1.2092 -0.1510 -0.9443
 3982TIP3   OH211888   7.466   6.534   3.931 -0.7372 -0.0724  0.0649
 3982TIP3    H111889   7.432   6.567   3.847 -0.6019 -0.0552  0.0168
 3982TIP3    H211890   7.389   6.531   3.988 -0.9453 -0.6363 -0.2293
 3983TIP3   OH211891   3.044   7.626   2.202  0.1548  0.4932  0.2246
 3983TIP3    H111892   3.004   7.668   2.126 -0.1671 -0.0408  0.0893
 3983TIP3    H211893   2.972   7.611   2.263  0.5486  1.6798  1.0082
 3984TIP3   OH211894   2.032   2.687   4.965 -0.2443  0.0359  0.0932
 3984TIP3    H111895   1.980   2.720   4.891 -2.3037  1.9278  2.1712
 3984TIP3    H211896   2.078   2.765   4.998  2.2766 -1.1855 -0.3701
 3985TIP3   OH211897   6.907   4.420   4.857  0.0822  0.3366 -0.3112
 3985TIP3    H111898   6.888   4.328   4.836  1.8946 -0.6810  1.9988
 3985TIP3    H211899   7.002   4.425   4.859  0.2817  0.5994  5.2398
 3986TIP3   OH211900   6.094   3.987   0.990 -0.0987  0.3938  0.3322
 3986TIP3    H111901   6.046   4.063   0.959  1.0697  0.3445 -1.7554
 3986TIP3    H211902   6.035   3.913   0.975 -0.3583  0.6219  0.2344
 3987TIP3   OH211903   2.797   1.090   6.473 -0.4161 -0.1648 -0.3608
 3987TIP3    H111904   2.870   1.029   6.461 -1.0668 -0.8073 -1.1077
 3987TIP3    H211905   2.831   1.156   6.534  1.6357  0.9246 -2.5239
 3988TIP3   OH211906   7.361   3.420   0.211 -0.0504 -0.1944  0.2213
 3988TIP3    H111907   7.428   3.441   0.275  0.2005 -1.0309  0.2415
 3988TIP3    H211908   7.355   3.498   0.156  2.2659 -0.7558 -0.9459
 3989TIP3   OH211909   3.506   0.642   4.435 -0.4619  0.6080 -0.2139
 3989TIP3    H111910   3.427   0.598   4.469  0.1506 -0.2557  0.1343
 3989TIP3    H211911   3.496   0.637   4.340 -0.1548 -0.8250 -0.2044
 3990TIP3   OH211912   7.646   3.296   4.944 -0.0344 -0.1135 -0.0506
 3990TIP3    H111913   7.594   3.246   4.881 -0.8152  0.0860  0.4235
 3990TIP3    H211914   7.710   3.233   4.977 -0.9432 -0.7997  0.4610
 3991TIP3   OH211915   5.070   0.434   3.361 -0.3879  0.1266  0.2935
 3991TIP3    H111916   5.152   0.481   3.378 -0.0783  0.2108 -1.2678
 3991TIP3    H211917   5.010   0.467   3.427  0.1834  1.8068  0.0385
 3992TIP3   OH211918   3.150   5.445   0.237  0.0612  0.3761  0.1901
 3992TIP3    H111919   3.237   5.409   0.257 -0.2361 -0.6188 -0.2420
 3992TIP3    H211920   3.138   5.428   0.143 -0.2976  1.1871  0.0788
 3993TIP3   OH211921   1.043   5.913   2.029  0.9245  0.0647 -0.3874
 3993TIP3    H111922   1.122   5.965   2.015  2.1869 -1.6376 -0.0575
 3993TIP3    H211923   0.972   5.976   2.035  2.3074  1.6769 -0.4232
 3994TIP3   OH211924   3.003   3.700   5.654  0.0648 -0.0848 -0.5517
 3994TIP3    H111925   3.080   3.646   5.671  0.6486  0.3478 -1.7402
 3994TIP3    H211926   3.035   3.772   5.601 -1.1509  0.1246 -1.0454
 3995TIP3   OH211927   7.532   3.284   5.235  0.6891  0.1394 -0.0085
 3995TIP3    H111928   7.522   3.311   5.326 -1.3052  0.8619 -0.4009
 3995TIP3    H211929   7.447   3.301   5.195  0.4015 -3.2806 -1.2270
 3996TIP3   OH211930   2.830   4.093   2.950  0.0654  0.1117  0.3824
 3996TIP3    H111931   2.848   4.038   2.874 -0.0234  0.4240  0.1362
 3996TIP3    H211932   2.883   4.055   3.020  1.0161  0.4991 -0.1175
 3997TIP3   OH211933   0.656   7.553   0.230  0.0102 -0.6823 -0.3477
 3997TIP3    H111934   0.571   7.525   0.266 -0.5119  0.5861 -0.5620
 3997TIP3    H211935   0.633   7.615   0.161  1.1385  0.3054  0.1430
 3998TIP3   OH211936   3.937   4.969   2.950 -0.3348  0.0474  0.0579
 3998TIP3    H111937   3.944   4.874   2.945 -1.7068 -0.0651 -0.2790
 3998TIP3    H211938   3.939   4.998   2.859  0.8804  0.4236  0.1946
 3999TIP3   OH211939   2.636   0.615   4.697 -0.1040 -0.1683 -0.0093
 3999TIP3    H111940   2.581   0.685   4.732  2.0482  0.8200  1.5984
 3999TIP3    H211941   2.681   0.654   4.622 -0.2808 -0.4299 -0.2544
 4000TIP3   OH211942   0.292   6.023   6.726 -0.1688 -0.1067 -0.1472
 4000TIP3    H111943   0.322   5.978   6.805  0.8854 -1.6042 -1.3328
 4000TIP3    H211944   0.337   6.108   6.728 -0.5243  0.0669  1.0791
 4001TIP3   OH211945   2.763   5.389   1.738 -0.2001  0.1759 -0.1587
 4001TIP3    H111946   2.786   5.298   1.721  0.3769 -0.0834  1.7219
 4001TIP3    H211947   2.685   5.385   1.793  1.0228  0.6927  1.7030
 4002TIP3   OH211948   3.216   4.624   6.660 -0.2932 -0.0296 -0.1614
 4002TIP3    H111949   3.172   4.649   6.578 -0.8967 -2.6874 -0.7370
 4002TIP3    H211950   3.218   4.529   6.658  2.7480 -0.1031  1.3664
 4003TIP3   OH211951   4.895   0.094   5.707 -0.2701 -0.5235  0.2744
 4003TIP3    H111952   4.914  -0.000   5.714 -0.9299 -0.5434  3.3260
 4003TIP3    H211953   4.805   0.098   5.674 -0.2808 -0.9544  0.2402
 4004TIP3   OH211954   1.336   2.835   1.140  0.1996  0.2695  0.6236
 4004TIP3    H111955   1.335   2.858   1.047 -1.6208 -0.3678  0.4442
 4004TIP3    H211956   1.429   2.838   1.165  0.5591  2.1931 -0.7460
 4005TIP3   OH211957   4.200   3.069   5.968 -0.1768 -0.3947 -0.1483
 4005TIP3    H111958   4.173   3.020   6.046 -0.0626 -1.0514 -0.5109
 4005TIP3    H211959   4.119   3.083   5.919  0.0173 -1.8749 -0.9598
 4006TIP3   OH211960   2.072   3.529   0.338 -0.3979 -0.2036  0.8287
 4006TIP3    H111961   2.122   3.459   0.381  0.1691  0.4414  1.2369
 4006TIP3    H211962   2.137   3.576   0.285 -1.1898 -1.3706 -1.3066
 4007TIP3   OH211963   2.386   2.625   0.806  0.2446  0.4019 -0.1034
 4007TIP3    H111964   2.390   2.574   0.887  3.2563  0.3208 -0.1686
 4007TIP3    H211965   2.470   2.608   0.764 -0.1862  2.5000 -1.9774
 4008TIP3   OH211966   8.195   3.439   4.730  0.1223 -0.5159 -0.1805
 4008TIP3    H111967   8.203   3.500   4.803  3.8261 -0.0754 -0.7693
 4008TIP3    H211968   8.222   3.355   4.766 -1.8367 -1.1841 -0.1696
 4009TIP3   OH211969   0.251   3.781   4.703 -0.0436  0.6840  0.1846
 4009TIP3    H111970   0.216   3.697   4.731 -0.8701  0.5672 -1.1214
 4009TIP3    H211971   0.237   3.783   4.608  2.3507  1.1954 -0.2201
 4010TIP3   OH211972   3.623   6.156   2.434  0.1988 -0.0190 -0.1553
 4010TIP3    H111973   3.551   6.212   2.461  0.5075  0.5851 -0.5402
 4010TIP3    H211974   3.680   6.151   2.511  0.7057  1.0903 -0.4227
 4011TIP3   OH211975   5.306   4.123   2.043 -0.6751  0.4988 -0.2485
 4011TIP3    H111976   5.236   4.121   1.977 -4.1312 -0.0184  3.0517
 4011TIP3    H211977   5.282   4.197   2.099  1.1301 -0.0633  1.3552
 4012TIP3   OH211978   8.257   6.227   5.436  0.0081 -0.0772  0.5627
 4012TIP3    H111979   8.307   6.277   5.502 -0.9380  0.3597  0.9701
 4012TIP3    H211980   8.311   6.232   5.357  0.1192  1.2803  0.7013
 4013TIP3   OH211981   4.880   2.955   6.590 -0.0520 -0.5701 -0.0184
 4013TIP3    H111982   4.964   2.910   6.596 -0.3996 -1.3721 -0.9768
 4013TIP3    H211983   4.818   2.888   6.563 -0.8578  0.1823 -0.0963
 4014TIP3   OH211984   1.637   2.667   3.827  0.7766  0.7609 -0.0547
 4014TIP3    H111985   1.654   2.720   3.750  0.3213  0.8093 -0.1228
 4014TIP3    H211986   1.650   2.727   3.901 -0.3377  1.1314 -0.1532
 4015TIP3   OH211987   1.549   4.794   1.456  0.3400 -0.0588  0.0199
 4015TIP3    H111988   1.631   4.806   1.408  0.8822 -1.1276  0.6376
 4015TIP3    H211989   1.568   4.724   1.518 -0.9469 -0.0821  0.4135
 4016TIP3   OH211990   1.878   1.546   4.767 -0.2545 -0.1862  1.0641
 4016TIP3    H111991   1.783   1.544   4.763 -0.2536  1.1406 -1.2655
 4016TIP3    H211992   1.907   1.468   4.719 -0.1503 -0.5276  1.6712
 4017TIP3   OH211993   7.048   6.844   3.339 -0.1490 -0.0874  0.4610
 4017TIP3    H111994   7.025   6.901   3.412 -0.2976  0.2485  0.1558
 4017TIP3    H211995   6.964   6.819   3.300 -0.0892 -0.6464  0.6943
 4018TIP3   OH211996   1.962   6.413   0.843  0.3327  0.1182  0.7320
 4018TIP3    H111997   1.993   6.501   0.861  1.5735 -0.3019  0.7622
 4018TIP3    H211998   1.991   6.395   0.754 -0.5598 -0.0053  0.4523
 4019TIP3   OH211999   6.374   3.341   5.619 -0.7972  0.2764  0.0709
 4019TIP3    H112000   6.416   3.336   5.705  0.8325  0.4285 -0.6866
 4019TIP3    H212001   6.444   3.368   5.560 -2.1790  1.4346 -1.1124
 4020TIP3   OH212002   1.118   0.080   2.728 -0.2487 -0.7588 -0.5883
 4020TIP3    H112003   1.142  -0.008   2.700 -0.3915 -0.9725 -0.0446
 4020TIP3    H212004   1.055   0.066   2.799 -0.3843 -0.2196 -0.6013
 4021TIP3   OH212005   0.712   1.857   4.017 -0.7594  0.5270 -0.0669
 4021TIP3    H112006   0.664   1.775   4.026  1.4717 -0.6159  3.6704
 4021TIP3    H212007   0.651   1.923   4.051 -1.6798  0.0650 -0.7674
 4022TIP3   OH212008   6.325   6.168   1.868 -0.3626 -0.0141  0.4592
 4022TIP3    H112009   6.292   6.221   1.796  0.6999  0.6920  0.4733
 4022TIP3    H212010   6.285   6.207   1.946  0.2628  0.6534  0.4522
 4023TIP3   OH212011   5.127   6.522   4.538  0.2516 -0.3242 -0.6270
 4023TIP3    H112012   5.145   6.596   4.480 -2.3635 -0.3569 -1.6152
 4023TIP3    H212013   5.090   6.455   4.480 -1.3016 -0.8301  0.8813
 4024TIP3   OH212014   5.973   3.113   6.366 -0.4884 -0.1665 -0.4428
 4024TIP3    H112015   6.044   3.053   6.391 -1.3461 -0.6611  0.9308
 4024TIP3    H212016   6.006   3.200   6.391  0.6717 -0.0384 -2.2442
 4025TIP3   OH212017   6.349   4.059   4.778 -0.1237  0.3598 -0.5089
 4025TIP3    H112018   6.296   4.136   4.799  1.0344  1.4622 -1.4763
 4025TIP3    H212019   6.392   4.081   4.696  1.4538 -0.6877 -0.0145
 4026TIP3   OH212020   6.435   5.938   4.395  0.0888 -0.1481  0.2752
 4026TIP3    H112021   6.412   6.018   4.442  0.9107 -0.5889  1.4967
 4026TIP3    H212022   6.360   5.880   4.409  0.0338 -0.0303  0.4776
 4027TIP3   OH212023   3.818   3.873   0.765  0.5293  0.4438 -0.6893
 4027TIP3    H112024   3.780   3.830   0.689  1.3920  1.8587 -1.9793
 4027TIP3    H212025   3.904   3.903   0.736  1.2830  0.2290  1.1359
 4028TIP3   OH212026   0.345   6.752   4.537  0.5605  0.4031  0.3018
 4028TIP3    H112027   0.378   6.723   4.452 -0.8347  1.9506 -0.8285
 4028TIP3    H212028   0.271   6.694   4.554  1.0231 -0.1038  0.6389
 4029TIP3   OH212029   2.240   1.451   3.875  0.0296 -0.2993  0.3713
 4029TIP3    H112030   2.147   1.468   3.859 -0.2121 -2.2189 -0.5583
 4029TIP3    H212031   2.241   1.371   3.928  1.1395 -0.8820 -0.4715
 4030TIP3   OH212032   7.780   0.009   0.177 -0.0302 -0.2806  0.8039
 4030TIP3    H112033   7.709   0.045   0.123 -0.0282 -2.1025 -0.5012
 4030TIP3    H212034   7.860   0.031   0.129  0.0812 -0.5604  0.8573
 4031TIP3   OH212035   3.795   3.674   1.343 -0.2816  0.3422 -0.1921
 4031TIP3    H112036   3.811   3.757   1.298 -0.7750  2.0548  2.5164
 4031TIP3    H212037   3.872   3.662   1.399 -0.3624 -0.8704 -0.3207
 4032TIP3   OH212038   6.899   0.846   4.726 -0.2299 -0.9697 -0.4347
 4032TIP3    H112039   6.813   0.815   4.698  0.1489  0.3195 -3.4839
 4032TIP3    H212040   6.885   0.937   4.752  0.3836 -0.1840 -2.6296
 4033TIP3   OH212041   4.010   6.650   2.181  0.1524 -0.2678  0.2710
 4033TIP3    H112042   4.061   6.726   2.155 -1.3209  0.9619  0.8585
 4033TIP3    H212043   3.943   6.642   2.113 -1.0281  0.3130  1.3244
 4034TIP3   OH212044   7.219   4.691   5.873  0.0257  0.0395  0.1858
 4034TIP3    H112045   7.279   4.735   5.813 -0.3128 -0.2374 -0.3648
 4034TIP3    H212046   7.169   4.762   5.913  0.6075  0.2611  0.5313
 4035TIP3   OH212047   2.438   4.843   1.585 -0.2516  0.5238 -0.5219
 4035TIP3    H112048   2.353   4.801   1.602 -0.8376  1.6744 -0.5033
 4035TIP3    H212049   2.438   4.858   1.490 -0.3038  1.0063 -0.4461
 4036TIP3   OH212050   4.974   5.180   3.720  0.1921 -0.2533  0.1292
 4036TIP3    H112051   4.999   5.118   3.789  0.9679  1.0232  1.0554
 4036TIP3    H212052   4.931   5.251   3.768  0.0990  0.3220 -0.7988
 4037TIP3   OH212053   5.009   6.248   1.878  0.1072  0.1439  0.3699
 4037TIP3    H112054   4.989   6.291   1.795 -0.5573 -1.7565 -0.4905
 4037TIP3    H212055   4.946   6.285   1.940  0.4756  1.4182  0.0219
 4038TIP3   OH212056   1.089   7.494   6.494  0.2130 -0.2375 -0.5188
 4038TIP3    H112057   1.079   7.469   6.402 -0.3039 -2.9922  0.1955
 4038TIP3    H212058   1.177   7.464   6.518 -0.0468 -0.5207  0.1241
 4039TIP3   OH212059   5.910   0.206   2.389  0.5195  0.0707 -0.3505
 4039TIP3    H112060   5.925   0.115   2.414 -1.8549 -0.3399 -0.1721
 4039TIP3    H212061   5.888   0.202   2.296  3.0415  0.8486 -1.0670
 4040TIP3   OH212062   1.218   4.455   5.832  0.7443 -0.3997  0.7274
 4040TIP3    H112063   1.271   4.528   5.800 -0.2121  0.3023  0.6870
 4040TIP3    H212064   1.206   4.399   5.755  0.2331  0.1791  0.3775
 4041TIP3   OH212065   6.437   4.221   0.650 -0.6568 -0.3879 -0.0298
 4041TIP3    H112066   6.436   4.267   0.566 -3.3620  1.2636  0.7922
 4041TIP3    H212067   6.488   4.278   0.707 -0.2323 -0.6674 -0.1291
 4042TIP3   OH212068   7.377   4.437   0.220  0.2071 -0.5113 -0.2863
 4042TIP3    H112069   7.469   4.453   0.198 -0.0033  0.5862 -0.4629
 4042TIP3    H212070   7.362   4.492   0.297 -0.2341 -0.8725 -0.1165
 4043TIP3   OH212071   4.243   7.237   4.132  0.0404 -0.6665  0.7309
 4043TIP3    H112072   4.301   7.205   4.063 -0.8871 -1.9114  0.4882
 4043TIP3    H212073   4.197   7.311   4.092  1.8314  0.7400  1.1255
 4044TIP3   OH212074   3.312   5.294   2.469 -0.1160  0.3229  0.1517
 4044TIP3    H112075   3.383   5.288   2.404  0.1427  3.1170  0.0447
 4044TIP3    H212076   3.238   5.329   2.420 -0.4480  0.8219  0.9966
 4045TIP3   OH212077   6.270   7.582   1.517  0.8102 -0.0368  0.3334
 4045TIP3    H112078   6.308   7.497   1.539  2.3364  0.7169  0.7873
 4045TIP3    H212079   6.294   7.596   1.425  1.0325  0.1239  0.4136
 4046TIP3   OH212080   1.187   6.700   0.713  0.1007 -0.0157 -0.5882
 4046TIP3    H112081   1.167   6.625   0.658 -2.6446 -0.6038  1.0606
 4046TIP3    H212082   1.147   6.774   0.669 -0.1079 -0.0931 -0.5278
 4047TIP3   OH212083   7.984   7.677   4.395 -0.4552 -0.1225  0.5039
 4047TIP3    H112084   7.911   7.714   4.344  0.6718  3.4943  1.2032
 4047TIP3    H212085   7.945   7.658   4.481 -1.2049 -1.2641 -0.0596
 4048TIP3   OH212086   2.594   4.473   4.658  1.0609  0.4914  0.1959
 4048TIP3    H112087   2.526   4.467   4.726  1.2945  0.8360  0.4648
 4048TIP3    H212088   2.664   4.415   4.688  1.8426  1.8210  1.0622
 4049TIP3   OH212089   7.359   5.759   2.499 -0.2458  0.1369 -0.3894
 4049TIP3    H112090   7.341   5.847   2.467  1.1395  0.3674 -0.5876
 4049TIP3    H212091   7.384   5.710   2.421  0.7905  0.0696 -0.0337
 4050TIP3   OH212092   4.798   2.004   0.558  0.1119  0.0870 -0.3360
 4050TIP3    H112093   4.761   2.043   0.637 -2.0390 -3.3446  0.6018
 4050TIP3    H212094   4.890   1.989   0.578 -0.1517  0.2954  1.1098
 4051TIP3   OH212095   4.314   3.463   6.570 -0.7092 -0.2691 -0.1483
 4051TIP3    H112096   4.342   3.535   6.627 -0.0417 -0.1487 -0.6219
 4051TIP3    H212097   4.288   3.393   6.631  0.5692 -0.3601  0.3135
 4052TIP3   OH212098   6.436   0.913   0.763 -0.2181 -0.0947 -0.1792
 4052TIP3    H112099   6.481   0.904   0.679  0.1198  0.6318 -0.0921
 4052TIP3    H212100   6.399   0.827   0.781  0.1394 -0.3885 -0.8307
 4053TIP3   OH212101   1.633   6.808   5.886 -0.2553  0.1053 -0.0018
 4053TIP3    H112102   1.693   6.793   5.813 -0.1563  3.6853 -0.8493
 4053TIP3    H212103   1.689   6.843   5.956 -0.9020  0.4823  0.3384
 4054TIP3   OH212104   0.682   1.514   5.234 -0.7763 -0.1036 -0.1948
 4054TIP3    H112105   0.659   1.449   5.168 -1.0345 -0.9931  0.7368
 4054TIP3    H212106   0.643   1.480   5.315  1.2574 -0.1197  0.8354
 4055TIP3   OH212107   7.669   5.809   4.644 -0.0048  0.2324  0.1508
 4055TIP3    H112108   7.589   5.851   4.612  1.7433  1.9924 -2.2202
 4055TIP3    H212109   7.724   5.881   4.675  1.2076 -0.7854  0.4399
 4056TIP3   OH212110   3.906   4.775   1.134  0.0140  0.3687  0.0080
 4056TIP3    H112111   3.937   4.698   1.182 -0.8177 -0.2674 -0.4492
 4056TIP3    H212112   3.885   4.743   1.047  1.2377  1.4616 -0.7251
 4057TIP3   OH212113   0.117   3.322   6.418  0.0622  0.0998 -0.1846
 4057TIP3    H112114   0.089   3.298   6.329 -0.9429  2.2663 -0.5114
 4057TIP3    H212115   0.086   3.411   6.429  0.3605 -0.0512  2.2996
 4058TIP3   OH212116   5.350   7.357   1.769  0.3569 -0.0193 -0.0412
 4058TIP3    H112117   5.349   7.265   1.797 -1.4809  0.0960  0.4127
 4058TIP3    H212118   5.344   7.407   1.850 -1.5101  0.3946 -0.3820
 4059TIP3   OH212119   3.959   4.215   6.750 -0.5442 -0.3956  0.3842
 4059TIP3    H112120   3.876   4.261   6.762  0.6041  1.4428  1.8441
 4059TIP3    H212121   4.017   4.280   6.711 -0.2890 -2.2674 -2.6257
 4060TIP3   OH212122   5.353   0.217   0.876  0.4534  0.3833 -0.1547
 4060TIP3    H112123   5.328   0.261   0.795 -0.9994 -2.0006 -1.1160
 4060TIP3    H212124   5.277   0.164   0.899  1.7712 -0.9761  1.3409
 4061TIP3   OH212125   0.950   1.581   5.092  0.0122 -0.1373 -0.3596
 4061TIP3    H112126   0.913   1.553   5.008  0.6987  0.2120 -0.7864
 4061TIP3    H212127   1.044   1.565   5.084  0.2059  0.7585 -0.0047
 4062TIP3   OH212128   6.727   2.095   6.080 -0.0648  0.5878 -0.0606
 4062TIP3    H112129   6.800   2.132   6.031 -0.0625 -1.5299 -1.8537
 4062TIP3    H212130   6.667   2.169   6.094  1.7063  2.0463  0.1623
 4063TIP3   OH212131   6.668   2.813   3.347 -0.5733 -0.3688  0.0332
 4063TIP3    H112132   6.613   2.860   3.410  1.3597  0.0395  1.5133
 4063TIP3    H212133   6.694   2.733   3.393  0.5654 -0.2473 -0.3571
 4064TIP3   OH212134   0.371   6.858   5.827 -0.5241  0.1453  0.0907
 4064TIP3    H112135   0.384   6.953   5.829 -0.5485  0.1402  0.4514
 4064TIP3    H212136   0.454   6.824   5.793  0.4474  0.1241  2.2941
 4065TIP3   OH212137   1.244   3.935   5.423 -0.5672  0.8399  0.6587
 4065TIP3    H112138   1.331   3.900   5.445 -1.7381 -3.2260 -0.3004
 4065TIP3    H212139   1.184   3.880   5.473 -2.6921  1.4405 -1.0998
 4066TIP3   OH212140   5.728   7.467   3.305  0.7611 -0.8614 -0.4173
 4066TIP3    H112141   5.819   7.495   3.314  0.5424 -0.4506  0.7404
 4066TIP3    H212142   5.732   7.393   3.244  1.7173 -0.1495 -1.2515
 4067TIP3   OH212143   1.977   5.852   1.471  0.2830  1.0605 -0.0134
 4067TIP3    H112144   2.002   5.768   1.431 -0.8474  0.9981 -0.6233
 4067TIP3    H212145   2.003   5.843   1.563 -0.4202 -0.2307  0.0878
 4068TIP3   OH212146   1.031   4.953   0.703 -0.1729 -0.1716 -0.6480
 4068TIP3    H112147   0.959   4.919   0.651 -0.5305 -2.0805  0.9844
 4068TIP3    H212148   0.997   4.957   0.792  1.4033 -0.1368 -0.0028
 4069TIP3   OH212149   2.100   2.617   6.438  0.2211  0.1458  0.1219
 4069TIP3    H112150   2.137   2.658   6.360 -0.2121 -1.8055 -1.1832
 4069TIP3    H212151   2.019   2.576   6.407 -0.5361  0.2355  1.8606
 4070TIP3   OH212152   2.462   0.318   2.718 -0.5665  0.9512  0.2106
 4070TIP3    H112153   2.444   0.327   2.812 -0.0536  2.9476  0.1759
 4070TIP3    H212154   2.558   0.316   2.713 -0.5441 -2.7416 -0.0801
 4071TIP3   OH212155   4.473   6.258   0.209 -0.5540  0.4403  0.6597
 4071TIP3    H112156   4.525   6.239   0.287 -2.5750  1.8417  2.4946
 4071TIP3    H212157   4.456   6.173   0.169  3.3565 -0.0546 -0.3113
 4072TIP3   OH212158   4.304   6.149   1.225 -0.3516 -0.5019 -0.1026
 4072TIP3    H112159   4.231   6.211   1.226 -0.5533 -0.7404  0.7562
 4072TIP3    H212160   4.378   6.200   1.259 -0.2727 -0.4576 -0.3345
 4073TIP3   OH212161   1.119   1.023   1.480  0.2287  0.0655 -0.8437
 4073TIP3    H112162   1.182   1.080   1.524 -1.3946  1.2465  0.0328
 4073TIP3    H212163   1.117   1.055   1.390 -0.1828  0.9697 -0.5207
 4074TIP3   OH212164   2.715   3.089   3.234  0.3160  0.5649 -0.9865
 4074TIP3    H112165   2.796   3.129   3.204  0.2276  0.2794 -1.6147
 4074TIP3    H212166   2.657   3.090   3.158  0.9672 -2.4798 -1.6680
 4075TIP3   OH212167   5.684   0.313   6.093  0.0638  0.3212 -0.0304
 4075TIP3    H112168   5.732   0.351   6.020  2.4368 -0.4694  1.0363
 4075TIP3    H212169   5.706   0.220   6.091 -0.9894  0.0278  0.8696
 4076TIP3   OH212170   3.185   0.520   6.590  0.0752 -0.1943 -0.7547
 4076TIP3    H112171   3.269   0.509   6.634 -0.4709 -1.1913  0.0852
 4076TIP3    H212172   3.177   0.440   6.537 -0.3757 -0.1387 -0.7676
 4077TIP3   OH212173   4.025   5.487   2.606  0.1700  0.1728 -0.4100
 4077TIP3    H112174   3.963   5.428   2.649 -0.1365  0.4851 -0.4251
 4077TIP3    H212175   4.087   5.510   2.674 -0.8755  1.4539  0.1442
 4078TIP3   OH212176   0.723   4.058   1.431 -0.1947  0.0162  0.1083
 4078TIP3    H112177   0.674   4.090   1.507 -1.1226  0.9026 -0.8287
 4078TIP3    H212178   0.736   3.965   1.448 -1.6111 -0.0981  0.7367
 4079TIP3   OH212179   7.556   3.691   3.840 -0.0425  0.4754  0.6630
 4079TIP3    H112180   7.606   3.670   3.761  0.0239  0.5337  0.6893
 4079TIP3    H212181   7.596   3.638   3.909 -1.6375 -1.4543  0.1973
 4080TIP3   OH212182   3.897   1.002   4.018 -0.1549  0.5848  0.2670
 4080TIP3    H112183   3.894   0.935   3.949  1.0171  0.5410  0.2229
 4080TIP3    H212184   3.839   0.969   4.087  0.1571 -0.3306  0.1095
 4081TIP3   OH212185   2.283   5.374   5.701 -0.2413  0.0822 -0.6396
 4081TIP3    H112186   2.192   5.392   5.675 -0.6376  2.3766  1.8847
 4081TIP3    H212187   2.276   5.310   5.771  0.0162  0.5977 -0.1334
 4082TIP3   OH212188   2.020   7.309   4.869  0.0938 -0.1550 -0.2145
 4082TIP3    H112189   1.988   7.397   4.848  0.1949 -0.2391 -0.7517
 4082TIP3    H212190   2.099   7.324   4.921 -0.2216  0.0646  0.1986
 4083TIP3   OH212191   0.115   2.999   3.434  0.4333  0.2840 -0.4101
 4083TIP3    H112192   0.054   2.948   3.488  1.1289 -0.7303 -0.5660
 4083TIP3    H212193   0.164   3.052   3.498  0.9347 -0.5699 -0.0643
 4084TIP3   OH212194   2.335   2.499   0.423  0.4287 -0.0460 -0.1123
 4084TIP3    H112195   2.336   2.421   0.367  0.1817  0.5996 -1.0324
 4084TIP3    H212196   2.311   2.466   0.510  0.7337 -1.0490 -0.3918
 4085TIP3   OH212197   3.233   2.041   6.516 -0.3280  0.5828 -0.2720
 4085TIP3    H112198   3.255   1.950   6.499 -2.8397 -0.0332 -0.5970
 4085TIP3    H212199   3.307   2.091   6.480 -0.7456 -1.1280 -3.9603
 4086TIP3   OH212200   2.404   2.901   4.873  0.0736 -0.2489  0.4392
 4086TIP3    H112201   2.349   2.878   4.798  0.5280 -0.0441  0.0324
 4086TIP3    H212202   2.469   2.962   4.836  0.0509  0.1739  1.0873
 4087TIP3   OH212203   6.010   6.624   3.767  0.0197 -0.7640 -0.0459
 4087TIP3    H112204   6.025   6.623   3.862 -0.9356  1.1956  0.1636
 4087TIP3    H212205   6.093   6.594   3.730  0.4720 -1.3963  1.3906
 4088TIP3   OH212206   7.195   1.524   2.973  0.2318 -0.0671  0.7512
 4088TIP3    H112207   7.126   1.581   3.007  0.6636  1.3167 -0.5471
 4088TIP3    H212208   7.242   1.494   3.050 -0.6608  0.4974  1.5370
 4089TIP3   OH212209   2.358   0.222   2.479  0.3969 -0.2287  0.3290
 4089TIP3    H112210   2.430   0.191   2.424  1.6273  3.8581 -0.7185
 4089TIP3    H212211   2.397   0.233   2.566  0.7811  0.9510  0.0214
 4090TIP3   OH212212   1.306   4.885   0.947  0.5884  0.1407  0.1497
 4090TIP3    H112213   1.293   4.858   1.038 -1.2353  0.4136  0.0142
 4090TIP3    H212214   1.244   4.831   0.898 -1.0121  2.4263 -0.4843
 4091TIP3   OH212215   7.375   1.540   5.826 -0.3754  0.4044  0.3430
 4091TIP3    H112216   7.375   1.587   5.910  1.6052  0.1926  0.5140
 4091TIP3    H212217   7.361   1.449   5.850  0.7561  0.2645  0.5327
 4092TIP3   OH212218   7.691   1.606   2.413 -0.0452  0.2694  0.9058
 4092TIP3    H112219   7.596   1.600   2.411 -0.0006 -0.6136  1.0347
 4092TIP3    H212220   7.709   1.694   2.447 -0.8019  0.7258  0.1393
 4093TIP3   OH212221   0.933   4.946   1.114 -0.4790  0.6783  0.2018
 4093TIP3    H112222   1.018   4.906   1.132  0.2525  0.9078 -2.4344
 4093TIP3    H212223   0.881   4.876   1.074  0.1763  1.7368 -2.6891
 4094TIP3   OH212224   6.753   3.079   4.440 -0.6012  0.4140  0.2719
 4094TIP3    H112225   6.784   3.097   4.528  1.2047 -0.6578 -0.0919
 4094TIP3    H212226   6.740   2.984   4.438 -0.2886  0.3774 -0.6968
 4095TIP3   OH212227   0.268   7.480   4.418  0.1805 -0.1097 -0.1017
 4095TIP3    H112228   0.200   7.521   4.365 -0.1832 -1.2414 -0.5298
 4095TIP3    H212229   0.330   7.445   4.353  0.9373  0.5090  0.2739
 4096TIP3   OH212230   1.230   1.870   1.302  0.1080 -0.5504 -0.3369
 4096TIP3    H112231   1.216   1.965   1.297 -1.4139 -0.6853  0.4966
 4096TIP3    H212232   1.321   1.860   1.328  0.4336  0.6680 -0.9445
 4097TIP3   OH212233   0.525   0.334   3.640  0.1902  0.0385 -0.5736
 4097TIP3    H112234   0.550   0.250   3.599  0.0926 -1.0450  1.4527
 4097TIP3    H212235   0.447   0.362   3.591 -0.1156 -1.3476 -0.9293
 4098TIP3   OH212236   0.488   6.540   2.460 -0.6424 -0.0003 -0.2712
 4098TIP3    H112237   0.546   6.488   2.516  0.4405  1.3313 -0.0939
 4098TIP3    H212238   0.535   6.546   2.376 -1.6655 -0.9195 -0.9345
 4099TIP3   OH212239   4.233   7.105   0.466  0.0159 -0.2874  0.0122
 4099TIP3    H112240   4.269   7.051   0.395 -2.1637 -2.1404  0.2026
 4099TIP3    H212241   4.189   7.177   0.421 -0.7583 -1.0773 -0.5376
 4100TIP3   OH212242   1.610   3.977   4.355  0.4897  0.0748 -0.0300
 4100TIP3    H112243   1.585   4.051   4.300 -0.2721  0.1651  0.4213
 4100TIP3    H212244   1.694   4.002   4.392  0.5259  0.4491 -0.3630
 4101TIP3   OH212245   5.930   3.594   0.621 -0.2771  0.2121 -0.1703
 4101TIP3    H112246   5.989   3.519   0.629  0.1881  0.6463  0.5490
 4101TIP3    H212247   5.939   3.641   0.704 -0.6911  0.9715 -0.5421
 4102TIP3   OH212248   3.414   0.333   5.471 -0.1333 -0.6695 -0.0977
 4102TIP3    H112249   3.455   0.418   5.453  0.1725 -0.4929  1.2951
 4102TIP3    H212250   3.409   0.329   5.566 -0.9128 -1.8650 -0.1677
 4103TIP3   OH212251   6.010   3.574   2.731 -0.4786  0.0230 -0.3435
 4103TIP3    H112252   6.018   3.485   2.767  2.5357  0.1075 -0.5348
 4103TIP3    H212253   6.070   3.575   2.656 -1.1149  1.9929 -0.8895
 4104TIP3   OH212254   6.989   5.374   0.994 -0.4143 -0.4644 -0.0736
 4104TIP3    H112255   7.027   5.287   0.992 -0.3471 -0.4677  0.7837
 4104TIP3    H212256   7.034   5.423   0.925  0.1367 -0.8718 -0.0062
 4105TIP3   OH212257   5.858   4.456   0.917  0.4594 -0.4840 -0.4494
 4105TIP3    H112258   5.811   4.499   0.989 -0.4399  0.0000 -1.3081
 4105TIP3    H212259   5.950   4.477   0.934  0.1663  0.5567 -0.0306
 4106TIP3   OH212260   5.010   4.926   6.341 -0.3695  0.4957 -0.3557
 4106TIP3    H112261   5.019   4.832   6.325  0.7302  0.8907 -2.4019
 4106TIP3    H212262   4.923   4.947   6.308 -1.2921 -0.0228  1.5895
 4107TIP3   OH212263   2.587   0.108   4.344  0.0180 -0.5062  0.2634
 4107TIP3    H112264   2.556   0.026   4.307 -0.7729 -0.0252 -0.1755
 4107TIP3    H212265   2.682   0.105   4.332  0.0482 -1.5614  0.7039
 4108TIP3   OH212266   0.663   3.544   1.747 -0.4290  0.0492 -0.2782
 4108TIP3    H112267   0.708   3.526   1.829 -1.4292 -2.4883 -0.2090
 4108TIP3    H212268   0.598   3.611   1.769 -0.7691 -0.6996  1.0374
 4109TIP3   OH212269   2.663   6.058   3.879 -0.3530  0.0482 -0.3359
 4109TIP3    H112270   2.746   6.103   3.894  0.8984 -2.2235 -0.1246
 4109TIP3    H212271   2.602   6.098   3.941  0.7868  1.1729  0.0876
 4110TIP3   OH212272   6.932   6.449   5.531  0.1035  0.4500  0.5424
 4110TIP3    H112273   6.882   6.447   5.613 -0.4302 -2.2345  0.2559
 4110TIP3    H212274   6.871   6.416   5.465  0.9082  1.3890 -0.6998
 4111TIP3   OH212275   1.901   2.129   3.955  0.7575  0.1468 -0.2025
 4111TIP3    H112276   1.824   2.145   3.901  0.5320  1.7459  0.5285
 4111TIP3    H212277   1.868   2.124   4.045  1.4984  1.0417  0.1374
 4112TIP3   OH212278   3.214   4.675   6.034  0.2203 -0.8966 -0.3754
 4112TIP3    H112279   3.150   4.629   6.088 -0.8249 -0.6803 -1.4151
 4112TIP3    H212280   3.224   4.760   6.076 -0.6775 -0.6856 -0.5744
 4113TIP3   OH212281   6.953   0.888   2.218 -0.7785  0.1993 -0.1779
 4113TIP3    H112282   6.894   0.914   2.288 -0.2374 -1.6629  1.0663
 4113TIP3    H212283   6.939   0.952   2.148 -0.9897  2.4299  1.8034
 4114TIP3   OH212284   4.278   3.001   1.441  0.4188  0.0491 -0.1428
 4114TIP3    H112285   4.222   2.955   1.503  0.4250 -0.5649 -0.5771
 4114TIP3    H212286   4.312   2.932   1.384 -0.1837  0.6852 -1.3042
 4115TIP3   OH212287   1.074   1.733   2.040  0.4265  0.3924 -0.4027
 4115TIP3    H112288   1.105   1.649   2.072 -2.0453 -0.8227 -0.9079
 4115TIP3    H212289   1.132   1.755   1.967  3.8552  1.4142  2.3942
 4116TIP3   OH212290   5.418   0.514   4.580  0.5951  0.7667  0.1394
 4116TIP3    H112291   5.443   0.513   4.672 -1.6920 -0.3378  0.8374
 4116TIP3    H212292   5.323   0.501   4.581  0.6821 -0.8494 -2.4047
 4117TIP3   OH212293   1.168   4.187   3.954  0.7950  0.3937  0.1231
 4117TIP3    H112294   1.212   4.200   3.870 -0.9612 -1.2623 -1.1432
 4117TIP3    H212295   1.082   4.227   3.942  0.6392  0.4293  1.2772
 4118TIP3   OH212296   5.183   3.347   6.176 -0.4070 -0.4326  0.1729
 4118TIP3    H112297   5.217   3.306   6.256 -0.0904 -0.4145  0.0508
 4118TIP3    H212298   5.216   3.292   6.105 -0.6837 -0.4452  0.0544
 4119TIP3   OH212299   3.777   5.629   5.381 -0.2919  0.5233  0.4308
 4119TIP3    H112300   3.688   5.638   5.417 -0.4658 -0.2882  0.2180
 4119TIP3    H212301   3.806   5.543   5.412 -0.5997 -0.3895 -1.6833
 4120TIP3   OH212302   1.999   1.293   0.286  0.1029 -0.5598 -0.2264
 4120TIP3    H112303   2.087   1.327   0.271 -0.2487 -0.1587 -1.4558
 4120TIP3    H212304   1.954   1.302   0.202 -1.0493 -0.9665  0.3158
 4121TIP3   OH212305   3.474   0.899   4.699 -0.5310  0.0574 -0.0871
 4121TIP3    H112306   3.535   0.858   4.761  1.7690 -0.4419 -2.5016
 4121TIP3    H212307   3.421   0.826   4.666 -2.2826  0.4313  1.7046
 4122TIP3   OH212308   4.848   2.429   5.575  0.0878  0.0776  0.2047
 4122TIP3    H112309   4.897   2.497   5.622  0.9211 -0.4163  0.0750
 4122TIP3    H212310   4.776   2.407   5.634  0.5660  0.1511  0.8315
 4123TIP3   OH212311   1.805   0.671   0.859 -0.0727  0.1010  0.2337
 4123TIP3    H112312   1.829   0.583   0.888  2.3810  1.2986  2.2113
 4123TIP3    H212313   1.861   0.687   0.782  0.9750  0.5946  1.0674
 4124TIP3   OH212314   2.985   0.358   2.055  0.0222 -0.0630  0.1233
 4124TIP3    H112315   2.949   0.403   1.979  0.4964 -0.6843 -0.4806
 4124TIP3    H212316   3.076   0.389   2.060 -0.1341  0.3112  0.7054
 4125TIP3   OH212317   6.463   7.571   1.053 -0.2648  0.3036 -0.1977
 4125TIP3    H112318   6.448   7.538   0.964  2.4409 -0.7367 -0.3485
 4125TIP3    H212319   6.551   7.543   1.075  0.2253  2.9571  1.7803
 4126TIP3   OH212320   1.031   1.226   2.006 -0.3861 -0.0169  0.8618
 4126TIP3    H112321   1.108   1.226   2.064 -0.2821 -0.1269  0.7232
 4126TIP3    H212322   0.957   1.222   2.066 -0.2601 -0.8721  0.9685
 4127TIP3   OH212323   3.715   0.360   3.118 -0.6734 -0.3315  0.0205
 4127TIP3    H112324   3.650   0.360   3.188 -1.3764 -0.1811 -0.6271
 4127TIP3    H212325   3.762   0.277   3.130  0.7795  0.6610  2.0621
 4128TIP3   OH212326   5.560   1.596   0.872  0.2591  0.1740  0.9858
 4128TIP3    H112327   5.617   1.626   0.801  0.1488 -0.5269  0.5951
 4128TIP3    H212328   5.473   1.626   0.848  0.0182 -1.1134  0.1992
 4129TIP3   OH212329   6.343   3.398   4.943 -0.1991  0.0321  0.4433
 4129TIP3    H112330   6.351   3.342   4.866  1.4071  0.8838 -0.0645
 4129TIP3    H212331   6.323   3.338   5.014 -2.6992 -0.6857 -0.7367
 4130TIP3   OH212332   2.803   2.156   2.129  0.3381 -0.2056 -0.1942
 4130TIP3    H112333   2.790   2.124   2.218  0.4262 -0.8522 -0.4062
 4130TIP3    H212334   2.891   2.127   2.105  0.2978 -0.0808 -0.5047
 4131TIP3   OH212335   7.742   2.180   6.718 -0.1864 -0.0886 -0.0004
 4131TIP3    H112336   7.759   2.085   6.719 -0.3716 -0.1226  0.0242
 4131TIP3    H212337   7.828   2.220   6.729 -0.2768 -0.2840  1.9080
 4132TIP3   OH212338   2.418   4.790   5.306 -0.2071  0.1876 -0.2220
 4132TIP3    H112339   2.411   4.802   5.211 -1.7196 -0.7529 -0.2633
 4132TIP3    H212340   2.400   4.877   5.342  2.6630  1.1470 -0.7761
 4133TIP3   OH212341   3.393   1.811   5.639  0.5304  0.2476 -0.0609
 4133TIP3    H112342   3.364   1.840   5.553  0.2422  2.8906  0.8456
 4133TIP3    H212343   3.486   1.832   5.643  0.6879 -0.4521  0.0457
 4134TIP3   OH212344   2.064   4.675   3.367 -0.1534 -0.3587  0.4069
 4134TIP3    H112345   1.989   4.685   3.309 -0.1849 -1.6367  0.1935
 4134TIP3    H212346   2.136   4.718   3.322  0.3301 -3.0549 -1.6355
 4135TIP3   OH212347   7.256   4.887   2.436  0.0215 -0.0947  0.9640
 4135TIP3    H112348   7.239   4.981   2.428  0.5454  0.1421  2.3343
 4135TIP3    H212349   7.328   4.881   2.499  0.3930 -1.3948  0.4419
 4136TIP3   OH212350   6.796   4.000   6.363 -0.2620 -0.1081  0.4514
 4136TIP3    H112351   6.728   4.067   6.372  1.4077  1.5281  1.6473
 4136TIP3    H212352   6.878   4.049   6.363  1.0931 -2.1723  2.0712
 4137TIP3   OH212353   1.673   5.509   0.658  0.1392 -0.3566 -0.3463
 4137TIP3    H112354   1.638   5.525   0.746  1.5951 -1.1189  0.4052
 4137TIP3    H212355   1.666   5.414   0.647 -1.8323 -0.1114 -1.8845
 4138TIP3   OH212356   7.770   1.042   6.725 -0.4859  0.2323 -0.2964
 4138TIP3    H112357   7.675   1.053   6.717 -0.6468 -0.8783 -0.0857
 4138TIP3    H212358   7.805   1.076   6.642 -1.1735 -0.5275 -0.9188
 4139TIP3   OH212359   5.897   0.028   4.777 -0.1613 -0.3899  0.4266
 4139TIP3    H112360   5.892  -0.030   4.854  2.1775  0.9794  1.7427
 4139TIP3    H212361   5.818   0.081   4.782 -0.0737 -0.3371  1.9245
 4140TIP3   OH212362   1.622   2.982   1.451  0.1845  0.5765 -0.1887
 4140TIP3    H112363   1.615   2.970   1.546  0.1293  0.4470 -0.2080
 4140TIP3    H212364   1.560   3.052   1.431 -2.4256 -1.6426 -0.5767
 4141TIP3   OH212365   4.509   3.003   4.689  0.5296 -0.4639  0.1685
 4141TIP3    H112366   4.510   2.913   4.654 -1.5019 -0.5038  0.1105
 4141TIP3    H212367   4.505   3.059   4.611 -0.3322 -0.4254  0.2274
 4142TIP3   OH212368   3.426   4.038   6.111 -0.1208 -0.3051  0.2104
 4142TIP3    H112369   3.479   4.004   6.183 -1.3006 -0.3164  1.0931
 4142TIP3    H212370   3.368   3.966   6.088  2.2332 -1.4726 -2.8876
 4143TIP3   OH212371   4.777   2.378   4.633 -0.2579 -0.8080  0.1497
 4143TIP3    H112372   4.696   2.423   4.657 -0.0435 -0.3413  0.0100
 4143TIP3    H212373   4.822   2.363   4.717 -0.3607 -0.8244  0.2016
 4144TIP3   OH212374   0.568   6.126   3.564  0.2565  0.1675 -0.3264
 4144TIP3    H112375   0.603   6.161   3.482  0.3081 -1.2873 -0.9555
 4144TIP3    H212376   0.559   6.202   3.621  3.5817  0.7590 -0.4211
 4145TIP3   OH212377   4.883   3.849   6.721  0.1321  0.3111 -0.5568
 4145TIP3    H112378   4.791   3.874   6.716 -0.2372 -0.1503  2.3390
 4145TIP3    H212379   4.881   3.753   6.724  0.7470  0.2874 -0.7542
 4146TIP3   OH212380   3.759   3.418   0.452  0.4476 -0.6683  0.1210
 4146TIP3    H112381   3.725   3.337   0.490  0.4356 -0.9070 -0.3867
 4146TIP3    H212382   3.822   3.450   0.517 -1.1965  0.1437  1.3970
 4147TIP3   OH212383   2.882   5.394   4.598 -0.5159  0.0915 -0.2193
 4147TIP3    H112384   2.900   5.305   4.569 -0.6429  0.5909 -1.9300
 4147TIP3    H212385   2.846   5.438   4.521 -1.2472  1.3988  0.8176
 4148TIP3   OH212386   5.341   2.440   2.801  0.2147  0.2008  0.5742
 4148TIP3    H112387   5.305   2.352   2.792  1.4054 -0.3254  0.7478
 4148TIP3    H212388   5.394   2.437   2.881  1.6560  0.5577 -0.3229
 4149TIP3   OH212389   3.221   2.206   6.220  0.5506  0.0861  0.0082
 4149TIP3    H112390   3.265   2.160   6.291  1.5093 -1.0693 -1.2903
 4149TIP3    H212391   3.159   2.142   6.185 -0.1162  0.7403 -0.0381
 4150TIP3   OH212392   5.131   5.744   0.710 -0.0415  0.1785  0.1213
 4150TIP3    H112393   5.150   5.812   0.774  1.1037 -0.3470  0.3517
 4150TIP3    H212394   5.165   5.778   0.627 -1.0810  0.6417 -0.1407
 4151TIP3   OH212395   7.515   2.499   1.368  0.7794  0.0394 -0.0274
 4151TIP3    H112396   7.570   2.526   1.442 -0.2397  0.1039  0.7361
 4151TIP3    H212397   7.563   2.528   1.290  1.9796 -0.2135  0.5900
 4152TIP3   OH212398   8.202   7.131   3.411 -0.2756  0.8078 -0.0311
 4152TIP3    H112399   8.274   7.165   3.465 -1.3933  1.7306  0.9306
 4152TIP3    H212400   8.123   7.170   3.449 -1.2155  0.5306 -1.6104
 4153TIP3   OH212401   7.285   4.699   4.825  0.0355 -0.2593 -0.3750
 4153TIP3    H112402   7.345   4.685   4.899  2.0101  0.2305 -1.7999
 4153TIP3    H212403   7.315   4.780   4.785 -3.2119  1.4233  0.2690
 4154TIP3   OH212404   0.796   6.355   2.032  0.0579 -0.2658  0.1301
 4154TIP3    H112405   0.835   6.423   1.977 -2.7901  1.0136 -0.4721
 4154TIP3    H212406   0.809   6.274   1.983 -1.7192  0.7380 -2.1805
 4155TIP3   OH212407   2.864   4.539   5.564  0.2996  0.2104  0.1375
 4155TIP3    H112408   2.809   4.542   5.486 -0.1913  0.5507  0.4895
 4155TIP3    H212409   2.944   4.584   5.539  0.0799  0.4605 -0.1264
 4156TIP3   OH212410   4.286   0.019   4.449 -0.0955  0.5383  0.5339
 4156TIP3    H112411   4.231   0.095   4.469  0.6841  1.0645  0.7062
 4156TIP3    H212412   4.373   0.056   4.431  0.1231 -0.2526 -0.0926
 4157TIP3   OH212413   6.892   4.937   3.257  0.2365 -0.2387  0.1313
 4157TIP3    H112414   6.836   4.941   3.334 -0.6195 -0.7052 -0.4457
 4157TIP3    H212415   6.869   5.016   3.207  0.7658  0.0466  0.3374
 4158TIP3   OH212416   2.069   6.455   3.449  0.0973 -0.6434 -0.3754
 4158TIP3    H112417   2.127   6.386   3.418  1.3100  1.1087 -2.2244
 4158TIP3    H212418   2.121   6.503   3.513 -0.2008 -0.5144 -0.2282
 4159TIP3   OH212419   4.975   5.379   1.878  0.3573  0.2890  0.1811
 4159TIP3    H112420   4.997   5.295   1.918  1.6702  0.1780 -0.6862
 4159TIP3    H212421   4.910   5.418   1.936  0.3335 -0.9669  1.0254
 4160TIP3   OH212422   6.382   2.218   5.414 -0.0535 -0.2337 -0.2265
 4160TIP3    H112423   6.420   2.296   5.453 -0.1974 -1.3595  2.3831
 4160TIP3    H212424   6.304   2.249   5.367 -0.6600  1.1208  1.5762
 4161TIP3   OH212425   5.206   3.922   4.173 -0.1797  0.2377 -0.4483
 4161TIP3    H112426   5.206   3.942   4.266 -0.8505 -0.5634 -0.2576
 4161TIP3    H212427   5.194   3.827   4.169 -0.6371  0.3222 -1.3498
 4162TIP3   OH212428   5.690   2.508   3.121  0.1916 -0.0147  0.1325
 4162TIP3    H112429   5.688   2.520   3.026  0.7505 -0.0361  0.1138
 4162TIP3    H212430   5.783   2.513   3.144  0.3684 -2.7143  0.3229
 4163TIP3   OH212431   0.787   4.823   1.958  0.1621 -0.1234  0.3612
 4163TIP3    H112432   0.883   4.819   1.957  0.1383 -0.7148 -0.0092
 4163TIP3    H212433   0.759   4.732   1.968 -0.3573  0.1228  1.2300
 4164TIP3   OH212434   0.748   6.269   3.804  0.0722  0.2706 -0.5692
 4164TIP3    H112435   0.833   6.259   3.762  0.4600  0.3661  0.1760
 4164TIP3    H212436   0.730   6.184   3.843  0.3431  0.5562  0.2022
 4165TIP3   OH212437   6.646   7.780   3.337  0.0078  0.0058 -0.2362
 4165TIP3    H112438   6.611   7.835   3.267  0.4045 -0.7779 -1.0693
 4165TIP3    H212439   6.730   7.749   3.303  0.3561 -0.1322  0.7232
 4166TIP3   OH212440   5.222   2.999   1.164  0.1283  0.3321 -0.2657
 4166TIP3    H112441   5.283   3.049   1.218  1.4986  0.7926 -2.1303
 4166TIP3    H212442   5.257   2.910   1.165  0.6852  0.5254 -1.0556
 4167TIP3   OH212443   7.848   1.019   0.533  0.4231 -0.6439  0.3025
 4167TIP3    H112444   7.851   0.970   0.615  1.2085 -0.1607  0.5724
 4167TIP3    H212445   7.921   1.080   0.539 -0.1206  0.0822 -0.3319
 4168TIP3   OH212446   7.176   4.740   3.741  0.4183  0.3729  0.1595
 4168TIP3    H112447   7.123   4.818   3.729 -0.1513  0.0298  0.4013
 4168TIP3    H212448   7.266   4.771   3.737  0.2453  0.7674 -1.6396
 4169TIP3   OH212449   4.759   4.741   2.083 -0.3322 -0.0395  0.1238
 4169TIP3    H112450   4.690   4.694   2.036 -0.5998 -0.2332  0.7003
 4169TIP3    H212451   4.723   4.755   2.171  1.3014 -2.5196  1.3356
 4170TIP3   OH212452   5.867   0.558   6.347 -0.3154 -0.0218  0.6695
 4170TIP3    H112453   5.938   0.615   6.317  0.7748 -1.1555  1.0293
 4170TIP3    H212454   5.866   0.570   6.442 -0.1184 -0.5686  0.7395
 4171TIP3   OH212455   4.735   3.675   0.734  0.3268 -0.5860 -0.2211
 4171TIP3    H112456   4.776   3.674   0.821  0.9712  0.7029 -0.4951
 4171TIP3    H212457   4.799   3.633   0.677  0.4985 -0.1885 -0.3225
 4172TIP3   OH212458   4.933   7.186   2.838  0.3382 -0.3212  0.5402
 4172TIP3    H112459   4.923   7.098   2.874  0.9131 -0.5627  0.1163
 4172TIP3    H212460   4.850   7.203   2.793 -0.0211 -0.3860  1.1746
 4173TIP3   OH212461   4.816   5.055   5.482 -0.3874 -0.3375 -0.5734
 4173TIP3    H112462   4.775   4.988   5.536  0.9279 -0.4690  0.2951
 4173TIP3    H212463   4.903   5.066   5.519  0.8965 -1.0484 -3.2004
 4174TIP3   OH212464   4.094   1.214   1.412 -0.4268  0.0229 -0.3684
 4174TIP3    H112465   4.185   1.183   1.409 -0.8424 -1.2577 -0.2607
 4174TIP3    H212466   4.096   1.296   1.363  1.0514  0.7435  0.8088
 4175TIP3   OH212467   3.044   1.410   4.635  0.3109 -0.2798 -0.2490
 4175TIP3    H112468   3.026   1.485   4.691 -1.9989  0.0076 -1.2484
 4175TIP3    H212469   3.077   1.342   4.694  2.3772  1.4398  0.6771
 4176TIP3   OH212470   4.429   0.836   6.231 -0.0808  0.9876  0.3764
 4176TIP3    H112471   4.400   0.746   6.244 -0.2988  1.0144  0.0743
 4176TIP3    H212472   4.421   0.851   6.136  2.2586  0.5188  0.0366
 4177TIP3   OH212473   1.384   3.551   3.890  0.1554  0.4962 -0.3461
 4177TIP3    H112474   1.454   3.617   3.893  0.4183  0.2190 -0.2404
 4177TIP3    H212475   1.376   3.521   3.981 -0.9400  1.3818 -0.1375
 4178TIP3   OH212476   4.315   3.283   4.223  0.6219 -0.7450 -0.1172
 4178TIP3    H112477   4.405   3.309   4.204  0.1699  0.8915 -0.2011
 4178TIP3    H212478   4.295   3.328   4.305  0.1449 -1.7593  0.3241
 4179TIP3   OH212479   2.395   5.333   3.191 -0.2064  0.0053 -0.0518
 4179TIP3    H112480   2.344   5.398   3.145  0.5962  0.0863 -0.8628
 4179TIP3    H212481   2.486   5.363   3.183  0.1065 -0.8371  0.1681
 4180TIP3   OH212482   4.429   4.918   4.952 -0.6143  0.0653 -0.4047
 4180TIP3    H112483   4.341   4.943   4.922 -2.0602 -1.3256  2.3224
 4180TIP3    H212484   4.421   4.826   4.977  1.8393 -0.2987 -0.7071
 4181TIP3   OH212485   1.435   0.101   6.698  0.5140  0.4981  0.2120
 4181TIP3    H112486   1.493   0.143   6.634  1.2435  1.5561  1.5149
 4181TIP3    H212487   1.482   0.021   6.724 -0.2309 -0.4490 -1.2430
 4182TIP3   OH212488   0.320   5.093   3.710 -0.8076  0.0732  0.0220
 4182TIP3    H112489   0.235   5.128   3.684 -1.2136 -0.9076 -0.0278
 4182TIP3    H212490   0.360   5.162   3.761 -0.6564  1.4741 -1.8669
 4183TIP3   OH212491   5.311   3.390   0.393 -0.2426  0.4900  0.2629
 4183TIP3    H112492   5.382   3.326   0.392  0.7211  1.5284  0.2435
 4183TIP3    H212493   5.320   3.437   0.310 -2.8774 -1.3596 -1.2171
 4184TIP3   OH212494   7.724   2.628   1.184  0.0877  0.1311 -0.3007
 4184TIP3    H112495   7.772   2.661   1.259 -0.3855 -1.3711  0.7131
 4184TIP3    H212496   7.674   2.703   1.152  0.4044  0.8319  0.7872
 4185TIP3   OH212497   2.544   1.335   5.151  0.3367  0.0592 -0.6289
 4185TIP3    H112498   2.459   1.380   5.151  1.0694  1.5726  1.1109
 4185TIP3    H212499   2.523   1.244   5.129 -1.7729  0.3483 -0.0450
 4186TIP3   OH212500   3.965   6.741   3.556  0.0780 -0.2255  0.0292
 4186TIP3    H112501   4.043   6.782   3.596  1.0800 -1.2903 -0.7679
 4186TIP3    H212502   3.902   6.734   3.628  0.1401  1.9954  0.3698
 4187TIP3   OH212503   7.689   6.160   3.055 -0.2465  0.2583 -0.5127
 4187TIP3    H112504   7.741   6.114   2.990  0.3109 -0.3531  0.3369
 4187TIP3    H212505   7.614   6.102   3.072  0.7857 -0.7195  1.0293
 4188TIP3   OH212506   2.013   1.461   5.700 -0.1019  0.2200  0.0604
 4188TIP3    H112507   1.992   1.368   5.702  0.0272  0.1757 -0.4477
 4188TIP3    H212508   2.064   1.473   5.620 -1.3547  0.9834 -0.6637
 4189TIP3   OH212509   4.029   5.771   3.003 -0.1399 -0.0379  0.0159
 4189TIP3    H112510   3.938   5.788   2.979 -0.6148 -0.3089  1.5197
 4189TIP3    H212511   4.046   5.832   3.075  0.8550 -0.0219 -0.2282
 4190TIP3   OH212512   7.493   0.074   5.681 -0.1854 -0.6848  0.5405
 4190TIP3    H112513   7.573   0.033   5.713  0.5445  0.0217 -0.3314
 4190TIP3    H212514   7.486   0.155   5.730 -0.1798 -0.5832  0.3733
 4191TIP3   OH212515   2.748   6.732   0.514  0.2225 -0.2740 -0.6070
 4191TIP3    H112516   2.743   6.798   0.444 -1.5832 -0.1699 -0.4293
 4191TIP3    H212517   2.831   6.750   0.558 -0.6807  2.6623  0.1283
 4192TIP3   OH212518   4.206   5.079   6.037  0.4516  0.0607  0.2414
 4192TIP3    H112519   4.186   4.987   6.053 -0.3674  0.3647  0.9598
 4192TIP3    H212520   4.212   5.118   6.124 -4.1138  1.7391  0.0605
 4193TIP3   OH212521   7.626   5.080   1.765  0.7219 -0.2102 -0.1275
 4193TIP3    H112522   7.681   5.060   1.690  0.4409  0.5638 -0.5540
 4193TIP3    H212523   7.622   4.999   1.815  2.9464 -0.0738  0.3756
 4194TIP3   OH212524   6.840   6.372   1.785 -0.7242  0.5755 -0.3390
 4194TIP3    H112525   6.843   6.288   1.739  2.7469 -0.0472  0.7616
 4194TIP3    H212526   6.823   6.348   1.876 -1.8840  1.3292 -0.3288
 4195TIP3   OH212527   1.400   5.898   1.911  0.0109 -0.0326 -0.0296
 4195TIP3    H112528   1.462   5.914   1.982 -1.4702  2.8894  0.7952
 4195TIP3    H212529   1.364   5.812   1.929 -0.0674  0.4765  2.6268
 4196TIP3   OH212530   3.406   5.132   2.929  0.8383 -0.5170  0.0805
 4196TIP3    H112531   3.431   5.184   2.853  0.7485  1.1084  1.1261
 4196TIP3    H212532   3.312   5.119   2.919  0.4790  1.2615  0.7915
 4197TIP3   OH212533   5.584   5.427   2.511  0.0527  0.2198 -0.1599
 4197TIP3    H112534   5.675   5.395   2.511  0.6763  1.8351  1.2880
 4197TIP3    H212535   5.552   5.406   2.598 -0.7129  0.3647 -0.4046
 4198TIP3   OH212536   3.181   0.123   1.759  0.3503 -0.1062  0.2547
 4198TIP3    H112537   3.269   0.153   1.781 -0.5228  1.4442  1.9369
 4198TIP3    H212538   3.145   0.091   1.842 -0.6852 -0.7175 -0.4038
 4199TIP3   OH212539   6.467   7.596   4.742  0.1739 -0.8524  0.3453
 4199TIP3    H112540   6.435   7.507   4.728  1.2190 -1.2204  0.2022
 4199TIP3    H212541   6.560   7.585   4.760  0.0788  0.1223  1.5255
 4200TIP3   OH212542   6.641   2.642   4.306 -0.3375  0.1313 -0.2854
 4200TIP3    H112543   6.641   2.630   4.211  0.6015 -0.5206 -0.2145
 4200TIP3    H212544   6.558   2.686   4.324  0.2392  1.9180 -1.5993
 4201TIP3   OH212545   2.112   7.058   6.447 -0.5519  0.2595  0.3349
 4201TIP3    H112546   2.188   7.068   6.390 -0.3515 -0.6199  0.4326
 4201TIP3    H212547   2.144   7.005   6.520 -1.3451 -0.4388  0.1879
 4202TIP3   OH212548   7.832   1.686   2.921 -0.8445 -0.0994 -0.0847
 4202TIP3    H112549   7.829   1.642   3.006 -0.6953  0.6187  0.2945
 4202TIP3    H212550   7.789   1.624   2.861  2.9546 -2.7148 -0.4539
 4203TIP3   OH212551   5.460   7.361   4.094  0.4447  0.6521 -0.5456
 4203TIP3    H112552   5.463   7.356   4.190  1.0810 -0.7921 -0.6046
 4203TIP3    H212553   5.441   7.452   4.075  3.2162  1.6262  0.8972
 4204TIP3   OH212554   7.507   2.033   4.864 -0.3628  0.1356  0.0637
 4204TIP3    H112555   7.441   1.973   4.900 -0.0834 -1.4394 -1.8615
 4204TIP3    H212556   7.478   2.049   4.774  2.2049 -1.2857 -1.1408
 4205TIP3   OH212557   7.688   2.596   1.558  0.7696 -0.6352  0.0971
 4205TIP3    H112558   7.776   2.571   1.585  1.6563 -0.4296 -2.3972
 4205TIP3    H212559   7.698   2.683   1.520 -0.2449 -1.1255 -1.3755
 4206TIP3   OH212560   8.112   5.552   5.710 -0.0795 -0.0773 -0.4251
 4206TIP3    H112561   8.050   5.613   5.751  0.1563 -0.8813  1.2146
 4206TIP3    H212562   8.058   5.499   5.651 -0.6503  0.3078 -0.2587
 4207TIP3   OH212563   0.273   4.869   6.359 -0.2146  0.1998  0.0815
 4207TIP3    H112564   0.306   4.779   6.363 -1.7725 -0.4072 -0.1979
 4207TIP3    H212565   0.266   4.896   6.451  0.6985  0.2301  0.1573
 4208TIP3   OH212566   8.286   0.595   2.256  0.4721 -0.0360 -0.2801
 4208TIP3    H112567   8.320   0.683   2.272 -0.5238  0.0162  1.9694
 4208TIP3    H212568   8.191   0.606   2.256  0.3180 -0.7815 -2.4934
 4209TIP3   OH212569   4.542   4.802   5.459 -0.1160 -0.3552  0.2030
 4209TIP3    H112570   4.611   4.821   5.522 -0.5309 -0.7816  0.7910
 4209TIP3    H212571   4.512   4.888   5.428  1.7156 -0.1679 -1.2264
 4210TIP3   OH212572   7.107   3.858   6.604 -0.7843  0.1834 -0.0188
 4210TIP3    H112573   7.193   3.861   6.562 -0.8152 -0.1050 -0.0997
 4210TIP3    H212574   7.050   3.815   6.540 -0.5084 -1.6091  0.8896
 4211TIP3   OH212575   6.445   6.103   3.863 -0.1587 -0.3430  0.8115
 4211TIP3    H112576   6.532   6.068   3.841 -0.0540  0.3345  0.0663
 4211TIP3    H212577   6.393   6.089   3.784 -1.1730 -2.0529  1.7387
 4212TIP3   OH212578   2.370   2.134   4.933  0.2560 -0.5658 -0.0293
 4212TIP3    H112579   2.346   2.201   4.998 -1.1609 -2.5475  1.6333
 4212TIP3    H212580   2.464   2.123   4.945 -0.0763 -1.4766  2.4152
 4213TIP3   OH212581   6.641   4.732   2.900  0.1526 -0.0612 -0.2552
 4213TIP3    H112582   6.692   4.716   2.979 -1.6209 -0.7777  0.8124
 4213TIP3    H212583   6.647   4.826   2.887 -1.5045  0.4938  2.2359
 4214TIP3   OH212584   7.310   1.241   0.686  0.3018 -0.0582  0.2173
 4214TIP3    H112585   7.220   1.241   0.653 -0.0458  0.4206  1.1269
 4214TIP3    H212586   7.358   1.187   0.624  0.0282  2.0816 -2.0382
 4215TIP3   OH212587   2.982   0.031   3.959 -0.3402 -0.1320 -0.0079
 4215TIP3    H112588   2.889   0.010   3.973 -0.2530 -1.0697 -0.7558
 4215TIP3    H212589   2.981   0.117   3.919 -0.8218  0.4008  1.0880
 4216TIP3   OH212590   0.940   0.777   4.919  0.4458 -0.1469 -0.3399
 4216TIP3    H112591   0.874   0.821   4.972 -0.5610 -1.2651 -0.6281
 4216TIP3    H212592   0.988   0.848   4.878  0.2157  0.7115  0.8120
 4217TIP3   OH212593   1.496   2.256   4.666  0.0590  0.4642  0.4075
 4217TIP3    H112594   1.466   2.224   4.751 -0.3975 -1.5176 -0.4368
 4217TIP3    H212595   1.536   2.341   4.685  0.6219 -0.2375  2.6993
 4218TIP3   OH212596   2.261   4.779   6.641 -0.6291  0.1146 -0.6086
 4218TIP3    H112597   2.187   4.817   6.594 -1.3094 -1.1510 -0.5980
 4218TIP3    H212598   2.251   4.685   6.628  0.0355 -0.1625  0.7997
 4219TIP3   OH212599   1.198   0.026   6.334  0.4319 -0.6861 -0.0297
 4219TIP3    H112600   1.164   0.025   6.245 -0.8775 -0.1718  0.4326
 4219TIP3    H212601   1.265  -0.042   6.336  0.0779 -1.0869 -1.2425
 4220TIP3   OH212602   1.949   1.030   1.724  0.0530 -0.0177  0.0207
 4220TIP3    H112603   1.915   1.095   1.786 -0.0093 -0.5606  0.5620
 4220TIP3    H212604   2.042   1.022   1.745  0.7090  1.8687 -1.8150
 4221TIP3   OH212605   7.924   4.804   5.377 -0.6044 -0.2080 -0.6893
 4221TIP3    H112606   7.968   4.889   5.370 -0.7421 -0.0273  0.5546
 4221TIP3    H212607   7.987   4.742   5.340  0.6825  0.0533  0.9526
 4222TIP3   OH212608   1.489   4.701   0.515  0.3970  0.1417 -0.1766
 4222TIP3    H112609   1.425   4.744   0.572  1.9848  0.7382  1.2393
 4222TIP3    H212610   1.486   4.609   0.541  1.3587  0.4662  1.1692
 4223TIP3   OH212611   7.502   7.614   2.948  0.4541 -0.4039 -0.5797
 4223TIP3    H112612   7.489   7.688   2.889 -1.9730  1.1894  1.7253
 4223TIP3    H212613   7.417   7.569   2.950  0.8511 -1.1523  0.6981
 4224TIP3   OH212614   7.266   7.227   1.656  0.1721 -0.2197 -0.2833
 4224TIP3    H112615   7.195   7.267   1.707  1.7009  0.7574  1.2059
 4224TIP3    H212616   7.225   7.155   1.610 -2.4934  2.2156 -2.0699
 4225TIP3   OH212617   1.125   5.101   4.566  0.0304  0.1211 -0.5792
 4225TIP3    H112618   1.196   5.047   4.531 -0.7554 -2.7114  1.7383
 4225TIP3    H212619   1.170   5.174   4.610  1.4270 -0.6942 -0.5878
 4226TIP3   OH212620   1.765   1.482   1.547 -0.1302  0.0925 -0.1511
 4226TIP3    H112621   1.827   1.460   1.617  0.0075  2.6345  0.6404
 4226TIP3    H212622   1.779   1.414   1.481  3.4043  0.4120  0.0616
 4227TIP3   OH212623   7.113   5.878   6.727  0.2876  0.1517 -0.6846
 4227TIP3    H112624   7.140   5.786   6.723 -0.6979 -0.3010  1.5902
 4227TIP3    H212625   7.169   5.917   6.794 -1.3437  0.3823  0.6197
 4228TIP3   OH212626   3.921   5.416   6.193  0.3109 -0.0292  0.0266
 4228TIP3    H112627   3.892   5.502   6.223  0.4752  0.7209 -1.8313
 4228TIP3    H212628   3.932   5.365   6.273  0.1216  1.6483  1.1681
 4229TIP3   OH212629   2.478   7.726   1.284 -0.2654 -0.8589 -0.5147
 4229TIP3    H112630   2.506   7.635   1.286  0.5999 -0.6105 -0.5975
 4229TIP3    H212631   2.542   7.769   1.226  0.4410  0.1456  0.9341
 4230TIP3   OH212632   7.562   7.037   5.659  0.4789  0.1222 -0.6143
 4230TIP3    H112633   7.524   7.094   5.725 -0.8270 -2.0411  0.5982
 4230TIP3    H212634   7.644   7.006   5.698  1.4950  1.5268 -1.5153
 4231TIP3   OH212635   3.945   0.131   6.018 -0.2493 -0.0077 -0.2422
 4231TIP3    H112636   3.910   0.156   6.103  0.3612 -1.0193  0.3233
 4231TIP3    H212637   3.975   0.213   5.979  2.2663  0.1710  1.7946
 4232TIP3   OH212638   4.133   1.831   5.297 -0.0083 -0.0213 -0.3094
 4232TIP3    H112639   4.124   1.761   5.362 -0.1063 -1.1140 -1.4627
 4232TIP3    H212640   4.043   1.850   5.270  0.1112 -0.5193 -1.0847
 4233TIP3   OH212641   3.616   1.333   2.669 -0.0131  0.2126 -0.7471
 4233TIP3    H112642   3.708   1.308   2.666 -0.3122 -0.9185 -2.2873
 4233TIP3    H212643   3.571   1.254   2.701 -0.4289  0.8474  0.2700
 4234TIP3   OH212644   2.995   6.653   6.147  0.2781 -0.0869  0.1192
 4234TIP3    H112645   2.951   6.600   6.214  0.2482  0.1426  0.2837
 4234TIP3    H212646   2.942   6.641   6.069  0.0970 -0.0575  0.2360
 4235TIP3   OH212647   6.624   6.313   2.761  0.4276  0.0091 -0.5604
 4235TIP3    H112648   6.626   6.338   2.669 -3.6147 -1.2096 -1.1676
 4235TIP3    H212649   6.546   6.356   2.797 -0.3635 -2.6411  1.2044
 4236TIP3   OH212650   4.070   5.372   4.539  0.0032 -0.2786  0.0495
 4236TIP3    H112651   4.056   5.407   4.627  0.7928 -0.2830  0.1862
 4236TIP3    H212652   4.154   5.326   4.545  0.2795  0.1029 -0.8208
 4237TIP3   OH212653   0.411   5.194   2.365 -0.4008  0.3278  0.3286
 4237TIP3    H112654   0.334   5.183   2.309  0.2891 -1.1708 -0.3763
 4237TIP3    H212655   0.379   5.175   2.453 -1.2993  1.8741  0.3856
 4238TIP3   OH212656   4.004   6.359   6.439 -0.4463  0.2341 -0.0813
 4238TIP3    H112657   3.985   6.452   6.431 -0.1601  0.3010  0.0087
 4238TIP3    H212658   4.015   6.345   6.533 -3.5204 -0.4888  0.2593
 4239TIP3   OH212659   5.259   6.110   0.685  0.0294  0.5233 -0.2337
 4239TIP3    H112660   5.180   6.164   0.674  0.5842  1.8648  1.7087
 4239TIP3    H212661   5.271   6.067   0.600 -2.0605  1.2635 -0.9723
 4240TIP3   OH212662   3.977   4.071   2.193 -0.0661  0.3209 -0.0991
 4240TIP3    H112663   3.977   3.994   2.136  3.0378 -0.2027  0.4393
 4240TIP3    H212664   3.893   4.113   2.176 -1.9851 -3.2224 -0.3040
 4241TIP3   OH212665   1.824   6.369   3.532  0.4904  0.0283  0.0336
 4241TIP3    H112666   1.819   6.423   3.611  0.1233 -1.7856  1.3178
 4241TIP3    H212667   1.917   6.369   3.510  0.6303  0.3752  0.5930
 4242TIP3   OH212668   5.645   0.636   1.814 -0.1881 -0.1453  0.2212
 4242TIP3    H112669   5.626   0.543   1.814 -1.8157  0.1467 -1.1778
 4242TIP3    H212670   5.571   0.676   1.860 -0.4543  0.6013 -0.8180
 4243TIP3   OH212671   4.261   5.963   4.388  0.0096 -0.6386 -0.3430
 4243TIP3    H112672   4.236   6.028   4.454 -2.0931 -2.1483  0.4743
 4243TIP3    H212673   4.354   5.947   4.404  0.0377  0.5464  0.9029
 4244TIP3   OH212674   0.765   7.546   0.750  0.9051 -0.2403  0.0401
 4244TIP3    H112675   0.832   7.492   0.794  1.3275  2.0375  2.4166
 4244TIP3    H212676   0.691   7.545   0.810  0.3383  0.5483 -0.6321
 4245TIP3   OH212677   2.619   1.075   5.575 -0.1574 -0.4361 -0.0320
 4245TIP3    H112678   2.682   1.078   5.503 -1.2147  0.7742 -0.9618
 4245TIP3    H212679   2.661   1.022   5.642  1.8657  0.3676 -0.5910
 4246TIP3   OH212680   1.806   0.514   6.215  0.3787 -0.0265  0.2311
 4246TIP3    H112681   1.877   0.453   6.196  0.9931  0.0649  2.0545
 4246TIP3    H212682   1.812   0.581   6.147 -0.0241 -1.7103 -1.5503
 4247TIP3   OH212683   2.322   1.896   5.183  0.1113  0.1742 -0.6631
 4247TIP3    H112684   2.406   1.867   5.148 -0.6446  1.0264 -3.4275
 4247TIP3    H212685   2.337   1.987   5.209  0.1173  0.2426 -0.9033
 4248TIP3   OH212686   6.080   5.683   0.529  0.2069 -0.1355 -0.2257
 4248TIP3    H112687   6.032   5.766   0.529  0.0659 -0.2178  0.1954
 4248TIP3    H212688   6.170   5.707   0.551 -0.0679 -0.2291  1.0307
 4249TIP3   OH212689   6.035   1.207   0.325 -0.1130  0.4253  0.3612
 4249TIP3    H112690   6.045   1.245   0.238  1.3504  0.7720  0.6515
 4249TIP3    H212691   5.943   1.181   0.330 -0.1649  0.1905 -1.3698
 4250TIP3   OH212692   1.620   0.843   0.759 -0.0995 -0.5249  0.0490
 4250TIP3    H112693   1.688   0.909   0.747 -0.3764  0.1014  1.6662
 4250TIP3    H212694   1.664   0.770   0.804 -0.1001 -0.8858 -0.5243
 4251TIP3   OH212695   7.388   4.238   0.528 -0.3385  0.3769  0.0969
 4251TIP3    H112696   7.376   4.304   0.596 -0.4064  1.5601 -1.0221
 4251TIP3    H212697   7.475   4.257   0.492 -0.7981  0.5675 -0.9535
 4252TIP3   OH212698   7.818   0.289   2.440 -0.2017 -1.4598  0.3255
 4252TIP3    H112699   7.842   0.371   2.396 -0.4335  0.0817  2.8588
 4252TIP3    H212700   7.723   0.284   2.432 -0.6738  0.5474  3.1952
 4253TIP3   OH212701   6.098   7.235   3.130  0.1353 -0.1509 -0.1664
 4253TIP3    H112702   6.030   7.245   3.196 -0.9715 -0.7042 -1.1926
 4253TIP3    H212703   6.150   7.315   3.137  0.2622 -0.3346  1.5787
 4254TIP3   OH212704   5.144   5.465   1.312  0.0346 -0.0530 -0.4616
 4254TIP3    H112705   5.103   5.414   1.382 -0.7765  1.0307 -0.1207
 4254TIP3    H212706   5.164   5.401   1.244  0.7129 -1.1108  0.6934
 4255TIP3   OH212707   6.818   6.833   4.329 -0.1440 -0.3086 -0.4209
 4255TIP3    H112708   6.765   6.825   4.408  0.9919 -0.9458  0.2912
 4255TIP3    H212709   6.805   6.750   4.283  0.8444 -0.8047  0.1601
 4256TIP3   OH212710   2.058   6.710   1.647 -0.1441  0.1014 -0.3454
 4256TIP3    H112711   2.114   6.709   1.724  0.3683  0.5103 -0.7064
 4256TIP3    H212712   2.023   6.621   1.641  1.5526 -0.5572 -0.9046
 4257TIP3   OH212713   0.105   6.281   0.809  0.4425 -0.5602  0.0352
 4257TIP3    H112714   0.184   6.333   0.794  0.8610 -0.7323  1.5287
 4257TIP3    H212715   0.044   6.311   0.742  1.1816  0.7948 -0.0658
 4258TIP3   OH212716   5.050   4.214   0.293  0.5951  0.1610  0.2057
 4258TIP3    H112717   5.109   4.142   0.270 -0.4243 -1.2265  1.6949
 4258TIP3    H212718   4.986   4.175   0.353 -0.3916  2.1716  0.5666
 4259TIP3   OH212719   6.693   0.586   0.590  0.4614 -0.1362  0.2806
 4259TIP3    H112720   6.653   0.629   0.514 -2.8845 -0.6686  1.5565
 4259TIP3    H212721   6.713   0.657   0.650 -0.7364  0.0230  0.5165
 4260TIP3   OH212722   5.526   6.877   3.824  0.0757 -0.2134  0.0633
 4260TIP3    H112723   5.508   6.810   3.890  0.0514  0.9843  1.3100
 4260TIP3    H212724   5.621   6.881   3.819  0.0808 -0.1174  0.2281
 4261TIP3   OH212725   0.158   5.489   2.482  0.0239 -0.0970 -0.1762
 4261TIP3    H112726   0.113   5.433   2.546 -0.4426 -0.4444 -0.8018
 4261TIP3    H212727   0.251   5.481   2.505 -0.1680  0.1381  0.7382
 4262TIP3   OH212728   1.828   1.031   2.809  0.7375 -0.5017 -0.3823
 4262TIP3    H112729   1.896   1.037   2.742  0.0268  0.6795 -1.0047
 4262TIP3    H212730   1.769   1.103   2.791  0.3455 -0.3550  1.3222
 4263TIP3   OH212731   3.319   7.421   0.386  0.3905 -0.1564 -0.1296
 4263TIP3    H112732   3.391   7.381   0.435 -0.3014 -1.2517  0.0109
 4263TIP3    H212733   3.289   7.353   0.326  0.3815  0.7490 -1.1904
 4264TIP3   OH212734   6.360   1.100   2.508  0.0165 -0.1498 -0.4045
 4264TIP3    H112735   6.387   1.015   2.544  1.0104 -0.4790 -1.8619
 4264TIP3    H212736   6.406   1.107   2.425 -0.9209  1.3400 -0.8372
 4265TIP3   OH212737   5.035   6.751   1.360 -0.0069  0.4078  0.1649
 4265TIP3    H112738   4.986   6.677   1.325  0.8433  0.0277 -0.2400
 4265TIP3    H212739   5.109   6.711   1.406 -0.1162  0.9684  0.8413
 4266TIP3   OH212740   3.949   7.676   5.616 -0.0824 -0.1299  0.5722
 4266TIP3    H112741   3.969   7.749   5.558  0.6919 -1.0421 -0.3458
 4266TIP3    H212742   3.947   7.599   5.559  0.7539 -1.0619  1.7389
 4267TIP3   OH212743   6.988   4.009   6.031  0.0869  0.5336 -0.0235
 4267TIP3    H112744   6.896   4.036   6.031  0.3256  1.3629  0.6204
 4267TIP3    H212745   7.034   4.081   6.074  1.1226  0.4097 -0.8871
 4268TIP3   OH212746   2.429   1.076   3.428  0.0037  0.3446 -0.1676
 4268TIP3    H112747   2.423   1.128   3.508 -0.2533 -2.8648  2.0798
 4268TIP3    H212748   2.508   1.023   3.440  0.6721  0.6570 -2.6735
 4269TIP3   OH212749   3.715   0.494   5.913 -0.0537 -0.6907 -0.3773
 4269TIP3    H112750   3.758   0.529   5.835 -2.0878 -0.6899 -1.5899
 4269TIP3    H212751   3.731   0.560   5.981 -0.0900  0.4211 -1.4196
 4270TIP3   OH212752   6.419   2.511   5.443 -0.3510 -0.2677 -0.0748
 4270TIP3    H112753   6.377   2.597   5.438 -0.9110 -0.1894  3.3218
 4270TIP3    H212754   6.511   2.529   5.462  0.2534 -0.4861 -2.4762
 4271TIP3   OH212755   6.919   4.157   0.300  0.0103  0.4044  0.2276
 4271TIP3    H112756   6.988   4.219   0.277  0.5415 -0.1766  0.2470
 4271TIP3    H212757   6.920   4.092   0.230  0.8919 -0.7650  1.2888
 4272TIP3   OH212758   3.274   0.722   4.654  0.1489  0.6493  0.2013
 4272TIP3    H112759   3.194   0.714   4.706 -0.1108  1.1374 -0.1166
 4272TIP3    H212760   3.245   0.761   4.572  0.2612 -1.6589 -1.0083
 4273TIP3   OH212761   4.851   4.319   6.345 -0.5307  0.5336 -0.0269
 4273TIP3    H112762   4.907   4.263   6.291 -1.5908 -0.0823 -0.5127
 4273TIP3    H212763   4.768   4.323   6.298 -1.3809  0.2487  1.3837
 4274TIP3   OH212764   1.529   6.802   2.543  0.3317  0.0309  0.2656
 4274TIP3    H112765   1.484   6.878   2.507 -1.0889 -1.7530 -1.9867
 4274TIP3    H212766   1.482   6.783   2.624  0.5455  1.3387  0.7311
 4275TIP3   OH212767   6.897   3.094   4.671 -0.1291 -0.3015 -0.0626
 4275TIP3    H112768   6.902   3.107   4.766 -0.1265 -2.1342  0.2139
 4275TIP3    H212769   6.972   3.144   4.636 -0.4268  0.8080  0.8198
 4276TIP3   OH212770   5.842   2.925   0.387 -0.2442 -0.4597  0.3125
 4276TIP3    H112771   5.902   2.933   0.461  0.4307 -1.3507 -0.1250
 4276TIP3    H212772   5.842   3.012   0.346  0.4378 -0.3416  0.5515
 4277TIP3   OH212773   6.326   5.303   1.212  0.4895  0.6780 -0.0591
 4277TIP3    H112774   6.390   5.374   1.206 -0.5726  1.6960  0.2096
 4277TIP3    H212775   6.318   5.285   1.306  1.7605 -0.7956 -0.1820
 4278TIP3   OH212776   0.735   5.705   0.782  0.5530 -0.5799  1.0374
 4278TIP3    H112777   0.827   5.701   0.759  0.1028  0.7230 -1.3118
 4278TIP3    H212778   0.707   5.614   0.788  1.6967 -0.9879  0.4744
 4279TIP3   OH212779   1.351   1.030   3.783 -0.4126 -0.2611  0.0441
 4279TIP3    H112780   1.428   0.976   3.768 -1.0411 -1.3691  0.6355
 4279TIP3    H212781   1.347   1.089   3.708  1.3937  0.3205  0.3598
 4280TIP3   OH212782   0.917   3.325   0.838  0.1430 -0.2372 -0.5057
 4280TIP3    H112783   0.836   3.275   0.840  0.4975 -0.8160  0.7510
 4280TIP3    H212784   0.982   3.264   0.802 -0.0762  0.4169 -2.0712
 4281TIP3   OH212785   0.510   7.739   0.069 -0.0904  0.2110 -0.2167
 4281TIP3    H112786   0.444   7.804   0.092  0.6894  0.7863  0.4153
 4281TIP3    H212787   0.493   7.720  -0.024 -1.7098 -0.3328  0.1574
 4282TIP3   OH212788   5.355   5.427   2.048 -0.1898 -0.4433 -0.3106
 4282TIP3    H112789   5.442   5.388   2.043 -0.4107 -0.8314 -1.2706
 4282TIP3    H212790   5.353   5.492   1.977 -0.5493 -0.1582 -0.0451
 4283TIP3   OH212791   5.509   7.819   5.393  0.4176 -0.6559 -0.0602
 4283TIP3    H112792   5.560   7.808   5.473  0.8026  1.4699  0.0356
 4283TIP3    H212793   5.560   7.772   5.326  1.6135 -0.0599  0.3900
 4284TIP3   OH212794   4.365   3.302   0.706  0.3429  0.7807  0.0774
 4284TIP3    H112795   4.392   3.297   0.614  0.5371  1.5552  0.0843
 4284TIP3    H212796   4.443   3.331   0.753  0.2809  0.2564  0.5064
 4285TIP3   OH212797   2.266   0.485   1.336  0.7330  0.0012 -0.4212
 4285TIP3    H112798   2.324   0.509   1.408  0.3886  0.8273 -0.4166
 4285TIP3    H212799   2.320   0.496   1.257 -0.0296  3.0545 -0.6424
 4286TIP3   OH212800   0.000   6.981   6.643  0.4434 -0.3737 -0.0160
 4286TIP3    H112801  -0.002   6.956   6.550 -0.1521 -0.8130  0.1119
 4286TIP3    H212802   0.091   6.967   6.670  0.3357 -1.4959 -0.1965
 4287TIP3   OH212803   7.696   4.212   6.174  0.6694 -0.1142  0.2479
 4287TIP3    H112804   7.735   4.286   6.220 -0.3083 -0.3811  1.5836
 4287TIP3    H212805   7.726   4.220   6.084  0.7886  1.7644  0.4286
 4288TIP3   OH212806   2.790   0.496   4.919  0.4030  0.4023 -0.2801
 4288TIP3    H112807   2.736   0.517   4.842 -0.3893 -0.6279 -0.0258
 4288TIP3    H212808   2.871   0.544   4.905  0.1454  0.4903 -1.6028
 4289TIP3   OH212809   5.626   2.526   3.783  0.0235  0.1627 -0.1612
 4289TIP3    H112810   5.595   2.616   3.783  1.3246  0.6911  1.8487
 4289TIP3    H212811   5.557   2.477   3.827  0.0455  0.5097  0.2719
 4290TIP3   OH212812   5.768   1.819   1.963 -0.0107  0.2039 -0.0848
 4290TIP3    H112813   5.724   1.755   1.907 -0.6194  0.6228 -0.0827
 4290TIP3    H212814   5.706   1.890   1.974  0.3516  0.4340  0.5833
 4291TIP3   OH212815   3.663  -0.003   3.343  0.2092  0.2116  0.2511
 4291TIP3    H112816   3.571  -0.024   3.356  0.2394 -0.1180 -0.0418
 4291TIP3    H212817   3.673   0.086   3.378 -0.7104  1.1456 -1.7188
 4292TIP3   OH212818   3.132   1.159   1.972 -0.2278 -0.2291 -0.1963
 4292TIP3    H112819   3.169   1.193   2.053 -0.6468  0.7324 -0.3986
 4292TIP3    H212820   3.132   1.234   1.912 -0.9478 -0.6396 -0.7281
 4293TIP3   OH212821   3.833   2.338   1.674  0.2451  0.0623 -0.7277
 4293TIP3    H112822   3.755   2.357   1.622 -0.1919 -1.0244 -0.5116
 4293TIP3    H212823   3.906   2.368   1.620 -0.3346  1.6941 -0.6618
 4294TIP3   OH212824   3.918   4.583   1.872  0.1516  0.1500  0.1941
 4294TIP3    H112825   3.990   4.525   1.898 -0.6318 -0.5004  0.9717
 4294TIP3    H212826   3.881   4.614   1.955 -2.2024 -1.7092 -0.0579
 4295TIP3   OH212827   4.597   2.617   4.681 -0.2131  0.6652 -0.1357
 4295TIP3    H112828   4.689   2.628   4.702 -0.3791 -0.1546  1.0977
 4295TIP3    H212829   4.589   2.647   4.590  1.0863  1.5640  0.0241
 4296TIP3   OH212830   4.198   5.521   0.236 -0.1222 -0.2534  0.0691
 4296TIP3    H112831   4.292   5.523   0.252  0.1669 -0.9495 -1.3926
 4296TIP3    H212832   4.181   5.433   0.202 -1.3028 -0.1227  0.2731
 4297TIP3   OH212833   3.077   7.630   5.860 -0.1792 -1.2784  0.0441
 4297TIP3    H112834   3.109   7.550   5.904  2.4694 -0.1695  0.3734
 4297TIP3    H212835   3.099   7.617   5.768  1.1250 -0.6178  0.2321
 4298TIP3   OH212836   0.867   4.867   6.411 -0.1692 -0.4040 -0.1218
 4298TIP3    H112837   0.947   4.892   6.365 -0.0759 -1.0504 -0.3250
 4298TIP3    H212838   0.853   4.936   6.476  1.2332 -0.9082  0.7595
 4299TIP3   OH212839   2.668   1.348   0.879  0.0908 -0.3791 -0.2821
 4299TIP3    H112840   2.674   1.392   0.795 -0.0249 -0.7838 -0.5079
 4299TIP3    H212841   2.693   1.257   0.860  3.0265  0.1278  0.6625
 4300TIP3   OH212842   4.902   4.265   6.025 -0.2885  0.6934  0.2609
 4300TIP3    H112843   4.904   4.196   6.091 -0.3257  1.5471  1.1873
 4300TIP3    H212844   4.822   4.249   5.976  0.0798 -0.3442 -0.0240
 4301TIP3   OH212845   0.942   5.749   2.894 -0.2153  0.3695  0.1941
 4301TIP3    H112846   0.918   5.828   2.847  0.9616  0.0178 -1.0761
 4301TIP3    H212847   1.037   5.743   2.884 -0.0464 -0.2318  1.8446
 4302TIP3   OH212848   6.336   1.556   1.028  0.1493  0.1845 -0.4025
 4302TIP3    H112849   6.395   1.483   1.047 -1.6531 -1.3667 -0.4336
 4302TIP3    H212850   6.256   1.535   1.077 -0.1762  2.5656  0.2238
 4303TIP3   OH212851   4.651   4.226   1.643 -0.0512 -0.1504 -0.5180
 4303TIP3    H112852   4.667   4.266   1.557  0.1501  0.7473 -0.0790
 4303TIP3    H212853   4.637   4.134   1.624  1.1327 -0.1756 -1.3976
 4304TIP3   OH212854   5.857   6.920   6.201  0.0422  0.3471  0.2027
 4304TIP3    H112855   5.768   6.895   6.226  0.0368  2.0054  2.1271
 4304TIP3    H212856   5.850   7.013   6.179  1.2654  0.4468  0.2007
 4305TIP3   OH212857   1.270   7.282   3.394  0.2969 -0.4421 -0.0132
 4305TIP3    H112858   1.293   7.375   3.402  0.1484 -0.5678  2.9356
 4305TIP3    H212859   1.206   7.280   3.323  0.1400  1.7336 -0.0229
 4306TIP3   OH212860   4.963   1.278   5.738 -0.0659  0.3513 -0.7781
 4306TIP3    H112861   5.035   1.325   5.695 -0.7752  0.3881 -1.9844
 4306TIP3    H212862   4.919   1.344   5.792  0.8831  0.2917  0.0876
 4307TIP3   OH212863   5.395   2.719   5.296 -0.2965  0.5077 -0.2961
 4307TIP3    H112864   5.462   2.726   5.364  0.8225  2.0870 -1.4945
 4307TIP3    H212865   5.403   2.630   5.263 -1.7473 -0.7675  2.4307
 4308TIP3   OH212866   7.096   5.237   2.749  0.0973  0.0629 -0.3133
 4308TIP3    H112867   7.093   5.151   2.707 -1.5619  0.8500 -1.9335
 4308TIP3    H212868   7.187   5.266   2.737  0.5605 -1.2238 -0.1510
 4309TIP3   OH212869   1.507   1.103   1.131  0.1549 -0.2422  0.0944
 4309TIP3    H112870   1.482   1.057   1.051 -2.5483 -1.8333  1.7370
 4309TIP3    H212871   1.589   1.061   1.158  0.9224  0.0793 -1.5661
 4310TIP3   OH212872   7.661   1.319   5.550  0.0802  0.6025 -0.1171
 4310TIP3    H112873   7.680   1.413   5.553  1.6472  0.3262 -0.5046
 4310TIP3    H212874   7.685   1.293   5.461 -1.4307  0.0175 -0.3941
 4311TIP3   OH212875   3.279   1.101   3.860 -0.0589  0.2093  0.2526
 4311TIP3    H112876   3.353   1.080   3.917 -0.6773 -0.4976  0.8162
 4311TIP3    H212877   3.306   1.180   3.813  1.1367 -0.1541  0.2953
 4312TIP3   OH212878   6.003   3.927   6.062  0.5850 -0.0043  0.2783
 4312TIP3    H112879   5.966   3.867   5.998  0.7552 -0.1402  0.3048
 4312TIP3    H212880   6.056   3.988   6.010  1.6309 -0.7958  0.3871
 4313TIP3   OH212881   0.707   6.867   1.254  0.3525 -0.6367 -0.1217
 4313TIP3    H112882   0.650   6.896   1.325 -0.3017 -2.5471  0.1939
 4313TIP3    H212883   0.788   6.918   1.266 -0.6689  0.9231  0.4173
 4314TIP3   OH212884   5.169   0.504   0.410  0.1371  0.0563 -0.1453
 4314TIP3    H112885   5.197   0.450   0.484 -0.9953 -0.4621 -0.0774
 4314TIP3    H212886   5.246   0.508   0.353  0.2621 -1.6401 -0.1510
 4315TIP3   OH212887   4.545   5.757   6.630 -0.2825  0.3284 -0.1156
 4315TIP3    H112888   4.605   5.827   6.658  1.1608 -0.9056  0.0223
 4315TIP3    H212889   4.596   5.705   6.568 -1.4645 -0.3655 -0.5301
 4316TIP3   OH212890   3.685   7.452   3.369 -0.3834  0.2564 -0.5046
 4316TIP3    H112891   3.739   7.404   3.307 -0.5868  0.7946 -1.1052
 4316TIP3    H212892   3.706   7.414   3.454 -0.9167 -1.2344 -1.0217
 4317TIP3   OH212893   4.211   4.457   1.912 -0.4720 -0.0374  0.3214
 4317TIP3    H112894   4.238   4.383   1.858 -0.6080  0.3684 -0.3199
 4317TIP3    H212895   4.264   4.530   1.881  0.1484 -0.0045  1.4117
 4318TIP3   OH212896   4.036   0.816   6.384 -0.5418  0.3244  0.1896
 4318TIP3    H112897   3.951   0.856   6.402  0.0907  1.1099  1.5435
 4318TIP3    H212898   4.024   0.723   6.405 -1.9865 -0.3284 -2.8793
 4319TIP3   OH212899   8.053   2.026   6.380  0.2138 -0.3650 -0.4618
 4319TIP3    H112900   8.011   1.976   6.310  0.3097  1.2194 -1.7014
 4319TIP3    H212901   8.147   2.017   6.364  0.2532 -0.5029 -0.1618
 4320TIP3   OH212902   2.967   0.858   5.668 -0.5515 -0.3479 -0.1596
 4320TIP3    H112903   3.029   0.898   5.729  0.5227 -0.1726 -1.3127
 4320TIP3    H212904   3.003   0.770   5.652  0.4596  0.3668 -2.2000
 4321TIP3   OH212905   4.580   1.528   3.058  0.2665  0.2255  0.4477
 4321TIP3    H112906   4.491   1.501   3.081  0.9646 -2.5137  0.3633
 4321TIP3    H212907   4.572   1.618   3.028 -2.7939 -0.4602 -1.2169
 4322TIP3   OH212908   2.822   6.599   6.364 -0.3162 -0.2665  0.1718
 4322TIP3    H112909   2.835   6.561   6.451 -1.5014 -0.0267  0.4759
 4322TIP3    H212910   2.728   6.616   6.359  0.1063  2.7389  0.1248
 4323TIP3   OH212911   7.457   0.102   5.071  0.4557  0.5040  0.3036
 4323TIP3    H112912   7.413   0.186   5.082 -0.8736 -0.2345  0.7429
 4323TIP3    H212913   7.549   0.120   5.094  0.1106  1.7408  0.7605
 4324TIP3   OH212914   3.168   0.950   3.577 -0.2782 -0.4653 -0.5617
 4324TIP3    H112915   3.192   1.004   3.502  1.8323  0.9982  1.0564
 4324TIP3    H212916   3.251   0.930   3.620 -1.4075 -1.3638  1.3268
 4325TIP3   OH212917   0.752   5.717   5.906 -0.1826  0.4470  0.1456
 4325TIP3    H112918   0.668   5.750   5.875 -0.2251  0.0002 -0.2382
 4325TIP3    H212919   0.742   5.710   6.001 -0.0939  1.7357  0.2672
 4326TIP3   OH212920   1.061   1.043   5.838 -0.0445 -0.2648  0.0808
 4326TIP3    H112921   1.083   1.104   5.768  0.9381  0.6934  1.1628
 4326TIP3    H212922   0.966   1.035   5.834 -0.0986  0.5762 -0.7148
 4327TIP3   OH212923   0.802   6.583   1.162 -0.1114  0.0585  0.6733
 4327TIP3    H112924   0.739   6.561   1.093 -2.4357 -1.2675  3.0136
 4327TIP3    H212925   0.777   6.671   1.189  0.1528  0.1887  0.4961
 4328TIP3   OH212926   0.938   2.244   0.235  0.1798 -0.0189  0.1493
 4328TIP3    H112927   0.950   2.154   0.264 -0.3193 -1.2348 -2.9698
 4328TIP3    H212928   0.852   2.269   0.269  0.9028 -0.1618  2.1860
 4329TIP3   OH212929   7.577   2.553   1.799 -0.1383  0.3891  0.3269
 4329TIP3    H112930   7.603   2.549   1.707  2.1894 -0.8159  0.9463
 4329TIP3    H212931   7.566   2.461   1.825  0.6504  0.6287  1.5954
 4330TIP3   OH212932   7.373   7.276   5.969  0.2476  0.7501 -0.6778
 4330TIP3    H112933   7.311   7.289   5.898  0.7266 -2.1565 -1.7561
 4330TIP3    H212934   7.399   7.184   5.963  0.1892  0.2646  3.3623
 4331TIP3   OH212935   2.309   0.864   6.466 -0.3313  0.3732 -0.4700
 4331TIP3    H112936   2.366   0.797   6.502 -0.9898 -0.4077 -0.8520
 4331TIP3    H212937   2.257   0.895   6.541  1.1184  1.6725  0.0510
 4332TIP3   OH212938   1.645   2.692   4.760  0.2005 -0.7793  0.2245
 4332TIP3    H112939   1.692   2.700   4.843 -3.0899 -0.9871  2.3046
 4332TIP3    H212940   1.565   2.645   4.783 -0.5483 -1.4863 -3.2720
 4333TIP3   OH212941   3.528   6.249   2.015  0.5226  0.1164 -0.0229
 4333TIP3    H112942   3.593   6.274   1.950 -0.1931  0.1949 -0.7311
 4333TIP3    H212943   3.444   6.258   1.969  0.1426 -2.2054  0.1249
 4334TIP3   OH212944   0.771   6.502   3.606  0.2517  0.4930 -0.1897
 4334TIP3    H112945   0.861   6.519   3.580  0.4149  0.2662  0.2156
 4334TIP3    H212946   0.777   6.428   3.666  0.0895  2.0583  1.8601
 4335TIP3   OH212947   6.674   4.846   5.438 -0.5688 -0.4182  0.0353
 4335TIP3    H112948   6.619   4.877   5.366  1.3590 -0.5911 -1.6005
 4335TIP3    H212949   6.705   4.760   5.408  1.8845  0.3763  0.1028
 4336TIP3   OH212950   6.375   1.417   4.049 -0.1310 -0.0779 -0.0014
 4336TIP3    H112951   6.294   1.406   3.999  0.6657 -1.4266 -1.0755
 4336TIP3    H212952   6.444   1.424   3.982  0.6371  1.2036  0.8900
 4337TIP3   OH212953   3.717   4.320   3.766  0.0322  0.1056 -0.1121
 4337TIP3    H112954   3.743   4.338   3.676  0.5090  0.9047  0.1726
 4337TIP3    H212955   3.773   4.376   3.819  1.1884 -1.8525  0.8307
 4338TIP3   OH212956   1.394   3.079   4.640  0.2619 -0.2312  0.0035
 4338TIP3    H112957   1.319   3.116   4.593  0.5281  0.2574 -0.0409
 4338TIP3    H212958   1.359   3.054   4.726 -0.2373 -1.1659 -0.4538
 4339TIP3   OH212959   0.783   1.396   1.265 -0.0761 -0.3063  0.3387
 4339TIP3    H112960   0.719   1.379   1.196  0.4764 -0.0200 -0.2558
 4339TIP3    H212961   0.738   1.455   1.325 -0.8521 -1.2011  0.6778
 4340TIP3   OH212962   6.243   6.100   3.004  0.2484 -0.0175  0.0585
 4340TIP3    H112963   6.186   6.127   2.932  0.6326  1.3819  0.2561
 4340TIP3    H212964   6.325   6.075   2.961  0.9869  2.1960  0.0543
 4341TIP3   OH212965   6.996   3.567   0.208  0.4008 -0.2168 -0.1374
 4341TIP3    H112966   6.976   3.532   0.295  1.1575  0.1433  0.1875
 4341TIP3    H212967   6.928   3.633   0.193  0.9287  0.5349  0.6756
 4342TIP3   OH212968   2.352   1.669   3.759 -0.0504 -0.5489 -0.3892
 4342TIP3    H112969   2.310   1.598   3.807  1.0347 -0.3965  0.8521
 4342TIP3    H212970   2.353   1.639   3.668 -1.5228 -1.1666 -0.2267
 4343TIP3   OH212971   6.382   2.562   4.238  0.2635  0.4075  0.3397
 4343TIP3    H112972   6.338   2.644   4.216  0.8981  0.2982 -1.5129
 4343TIP3    H212973   6.443   2.548   4.166 -0.0470 -1.8583  0.4578
 4344TIP3   OH212974   2.950   3.066   3.832 -0.2062 -0.3691 -0.3894
 4344TIP3    H112975   2.903   3.067   3.748 -0.6664 -1.6749 -0.1642
 4344TIP3    H212976   3.040   3.087   3.808 -0.4149 -0.2984 -1.1637
 4345TIP3   OH212977   2.904   6.833   3.984 -0.4688  0.5860  0.6803
 4345TIP3    H112978   2.944   6.903   4.035 -0.5602  0.9839  0.2093
 4345TIP3    H212979   2.956   6.828   3.904 -1.0950  0.8227  0.2498
 4346TIP3   OH212980   2.113   6.426   4.105  0.3396  0.0377  0.4185
 4346TIP3    H112981   2.106   6.521   4.103 -1.2147 -0.0612 -0.1118
 4346TIP3    H212982   2.110   6.402   4.197  0.4604  0.4776  0.5354
 4347TIP3   OH212983   0.214   3.597   6.166 -0.5755  0.0072 -0.5162
 4347TIP3    H112984   0.167   3.613   6.248  0.8853  3.2362 -0.1680
 4347TIP3    H212985   0.304   3.577   6.194  0.0006  1.4034 -1.2870
 4348TIP3   OH212986   6.254   3.811   4.832  0.1827  0.0213  0.2847
 4348TIP3    H112987   6.283   3.902   4.829  0.0458  0.0532 -1.8836
 4348TIP3    H212988   6.159   3.816   4.844  0.2425  0.1265  0.7487
 4349TIP3   OH212989   2.389   4.086   0.569  0.0251 -0.1588 -0.1464
 4349TIP3    H112990   2.469   4.112   0.523 -1.3936  1.4165 -1.9112
 4349TIP3    H212991   2.362   4.165   0.616 -1.1938 -0.2400 -0.6811
 4350TIP3   OH212992   1.277   5.364   2.052 -0.3276 -0.0457 -0.2906
 4350TIP3    H112993   1.282   5.444   2.106  1.1234  0.4879 -1.1818
 4350TIP3    H212994   1.325   5.386   1.972  1.7644 -2.4168  0.2145
 4351TIP3   OH212995   5.349   7.195   3.827 -0.0733 -0.3026  0.3664
 4351TIP3    H112996   5.430   7.187   3.878  0.3468 -0.6497 -0.3522
 4351TIP3    H212997   5.368   7.263   3.762 -0.0278 -1.0607 -0.4222
 4352TIP3   OH212998   4.561   6.415   1.609 -0.3449 -0.1175 -0.1812
 4352TIP3    H112999   4.526   6.498   1.577  0.2545  0.4527  0.5930
 4352TIP3    H213000   4.512   6.397   1.689 -0.3208 -0.3986 -0.2259
 4353TIP3   OH213001   7.214   5.890   0.917 -0.0627  0.3235 -0.4434
 4353TIP3    H113002   7.184   5.838   0.992  1.1344  1.6957  1.0743
 4353TIP3    H213003   7.150   5.872   0.848 -3.3209  1.6241  1.9697
 4354TIP3   OH213004   4.547   5.150   3.140 -0.4349 -0.4281 -0.3249
 4354TIP3    H113005   4.629   5.142   3.190  0.4344 -1.9244 -1.8972
 4354TIP3    H213006   4.547   5.242   3.111  0.6204 -0.3666 -0.1943
 4355TIP3   OH213007   4.734   4.712   4.529  0.0765 -0.5357  0.1467
 4355TIP3    H113008   4.762   4.803   4.535 -0.6091 -0.2671 -0.4606
 4355TIP3    H213009   4.638   4.717   4.528  0.0196 -1.3314  1.0038
 4356TIP3   OH213010   7.783   3.010   6.172 -0.1259  0.4676 -0.2813
 4356TIP3    H113011   7.742   3.014   6.086 -3.2979  0.0236  1.0606
 4356TIP3    H213012   7.718   2.967   6.227  2.1583 -0.1153  2.1604
 4357TIP3   OH213013   6.561   6.927   5.138 -0.3771  0.0268  0.5019
 4357TIP3    H113014   6.466   6.939   5.142 -0.2511  0.7281  1.9553
 4357TIP3    H213015   6.588   6.976   5.060 -1.1389  0.3028  0.4041
 4358TIP3   OH213016   6.133   4.952   5.838 -0.2420 -0.3954  0.2159
 4358TIP3    H113017   6.063   4.963   5.903  0.6420  0.8322  0.9805
 4358TIP3    H213018   6.119   4.863   5.804 -2.0172 -0.2714  0.5233
 4359TIP3   OH213019   4.648   6.609   6.530 -0.1467 -1.4179  0.8243
 4359TIP3    H113020   4.594   6.623   6.452  3.9948  0.3429 -2.1101
 4359TIP3    H213021   4.615   6.527   6.567 -5.7519  0.2972  0.5084
 4360TIP3   OH213022   3.487   5.746   2.168 -0.1687 -0.3121 -0.1207
 4360TIP3    H113023   3.509   5.836   2.192  0.7400 -1.1282  2.4764
 4360TIP3    H213024   3.439   5.754   2.085 -1.0333  2.6283  0.5504
 4361TIP3   OH213025   2.307   2.427   2.513 -0.3689  0.3018  0.0533
 4361TIP3    H113026   2.384   2.482   2.512 -0.9317  1.3181 -3.8951
 4361TIP3    H213027   2.237   2.483   2.548 -0.0639  0.6546  0.0971
 4362TIP3   OH213028   8.022   6.024   1.322 -0.4074 -0.6025  0.4152
 4362TIP3    H113029   8.117   6.017   1.334 -0.2122 -0.4342 -0.8894
 4362TIP3    H213030   7.991   5.934   1.326  0.2208 -0.9999 -2.0593
 4363TIP3   OH213031   2.955   3.155   5.846  0.7708  0.2029  0.7061
 4363TIP3    H113032   2.947   3.072   5.893 -1.1109 -0.5265 -0.7442
 4363TIP3    H213033   2.938   3.133   5.755 -1.2695  2.3719  0.4583
 4364TIP3   OH213034   2.512   0.605   4.015  0.4181  0.3081  0.1595
 4364TIP3    H113035   2.499   0.692   3.977  2.3414  1.2565  1.5296
 4364TIP3    H213036   2.462   0.607   4.096 -0.3506 -0.2628 -0.2815
 4365TIP3   OH213037   2.867   1.831   4.152  0.1855 -0.2957 -0.1749
 4365TIP3    H113038   2.932   1.763   4.166  0.9749  0.3188 -0.7569
 4365TIP3    H213039   2.871   1.849   4.058  2.1974  2.6412  0.3300
 4366TIP3   OH213040   2.231   5.138   2.770  0.7244  0.1132 -0.2352
 4366TIP3    H113041   2.302   5.074   2.767  2.0770  1.4542  1.1001
 4366TIP3    H213042   2.164   5.098   2.826 -0.3920 -1.8423 -2.7633
 4367TIP3   OH213043   4.310   5.145   6.286 -0.4784  0.3380  0.2943
 4367TIP3    H113044   4.334   5.238   6.288 -1.2997  0.5699  2.2258
 4367TIP3    H213045   4.327   5.114   6.375 -0.8863 -1.1872 -0.1314
 4368TIP3   OH213046   3.012   5.164   6.708  0.2489 -0.1985  0.1942
 4368TIP3    H113047   2.925   5.192   6.736  0.4371  0.9741 -0.3282
 4368TIP3    H213048   3.013   5.180   6.614  1.7015  1.7927  0.4749
 4369TIP3   OH213049   8.276   6.427   3.730  0.8221 -0.0427  0.0647
 4369TIP3    H113050   8.208   6.470   3.678 -1.5142 -0.0535  2.8642
 4369TIP3    H213051   8.245   6.337   3.741  1.6113 -0.2318  0.8489
 4370TIP3   OH213052   7.802   7.489   1.995 -0.2537 -0.0825 -0.1499
 4370TIP3    H113053   7.817   7.534   2.078 -1.1580  1.0539 -0.5670
 4370TIP3    H213054   7.728   7.535   1.956  0.5024 -0.2100 -1.8484
 4371TIP3   OH213055   1.490   2.683   5.632 -0.3856  0.3671  0.0102
 4371TIP3    H113056   1.462   2.774   5.618 -2.1087 -0.0753  0.3626
 4371TIP3    H213057   1.465   2.638   5.552 -1.3284 -0.1825  0.6005
 4372TIP3   OH213058   3.484   4.720   6.008 -0.1413  0.4392  0.3490
 4372TIP3    H113059   3.392   4.694   6.005  0.3867 -1.9537  2.0296
 4372TIP3    H213060   3.493   4.768   6.091  0.4062 -0.6799  0.9508
 4373TIP3   OH213061   7.806   5.859   5.876 -0.5582 -0.3244 -0.1966
 4373TIP3    H113062   7.798   5.766   5.899 -0.6933  0.3109  2.7156
 4373TIP3    H213063   7.881   5.863   5.818 -1.4640 -2.4165 -1.6181
 4374TIP3   OH213064   0.329   4.797   5.481 -0.0162 -0.4511  0.5643
 4374TIP3    H113065   0.321   4.706   5.511 -2.4662 -0.4894 -0.0204
 4374TIP3    H213066   0.255   4.842   5.520  0.0215  0.8329 -0.7750
 4375TIP3   OH213067   6.077   5.852   6.467  0.3097 -0.1007 -0.0188
 4375TIP3    H113068   6.143   5.817   6.407  1.2325  1.7148 -0.1501
 4375TIP3    H213069   6.005   5.881   6.411  2.0182  3.5088 -0.6714
 4376TIP3   OH213070   4.916   4.847   4.308 -0.2767 -0.2989 -0.1553
 4376TIP3    H113071   4.858   4.910   4.351  1.7719  0.6505  1.4514
 4376TIP3    H213072   4.949   4.893   4.231 -0.9295 -0.4821 -0.5443
 4377TIP3   OH213073   6.111   5.098   1.276  0.0952 -0.0683 -0.3043
 4377TIP3    H113074   6.131   5.191   1.265 -0.9224  0.3260  0.9170
 4377TIP3    H213075   6.179   5.053   1.226  1.1857  1.2978 -0.1174
 4378TIP3   OH213076   7.731   2.517   0.462  0.3819 -0.1375  0.8693
 4378TIP3    H113077   7.669   2.452   0.495 -0.7760  0.1649 -0.6173
 4378TIP3    H213078   7.691   2.601   0.482 -0.1244  0.0572 -0.8381
 4379TIP3   OH213079   5.821   1.657   4.557 -0.5853 -0.1021  0.7660
 4379TIP3    H113080   5.875   1.715   4.612 -0.2125 -0.0035  0.3072
 4379TIP3    H213081   5.752   1.714   4.524 -2.1558 -0.6487  2.8973
 4380TIP3   OH213082   5.215   1.352   6.028  0.5666  0.0772  0.0660
 4380TIP3    H113083   5.285   1.383   5.970 -0.5808  0.9410 -0.9232
 4380TIP3    H213084   5.186   1.270   5.988  0.8823 -0.1858  0.3718
 4381TIP3   OH213085   4.575   4.827   3.398  0.3301  0.2384  0.0027
 4381TIP3    H113086   4.566   4.765   3.469  1.1808  0.4194  0.2787
 4381TIP3    H213087   4.573   4.774   3.319 -0.4185  0.0181  0.1624
 4382TIP3   OH213088   6.464   5.036   1.627  0.0018  0.0606 -0.3977
 4382TIP3    H113089   6.447   4.948   1.595 -0.3138  1.0128 -3.1209
 4382TIP3    H213090   6.377   5.072   1.646 -0.1083  0.6086 -1.8172
 4383TIP3   OH213091   8.251   2.943   6.306  0.3776  0.6328 -0.2005
 4383TIP3    H113092   8.276   2.851   6.309  0.6639  0.6442 -1.6812
 4383TIP3    H213093   8.334   2.990   6.315  0.3859  0.7283 -0.7821
 4384TIP3   OH213094   1.456   7.695   1.128  0.0027 -0.3347  0.4663
 4384TIP3    H113095   1.525   7.745   1.172 -1.7222  1.6787  1.0444
 4384TIP3    H213096   1.432   7.628   1.192 -0.8331  1.0711  1.6918
 4385TIP3   OH213097   0.421   5.053   1.381 -0.1293 -0.2638 -0.0277
 4385TIP3    H113098   0.496   5.011   1.423  0.1961  0.7083  0.3976
 4385TIP3    H213099   0.452   5.073   1.292 -0.0388 -0.2981 -0.0043
 4386TIP3   OH213100   1.086   0.126   1.003  0.3841 -0.1416  0.3200
 4386TIP3    H113101   1.103   0.214   1.037  0.3373 -0.3859  0.9801
 4386TIP3    H213102   1.009   0.096   1.050  0.5589 -0.6465  0.2923
 4387TIP3   OH213103   6.922   2.890   1.197  0.1921 -0.3653  0.8175
 4387TIP3    H113104   7.017   2.891   1.213  0.0599 -0.5410  1.6703
 4387TIP3    H213105   6.899   2.982   1.184  1.0376 -0.5350 -3.1168
 4388TIP3   OH213106   0.123   2.312   2.458  0.5251 -0.0403 -0.2270
 4388TIP3    H113107   0.170   2.273   2.531 -0.0103  1.3872  0.9198
 4388TIP3    H213108   0.032   2.287   2.472  0.3434  0.6923 -0.1066
 4389TIP3   OH213109   6.781   4.165   4.136  0.1137 -0.0112  0.2669
 4389TIP3    H113110   6.697   4.126   4.111 -0.2612 -0.1665  1.6831
 4389TIP3    H213111   6.847   4.102   4.105 -0.3158 -0.2249 -0.2273
 4390TIP3   OH213112   7.344   7.499   4.671 -0.0419  0.0127 -0.2079
 4390TIP3    H113113   7.264   7.479   4.621 -0.4011 -0.4952  0.5539
 4390TIP3    H213114   7.340   7.594   4.684 -0.5112 -0.0030 -0.2049
 4391TIP3   OH213115   2.626   6.817   3.039  0.4633  0.1268  0.1873
 4391TIP3    H113116   2.588   6.820   3.127  0.0224  1.5474 -0.0367
 4391TIP3    H213117   2.718   6.838   3.052  0.3776  0.4382  0.2963
 4392TIP3   OH213118   6.576   5.717   5.466 -0.0778  0.1272  0.0472
 4392TIP3    H113119   6.525   5.794   5.490 -1.4827 -0.5468 -0.6882
 4392TIP3    H213120   6.598   5.676   5.549 -0.4727  0.5817  0.3797
 4393TIP3   OH213121   5.839   5.421   2.579 -0.0908 -0.7846 -0.4241
 4393TIP3    H113122   5.912   5.405   2.638 -0.0159 -0.7926 -0.5177
 4393TIP3    H213123   5.855   5.362   2.505 -0.5247 -1.2395 -0.1597
 4394TIP3   OH213124   0.691   2.174   4.636 -0.3832  0.1713 -0.1061
 4394TIP3    H113125   0.641   2.165   4.554 -0.1107  0.4959 -0.3104
 4394TIP3    H213126   0.633   2.224   4.694 -1.2870 -1.5275  0.5114
 4395TIP3   OH213127   6.773   3.998   0.095  0.4474 -0.4217 -0.1006
 4395TIP3    H113128   6.698   4.051   0.069  0.8893 -0.0329 -0.5957
 4395TIP3    H213129   6.793   3.944   0.019  1.2255  0.1271 -0.3025
 4396TIP3   OH213130   1.044   3.106   5.096 -0.1973  0.4332 -0.4685
 4396TIP3    H113131   1.062   3.106   5.190 -1.2443  3.7313 -0.1565
 4396TIP3    H213132   0.953   3.076   5.089 -0.5552  1.4364 -0.2665
 4397TIP3   OH213133   1.446   1.889   2.265 -0.2833  0.0259  0.0413
 4397TIP3    H113134   1.500   1.967   2.258 -1.4333  0.8322 -0.0873
 4397TIP3    H213135   1.396   1.887   2.183 -0.2100 -0.8864  0.0089
 4398TIP3   OH213136   5.560   6.617   1.548  0.6747  0.2631  0.6360
 4398TIP3    H113137   5.540   6.534   1.506  1.3015  0.8605 -0.9232
 4398TIP3    H213138   5.610   6.594   1.626 -1.0812 -0.9124  1.4938
 4399TIP3   OH213139   4.908   0.779   2.557 -0.1274 -0.2130  0.4384
 4399TIP3    H113140   4.915   0.792   2.463  0.0249 -1.0997  0.3234
 4399TIP3    H213141   4.905   0.684   2.569 -0.0706 -0.1159  1.3313
 4400TIP3   OH213142   4.033   0.364   5.914  0.1327 -0.1533  0.0682
 4400TIP3    H113143   4.046   0.401   5.827  1.1030  1.6683  0.9352
 4400TIP3    H213144   4.079   0.424   5.973 -0.8288 -1.1172  1.8895
 4401TIP3   OH213145   5.675   2.211   1.524 -0.4825  0.0891  0.0566
 4401TIP3    H113146   5.659   2.285   1.583 -0.4155  1.7685 -1.8997
 4401TIP3    H213147   5.611   2.145   1.550 -1.1042  1.1643  1.3633
 4402TIP3   OH213148   7.906   5.502   1.242 -0.3586 -0.0023  0.3797
 4402TIP3    H113149   7.926   5.409   1.238  0.5205  0.0482  2.4360
 4402TIP3    H213150   7.822   5.507   1.288 -0.2362  0.2247  0.5821
 4403TIP3   OH213151   4.469   4.934   4.320  0.3028  0.2197  0.6359
 4403TIP3    H113152   4.528   4.999   4.281  0.8118 -1.4518 -1.5695
 4403TIP3    H213153   4.383   4.977   4.320  0.9799  1.6339  1.2025
 4404TIP3   OH213154   1.962   3.685   5.003 -0.0016 -0.7337 -0.2374
 4404TIP3    H113155   2.023   3.725   5.065 -1.9592 -0.1472  1.4300
 4404TIP3    H213156   1.951   3.595   5.033 -1.5324 -0.2381  0.8133
 4405TIP3   OH213157   4.320   4.700   1.819 -0.3249  0.0127  0.4676
 4405TIP3    H113158   4.264   4.747   1.881 -2.0860 -0.0920 -0.9338
 4405TIP3    H213159   4.308   4.747   1.736  1.7455 -0.0027  0.1094
 4406TIP3   OH213160   3.911   6.650   6.582  0.4254 -0.2914  0.1942
 4406TIP3    H113161   3.845   6.610   6.637  0.1052  1.4096  1.1109
 4406TIP3    H213162   3.861   6.700   6.517  0.7711  0.7510  0.7014
 4407TIP3   OH213163   0.201   7.542   6.523 -0.0414 -0.2622 -0.4897
 4407TIP3    H113164   0.248   7.464   6.554 -0.3270 -0.4182 -0.4438
 4407TIP3    H213165   0.127   7.507   6.474 -0.2961 -0.0160 -0.2769
 4408TIP3   OH213166   5.340   4.016   5.606 -0.3409  0.4523  0.8346
 4408TIP3    H113167   5.343   3.994   5.513 -0.3993  0.2330  0.8845
 4408TIP3    H213168   5.366   4.108   5.610  0.7423  0.1533  0.7104
 4409TIP3   OH213169   5.532   0.937   5.552 -0.1350  0.0732  0.5016
 4409TIP3    H113170   5.559   0.877   5.621  0.7974 -0.6511 -0.4563
 4409TIP3    H213171   5.495   0.880   5.484 -1.4550  0.8049  0.5658
 4410TIP3   OH213172   6.474   1.962   2.314 -0.0234  0.4637 -0.5227
 4410TIP3    H113173   6.516   1.999   2.236 -0.7287  1.1068 -0.6078
 4410TIP3    H213174   6.479   2.031   2.380 -0.0686  0.1831 -0.2195
 4411TIP3   OH213175   6.837   4.149   4.759  0.3535 -0.4195 -0.5266
 4411TIP3    H113176   6.909   4.143   4.697  2.3627  0.4807  1.5826
 4411TIP3    H213177   6.798   4.062   4.759  1.7618 -1.0821 -1.3664
 4412TIP3   OH213178   0.798   6.255   0.449  0.4697 -0.1182 -0.3062
 4412TIP3    H113179   0.809   6.282   0.358  1.3470 -0.4279 -0.3058
 4412TIP3    H213180   0.822   6.332   0.500 -1.0396  0.3948 -0.3305
 4413TIP3   OH213181   1.068   0.473   4.659  0.5472  0.1023 -0.0382
 4413TIP3    H113182   1.117   0.555   4.665 -1.1145  1.1584 -0.2534
 4413TIP3    H213183   1.080   0.444   4.568 -0.0310  0.8870 -0.3717
 4414TIP3   OH213184   0.906   2.270   3.797 -0.4015  0.6915 -0.2072
 4414TIP3    H113185   0.981   2.211   3.797 -2.0088 -1.7161 -3.5564
 4414TIP3    H213186   0.860   2.250   3.878  1.3406  0.6042  0.8172
 4415TIP3   OH213187   1.387   1.737   3.129  0.1060 -0.2292 -0.7218
 4415TIP3    H113188   1.323   1.680   3.088  0.2647 -1.4962  0.6935
 4415TIP3    H213189   1.336   1.788   3.193  0.3073 -0.3352 -0.4757
 4416TIP3   OH213190   1.996   7.364   1.612 -0.4049  0.1824 -0.4659
 4416TIP3    H113191   1.979   7.421   1.537  0.1974  0.3901 -0.4491
 4416TIP3    H213192   1.921   7.304   1.614 -0.6473  0.4638 -0.9607
 4417TIP3   OH213193   3.522   0.136   5.304  0.2286 -0.5160 -0.0718
 4417TIP3    H113194   3.462   0.203   5.271  0.5721 -0.0522  0.2415
 4417TIP3    H213195   3.464   0.068   5.339 -0.1380 -0.8666 -1.2862
 4418TIP3   OH213196   3.369   1.733   5.116 -0.4601 -0.0802  0.4141
 4418TIP3    H113197   3.283   1.694   5.130  0.5230 -2.4367  0.2933
 4418TIP3    H213198   3.410   1.729   5.203  0.9329 -2.7267 -0.2775
 4419TIP3   OH213199   1.718   6.136   1.839  0.1829 -0.8373 -0.1571
 4419TIP3    H113200   1.720   6.197   1.765  2.2899  1.0012  1.2861
 4419TIP3    H213201   1.796   6.158   1.890 -0.4611 -2.9573  1.8950
 4420TIP3   OH213202   2.330   6.269   3.525 -0.1858 -0.2317  0.5434
 4420TIP3    H113203   2.361   6.186   3.560 -0.6229 -0.8424 -0.4612
 4420TIP3    H213204   2.405   6.328   3.531 -0.1295 -0.4170  2.0910
 4421TIP3   OH213205   2.980   2.617   1.707 -0.2236  0.3311  0.3214
 4421TIP3    H113206   2.908   2.594   1.649 -1.6242 -1.4855  2.6153
 4421TIP3    H213207   2.938   2.654   1.785  1.5430  2.0196  0.5625
 4422TIP3   OH213208   5.418   2.309   2.208 -0.2092  0.1565 -0.3776
 4422TIP3    H113209   5.421   2.231   2.264 -1.2149  0.0779 -0.4148
 4422TIP3    H213210   5.504   2.311   2.165 -0.0017 -0.6616 -0.0197
 4423TIP3   OH213211   1.912   5.913   0.415  0.1369 -0.4316 -0.0288
 4423TIP3    H113212   1.830   5.942   0.454  0.0516 -0.8141  0.0815
 4423TIP3    H213213   1.953   5.858   0.483 -0.3258 -1.6567 -0.7081
 4424TIP3   OH213214   7.905   2.363   4.976  0.5108 -0.5854 -0.3217
 4424TIP3    H113215   7.829   2.308   4.955  1.5538 -1.9948 -0.5125
 4424TIP3    H213216   7.950   2.374   4.892 -0.9256  2.6665 -0.8501
 4425TIP3   OH213217   1.249   4.292   6.331 -0.3532 -0.4759 -0.1034
 4425TIP3    H113218   1.212   4.272   6.245 -0.9665  0.9332 -0.2004
 4425TIP3    H213219   1.179   4.268   6.393 -0.5287  0.0031 -0.1155
 4426TIP3   OH213220   4.584   7.176   1.081 -0.0522 -0.3685  0.0452
 4426TIP3    H113221   4.518   7.244   1.064 -0.0796 -0.3374  0.2656
 4426TIP3    H213222   4.649   7.220   1.136  0.6106 -0.1470 -0.8985
 4427TIP3   OH213223   1.254   1.127   2.508 -0.2766 -0.0883  0.8463
 4427TIP3    H113224   1.177   1.183   2.503  0.3560  0.9064  1.8084
 4427TIP3    H213225   1.220   1.042   2.538 -1.4816 -0.8085 -2.1949
 4428TIP3   OH213226   6.116   6.672   1.818 -0.0053  0.3993 -0.4807
 4428TIP3    H113227   6.151   6.672   1.729  2.6294 -1.2070  0.4295
 4428TIP3    H213228   6.076   6.585   1.827  0.3282  0.3017  0.0784
 4429TIP3   OH213229   0.215   1.069   4.861 -0.1949  0.2839  0.0704
 4429TIP3    H113230   0.172   0.995   4.817 -0.0972  0.8311 -0.9705
 4429TIP3    H213231   0.152   1.097   4.928 -0.1377 -0.8806  0.6353
 4430TIP3   OH213232   2.937   1.659   2.554 -0.2085  0.1508 -1.0386
 4430TIP3    H113233   2.892   1.722   2.610 -1.0673 -1.5155  0.2286
 4430TIP3    H213234   2.878   1.646   2.480  0.1334  1.0558 -1.4896
 4431TIP3   OH213235   5.432   2.099   1.572  0.1097  0.2072  0.1129
 4431TIP3    H113236   5.365   2.136   1.514  1.2005  1.8163 -0.1746
 4431TIP3    H213237   5.386   2.082   1.654 -1.0968 -0.6078 -0.6949
 4432TIP3   OH213238   7.119   1.148   5.663 -0.3331 -0.3498 -0.6297
 4432TIP3    H113239   7.201   1.110   5.695 -0.7219 -0.4221  0.3121
 4432TIP3    H213240   7.111   1.231   5.709 -0.0832  0.3522 -1.7989
 4433TIP3   OH213241   5.757   6.205   0.952 -0.4787  0.4423  0.1255
 4433TIP3    H113242   5.780   6.118   0.984  0.2297 -0.5384 -2.7087
 4433TIP3    H213243   5.802   6.265   1.011  1.7056 -1.2411  0.2987
 4434TIP3   OH213244   3.007   1.367   0.363  0.3875  0.4090  0.8272
 4434TIP3    H113245   2.980   1.357   0.272 -0.0575  1.1266  0.8706
 4434TIP3    H213246   2.954   1.304   0.411  0.3524  0.2943  0.6379
 4435TIP3   OH213247   7.312   0.906   4.377 -0.2558 -0.2818  0.2421
 4435TIP3    H113248   7.315   0.810   4.383  0.2611 -0.2935 -0.1649
 4435TIP3    H213249   7.219   0.926   4.365 -0.1966 -0.8536 -1.3993
 4436TIP3   OH213250   3.201   2.566   4.339 -0.3171 -0.5918 -0.2009
 4436TIP3    H113251   3.153   2.553   4.420 -1.2245 -1.8159 -0.9120
 4436TIP3    H213252   3.138   2.545   4.270  0.4989  0.2172 -1.2287
 4437TIP3   OH213253   5.175   6.698   2.638  0.0641  0.3184 -0.2152
 4437TIP3    H113254   5.180   6.791   2.617 -0.3114  0.7527  1.4865
 4437TIP3    H213255   5.211   6.654   2.561  0.4474  1.8717 -0.9591
 4438TIP3   OH213256   1.043   1.368   6.763 -0.2580  0.5424  0.0513
 4438TIP3    H113257   1.121   1.381   6.709  0.9808  0.3721  1.6976
 4438TIP3    H213258   1.037   1.273   6.775  0.4135  0.6455  1.4329
 4439TIP3   OH213259   0.048   0.940   2.649  0.9215  0.4704  0.0340
 4439TIP3    H113260   0.011   0.993   2.721  0.4659 -0.4298  0.4783
 4439TIP3    H213261   0.103   0.875   2.693  1.3643  0.4797 -0.5010
 4440TIP3   OH213262   2.210   1.158   1.368 -0.0912  0.0437  0.6312
 4440TIP3    H113263   2.216   1.064   1.387 -1.9603  0.1000  1.7307
 4440TIP3    H213264   2.258   1.168   1.285 -2.1572 -2.3674 -1.0148
 4441TIP3   OH213265   3.998   5.851   6.591 -0.3148  0.1542 -0.1308
 4441TIP3    H113266   3.919   5.806   6.620  0.7855  0.0625  3.1046
 4441TIP3    H213267   4.061   5.838   6.662  2.0079  1.7983 -1.7370
 4442TIP3   OH213268   3.220   1.567   5.308 -0.0225 -0.6523  0.0273
 4442TIP3    H113269   3.295   1.513   5.331  0.2815 -0.2509 -0.0173
 4442TIP3    H213270   3.163   1.564   5.385  0.0036 -1.0052  0.0374
 4443TIP3   OH213271   6.014   1.175   1.227 -0.1176  0.2005 -0.3073
 4443TIP3    H113272   6.082   1.211   1.284 -1.6952 -1.1955  2.6464
 4443TIP3    H213273   5.960   1.251   1.204  0.3935  0.7461  0.2699
 4444TIP3   OH213274   0.891   0.118   2.582  0.2889  0.3984 -0.1360
 4444TIP3    H113275   0.894   0.095   2.489 -0.4507 -0.2177 -0.0248
 4444TIP3    H213276   0.982   0.115   2.610  0.4673  0.0447 -0.7176
 4445TIP3   OH213277   1.004   5.623   1.007 -0.7851 -0.4745 -0.6713
 4445TIP3    H113278   0.975   5.559   1.072  0.8499 -1.2409 -0.6345
 4445TIP3    H213279   1.045   5.693   1.058 -0.1575 -0.7210 -0.8274
 4446TIP3   OH213280   0.007   2.023   6.260 -1.0339  0.4983  0.5044
 4446TIP3    H113281  -0.019   1.978   6.180  0.8753 -1.6714  0.9964
 4446TIP3    H213282   0.025   2.113   6.232  0.1162 -0.3261 -1.6523
 4447TIP3   OH213283   4.114   0.460   6.237  0.2971 -0.2855  0.2138
 4447TIP3    H113284   4.020   0.454   6.217  0.4731  1.2168 -1.3260
 4447TIP3    H213285   4.147   0.371   6.224 -0.8081 -0.7108  0.2237
 4448TIP3   OH213286   0.848   2.379   5.205 -0.5266 -0.2427  0.3350
 4448TIP3    H113287   0.920   2.403   5.263  0.1020 -0.9975 -0.1230
 4448TIP3    H213288   0.769   2.406   5.253 -0.0424 -1.1565  1.6987
 4449TIP3   OH213289   7.255   7.800   6.490 -0.7286 -0.2140  0.0367
 4449TIP3    H113290   7.197   7.727   6.507 -0.0342 -0.6924  0.4203
 4449TIP3    H213291   7.282   7.829   6.577 -1.4188  0.8568 -0.0831
 4450TIP3   OH213292   4.570   3.370   6.483 -0.5653 -0.7022  0.2116
 4450TIP3    H113293   4.530   3.349   6.399 -1.7899 -1.6167  0.9910
 4450TIP3    H213294   4.503   3.418   6.531 -0.4681 -1.5540  1.2502
 4451TIP3   OH213295   5.530   2.193   5.131  0.2066 -0.7718  0.3531
 4451TIP3    H113296   5.545   2.212   5.038 -0.8670  2.0427  0.6523
 4451TIP3    H213297   5.434   2.192   5.140  0.2945 -1.2815  1.3924
 4452TIP3   OH213298   4.707   1.624   3.699  0.0584  0.5937 -0.1446
 4452TIP3    H113299   4.705   1.714   3.668 -1.2257 -0.1471 -2.4737
 4452TIP3    H213300   4.654   1.624   3.778  1.6677  2.1839  1.0015
 4453TIP3   OH213301   6.794   5.603   1.801  0.0683 -0.0362 -1.0569
 4453TIP3    H113302   6.733   5.553   1.855  0.9737 -0.7007 -0.6272
 4453TIP3    H213303   6.843   5.656   1.863 -0.8577  1.4097 -1.5057
 4454TIP3   OH213304   1.114   5.976   4.412 -0.1679  0.2398  0.3586
 4454TIP3    H113305   1.047   6.042   4.428  0.0999  0.8510 -0.9231
 4454TIP3    H213306   1.166   6.012   4.341  2.1339  0.2399  1.9255
 4455TIP3   OH213307   8.006   3.744   2.782  0.0488 -0.7108  0.1053
 4455TIP3    H113308   8.032   3.743   2.690 -0.1774 -0.5422  0.0402
 4455TIP3    H213309   8.062   3.811   2.821  0.1623 -0.8002  0.0985
 4456TIP3   OH213310   3.983   6.282   3.696 -0.2592 -0.5883 -0.1674
 4456TIP3    H113311   4.040   6.349   3.732  0.4233 -1.1218 -0.2331
 4456TIP3    H213312   3.894   6.315   3.711  0.0617  0.2297 -0.0294
 4457TIP3   OH213313   7.113   2.097   6.285  0.7700  0.5516 -0.1995
 4457TIP3    H113314   7.183   2.163   6.288 -0.1879  1.8051 -2.7862
 4457TIP3    H213315   7.037   2.141   6.324  0.5126  0.4363 -0.5731
 4458TIP3   OH213316   2.293   4.561   5.669  0.1858 -0.1573 -0.0820
 4458TIP3    H113317   2.333   4.525   5.590 -1.2918 -0.0114 -0.9383
 4458TIP3    H213318   2.263   4.648   5.643 -0.9558 -0.3812  0.4014
 4459TIP3   OH213319   6.535   2.191   4.703  0.0275 -0.4019 -0.4249
 4459TIP3    H113320   6.453   2.233   4.678  0.0634 -1.1327 -1.9078
 4459TIP3    H213321   6.599   2.224   4.641  1.2051  1.1555  1.5073
 4460TIP3   OH213322   1.916   4.505   6.233  0.0661  0.1493  0.5207
 4460TIP3    H113323   1.978   4.565   6.276  0.5649  0.3712 -0.4764
 4460TIP3    H213324   1.830   4.539   6.257  0.3405  1.0435  0.2979
 4461TIP3   OH213325   2.634   3.159   0.963 -0.3306  0.2108 -0.1565
 4461TIP3    H113326   2.630   3.063   0.962  1.0128  0.1263  0.3803
 4461TIP3    H213327   2.722   3.179   0.932 -0.2807  1.2320  0.5968
 4462TIP3   OH213328   2.857   1.024   5.458 -0.3296  0.4353 -0.6872
 4462TIP3    H113329   2.906   1.103   5.481  0.2907  0.0488 -0.6698
 4462TIP3    H213330   2.904   0.953   5.502 -0.7245  0.0249 -0.9256
 4463TIP3   OH213331   6.128   7.219   1.670  0.1671 -0.3129  0.2806
 4463TIP3    H113332   6.046   7.258   1.699 -0.3828 -0.1998 -1.2919
 4463TIP3    H213333   6.195   7.264   1.720 -0.7124 -0.2421  1.4318
 4464TIP3   OH213334   6.415   5.042   3.877 -0.4434  0.2402 -0.8775
 4464TIP3    H113335   6.386   5.129   3.853 -0.5012  0.3692 -0.3589
 4464TIP3    H213336   6.504   5.054   3.909 -0.6730  0.2140 -0.2038
 4465TIP3   OH213337   1.295   3.787   2.918 -0.5363 -0.4689  0.0833
 4465TIP3    H113338   1.283   3.703   2.964 -1.4292 -0.5932 -0.3559
 4465TIP3    H213339   1.263   3.770   2.829  0.3645  0.0175 -0.3531
 4466TIP3   OH213340   2.825   4.525   1.459  0.3373  0.2837  0.2096
 4466TIP3    H113341   2.798   4.437   1.485  0.6445 -0.1833 -0.9815
 4466TIP3    H213342   2.916   4.532   1.487  0.0952  0.5247  0.9826
 4467TIP3   OH213343   5.110   5.618   5.266 -0.0584  0.4116  0.2712
 4467TIP3    H113344   5.085   5.659   5.183 -1.1953  0.1563  0.4636
 4467TIP3    H213345   5.067   5.672   5.333  1.3276  0.9694  0.7549
 4468TIP3   OH213346   6.014   2.407   3.670 -0.3125  0.7746 -0.2148
 4468TIP3    H113347   6.021   2.341   3.602 -1.6411 -0.4250  0.7446
 4468TIP3    H213348   5.944   2.375   3.727  2.4784  0.2356  3.3063
 4469TIP3   OH213349   6.670   3.909   5.952  0.2208 -0.1953  0.0886
 4469TIP3    H113350   6.647   3.901   6.044  0.6294 -0.3188  0.1827
 4469TIP3    H213351   6.686   4.003   5.939  0.7893 -0.2599  0.2989
 4470TIP3   OH213352   5.881   2.480   4.725  0.0473  0.0728  0.5882
 4470TIP3    H113353   5.822   2.479   4.650  0.7225  0.0282  0.0443
 4470TIP3    H213354   5.824   2.492   4.801 -0.5729  1.0043 -0.0009
 4471TIP3   OH213355   4.402   3.926   3.602  0.0731 -0.0299 -0.3244
 4471TIP3    H113356   4.323   3.880   3.630 -0.0525  0.7760  0.7546
 4471TIP3    H213357   4.473   3.879   3.645  0.0834 -0.1449 -0.4687
 4472TIP3   OH213358   5.708   0.870   5.178 -0.2098  0.0757  0.1853
 4472TIP3    H113359   5.716   0.861   5.273 -1.6436  0.1622  0.3318
 4472TIP3    H213360   5.668   0.788   5.149 -2.0935  1.0030  0.0022
 4473TIP3   OH213361   6.648   1.606   1.065 -0.2894  0.1338  0.1941
 4473TIP3    H113362   6.659   1.636   0.975 -0.8687  1.8882  0.6615
 4473TIP3    H213363   6.667   1.682   1.118 -0.1650 -0.8182  1.5656
 4474TIP3   OH213364   7.298   7.042   2.442 -0.6881  0.7701 -0.2277
 4474TIP3    H113365   7.235   6.979   2.406  1.6438 -1.3892 -0.7260
 4474TIP3    H213366   7.305   7.109   2.373 -1.8517  0.6505 -0.4865
 4475TIP3   OH213367   5.457   4.105   5.001 -0.3442  0.3245 -0.1624
 4475TIP3    H113368   5.497   4.127   5.085  0.8483 -0.0610 -0.6189
 4475TIP3    H213369   5.515   4.143   4.935 -1.9932  1.8495 -0.8351
 4476TIP3   OH213370   7.349   3.309   1.195 -0.5829 -0.4314  0.0195
 4476TIP3    H113371   7.434   3.331   1.234 -1.1252  0.9963  0.4301
 4476TIP3    H213372   7.294   3.385   1.212 -1.3195 -0.4237 -2.1410
 4477TIP3   OH213373   5.754   7.298   3.071 -0.4683  0.1347  0.3378
 4477TIP3    H113374   5.660   7.288   3.056 -0.7337  0.3547  1.7362
 4477TIP3    H213375   5.785   7.347   2.995 -1.2228 -1.1280 -0.8090
 4478TIP3   OH213376   0.398   1.268   0.717 -0.0129 -0.2277  0.1800
 4478TIP3    H113377   0.310   1.301   0.699  0.8481  2.4008  0.4197
 4478TIP3    H213378   0.428   1.233   0.633 -0.9153 -0.2675 -0.1376
 4479TIP3   OH213379   2.579   4.654   0.388 -0.0010  0.4367  0.5711
 4479TIP3    H113380   2.664   4.678   0.425  0.5938 -0.9364  0.1396
 4479TIP3    H213381   2.519   4.656   0.462  0.2326  2.0705  0.7685
 4480TIP3   OH213382   3.416   1.779   3.751  0.0130 -0.6101  0.2107
 4480TIP3    H113383   3.346   1.720   3.723 -0.3100 -0.1876  0.1290
 4480TIP3    H213384   3.396   1.798   3.843 -2.6122  3.1215 -0.9150
 4481TIP3   OH213385   7.272   2.220   1.765 -0.1663  0.7752  0.7599
 4481TIP3    H113386   7.233   2.140   1.801  0.4178  0.8518  1.6069
 4481TIP3    H213387   7.201   2.262   1.717  0.3151 -1.8988 -2.6581
 4482TIP3   OH213388   1.683   4.587   0.960  0.2382 -0.0703 -0.6547
 4482TIP3    H113389   1.714   4.497   0.948  0.1886  0.0161 -1.4593
 4482TIP3    H213390   1.588   4.582   0.945  0.2071  0.0882 -0.5207
 4483TIP3   OH213391   5.154   1.718   2.524 -0.2381  0.4081 -0.0723
 4483TIP3    H113392   5.068   1.760   2.519 -0.4309  0.2151  1.1327
 4483TIP3    H213393   5.138   1.639   2.576  0.8297  0.8672  1.0128
 4484TIP3   OH213394   6.777   2.487   1.683 -0.3810 -0.0369  0.2001
 4484TIP3    H113395   6.689   2.486   1.645  0.1579  0.3428 -1.1348
 4484TIP3    H213396   6.804   2.396   1.683 -0.3859 -0.0418 -0.3588
 4485TIP3   OH213397   3.321   4.922   4.132 -0.1233 -0.3150 -0.1848
 4485TIP3    H113398   3.240   4.970   4.114  0.4109  0.2317 -1.2275
 4485TIP3    H213399   3.309   4.837   4.090 -0.5604 -0.6453  0.5753
 4486TIP3   OH213400   0.961   4.013   6.257 -0.0497  0.0484 -0.2363
 4486TIP3    H113401   0.927   4.037   6.171  1.1166 -1.2903 -1.1028
 4486TIP3    H213402   0.951   3.918   6.261 -2.0586  0.2551  2.0016
 4487TIP3   OH213403   7.327   5.391   4.712  0.1380  0.4722 -0.1522
 4487TIP3    H113404   7.319   5.378   4.617  0.2950 -0.9776  0.0253
 4487TIP3    H213405   7.355   5.482   4.720 -3.2587  1.8141 -1.3452
 4488TIP3   OH213406   2.628   6.791   4.363 -0.2268  0.7931  0.3012
 4488TIP3    H113407   2.686   6.866   4.351  0.6461  0.2265  0.8379
 4488TIP3    H213408   2.567   6.796   4.289  1.5117  0.5179 -1.2258
 4489TIP3   OH213409   5.438   7.077   1.915  0.0943  0.2638  0.1957
 4489TIP3    H113410   5.412   6.999   1.867 -0.3445  1.4726 -1.6688
 4489TIP3    H213411   5.531   7.088   1.894 -0.4114  1.5633 -1.6732
 4490TIP3   OH213412   0.029   5.181   5.316 -0.1985  0.2752  0.6916
 4490TIP3    H113413   0.008   5.092   5.289 -0.3907  0.2500  0.9226
 4490TIP3    H213414  -0.006   5.188   5.404 -0.2474  0.6047  0.6457
 4491TIP3   OH213415   8.272   0.650   3.429  0.3719  0.3966 -0.1581
 4491TIP3    H113416   8.325   0.721   3.393  0.1003  0.6720 -0.0172
 4491TIP3    H213417   8.275   0.582   3.362 -0.8677  1.2458 -1.1179
 4492TIP3   OH213418   1.513   5.382   5.533 -0.3341  0.2264 -0.3070
 4492TIP3    H113419   1.461   5.458   5.558 -0.3916  0.8100 -2.0819
 4492TIP3    H213420   1.600   5.398   5.570 -0.3034  1.2479 -0.8007
 4493TIP3   OH213421   0.224   2.588   3.669  0.4945 -0.4435 -0.0718
 4493TIP3    H113422   0.320   2.593   3.665  0.5682  1.4307  1.9037
 4493TIP3    H213423   0.194   2.657   3.611  0.4004 -0.0135  0.4830
 4494TIP3   OH213424   5.866   1.458   2.837 -0.5943 -0.5974 -0.1489
 4494TIP3    H113425   5.906   1.445   2.923 -0.1593 -0.7984 -0.3771
 4494TIP3    H213426   5.939   1.480   2.780 -1.2203  2.9985  0.1897
 4495TIP3   OH213427   0.737   5.679   2.204 -0.0311 -0.6625 -0.2137
 4495TIP3    H113428   0.669   5.659   2.268  1.3437 -0.0933  1.4944
 4495TIP3    H213429   0.694   5.737   2.141 -1.8428 -2.4691 -0.7603
 4496TIP3   OH213430   0.993   2.471   2.863 -0.3719 -0.4725 -0.7273
 4496TIP3    H113431   1.041   2.389   2.859 -0.5288 -0.6752  0.9118
 4496TIP3    H213432   0.934   2.468   2.788 -0.7713 -2.1341 -0.3923
 4497TIP3   OH213433   5.330   3.054   0.371 -0.4521 -0.4557 -0.2185
 4497TIP3    H113434   5.309   3.010   0.289  0.8286  1.1763 -1.5040
 4497TIP3    H213435   5.423   3.076   0.363 -0.5662  0.7208  1.1772
 4498TIP3   OH213436   2.795   4.085   2.365 -0.0171 -0.0924  0.2942
 4498TIP3    H113437   2.757   4.038   2.291 -0.0242  0.9070 -0.3592
 4498TIP3    H213438   2.807   4.174   2.333  0.0879  0.3331  1.4711
 4499TIP3   OH213439   1.860   2.286   5.724 -0.3651  0.2144 -0.2330
 4499TIP3    H113440   1.922   2.357   5.739 -0.3657  0.1669 -0.0027
 4499TIP3    H213441   1.797   2.293   5.796 -0.2541 -0.1356 -0.0988
 4500TIP3   OH213442   0.337   5.769   3.472  0.0832 -0.3201 -0.5196
 4500TIP3    H113443   0.305   5.679   3.483  0.6377 -0.5825 -1.0474
 4500TIP3    H213444   0.353   5.777   3.378  2.3234 -0.4601 -0.1899
 4501TIP3   OH213445   5.692   6.077   3.264 -0.2969  0.3446 -0.1798
 4501TIP3    H113446   5.747   6.012   3.306 -0.8166  0.4402  0.6698
 4501TIP3    H213447   5.722   6.161   3.299 -1.1143  0.3829  0.4684
 4502TIP3   OH213448   3.007   4.967   0.235  0.0657 -0.0923  0.3062
 4502TIP3    H113449   2.924   4.920   0.227  0.4758 -1.0808  1.4893
 4502TIP3    H213450   3.062   4.929   0.166 -0.4870  0.6976 -0.6060
 4503TIP3   OH213451   2.489   4.163   5.519 -0.3679 -0.7401 -0.5176
 4503TIP3    H113452   2.457   4.081   5.557  0.8301 -0.7138  0.6148
 4503TIP3    H213453   2.520   4.214   5.593 -0.2946  0.3915 -1.3021
 4504TIP3   OH213454   1.452   1.915   0.229 -0.3671  0.1303 -0.2845
 4504TIP3    H113455   1.464   1.901   0.135 -0.5750  0.1046 -0.3062
 4504TIP3    H213456   1.378   1.860   0.253 -0.8337  0.7569 -0.2622
 4505TIP3   OH213457   7.491   5.187   1.142 -0.3013  0.1039 -0.1059
 4505TIP3    H113458   7.507   5.135   1.220  0.8810  2.7576  1.5725
 4505TIP3    H213459   7.396   5.202   1.143 -0.5796 -1.5273 -0.3431
 4506TIP3   OH213460   5.843   4.691   4.310 -0.0125  0.3243 -0.5193
 4506TIP3    H113461   5.844   4.685   4.406 -1.2387  1.1325 -0.4463
 4506TIP3    H213462   5.874   4.779   4.291  0.0481  0.2299 -0.8584
 4507TIP3   OH213463   0.199   7.233   0.728 -0.0592  0.5672  0.2815
 4507TIP3    H113464   0.151   7.215   0.647 -1.2375  2.7790  0.4090
 4507TIP3    H213465   0.150   7.304   0.770  1.3481  0.4806  2.2174
 4508TIP3   OH213466   7.564   1.872   6.604 -0.5440 -0.2498  0.6914
 4508TIP3    H113467   7.607   1.835   6.681  1.2453 -0.7763 -0.5035
 4508TIP3    H213468   7.621   1.848   6.531 -2.0688  0.4322 -0.7793
 4509TIP3   OH213469   0.040   2.366   4.192  0.3774 -0.3911 -0.4435
 4509TIP3    H113470  -0.050   2.373   4.222  1.2570  1.4156  2.2140
 4509TIP3    H213471   0.060   2.453   4.157  1.5550 -0.2111  0.6142
 4510TIP3   OH213472   0.166   7.125   1.024 -0.2368  0.0206  0.4313
 4510TIP3    H113473   0.156   7.110   0.930  1.5247 -0.2220  0.2396
 4510TIP3    H213474   0.089   7.084   1.063 -0.1626 -1.3758 -0.7849
 4511TIP3   OH213475   5.137   5.708   1.142  0.1375 -0.7804 -0.3780
 4511TIP3    H113476   5.042   5.699   1.131 -0.3114  0.4932  1.7358
 4511TIP3    H213477   5.167   5.621   1.169 -1.1716 -0.3886  2.8238
 4512TIP3   OH213478   2.213   3.885   1.857  0.1539 -0.2695  0.4226
 4512TIP3    H113479   2.167   3.827   1.795 -0.2029  0.1047  0.3310
 4512TIP3    H213480   2.193   3.849   1.943  1.2000 -1.1903  0.3017
 4513TIP3   OH213481   7.601   4.314   0.698  0.4788 -0.2884 -0.0451
 4513TIP3    H113482   7.593   4.262   0.778 -0.4320  0.7978  0.6000
 4513TIP3    H213483   7.536   4.384   0.708 -0.4625 -0.7487 -2.2253
 4514TIP3   OH213484   1.184   0.607   1.266 -0.8235 -0.0076 -0.1665
 4514TIP3    H113485   1.155   0.646   1.349 -1.1322  0.9002 -0.6933
 4514TIP3    H213486   1.163   0.672   1.200  1.9874  0.5358 -0.6656
 4515TIP3   OH213487   3.811   3.386   4.276  0.3811  0.0403 -0.4428
 4515TIP3    H113488   3.720   3.358   4.287  0.4650 -0.4511 -0.9607
 4515TIP3    H213489   3.862   3.323   4.326  0.5232 -0.3954 -1.1203
 4516TIP3   OH213490   7.039   0.192   4.247  0.3944  0.1881 -0.8843
 4516TIP3    H113491   7.132   0.213   4.261  0.6326 -1.8323  1.1565
 4516TIP3    H213492   7.028   0.105   4.286 -2.4935  0.5925 -0.6042
 4517TIP3   OH213493   1.341   1.807   3.935  0.3224  0.1425  0.5419
 4517TIP3    H113494   1.392   1.850   4.003  0.9208 -1.4326  1.1441
 4517TIP3    H213495   1.250   1.826   3.957  0.5155 -0.2792  1.7450
 4518TIP3   OH213496   7.120   2.207   4.248  0.1815  0.2569  0.3020
 4518TIP3    H113497   7.159   2.133   4.201  0.8894  0.6766  0.2052
 4518TIP3    H213498   7.056   2.167   4.307 -0.5994 -0.3001 -0.8821
 4519TIP3   OH213499   5.298   3.105   2.487 -0.4359  0.1753  0.0272
 4519TIP3    H113500   5.302   3.124   2.581 -0.1548 -1.0333  0.2732
 4519TIP3    H213501   5.250   3.179   2.450 -1.3148  0.2432  1.2463
 4520TIP3   OH213502   6.577   5.964   1.103  0.1501 -0.3291  0.3036
 4520TIP3    H113503   6.614   5.997   1.184 -1.6467  0.8794  0.6928
 4520TIP3    H213504   6.562   6.042   1.050  0.9230 -1.0623 -1.0553
 4521TIP3   OH213505   6.815   4.740   4.714  0.3420 -0.1631  0.2223
 4521TIP3    H113506   6.751   4.796   4.670 -0.7625 -1.8661 -0.4400
 4521TIP3    H213507   6.797   4.751   4.807 -1.0286 -0.7036  0.0410
 4522TIP3   OH213508   2.400   7.757   3.499 -0.0272 -0.2017  0.3763
 4522TIP3    H113509   2.402   7.736   3.592 -0.6457  0.6458  0.5965
 4522TIP3    H213510   2.423   7.850   3.495 -2.1672  0.3626 -0.0948
 4523TIP3   OH213511   6.510   7.400   0.015  0.4677 -0.0080  0.2710
 4523TIP3    H113512   6.482   7.389   0.105 -1.8782  0.8120 -0.2833
 4523TIP3    H213513   6.480   7.488  -0.009 -1.3279 -1.1559 -2.0504
 4524TIP3   OH213514   0.431   0.908   4.982  0.2634  0.0070 -0.1280
 4524TIP3    H113515   0.371   0.977   4.953 -0.6899 -0.5782  0.4004
 4524TIP3    H213516   0.444   0.853   4.905 -1.3909 -0.9196  0.2070
 4525TIP3   OH213517   4.139   4.906   3.450  0.3922  0.2686 -0.3787
 4525TIP3    H113518   4.159   4.847   3.522  0.2228 -1.0460 -1.3854
 4525TIP3    H213519   4.222   4.949   3.429  0.3953  0.8236  0.7211
 4526TIP3   OH213520   0.836   6.841   1.669 -0.5264 -0.3154  0.0785
 4526TIP3    H113521   0.844   6.789   1.588  1.7961 -0.6935  0.4802
 4526TIP3    H213522   0.758   6.806   1.712 -0.3563 -1.8828 -0.8012
 4527TIP3   OH213523   4.059   2.617   6.515 -0.3096  0.4304 -0.3816
 4527TIP3    H113524   3.965   2.635   6.519 -0.5174 -0.8814  1.6545
 4527TIP3    H213525   4.093   2.650   6.598  0.4404 -1.9963  0.3521
 4528TIP3   OH213526   6.932   0.575   3.941 -0.0383 -0.2882  0.8492
 4528TIP3    H113527   6.988   0.627   3.998  3.5616 -4.3046  1.5170
 4528TIP3    H213528   6.969   0.585   3.854 -3.0676  2.6616 -0.3134
 4529TIP3   OH213529   2.709   2.943   3.958 -0.4156  0.0238 -0.4116
 4529TIP3    H113530   2.788   2.991   3.982 -0.6259  0.1726 -0.0092
 4529TIP3    H213531   2.665   2.925   4.042 -0.2375 -1.0532 -0.5282
 4530TIP3   OH213532   1.684   7.294   2.533  0.1047 -0.2866 -0.2093
 4530TIP3    H113533   1.689   7.201   2.555  0.2134 -0.0579  0.7641
 4530TIP3    H213534   1.592   7.310   2.513  0.2759 -0.8542 -1.6079
 4531TIP3   OH213535   1.666   4.102   4.964 -0.1594 -0.0067  0.0400
 4531TIP3    H113536   1.650   4.048   5.041 -1.3253  0.5331  0.2029
 4531TIP3    H213537   1.713   4.045   4.903  0.0801 -0.6772  0.8392
 4532TIP3   OH213538   4.978   5.358   2.595  0.4277  0.1448 -0.2548
 4532TIP3    H113539   4.928   5.432   2.561  0.7374  1.0859  1.2398
 4532TIP3    H213540   5.068   5.391   2.601  0.7424 -0.6588 -0.4181
 4533TIP3   OH213541   7.609   0.123   4.179 -0.7239  0.3772  0.5908
 4533TIP3    H113542   7.648   0.207   4.203  0.3759 -0.2268  0.9975
 4533TIP3    H213543   7.589   0.131   4.086 -1.8004  1.5189  0.8934
 4534TIP3   OH213544   7.833   6.724   2.813  0.2710 -0.0603  0.4179
 4534TIP3    H113545   7.864   6.730   2.722 -1.4326 -1.1749 -0.2842
 4534TIP3    H213546   7.741   6.750   2.808  0.3151  0.4781  1.9577
 4535TIP3   OH213547   1.298   5.910   5.935  0.6174  0.0815 -0.1416
 4535TIP3    H113548   1.211   5.872   5.928  0.7484 -0.1618 -0.4896
 4535TIP3    H213549   1.355   5.837   5.958  0.6242  0.3685  0.7669
 4536TIP3   OH213550   6.550   7.068   3.446 -0.0779 -0.1016 -0.0124
 4536TIP3    H113551   6.472   7.102   3.490  0.6000  2.0402 -0.3497
 4536TIP3    H213552   6.537   7.091   3.354  1.6957  2.0064  0.1623
 4537TIP3   OH213553   3.609   3.856   5.846 -0.3665  0.3731  0.5451
 4537TIP3    H113554   3.628   3.942   5.885 -1.4939  0.7779  0.2362
 4537TIP3    H213555   3.693   3.810   5.849 -0.6000 -0.1549  4.7004
 4538TIP3   OH213556   1.537   4.312   5.934  0.4973 -0.0015 -0.4233
 4538TIP3    H113557   1.550   4.401   5.900  1.7235  1.0659  2.5083
 4538TIP3    H213558   1.625   4.273   5.932 -0.0113 -1.1413 -1.5553
 4539TIP3   OH213559   6.708   5.226   2.639 -0.6722  0.1858  0.2301
 4539TIP3    H113560   6.712   5.306   2.588  0.9709  0.9150  1.4337
 4539TIP3    H213561   6.745   5.159   2.581  0.5654  0.8696  0.1979
 4540TIP3   OH213562   5.294   4.248   1.655  0.0437  0.3368  0.6089
 4540TIP3    H113563   5.206   4.285   1.643 -0.0316  0.0138  0.1373
 4540TIP3    H213564   5.334   4.303   1.723 -1.8807 -1.8346  3.7376
 4541TIP3   OH213565   2.576   5.983   1.255 -0.2802  0.0341  0.0999
 4541TIP3    H113566   2.623   6.023   1.182 -0.0236  0.6517  0.5931
 4541TIP3    H213567   2.644   5.938   1.305 -0.2614  0.5995  0.5989
 4542TIP3   OH213568   5.637   2.561   4.963 -0.4573  0.3740  0.2662
 4542TIP3    H113569   5.621   2.655   4.962 -1.8624  0.1933  1.4654
 4542TIP3    H213570   5.551   2.522   4.983 -0.1753 -1.2371 -1.4085
 4543TIP3   OH213571   0.851   6.701   0.042 -0.0959 -0.2148  0.1486
 4543TIP3    H113572   0.943   6.673   0.034 -0.1269 -0.5173  0.8040
 4543TIP3    H213573   0.821   6.660   0.123 -0.6433  0.3487  0.2333
 4544TIP3   OH213574   5.833   3.571   3.924  0.1652  0.2991 -0.0911
 4544TIP3    H113575   5.798   3.490   3.889 -0.3285  0.7448 -0.6604
 4544TIP3    H213576   5.890   3.544   3.995 -0.5542 -0.5021  0.1988
 4545TIP3   OH213577   3.582   7.184   4.580 -0.4492 -0.2511 -0.3728
 4545TIP3    H113578   3.510   7.174   4.643  0.1633  3.3872  1.1450
 4545TIP3    H213579   3.658   7.207   4.634  0.9292 -0.2303 -2.2291
 4546TIP3   OH213580   5.899   5.391   6.772  0.1164 -0.1885  0.1157
 4546TIP3    H113581   5.826   5.434   6.817 -0.5890 -0.2394 -0.9603
 4546TIP3    H213582   5.921   5.449   6.699 -0.2859 -1.2077 -0.8434
 4547TIP3   OH213583   1.870   6.929   1.676  0.0901  0.3989 -0.1938
 4547TIP3    H113584   1.949   6.879   1.656 -0.5394 -0.5641 -0.3810
 4547TIP3    H213585   1.832   6.885   1.752  0.7830  2.1075  1.2125
 4548TIP3   OH213586   2.404   5.662   6.695  0.1342 -0.2943 -0.3450
 4548TIP3    H113587   2.346   5.646   6.769  1.1097 -0.2390  0.4478
 4548TIP3    H213588   2.346   5.660   6.618 -1.1568  1.2226  0.5343
 4549TIP3   OH213589   3.895   3.193   4.462  0.6357 -0.2961  0.0957
 4549TIP3    H113590   3.835   3.166   4.531  0.1527  0.4461 -0.0202
 4549TIP3    H213591   3.936   3.112   4.432 -1.1031 -0.9671 -0.5845
 4550TIP3   OH213592   7.372  -0.015   1.185  0.4566  0.1072  0.4117
 4550TIP3    H113593   7.459  -0.017   1.143  1.1331  0.3980  1.7538
 4550TIP3    H213594   7.325   0.054   1.138  1.0491  0.1516 -0.1395
 4551TIP3   OH213595   6.593   7.648   1.949 -0.0388 -0.2380 -0.6126
 4551TIP3    H113596   6.617   7.704   2.023  1.1955  0.4075 -1.4563
 4551TIP3    H213597   6.585   7.561   1.987 -2.1652  0.4672  0.7676
 4552TIP3   OH213598   2.299   0.940   3.794 -0.0671 -0.3896 -0.3819
 4552TIP3    H113599   2.237   1.006   3.762  0.1661 -0.7615 -1.6718
 4552TIP3    H213600   2.254   0.857   3.783 -0.6640 -0.4449  1.9774
 4553TIP3   OH213601   5.675   6.583   2.713 -0.2968  0.3360  0.0091
 4553TIP3    H113602   5.703   6.519   2.778  0.1130  1.0564  0.5622
 4553TIP3    H213603   5.587   6.608   2.741 -0.1759  0.5399  0.2168
 4554TIP3   OH213604   8.171   7.560   2.015 -0.3826  0.5694 -0.4391
 4554TIP3    H113605   8.216   7.557   2.100 -0.3839 -2.6458 -0.4368
 4554TIP3    H213606   8.240   7.543   1.951 -1.0446 -1.4790 -0.6670
 4555TIP3   OH213607   0.869   4.161   3.106 -0.0914 -0.1411 -0.5011
 4555TIP3    H113608   0.941   4.189   3.049  0.9081 -0.8471  0.3583
 4555TIP3    H213609   0.903   4.082   3.150 -1.3289 -0.3812  0.0592
 4556TIP3   OH213610   4.625   4.576   6.536  0.2932  0.0073 -0.3786
 4556TIP3    H113611   4.598   4.608   6.622  1.7873  0.2292  0.0400
 4556TIP3    H213612   4.717   4.552   6.547  0.4083 -0.3249 -1.8167
 4557TIP3   OH213613   7.696   2.898   1.124 -0.0933  0.1655 -0.0723
 4557TIP3    H113614   7.774   2.862   1.083 -0.0073  0.0661  0.1755
 4557TIP3    H213615   7.649   2.942   1.053 -0.4239 -0.7942 -0.4631
 4558TIP3   OH213616   2.806   3.587   6.755  0.3873  0.0464  0.8940
 4558TIP3    H113617   2.718   3.619   6.736 -0.3049 -1.7386  0.8585
 4558TIP3    H213618   2.831   3.538   6.676  1.5284  0.7607  0.7990
 4559TIP3   OH213619   6.659   7.716   6.790 -0.3192  0.6496  0.2082
 4559TIP3    H113620   6.726   7.727   6.723 -0.6028  0.1659 -0.1685
 4559TIP3    H213621   6.637   7.623   6.786  0.2626  0.4388  1.5713
 4560TIP3   OH213622   4.204   3.149   6.411 -0.8609  0.3281  0.0472
 4560TIP3    H113623   4.266   3.131   6.481 -0.5546  0.9221 -0.0591
 4560TIP3    H213624   4.125   3.100   6.435  0.4855 -2.6348 -1.1894
 4561TIP3   OH213625   1.887   0.040   0.922 -0.2888 -0.0663  0.2910
 4561TIP3    H113626   1.952   0.086   0.975  0.4195 -2.5509  1.7990
 4561TIP3    H213627   1.804   0.054   0.968  0.3525 -2.3991  2.4315
 4562TIP3   OH213628   4.855   4.127   0.480  0.0493 -0.2939  0.1931
 4562TIP3    H113629   4.803   4.157   0.554  0.3875  0.0767  0.2837
 4562TIP3    H213630   4.899   4.048   0.512 -0.8798 -0.9304 -0.0623
 4563TIP3   OH213631   6.335   3.172   5.132  0.0696  0.5968  0.1319
 4563TIP3    H113632   6.431   3.170   5.136  0.0803  1.0266  0.1370
 4563TIP3    H213633   6.309   3.080   5.133  0.4333  0.4965  1.1555
 4564TIP3   OH213634   4.511   6.645   0.112  0.2041 -0.2864 -0.2341
 4564TIP3    H113635   4.575   6.646   0.041 -0.0580  2.4296 -0.5512
 4564TIP3    H213636   4.449   6.576   0.087  0.8211 -0.2644 -1.9814
 4565TIP3   OH213637   4.489   2.315   3.865  0.1449 -0.0725 -0.3008
 4565TIP3    H113638   4.563   2.255   3.855  0.0287 -0.4782  0.9795
 4565TIP3    H213639   4.491   2.339   3.958 -1.3410 -0.1088 -0.2414
 4566TIP3   OH213640   5.665   7.453   4.788  0.0144  0.2648  0.3241
 4566TIP3    H113641   5.721   7.402   4.846 -0.6963 -0.3398  0.4974
 4566TIP3    H213642   5.663   7.540   4.826  1.2489  0.4443  0.0239
 4567TIP3   OH213643   4.418   1.205   2.963 -0.1263  0.1851  0.3589
 4567TIP3    H113644   4.423   1.293   3.000  1.3455  0.0435  0.5621
 4567TIP3    H213645   4.393   1.219   2.872  2.4147  1.0672 -0.3148
 4568TIP3   OH213646   5.685   4.678   3.254 -0.4269 -0.3671 -0.0829
 4568TIP3    H113647   5.774   4.673   3.289 -0.3695  0.1898 -0.1310
 4568TIP3    H213648   5.638   4.607   3.296  0.5969 -2.1066 -1.7316
 4569TIP3   OH213649   5.972   2.589   6.694 -0.4499  0.4391  0.0334
 4569TIP3    H113650   6.006   2.566   6.780 -0.6177 -0.4438 -0.1296
 4569TIP3    H213651   6.010   2.675   6.675 -0.0167  0.4115  0.7676
 4570TIP3   OH213652   2.349   0.165   1.189 -0.1927 -0.2961 -0.3493
 4570TIP3    H113653   2.322   0.076   1.169 -1.6871  0.5115 -2.2556
 4570TIP3    H213654   2.309   0.184   1.274 -0.0952 -1.3318 -0.0693
 4571TIP3   OH213655   7.808   7.835   2.810  0.0487  0.5029  0.0382
 4571TIP3    H113656   7.893   7.854   2.770  1.0885 -0.6969  1.6073
 4571TIP3    H213657   7.781   7.752   2.770 -0.9619  1.4311 -1.2905
 4572TIP3   OH213658   0.607   4.730   1.239 -0.3460  0.5595  0.7552
 4572TIP3    H113659   0.637   4.765   1.324 -4.0628  0.3028  2.3621
 4572TIP3    H213660   0.579   4.807   1.191  0.2507  0.5506  0.3795
 4573TIP3   OH213661   1.442   4.259   4.933  0.3037 -0.0175  0.1910
 4573TIP3    H113662   1.401   4.235   4.850  1.1384 -0.1352 -0.1921
 4573TIP3    H213663   1.527   4.216   4.931 -0.3303 -1.4580  1.8505
 4574TIP3   OH213664   5.412   6.256   3.693 -0.0746 -0.0882  0.1898
 4574TIP3    H113665   5.491   6.218   3.654  0.2601 -0.1973  0.9598
 4574TIP3    H213666   5.445   6.329   3.746 -0.4820 -0.2085  0.6104
 4575TIP3   OH213667   7.124   5.067   3.414 -0.4069  0.1419 -0.2639
 4575TIP3    H113668   7.215   5.045   3.432 -0.3596  1.0301  0.6454
 4575TIP3    H213669   7.092   4.994   3.360  0.6174 -0.5529  0.0437
 4576TIP3   OH213670   5.457   2.683   1.631 -0.1393 -0.0159  0.4749
 4576TIP3    H113671   5.412   2.755   1.587  1.4033  1.4309  1.1647
 4576TIP3    H213672   5.536   2.668   1.579  0.8966  0.6395  1.7855
 4577TIP3   OH213673   1.434   4.797   3.046  0.6860 -0.2740 -0.8191
 4577TIP3    H113674   1.396   4.711   3.029 -1.7043  0.1520  1.6422
 4577TIP3    H213675   1.370   4.859   3.014  1.7893  0.6051 -1.3852
 4578TIP3   OH213676   7.878   4.161   6.403 -0.2962 -0.8789  0.2002
 4578TIP3    H113677   7.832   4.240   6.372 -0.0537 -0.7893  0.0647
 4578TIP3    H213678   7.839   4.142   6.488  0.1575 -0.1769  0.5732
 4579TIP3   OH213679   2.697   1.102   2.967  0.7729 -0.7404 -0.1083
 4579TIP3    H113680   2.611   1.119   3.006  0.9918 -1.9847  1.0027
 4579TIP3    H213681   2.688   1.017   2.925  0.7876  0.2188 -2.1616
 4580TIP3   OH213682   7.864   4.716   6.237  0.4174 -0.3253 -0.0987
 4580TIP3    H113683   7.863   4.786   6.171 -0.6026  1.8362  2.0780
 4580TIP3    H213684   7.951   4.722   6.277  1.6910 -2.7383 -2.1827
 4581TIP3   OH213685   2.289   7.358   0.576 -0.3706  0.1293 -0.0048
 4581TIP3    H113686   2.293   7.450   0.605  1.4452  0.1149 -0.0964
 4581TIP3    H213687   2.357   7.352   0.509 -1.6217 -0.8945 -1.2313
 4582TIP3   OH213688   0.323   4.411   5.660  0.0303 -0.0734 -0.0803
 4582TIP3    H113689   0.230   4.406   5.638 -0.0958 -2.0831  0.6688
 4582TIP3    H213690   0.367   4.361   5.590  0.3138 -0.7861  0.5910
 4583TIP3   OH213691   8.320   0.322   2.137 -0.1719  0.0741 -0.7104
 4583TIP3    H113692   8.236   0.276   2.142  0.2623 -0.6962 -0.3070
 4583TIP3    H213693   8.297   0.414   2.145 -0.8611 -0.2104  1.0003
 4584TIP3   OH213694   4.657   1.010   1.263  0.0103 -0.6629  0.0854
 4584TIP3    H113695   4.664   1.015   1.168  1.0230 -0.5531  0.1540
 4584TIP3    H213696   4.564   1.026   1.281  0.0291  0.5933 -0.7979
 4585TIP3   OH213697   1.078   0.897   0.218 -0.6788 -0.0667 -0.4698
 4585TIP3    H113698   1.134   0.937   0.151 -0.2904 -0.7296 -0.5499
 4585TIP3    H213699   1.091   0.951   0.295 -2.1397  1.5120 -1.2657
 4586TIP3   OH213700   4.733   4.443   2.351 -0.6930  0.1663  0.7878
 4586TIP3    H113701   4.744   4.367   2.294 -1.2527  0.8152 -0.2160
 4586TIP3    H213702   4.795   4.508   2.316 -2.7730  1.4572 -0.7004
 4587TIP3   OH213703   2.690   6.350   3.061 -0.3365 -0.2000 -0.3380
 4587TIP3    H113704   2.668   6.306   3.144 -0.0582  0.8657  0.3185
 4587TIP3    H213705   2.765   6.301   3.027 -0.3756 -0.5710  0.0941
 4588TIP3   OH213706   1.486   7.596   1.690 -0.0402 -0.1070  0.1108
 4588TIP3    H113707   1.575   7.583   1.658  0.5584  1.2344  1.1647
 4588TIP3    H213708   1.434   7.611   1.610  0.7595 -0.3739 -0.4718
 4589TIP3   OH213709   6.338   5.968   3.240  0.0254 -0.4847 -0.5800
 4589TIP3    H113710   6.341   6.046   3.184  0.6484  0.2006  0.3721
 4589TIP3    H213711   6.277   5.991   3.310 -0.1590 -1.0362 -0.5565
 4590TIP3   OH213712   5.318   3.224   2.724  0.3919  0.4586  0.3745
 4590TIP3    H113713   5.260   3.298   2.740 -1.2267 -0.3622 -1.2541
 4590TIP3    H213714   5.275   3.150   2.768  0.0556 -0.2107 -1.0363
 4591TIP3   OH213715   4.755   0.927   1.719 -0.5806 -0.5599  0.2073
 4591TIP3    H113716   4.810   0.992   1.676 -0.1677 -0.4592  0.8775
 4591TIP3    H213717   4.816   0.865   1.758 -0.9362 -2.7263 -2.3644
 4592TIP3   OH213718   6.497   2.851   1.850  0.4146 -0.5261  0.4031
 4592TIP3    H113719   6.525   2.942   1.848 -0.6745 -0.1807 -1.2559
 4592TIP3    H213720   6.450   2.841   1.932 -0.6177  0.8027  0.0085
 4593TIP3   OH213721   4.625   7.466   1.379 -0.8661 -0.3712  0.0512
 4593TIP3    H113722   4.535   7.435   1.389 -0.4995 -0.8175  3.2055
 4593TIP3    H213723   4.616   7.562   1.376 -1.4601 -0.3529  1.3335
 4594TIP3   OH213724   5.410   3.684   2.126 -0.5235 -0.0236  0.1614
 4594TIP3    H113725   5.398   3.655   2.216  1.6520  1.0095  0.8582
 4594TIP3    H213726   5.408   3.780   2.131  1.1240  0.0845 -0.6128
 4595TIP3   OH213727   3.420   2.531   1.080 -0.1053  0.2313  0.0784
 4595TIP3    H113728   3.393   2.550   0.991  0.1949 -0.7437 -0.2351
 4595TIP3    H213729   3.347   2.559   1.134 -0.3829  0.6177 -0.4881
 4596TIP3   OH213730   5.645   2.191   1.026 -0.6670  0.2642  0.1771
 4596TIP3    H113731   5.634   2.262   0.962 -1.2302  1.3380  1.4146
 4596TIP3    H213732   5.733   2.206   1.062 -0.0059 -0.8457 -0.9037
 4597TIP3   OH213733   0.452   5.743   2.754 -0.4721  0.6496 -0.4199
 4597TIP3    H113734   0.529   5.778   2.709 -1.5172  0.4776 -2.4663
 4597TIP3    H213735   0.487   5.700   2.832  1.5835 -0.0237 -1.6366
 4598TIP3   OH213736   6.859   4.086   1.363 -0.3727 -0.5888  0.2764
 4598TIP3    H113737   6.895   4.009   1.407  0.5756 -0.1389  0.3264
 4598TIP3    H213738   6.890   4.079   1.273 -0.1436 -0.1809  0.3234
 4599TIP3   OH213739   4.225   1.743   5.044 -0.3213 -0.4400  0.2978
 4599TIP3    H113740   4.208   1.811   5.110 -0.4130 -0.7087  0.5502
 4599TIP3    H213741   4.181   1.665   5.078 -0.0383 -0.6819  0.1119
 4600TIP3   OH213742   7.639   2.186   4.421 -0.1516  0.2897 -0.0609
 4600TIP3    H113743   7.691   2.215   4.346  0.1130  0.3409  0.1400
 4600TIP3    H213744   7.557   2.236   4.414 -0.2236  0.1207 -0.4462
 4601TIP3   OH213745   0.287   2.061   5.500  0.1212 -0.4387 -0.3478
 4601TIP3    H113746   0.311   1.969   5.492  0.5073 -0.2347 -1.8917
 4601TIP3    H213747   0.288   2.094   5.410  0.3091  1.1504  0.1964
 4602TIP3   OH213748   2.334   7.392   5.910 -0.9646  0.0676  0.0940
 4602TIP3    H113749   2.414   7.400   5.859 -0.6184  0.4855  0.6869
 4602TIP3    H213750   2.265   7.376   5.845 -0.2322 -1.5165 -0.3319
 4603TIP3   OH213751   1.930   0.637   6.539  0.0634  0.1704 -0.5236
 4603TIP3    H113752   1.910   0.654   6.631 -0.9759 -1.5767 -0.3935
 4603TIP3    H213753   1.897   0.549   6.523 -1.0816  0.9571 -2.9369
 4604TIP3   OH213754   4.637   3.967   6.657 -0.1688 -0.4250 -0.0252
 4604TIP3    H113755   4.573   4.018   6.708 -0.4725 -0.2502 -0.5672
 4604TIP3    H213756   4.592   3.948   6.575  0.8242  0.5549 -0.8255
 4605TIP3   OH213757   0.984   5.142   6.063 -0.0022 -0.0210 -0.0879
 4605TIP3    H113758   0.941   5.228   6.056 -0.6605 -0.2239  1.1475
 4605TIP3    H213759   0.974   5.103   5.977  0.3404  1.1600 -0.6814
 4606TIP3   OH213760   3.854   4.581   1.603 -0.1341 -0.3531  0.1302
 4606TIP3    H113761   3.875   4.602   1.694  0.0634  0.1574 -0.0301
 4606TIP3    H213762   3.928   4.527   1.573  1.3972  2.0285 -0.6485
 4607TIP3   OH213763   5.457   0.761   5.328 -0.1666  0.0891 -0.1736
 4607TIP3    H113764   5.369   0.725   5.314 -0.3406  0.8886 -1.2174
 4607TIP3    H213765   5.515   0.703   5.279 -0.3776  0.8483 -1.3442
 4608TIP3   OH213766   3.636   2.416   5.218  0.3136 -0.0541 -0.3492
 4608TIP3    H113767   3.572   2.405   5.288  0.5295  0.6271 -0.0386
 4608TIP3    H213768   3.716   2.374   5.250 -0.1671 -1.5917 -1.0480
 4609TIP3   OH213769   4.898   0.914   6.420  0.0755 -0.1026 -0.0860
 4609TIP3    H113770   4.986   0.894   6.451 -0.0383 -0.0949  0.2408
 4609TIP3    H213771   4.912   0.977   6.349  0.5005 -1.8335 -1.6486
 4610TIP3   OH213772   6.820   7.004   6.464 -0.1400  0.2417 -0.4552
 4610TIP3    H113773   6.890   7.003   6.400  0.5055  2.4418  0.1027
 4610TIP3    H213774   6.740   6.988   6.414  0.5403 -0.1196 -1.4434
 4611TIP3   OH213775   4.927   0.942   3.019 -0.0309 -0.3644 -0.3154
 4611TIP3    H113776   4.849   0.996   3.029  0.5422  0.3698  0.2606
 4611TIP3    H213777   4.896   0.865   2.969 -0.4982  1.2490 -2.6781
 4612TIP3   OH213778   8.021   3.941   1.582  0.1567 -0.0472  0.7574
 4612TIP3    H113779   8.058   3.919   1.496  0.1335 -0.2884  0.8098
 4612TIP3    H213780   7.984   3.859   1.614 -2.2302  0.5750 -0.1768
 4613TIP3   OH213781   5.096   1.618   1.739  0.6179  0.3489 -0.1704
 4613TIP3    H113782   5.078   1.638   1.647 -1.4409 -1.2528 -0.1967
 4613TIP3    H213783   5.012   1.589   1.774  1.4229  0.6270  2.1702
 4614TIP3   OH213784   2.477   5.625   3.837 -0.3099  0.1722 -0.8441
 4614TIP3    H113785   2.545   5.692   3.835 -1.1568  1.1539  0.9985
 4614TIP3    H213786   2.524   5.543   3.851  0.8955  0.0247 -4.5593
 4615TIP3   OH213787   4.744   7.366   2.679  0.4027 -0.0936  0.5496
 4615TIP3    H113788   4.667   7.380   2.733 -2.1860  1.0602 -3.0838
 4615TIP3    H213789   4.815   7.412   2.725 -1.5999  0.9423  2.8002
 4616TIP3   OH213790   3.125   5.182   5.162  0.6721 -0.1326  0.4575
 4616TIP3    H113791   3.058   5.115   5.154 -1.0845  1.7160 -1.4867
 4616TIP3    H213792   3.142   5.188   5.256  0.1087 -2.4757  0.7725
 4617TIP3   OH213793   0.506   3.696   1.531  0.3835  0.1469 -0.3114
 4617TIP3    H113794   0.451   3.723   1.457  0.1006  0.4174 -0.0071
 4617TIP3    H213795   0.461   3.732   1.608  1.0769  0.5193 -0.0763
 4618TIP3   OH213796   6.453   2.279   1.226 -0.5701  0.0889  0.6358
 4618TIP3    H113797   6.482   2.221   1.156 -1.5566  0.9974 -0.5859
 4618TIP3    H213798   6.462   2.367   1.188  1.0029  0.7840  2.4688
 4619TIP3   OH213799   5.841   5.590   3.381  0.4338 -0.2261 -0.3335
 4619TIP3    H113800   5.760   5.543   3.398  0.3160  0.4581  1.1260
 4619TIP3    H213801   5.824   5.640   3.301  0.7069 -2.8959 -2.2182
 4620TIP3   OH213802   2.934   1.267   2.918  0.5425  0.5682 -0.4534
 4620TIP3    H113803   2.854   1.298   2.874  0.6789  1.0635 -0.3592
 4620TIP3    H213804   2.912   1.178   2.947 -0.9271  1.6195  1.9174
 4621TIP3   OH213805   3.675   7.533   3.669  0.0216  0.4315 -0.5600
 4621TIP3    H113806   3.627   7.454   3.694 -2.0140  1.0776 -2.1924
 4621TIP3    H213807   3.649   7.598   3.734 -1.6638  0.8647 -1.6097
 4622TIP3   OH213808   7.504   4.896   4.719  0.1141 -0.2890  0.1537
 4622TIP3    H113809   7.542   4.959   4.658  2.5536 -0.1864  1.6611
 4622TIP3    H213810   7.507   4.813   4.672  0.2883  0.0773 -0.5055
 4623TIP3   OH213811   4.445   2.261   6.206 -0.4223 -0.2429 -0.1650
 4623TIP3    H113812   4.466   2.354   6.195  0.3890 -0.1146  1.9774
 4623TIP3    H213813   4.523   2.215   6.175 -0.1359 -0.1199  0.3624
 4624TIP3   OH213814   7.630   4.326   0.324 -0.2764 -0.2772 -0.7659
 4624TIP3    H113815   7.680   4.245   0.322 -1.1172 -0.8081 -1.2290
 4624TIP3    H213816   7.643   4.364   0.238  1.5208  0.9928  0.0221
 4625TIP3   OH213817   1.092   1.085   3.097 -0.0131  0.0343 -0.2708
 4625TIP3    H113818   1.063   1.166   3.056  0.7799  0.2953 -0.3374
 4625TIP3    H213819   1.025   1.021   3.075  0.2578  0.2322 -1.7411
 4626TIP3   OH213820   6.226   5.492   1.651  0.2931  0.3754 -0.0434
 4626TIP3    H113821   6.268   5.511   1.735 -0.6418  2.7215 -0.0350
 4626TIP3    H213822   6.166   5.566   1.637 -0.7572 -0.7702 -2.0193
 4627TIP3   OH213823   0.574   5.240   1.652 -0.2027  0.5182 -0.4483
 4627TIP3    H113824   0.631   5.257   1.727  1.7353  1.2438 -1.9809
 4627TIP3    H213825   0.527   5.323   1.639  1.4368  1.3234 -1.5740
 4628TIP3   OH213826   7.997   2.331   4.700  0.2353 -0.0425 -0.1990
 4628TIP3    H113827   8.087   2.298   4.696  0.1418 -0.3613  0.2467
 4628TIP3    H213828   8.002   2.419   4.663  0.6767 -0.1682 -0.4438
 4629TIP3   OH213829   1.079   2.806   5.060 -0.1709 -0.4183 -0.1093
 4629TIP3    H113830   1.083   2.893   5.018  1.4915 -0.7953 -0.8380
 4629TIP3    H213831   1.157   2.761   5.027 -0.3076 -1.7328  1.2837
 4630TIP3   OH213832   5.732   2.340   4.504  0.1770  0.2325  0.1760
 4630TIP3    H113833   5.689   2.274   4.450  1.3950  1.6055 -2.7112
 4630TIP3    H213834   5.823   2.340   4.472  0.7886  1.6310  1.7966
 4631TIP3   OH213835   0.965   4.357   3.880 -0.6036  0.2497  0.0265
 4631TIP3    H113836   0.913   4.414   3.937 -0.8078  0.2624 -0.1723
 4631TIP3    H213837   1.043   4.407   3.860 -1.0230  0.6685 -0.5803
 4632TIP3   OH213838   3.724   0.523   2.004  0.1269  0.0409 -0.2745
 4632TIP3    H113839   3.710   0.615   2.023  0.9863 -0.0356  0.8526
 4632TIP3    H213840   3.660   0.477   2.059  0.5819 -0.0777  0.1608
 4633TIP3   OH213841   6.780   4.740   0.362 -0.3177  0.0316 -0.3850
 4633TIP3    H113842   6.763   4.672   0.298 -1.0413  0.6612 -0.8869
 4633TIP3    H213843   6.703   4.740   0.419 -1.7529  2.2953 -2.1199
 4634TIP3   OH213844   1.605   6.371   4.418 -0.6216  0.3580 -0.2429
 4634TIP3    H113845   1.541   6.411   4.359  0.2144  0.4287 -1.1222
 4634TIP3    H213846   1.689   6.380   4.372 -0.3212 -1.9514 -0.2423
 4635TIP3   OH213847   6.178   1.552   4.625 -0.0087 -0.3952 -0.1547
 4635TIP3    H113848   6.164   1.463   4.593  0.3976 -0.5509  0.1026
 4635TIP3    H213849   6.243   1.589   4.565 -1.8955  0.5345 -1.7272
 4636TIP3   OH213850   4.709   1.248   4.346  0.3990 -0.3667 -0.1737
 4636TIP3    H113851   4.712   1.172   4.287  2.1025 -0.7158  0.3241
 4636TIP3    H213852   4.782   1.235   4.406  1.1735  2.0198 -0.5067
 4637TIP3   OH213853   3.762   3.183   2.776 -0.2600  0.5624  0.0893
 4637TIP3    H113854   3.719   3.159   2.694  0.8740  0.0069 -0.3791
 4637TIP3    H213855   3.692   3.193   2.839 -1.1164  0.4756 -0.8269
 4638TIP3   OH213856   6.456   3.897   3.608  0.1828  0.6347  0.7866
 4638TIP3    H113857   6.503   3.902   3.691 -0.0332  0.1866  0.9443
 4638TIP3    H213858   6.492   3.967   3.554  0.8725  0.4354  0.9827
 4639TIP3   OH213859   5.329   0.552   1.813 -0.5695 -0.0984  0.5072
 4639TIP3    H113860   5.350   0.617   1.880 -0.5980  1.2710 -0.7545
 4639TIP3    H213861   5.328   0.602   1.731 -0.3890 -1.7382 -0.5385
 4640TIP3   OH213862   3.940   2.066   3.163 -0.2552  0.5272 -0.7335
 4640TIP3    H113863   3.877   2.052   3.234  1.2471 -0.1499  0.5115
 4640TIP3    H213864   3.923   2.156   3.134 -2.5259  0.0165 -1.2269
 4641TIP3   OH213865   2.920   4.377   2.618 -0.2061 -0.1294 -0.0627
 4641TIP3    H113866   2.847   4.359   2.559  0.2565  1.1825 -1.0967
 4641TIP3    H213867   2.879   4.399   2.702 -0.9914  0.3840 -0.5751
 4642TIP3   OH213868   3.568   4.282   4.823  0.1945 -0.2439  0.1974
 4642TIP3    H113869   3.616   4.359   4.792 -2.3619  0.4512 -2.3690
 4642TIP3    H213870   3.513   4.315   4.894 -1.1718  0.4704 -1.1415
 4643TIP3   OH213871   3.063   1.780   4.793  0.3554 -0.0396 -0.0245
 4643TIP3    H113872   2.990   1.727   4.824 -0.1036  1.0261  0.8021
 4643TIP3    H213873   3.129   1.717   4.766 -0.5571 -1.0225 -0.0159
 4644TIP3   OH213874   7.815   5.632   5.628 -0.0352 -0.8526 -0.0430
 4644TIP3    H113875   7.789   5.648   5.538 -2.5906  1.7878  1.0066
 4644TIP3    H213876   7.741   5.585   5.666 -0.2711  0.5415  1.3180
 4645TIP3   OH213877   8.153   5.470   0.253 -0.4160 -0.1450  0.0058
 4645TIP3    H113878   8.131   5.381   0.279 -1.6494  0.1750  0.1168
 4645TIP3    H213879   8.069   5.515   0.247  0.0916  0.6716 -1.3211
 4646TIP3   OH213880   7.337   6.772   2.569  0.4849  0.2214 -0.2874
 4646TIP3    H113881   7.261   6.774   2.511 -1.0181 -0.2558  1.5650
 4646TIP3    H213882   7.383   6.854   2.550  0.3440 -0.1159 -2.4391
 4647TIP3   OH213883   0.427   1.265   5.980  0.0618 -0.0308 -0.0382
 4647TIP3    H113884   0.341   1.254   5.938 -1.1770  1.2477  2.0054
 4647TIP3    H213885   0.486   1.287   5.908 -1.1526 -1.5030 -1.5829
 4648TIP3   OH213886  -0.024   3.880   3.140 -0.7932  0.1060 -0.4994
 4648TIP3    H113887   0.061   3.848   3.112 -1.2276 -1.4037 -0.2558
 4648TIP3    H213888  -0.017   3.975   3.139  0.4249  0.0265 -1.8560
 4649TIP3   OH213889   2.853   3.342   3.957  0.0282  0.9238  0.1707
 4649TIP3    H113890   2.818   3.265   3.912  3.0527  0.0391 -0.9091
 4649TIP3    H213891   2.882   3.310   4.042 -0.2980  1.3002  0.4321
 4650TIP3   OH213892   2.455   1.061   3.095 -0.2409  0.5431 -0.0204
 4650TIP3    H113893   2.474   1.034   3.185  0.8181  1.9038  0.1908
 4650TIP3    H213894   2.406   0.987   3.058 -0.7792 -0.0085  1.6865
 4651TIP3   OH213895   2.179   2.180   5.661  0.4348  0.2739 -0.8314
 4651TIP3    H113896   2.096   2.182   5.613  0.9730  0.5636 -1.7760
 4651TIP3    H213897   2.244   2.208   5.597  1.5399 -1.7130 -0.6492
 4652TIP3   OH213898   3.255   6.199   5.042 -0.1199 -0.3545  0.8445
 4652TIP3    H113899   3.239   6.191   5.136 -0.2755  0.2369  0.8741
 4652TIP3    H213900   3.237   6.112   5.007  1.4421 -0.9930  1.5629
 4653TIP3   OH213901   5.142   2.086   6.639 -0.2024 -0.4059 -0.1239
 4653TIP3    H113902   5.117   1.996   6.661  0.5911 -0.6548 -0.2250
 4653TIP3    H213903   5.234   2.080   6.614  0.0038  0.5299  0.3908
 4654TIP3   OH213904   0.807   6.375   1.344 -0.0133 -0.1240  0.4026
 4654TIP3    H113905   0.786   6.292   1.300  1.7702 -0.3523 -0.0767
 4654TIP3    H213906   0.797   6.441   1.276  2.7946 -0.4824 -0.5004
 4655TIP3   OH213907   5.881   4.176   6.551  0.2003  0.2818  0.1200
 4655TIP3    H113908   5.961   4.131   6.524 -0.2673 -0.3494 -0.2224
 4655TIP3    H213909   5.815   4.107   6.557 -0.3411  0.8102  0.3249
 4656TIP3   OH213910   6.037   2.802   3.072 -0.3105  0.2266 -0.2752
 4656TIP3    H113911   6.131   2.788   3.079 -0.1503  1.4260  0.3567
 4656TIP3    H213912   6.010   2.825   3.161 -1.6519 -2.4587  0.1165
 4657TIP3   OH213913   6.136   6.066   3.382  0.0253  0.4031 -0.7803
 4657TIP3    H113914   6.172   6.057   3.470  0.7262  1.4842 -0.9473
 4657TIP3    H213915   6.050   6.024   3.388  0.0020  0.5752  0.4522
 4658TIP3   OH213916   1.107   5.345   2.361 -0.1028  0.1278 -0.0485
 4658TIP3    H113917   1.041   5.285   2.397  1.9989 -1.8944  0.6190
 4658TIP3    H213918   1.059   5.394   2.294 -2.4062 -0.8807  0.7298
 4659TIP3   OH213919   6.721   5.200   5.505 -0.3568  0.3506 -0.2646
 4659TIP3    H113920   6.801   5.155   5.477  2.4240  4.5465 -0.0221
 4659TIP3    H213921   6.686   5.239   5.425 -1.3044 -0.1233 -0.0989
 4660TIP3   OH213922   1.382   3.152   4.244 -0.0834 -0.2570  0.4221
 4660TIP3    H113923   1.371   3.215   4.173 -1.5238 -2.1122 -1.1137
 4660TIP3    H213924   1.338   3.192   4.319 -1.2715  0.4483 -0.6190
 4661TIP3   OH213925   7.900   1.703   4.695  0.5047  1.2321  0.1372
 4661TIP3    H113926   7.859   1.763   4.756  0.3667  1.6312 -0.3420
 4661TIP3    H213927   7.833   1.637   4.678  0.5914  1.0440  0.5187
 4662TIP3   OH213928   7.694   3.992   2.990  0.2392  0.1615  0.2911
 4662TIP3    H113929   7.731   3.932   3.055  0.0308  0.6266  0.8415
 4662TIP3    H213930   7.764   4.002   2.925  1.4772  1.7367  1.7618
 4663TIP3   OH213931   1.281   1.987   4.448  0.7238 -0.5120  0.3947
 4663TIP3    H113932   1.236   1.943   4.375  2.7533 -0.0629 -1.2329
 4663TIP3    H213933   1.305   2.073   4.412 -1.7438  1.4457  2.9739
 4664TIP3   OH213934   1.840   0.549   3.837 -0.4778  0.0749 -0.0996
 4664TIP3    H113935   1.823   0.495   3.915  1.9501 -0.5927  0.0684
 4664TIP3    H213936   1.816   0.638   3.864  0.0116 -0.1910  1.3218
 4665TIP3   OH213937   4.263   5.935   4.112 -0.6189  0.2118  0.0854
 4665TIP3    H113938   4.227   5.969   4.194 -1.9896  0.1303 -0.4658
 4665TIP3    H213939   4.268   5.840   4.126  0.9024  0.3483  0.7215
 4666TIP3   OH213940   5.192   5.257   0.400 -0.1679 -0.1502 -0.0263
 4666TIP3    H113941   5.187   5.352   0.416 -1.9358 -0.2998  0.5317
 4666TIP3    H213942   5.178   5.249   0.305  0.3348  0.1536 -0.1329
 4667TIP3   OH213943   6.309   6.743   3.039  0.2092  0.2263  0.3668
 4667TIP3    H113944   6.247   6.816   3.038 -0.1726 -0.0086  2.4310
 4667TIP3    H213945   6.254   6.665   3.035  0.5447  0.0153 -0.4154
 4668TIP3   OH213946   2.131   7.324   6.185  0.3957 -0.0407 -0.2039
 4668TIP3    H113947   2.136   7.233   6.156  1.1966  0.2800 -1.1475
 4668TIP3    H213948   2.112   7.374   6.105 -1.2900  0.5310  0.4902
 4669TIP3   OH213949   5.423   5.869   4.987 -0.5868  0.0029 -0.4237
 4669TIP3    H113950   5.402   5.962   4.982  0.9420  0.4186  0.1622
 4669TIP3    H213951   5.419   5.837   4.897  0.2974  0.9795 -0.8166
 4670TIP3   OH213952   5.925   2.664   1.842 -0.5568  0.2539  0.1230
 4670TIP3    H113953   5.895   2.754   1.849  0.7532  0.7904 -0.6076
 4670TIP3    H213954   5.980   2.663   1.763 -0.6932 -1.2257  0.0040
 4671TIP3   OH213955   1.270   0.147   0.445  0.5452  0.2942 -0.7312
 4671TIP3    H113956   1.276   0.155   0.350  1.8533  2.1197 -0.5547
 4671TIP3    H213957   1.178   0.167   0.466  0.3437  0.2751 -1.5894
 4672TIP3   OH213958   2.829   1.347   2.474  0.1012 -0.0931 -0.0178
 4672TIP3    H113959   2.770   1.337   2.549  1.6409 -0.0793  1.2549
 4672TIP3    H213960   2.824   1.441   2.453 -1.0981 -0.2728 -0.6088
 4673TIP3   OH213961   1.958   4.659   2.278 -0.8351  0.1151  0.1999
 4673TIP3    H113962   1.876   4.655   2.327 -0.8808 -0.5002  0.0831
 4673TIP3    H213963   1.933   4.641   2.188 -0.6400  0.4486  0.0772
 4674TIP3   OH213964   5.308   6.624   0.819  0.1554 -0.4390  0.1007
 4674TIP3    H113965   5.263   6.592   0.896  0.4930  0.5745  0.7368
 4674TIP3    H213966   5.310   6.549   0.759  1.7364 -1.9379  1.8810
 4675TIP3   OH213967   6.664   4.062   0.431 -0.1890 -0.0888 -0.4671
 4675TIP3    H113968   6.622   4.146   0.446  0.3306  0.1100 -0.0719
 4675TIP3    H213969   6.752   4.085   0.401 -0.0725 -0.4909 -0.4355
 4676TIP3   OH213970   7.785   3.959   2.304 -0.1063  0.0619 -0.4767
 4676TIP3    H113971   7.704   3.960   2.354  0.3878 -1.2210  0.3983
 4676TIP3    H213972   7.816   3.868   2.311  0.9762  0.3352 -1.4851
 4677TIP3   OH213973   0.465   5.624   4.716 -0.4744  0.3399 -0.0287
 4677TIP3    H113974   0.388   5.653   4.666 -0.3298  0.0468 -0.4306
 4677TIP3    H213975   0.497   5.704   4.759 -0.1873  0.7680 -0.9863
 4678TIP3   OH213976   7.797   0.518   5.272  0.0462  0.0860 -0.4694
 4678TIP3    H113977   7.790   0.599   5.324 -0.3459 -0.0381 -0.3291
 4678TIP3    H213978   7.838   0.546   5.190  3.2167 -0.1281  0.8954
 4679TIP3   OH213979   5.709   7.147   1.849 -0.2492 -0.2748 -0.4652
 4679TIP3    H113980   5.784   7.185   1.896  0.2556 -0.8651 -0.7712
 4679TIP3    H213981   5.730   7.162   1.756  0.1929 -1.7088 -0.6104
 4680TIP3   OH213982   7.287   4.161   5.108 -0.6392  0.1186 -0.1011
 4680TIP3    H113983   7.236   4.121   5.038  1.0849 -2.1836 -0.1655
 4680TIP3    H213984   7.228   4.224   5.149 -1.6379  1.8553 -3.7898
 4681TIP3   OH213985   4.408   5.273   1.694 -0.1804  0.2293  0.0583
 4681TIP3    H113986   4.317   5.282   1.723  0.0123  0.6805  0.5395
 4681TIP3    H213987   4.431   5.360   1.660 -0.3059 -0.2059 -1.1858
 4682TIP3   OH213988   4.501   0.559   4.894 -0.6592 -0.4125  0.5849
 4682TIP3    H113989   4.524   0.595   4.809 -3.2387  0.4927  0.1846
 4682TIP3    H213990   4.542   0.617   4.958 -0.5425  0.2147 -0.0569
 4683TIP3   OH213991   1.088   4.895   6.694  0.0216  0.3705 -0.2230
 4683TIP3    H113992   1.095   4.989   6.710 -0.0072  0.5351 -1.1488
 4683TIP3    H213993   1.151   4.877   6.624  2.8943 -0.9947  2.4778
 4684TIP3   OH213994   4.765   6.570   6.118 -0.5126 -0.2687 -0.0935
 4684TIP3    H113995   4.712   6.505   6.165 -0.9566  0.6850  0.7680
 4684TIP3    H213996   4.765   6.646   6.176  2.5922 -0.5280  0.3906
 4685TIP3   OH213997   5.440   5.101   5.495  0.3465 -0.0250 -0.6474
 4685TIP3    H113998   5.376   5.125   5.562  1.1729 -1.5882  0.7688
 4685TIP3    H213999   5.390   5.051   5.430 -0.3711  1.1328 -1.0218
 4686TIP3   OH214000   3.262   0.445   5.189 -0.4790  0.3592 -0.3189
 4686TIP3    H114001   3.295   0.434   5.278  0.6751  0.1077 -0.7517
 4686TIP3    H214002   3.195   0.512   5.195  1.1053  1.9531  0.4066
 4687TIP3   OH214003   0.987   7.056   3.250 -0.4599 -0.5330 -0.2759
 4687TIP3    H114004   1.077   7.026   3.237 -1.3848 -3.9879  0.3082
 4687TIP3    H214005   0.948   7.055   3.163 -0.2058  0.0742 -0.4026
 4688TIP3   OH214006   6.088   4.509   4.198 -0.3508 -0.1014 -0.1346
 4688TIP3    H114007   6.041   4.593   4.202 -0.3809 -0.1641  1.3394
 4688TIP3    H214008   6.045   4.454   4.264  0.8936 -0.6336  0.2620
 4689TIP3   OH214009   1.642   7.042   4.608  0.1088 -0.0725  0.6914
 4689TIP3    H114010   1.667   7.115   4.665  0.5820 -0.5675  1.1248
 4689TIP3    H214011   1.718   6.984   4.607  0.3106  0.1756 -0.8840
 4690TIP3   OH214012   5.264   3.766   2.821 -0.0487  0.0573  0.0761
 4690TIP3    H114013   5.283   3.785   2.914  0.5431 -0.4059  0.0600
 4690TIP3    H214014   5.341   3.718   2.791 -1.3997 -2.2469  0.0784
 4691TIP3   OH214015   7.529   4.140   3.506 -0.0411  0.0606  0.1755
 4691TIP3    H114016   7.583   4.063   3.521  0.7947  0.9222  1.8545
 4691TIP3    H214017   7.475   4.117   3.430  2.9065 -0.7184 -1.8772
 4692TIP3   OH214018   6.186   1.395   1.515  0.2890  0.2036 -0.1938
 4692TIP3    H114019   6.195   1.456   1.589  1.6584  1.1706 -1.1100
 4692TIP3    H214020   6.124   1.439   1.456  0.2352  0.0628 -0.2415
 4693TIP3   OH214021   3.777   5.193   1.942  0.1956  0.1083 -0.0998
 4693TIP3    H114022   3.698   5.236   1.974 -0.0555  0.1153 -0.7228
 4693TIP3    H214023   3.824   5.167   2.022  0.4312  1.6510  0.2860
 4694TIP3   OH214024   6.236   2.199   4.747 -0.0044 -0.2599  0.6586
 4694TIP3    H114025   6.199   2.286   4.729 -0.7130 -0.6378  0.2060
 4694TIP3    H214026   6.225   2.187   4.841  0.8763  0.4793  0.8645
 4695TIP3   OH214027   3.703   2.461   4.413  0.4920  0.3206  0.3291
 4695TIP3    H114028   3.686   2.439   4.505  0.6791 -0.3826  0.2028
 4695TIP3    H214029   3.710   2.376   4.369 -0.8640  0.6415 -0.5808
 4696TIP3   OH214030   5.217   1.753   1.203 -0.0680  0.3372 -0.4442
 4696TIP3    H114031   5.185   1.841   1.223 -0.0164  0.1237  0.6151
 4696TIP3    H214032   5.185   1.736   1.114 -1.4928  0.7695 -0.0343
 4697TIP3   OH214033   5.746   1.063   4.711 -0.5404 -0.4810 -0.5395
 4697TIP3    H114034   5.690   1.000   4.666 -0.3147 -0.4278 -0.8980
 4697TIP3    H214035   5.769   1.127   4.644 -0.3805 -0.2809 -0.2954
 4698TIP3   OH214036   0.274   2.963   2.379 -0.1380  0.1583  0.3571
 4698TIP3    H114037   0.239   2.887   2.332  1.0529 -1.0760  1.3812
 4698TIP3    H214038   0.241   3.038   2.330  1.0823 -1.0281 -2.4973
 4699TIP3   OH214039   6.815   5.095   2.181  0.6213  0.4186  0.4344
 4699TIP3    H114040   6.734   5.045   2.170  0.1263  1.4094 -0.5568
 4699TIP3    H214041   6.851   5.064   2.264  0.5732 -1.9043 -0.3434
 4700TIP3   OH214042   0.795   2.762   6.585  0.1049  0.0144 -0.5083
 4700TIP3    H114043   0.707   2.741   6.619  0.0406 -1.9309 -1.6814
 4700TIP3    H214044   0.795   2.857   6.575 -1.6457  0.1222  0.1320
 4701TIP3   OH214045   2.047   5.259   1.233 -0.2864 -0.5692  0.6303
 4701TIP3    H114046   1.953   5.275   1.234 -0.3858 -0.9859  2.4981
 4701TIP3    H214047   2.082   5.317   1.301  0.8996  0.0133 -0.4387
 4702TIP3   OH214048   3.410   4.561   4.931 -0.3718 -0.5100 -0.3708
 4702TIP3    H114049   3.420   4.558   4.835  0.0487 -1.5157 -0.3011
 4702TIP3    H214050   3.499   4.550   4.965 -0.7333 -2.1697  0.1481
 4703TIP3   OH214051   1.129   4.454   1.046  0.4689 -0.5339 -0.2760
 4703TIP3    H114052   1.168   4.448   1.132 -0.1704  0.8696  0.1479
 4703TIP3    H214053   1.039   4.424   1.058  0.3911 -0.3774 -0.4554
 4704TIP3   OH214054   6.144   1.282   4.940 -0.8441  0.4351  0.2080
 4704TIP3    H114055   6.057   1.285   4.980 -0.9974 -0.1942 -0.0743
 4704TIP3    H214056   6.174   1.192   4.953 -0.8443  0.2569 -0.9779
 4705TIP3   OH214057   0.282   1.739   0.720  0.1808  0.0588 -0.5427
 4705TIP3    H114058   0.214   1.739   0.652 -0.8624 -1.3476  0.4246
 4705TIP3    H214059   0.326   1.655   0.709  2.8466  1.5364 -2.1015
 4706TIP3   OH214060   6.230   7.016   1.501 -0.3115 -0.5189 -0.7631
 4706TIP3    H114061   6.188   6.942   1.544 -0.9320 -0.6221 -1.5357
 4706TIP3    H214062   6.201   7.093   1.551 -1.4290 -0.5858 -1.2876
 4707TIP3   OH214063   8.097   0.015   5.894 -0.0677  1.4064 -0.0060
 4707TIP3    H114064   8.027   0.019   5.829  0.6279  2.9432 -0.7038
 4707TIP3    H214065   8.052   0.005   5.978 -0.9484 -2.8697 -0.7531
 4708TIP3   OH214066   5.071   1.155   6.701  0.1506  0.1515  0.0036
 4708TIP3    H114067   5.051   1.248   6.708  0.5227  0.3288 -1.1045
 4708TIP3    H214068   5.118   1.146   6.618 -1.0357 -1.2152 -0.5768
 4709TIP3   OH214069   4.545   4.438   3.271  0.1435 -1.0110 -0.0771
 4709TIP3    H114070   4.466   4.388   3.254 -0.1386 -0.4437 -0.5001
 4709TIP3    H214071   4.536   4.516   3.215  2.2296 -2.1963 -2.2777
 4710TIP3   OH214072   5.323   1.007   4.075  0.1944 -0.6852  0.4324
 4710TIP3    H114073   5.256   1.046   4.018 -0.2248  0.3650  1.6065
 4710TIP3    H214074   5.273   0.964   4.145  0.7278 -1.0134  0.6209
 4711TIP3   OH214075   6.936   5.443   3.688 -0.1820 -0.0697  0.4372
 4711TIP3    H114076   7.000   5.400   3.632 -1.3351 -1.0891 -0.1636
 4711TIP3    H214077   6.972   5.530   3.704  1.5586 -0.7784  0.5320
 4712TIP3   OH214078   2.798   3.608   3.812  0.8145 -0.5134 -0.4082
 4712TIP3    H114079   2.876   3.602   3.868  0.5737 -0.9348 -0.1111
 4712TIP3    H214080   2.763   3.519   3.811 -0.1955 -0.1332  0.2162
 4713TIP3   OH214081   7.393   2.161   5.572  0.6618  0.4951 -0.5711
 4713TIP3    H114082   7.450   2.178   5.647  2.9986 -0.5847 -1.9771
 4713TIP3    H214083   7.426   2.079   5.535  1.0673  2.0071 -3.9948
 4714TIP3   OH214084   1.952   4.098   3.083  0.7433 -0.1793 -0.7024
 4714TIP3    H114085   2.046   4.093   3.066  1.3440  0.9165  1.9058
 4714TIP3    H214086   1.931   4.191   3.076 -0.0203 -0.3381 -0.6287
 4715TIP3   OH214087   2.808   1.697   0.560  0.3738  0.3141  0.1235
 4715TIP3    H114088   2.751   1.766   0.596 -0.4334 -0.2912  0.0351
 4715TIP3    H214089   2.756   1.617   0.566  0.4971  0.0581 -1.6833
 4716TIP3   OH214090   7.212   5.225   4.960  0.7100  0.5354 -0.1414
 4716TIP3    H114091   7.288   5.213   5.017 -0.1411  0.4792  1.0188
 4716TIP3    H214092   7.139   5.186   5.008 -0.1469  0.9971 -1.0225
 4717TIP3   OH214093   4.430   4.171   3.704 -0.2660 -0.4389 -0.5039
 4717TIP3    H114094   4.370   4.163   3.778  0.4422 -0.1889  0.1024
 4717TIP3    H214095   4.409   4.095   3.649  0.4790 -1.7079  0.8900
 4718TIP3   OH214096   3.713   3.563   0.229  0.1529  0.4153 -0.3668
 4718TIP3    H114097   3.658   3.511   0.170 -0.6405  0.2241  0.5241
 4718TIP3    H214098   3.735   3.503   0.300  0.8209  0.7452 -0.2885
 4719TIP3   OH214099   8.031   2.357   2.807  0.2050  0.1440  0.3256
 4719TIP3    H114100   8.086   2.436   2.814 -0.3438  0.4731  1.0850
 4719TIP3    H214101   8.084   2.288   2.845 -0.3143  0.6879  2.1386
 4720TIP3   OH214102   8.056   3.629   2.284 -0.3153  0.3046  0.1502
 4720TIP3    H114103   7.962   3.631   2.299 -0.4707 -0.3160 -0.6901
 4720TIP3    H214104   8.077   3.537   2.270  0.0049  0.6437 -2.0827
 4721TIP3   OH214105   4.310   0.418   5.050  0.3997  0.8385 -0.4910
 4721TIP3    H114106   4.377   0.444   4.987  0.9780 -1.0749 -0.7285
 4721TIP3    H214107   4.350   0.432   5.136  1.3122 -0.7374 -0.6380
 4722TIP3   OH214108   4.430   5.273   0.427  0.1053 -0.8343  0.4389
 4722TIP3    H114109   4.510   5.226   0.449  0.8513 -0.1631 -0.7867
 4722TIP3    H214110   4.445   5.309   0.340 -1.5338 -0.7078  0.1619
 4723TIP3   OH214111   0.453   4.317   0.342 -0.1618 -0.1321  0.1742
 4723TIP3    H114112   0.366   4.280   0.358 -1.0775  1.8217 -0.0482
 4723TIP3    H214113   0.455   4.397   0.394  1.4613 -0.0779  0.0619
 4724TIP3   OH214114   6.391   3.258   2.199  0.6277  0.0201  0.0442
 4724TIP3    H114115   6.424   3.342   2.230 -0.2206  0.6610 -0.7590
 4724TIP3    H214116   6.449   3.193   2.240 -0.2546  0.7954  2.7447
 4725TIP3   OH214117   6.857   1.929   2.394  0.6656 -0.1521  0.0781
 4725TIP3    H114118   6.829   1.840   2.416  0.1669  0.0783  0.3724
 4725TIP3    H214119   6.940   1.917   2.347 -0.2194 -0.8703 -1.3547
 4726TIP3   OH214120   0.979   3.704   1.081  0.5107  0.0288 -0.3431
 4726TIP3    H114121   0.944   3.641   1.018 -2.1839  0.6023  0.4638
 4726TIP3    H214122   0.993   3.784   1.029 -1.5820  0.4617 -0.3204
 4727TIP3   OH214123   1.237   6.590   6.168  0.2954  0.4573 -0.1595
 4727TIP3    H114124   1.158   6.596   6.222  0.1056  0.2175 -0.4017
 4727TIP3    H214125   1.204   6.598   6.078  0.2582 -1.7452 -0.3970
 4728TIP3   OH214126   3.227   3.554   5.714 -0.7059 -0.6440  0.0519
 4728TIP3    H114127   3.251   3.493   5.784 -2.5352  0.0402  1.3622
 4728TIP3    H214128   3.288   3.627   5.724 -0.7492 -0.6908  0.7704
 4729TIP3   OH214129   7.468   6.444   6.643  0.5166  0.3056  0.0920
 4729TIP3    H114130   7.397   6.502   6.616  0.2727 -0.1287 -0.2104
 4729TIP3    H214131   7.543   6.473   6.593 -0.0628 -0.8537 -1.5291
 4730TIP3   OH214132   1.387   1.463   6.068 -0.1842  0.1638  0.4585
 4730TIP3    H114133   1.419   1.549   6.041  0.2439 -0.2507 -0.3922
 4730TIP3    H214134   1.417   1.454   6.158 -1.2580  1.3901  0.9791
 4731TIP3   OH214135   2.961   4.652   5.835 -0.5538  0.6163 -0.5379
 4731TIP3    H114136   2.965   4.693   5.922  2.3513 -1.7135  0.5730
 4731TIP3    H214137   3.039   4.685   5.790  0.0494 -1.1156 -0.8048
 4732TIP3   OH214138   5.995   4.089   2.069 -0.5720 -0.1007 -0.2345
 4732TIP3    H114139   6.054   4.121   2.136  0.7768  0.5442 -1.6593
 4732TIP3    H214140   5.958   4.167   2.029 -0.5140 -0.4321 -0.9593
 4733TIP3   OH214141   3.104   2.273   0.330 -0.0744  0.1038  1.0583
 4733TIP3    H114142   3.157   2.351   0.347  0.1614 -0.1422  1.4745
 4733TIP3    H214143   3.072   2.284   0.241  2.3611 -0.6809 -0.0043
 4734TIP3   OH214144   7.316   4.688   6.474 -0.6054  0.1067  0.2454
 4734TIP3    H114145   7.220   4.696   6.468 -0.5552  0.6610  0.1135
 4734TIP3    H214146   7.346   4.777   6.491 -0.0526  0.0802 -0.5203
 4735TIP3   OH214147   3.495   1.467   4.256 -0.4469 -0.6094  0.0238
 4735TIP3    H114148   3.574   1.519   4.243 -0.3761 -0.0861  2.1453
 4735TIP3    H214149   3.500   1.398   4.190  1.4847 -0.2340 -0.2780
 4736TIP3   OH214150   5.122   5.008   0.770  0.1753 -0.2363  0.6314
 4736TIP3    H114151   5.194   4.971   0.822  1.2783 -0.7873 -1.1860
 4736TIP3    H214152   5.068   4.933   0.746  1.4455 -0.5487 -1.5864
 4737TIP3   OH214153   3.573   7.751   6.128  0.2318  0.1334  0.4890
 4737TIP3    H114154   3.667   7.755   6.143  0.1333 -0.6394  1.3719
 4737TIP3    H214155   3.561   7.788   6.040  1.3051  0.6221  0.5389
 4738TIP3   OH214156   3.854   6.587   3.367  0.0026 -0.1702  0.3998
 4738TIP3    H114157   3.890   6.648   3.431  0.0252  1.5627 -1.1714
 4738TIP3    H214158   3.924   6.523   3.353  1.8172  1.9792 -1.1093
 4739TIP3   OH214159   5.229   2.984   4.346  0.0695 -0.4160 -0.3865
 4739TIP3    H114160   5.263   3.069   4.319  0.6934 -0.0350  1.4129
 4739TIP3    H214161   5.307   2.930   4.361 -0.2268 -0.6094  0.5317
 4740TIP3   OH214162   3.472   5.941   0.040  0.6124  0.2992 -0.5802
 4740TIP3    H114163   3.416   5.962  -0.036 -0.7145  1.4286  0.6521
 4740TIP3    H214164   3.446   6.004   0.107  2.2517 -0.2220  0.6100
 4741TIP3   OH214165   0.627   6.529   2.200 -0.9832  0.3633  0.1567
 4741TIP3    H114166   0.659   6.463   2.138  0.2258 -0.2011  1.3318
 4741TIP3    H214167   0.580   6.592   2.145 -3.3860 -2.1136 -0.8804
 4742TIP3   OH214168   3.895   6.424   4.840 -0.1880  0.2656  0.2392
 4742TIP3    H114169   3.916   6.331   4.830  3.6878  0.8401  1.3485
 4742TIP3    H214170   3.874   6.453   4.752 -0.6864 -1.4418 -0.2552
 4743TIP3   OH214171   4.413   5.307   4.319 -0.6549 -0.1944 -0.3692
 4743TIP3    H114172   4.456   5.391   4.305 -1.3293 -0.1706 -2.8919
 4743TIP3    H214173   4.456   5.248   4.257 -2.1738 -0.9090 -0.7940
 4744TIP3   OH214174   3.758   7.448   6.035 -0.2425  0.4525 -0.0040
 4744TIP3    H114175   3.730   7.508   5.966 -0.3557  0.6238  0.1924
 4744TIP3    H214176   3.834   7.403   5.998  1.0975  2.1360  0.5810
 4745TIP3   OH214177   1.126   4.692   0.228  0.0307  0.0492 -0.0186
 4745TIP3    H114178   1.138   4.609   0.181  1.5799  0.5264 -0.5202
 4745TIP3    H214179   1.031   4.703   0.233 -0.2267 -2.0485  0.6114
 4746TIP3   OH214180   5.874   7.225   4.857 -0.0471  0.2758 -0.0404
 4746TIP3    H114181   5.932   7.173   4.912 -0.6332 -1.6176 -1.0988
 4746TIP3    H214182   5.788   7.217   4.898 -0.3560 -0.5896 -0.8091
 4747TIP3   OH214183   2.870   4.365   5.850 -0.5279 -0.3170  0.2012
 4747TIP3    H114184   2.891   4.281   5.811  2.5119  0.4366  0.0095
 4747TIP3    H214185   2.901   4.359   5.940  1.5034  1.1667 -0.3407
 4748TIP3   OH214186   0.404   7.653   0.622  0.3730  0.0177 -0.0785
 4748TIP3    H114187   0.350   7.623   0.549  1.3380  0.2897 -0.9321
 4748TIP3    H214188   0.446   7.733   0.590 -0.2584  0.9201  1.2825
 4749TIP3   OH214189   1.799   0.718   0.048  0.3453 -0.1924  0.2088
 4749TIP3    H114190   1.726   0.694   0.105  1.4680 -0.6587  1.5097
 4749TIP3    H214191   1.863   0.648   0.061  1.1488  0.3559 -0.6759
 4750TIP3   OH214192   4.872   0.332   4.678  0.5141  0.8960  0.3187
 4750TIP3    H114193   4.784   0.316   4.646 -0.2349  3.6340  0.7566
 4750TIP3    H214194   4.873   0.297   4.766  0.6338 -1.1440 -0.4432
 4751TIP3   OH214195   5.209   3.242   5.898  0.3422 -0.2246  0.3940
 4751TIP3    H114196   5.255   3.257   5.815  1.9366 -0.8437  1.1153
 4751TIP3    H214197   5.159   3.162   5.885 -0.4943  0.4029 -0.3739
 4752TIP3   OH214198   0.041   3.380   0.952  0.6675  0.1758 -1.1073
 4752TIP3    H114199  -0.046   3.382   0.912  0.8309  0.9492 -1.4478
 4752TIP3    H214200   0.064   3.288   0.955 -0.8968 -0.2356  0.5873
 4753TIP3   OH214201   4.556   3.192   2.860  0.3726  0.3117 -0.1725
 4753TIP3    H114202   4.566   3.169   2.953 -0.5348 -0.8107 -0.3428
 4753TIP3    H214203   4.523   3.112   2.819 -1.8229  1.5709 -0.9930
 4754TIP3   OH214204   7.332   4.828   1.097 -0.0610 -0.0217  0.1018
 4754TIP3    H114205   7.375   4.913   1.086  0.5955 -0.3285  0.2421
 4754TIP3    H214206   7.250   4.836   1.049  0.6204  0.2279 -1.0598
 4755TIP3   OH214207   5.558   2.179   3.012  0.1005 -0.3444  0.5612
 4755TIP3    H114208   5.646   2.142   3.010  0.0767 -0.3911 -0.6239
 4755TIP3    H214209   5.556   2.240   2.938 -0.4148  0.7318  1.4380
 4756TIP3   OH214210   1.342   3.699   1.228 -0.1922  0.5822  0.5023
 4756TIP3    H114211   1.314   3.765   1.164  0.1619 -0.1653 -0.4373
 4756TIP3    H214212   1.264   3.645   1.241 -0.4149  1.0308  1.1035
 4757TIP3   OH214213   6.386   7.260   4.450  0.3195  0.5271  0.2421
 4757TIP3    H114214   6.411   7.281   4.540 -1.1874 -0.3405  0.8952
 4757TIP3    H214215   6.327   7.331   4.425  0.7389  0.7684 -0.0781
 4758TIP3   OH214216   6.842   6.136   6.350  0.1788 -0.2868  0.0733
 4758TIP3    H114217   6.905   6.129   6.422  1.4033  1.0589 -0.8231
 4758TIP3    H214218   6.892   6.114   6.272 -0.7676 -0.3137 -0.5331
 4759TIP3   OH214219   1.456   5.867   4.829  0.0192 -0.5404  0.2792
 4759TIP3    H114220   1.493   5.930   4.892 -1.4614  0.0655  0.5772
 4759TIP3    H214221   1.402   5.921   4.771 -0.9607 -1.4912  0.2937
 4760TIP3   OH214222   3.173   4.324   5.283  0.0732 -0.4945  0.1669
 4760TIP3    H114223   3.218   4.381   5.346  0.0014  1.3710 -1.3651
 4760TIP3    H214224   3.221   4.242   5.286 -0.4195 -0.8015  3.1993
 4761TIP3   OH214225   0.151   1.023   1.845  0.2237 -0.2924 -0.2792
 4761TIP3    H114226   0.180   0.991   1.760 -0.0099  2.4202 -1.4966
 4761TIP3    H214227   0.056   1.033   1.836  0.2738  0.6220  0.0512
 4762TIP3   OH214228   7.738   1.378   0.766 -0.9237 -0.6554 -1.3824
 4762TIP3    H114229   7.739   1.346   0.676  0.0941 -0.8835 -1.2995
 4762TIP3    H214230   7.829   1.396   0.786 -1.3123  0.9496 -0.9349
 4763TIP3   OH214231   4.883   2.257   5.859  0.1399  0.5937  0.7378
 4763TIP3    H114232   4.863   2.259   5.953  0.3566 -0.8007  0.8398
 4763TIP3    H214233   4.842   2.177   5.827 -0.9150  1.6407 -0.6200
 4764TIP3   OH214234   3.251   1.547   0.358 -0.8133  0.3472  0.0626
 4764TIP3    H114235   3.308   1.519   0.286 -0.8230 -0.1712  0.2483
 4764TIP3    H214236   3.274   1.639   0.373  1.3266 -0.3253  1.3680
 4765TIP3   OH214237   5.577   4.087   2.100  0.0024 -0.0775  0.6706
 4765TIP3    H114238   5.611   4.092   2.011 -0.5480  0.3703  0.4776
 4765TIP3    H214239   5.481   4.084   2.089 -0.0784  0.2241  1.2480
 4766TIP3   OH214240   5.182   5.326   3.579  0.3137 -0.1145 -0.2572
 4766TIP3    H114241   5.156   5.417   3.568  0.7080  0.0079 -0.1708
 4766TIP3    H214242   5.116   5.289   3.638  1.0874  0.5477  1.0561
 4767TIP3   OH214243   1.089   4.609   4.249  0.5908  0.0537 -0.3770
 4767TIP3    H114244   1.121   4.694   4.219  0.3029 -0.2660 -1.6414
 4767TIP3    H214245   1.165   4.551   4.240  0.9350  0.2712  0.9713
 4768TIP3   OH214246   2.161   2.065   5.923 -0.1883  0.1233 -0.7054
 4768TIP3    H114247   2.254   2.040   5.926 -0.2501 -0.0697 -0.1475
 4768TIP3    H214248   2.148   2.100   5.835  0.6389  1.0397 -0.4730
 4769TIP3   OH214249   2.258   3.076   5.944 -0.4599 -0.9427 -0.6014
 4769TIP3    H114250   2.275   2.986   5.972 -2.1025 -1.1238 -0.1253
 4769TIP3    H214251   2.166   3.077   5.920 -0.6581  0.7986  0.1007
 4770TIP3   OH214252   2.237   3.646   3.373  0.4082 -0.1984 -0.3274
 4770TIP3    H114253   2.221   3.639   3.467 -1.3127 -0.0747 -0.5905
 4770TIP3    H214254   2.277   3.733   3.362 -0.2413  0.1757  0.1915
 4771TIP3   OH214255   0.131   7.339   2.575  0.0768 -0.2553  0.1127
 4771TIP3    H114256   0.121   7.434   2.566 -0.4038 -0.1665  1.2997
 4771TIP3    H214257   0.221   7.327   2.605  0.1201 -0.1689  0.0187
 4772TIP3   OH214258   6.185   1.832   5.177 -0.2424 -0.5926  0.2858
 4772TIP3    H114259   6.280   1.824   5.186 -0.2636 -0.2914  0.8570
 4772TIP3    H214260   6.150   1.754   5.218 -0.2440 -0.6831  0.1131
 4773TIP3   OH214261   0.534   0.615   6.313 -0.0527 -0.4327 -0.2503
 4773TIP3    H114262   0.568   0.564   6.240 -1.5156 -1.2465 -0.3918
 4773TIP3    H214263   0.570   0.703   6.300  4.2762 -1.7314  1.1387
 4774TIP3   OH214264   7.352   1.347   3.467  0.5745 -0.1987  0.2148
 4774TIP3    H114265   7.266   1.386   3.455  0.7313 -0.2364 -1.1559
 4774TIP3    H214266   7.352   1.317   3.558 -1.3978 -1.4937 -0.1470
 4775TIP3   OH214267   3.224   3.208   6.572 -0.4726 -0.0977 -0.0327
 4775TIP3    H114268   3.285   3.273   6.608 -1.5022 -0.2840  2.2129
 4775TIP3    H214269   3.280   3.145   6.528  0.6812  1.3961 -0.7962
 4776TIP3   OH214270   2.402   5.794   2.793 -0.1141 -0.1882  0.4959
 4776TIP3    H114271   2.466   5.793   2.721  0.6478 -1.6424  1.1356
 4776TIP3    H214272   2.446   5.746   2.864 -1.1519  0.5398  1.6615
 4777TIP3   OH214273   2.560   4.304   2.668  0.7812 -0.3453 -0.3355
 4777TIP3    H114274   2.557   4.271   2.758  1.7140  0.7405  0.1245
 4777TIP3    H214275   2.579   4.226   2.615 -0.0049 -1.0357  0.3680
 4778TIP3   OH214276   4.290   7.042   2.191 -0.0403 -0.5550 -0.1732
 4778TIP3    H114277   4.376   7.039   2.148  0.8003  0.0250  1.3739
 4778TIP3    H214278   4.237   7.099   2.136  1.1922  0.6657 -0.1477
 4779TIP3   OH214279   1.118   6.141   3.811 -0.3148  0.2984  0.3548
 4779TIP3    H114280   1.208   6.158   3.837 -0.0494 -2.1211  1.3215
 4779TIP3    H214281   1.070   6.135   3.894 -0.8531 -0.8352 -0.0243
 4780TIP3   OH214282   0.859   3.056   4.392 -0.4570  0.0424  0.1582
 4780TIP3    H114283   0.764   3.055   4.381 -0.3570  1.5910 -1.2744
 4780TIP3    H214284   0.879   3.145   4.422  0.6416  0.2324 -1.0362
 4781TIP3   OH214285   5.988   5.445   4.894 -0.4096 -0.0494  0.5859
 4781TIP3    H114286   5.929   5.434   4.969  1.0463  1.2331  1.9993
 4781TIP3    H214287   6.002   5.539   4.888  1.3115 -0.3036  0.1478
 4782TIP3   OH214288   6.825   1.278   1.802 -0.2705  0.6193 -0.0014
 4782TIP3    H114289   6.862   1.359   1.836 -0.1087  0.8892 -0.7916
 4782TIP3    H214290   6.732   1.296   1.792 -0.2013  0.7812 -0.3718
 4783TIP3   OH214291   7.154   6.790   0.299 -1.0081  0.3729 -0.3574
 4783TIP3    H114292   7.098   6.713   0.302 -1.1122  0.4535 -0.1577
 4783TIP3    H214293   7.235   6.760   0.258 -0.6951 -0.0779  0.5678
 4784TIP3   OH214294   4.953   4.457   0.318  0.0886 -0.4141 -0.2950
 4784TIP3    H114295   4.934   4.370   0.284  0.9261 -0.5899 -0.3308
 4784TIP3    H214296   5.012   4.495   0.253  0.0558  0.0249 -0.0712
 4785TIP3   OH214297   1.829   5.619   1.162 -0.3528  0.0823 -0.4154
 4785TIP3    H114298   1.812   5.708   1.193 -1.2432  0.3148 -1.4931
 4785TIP3    H214299   1.913   5.595   1.202 -0.8569  0.8036  1.1349
 4786TIP3   OH214300   1.787   0.387   2.452 -0.3914  0.0319 -0.0408
 4786TIP3    H114301   1.865   0.413   2.402 -0.4161  0.0910 -0.0488
 4786TIP3    H214302   1.822   0.356   2.536 -0.2666 -1.1104 -0.5004
 4787TIP3   OH214303   2.272   4.034   3.898  0.1996 -0.9708  0.0638
 4787TIP3    H114304   2.365   4.035   3.878 -0.0755 -1.8837 -1.4225
 4787TIP3    H214305   2.247   3.942   3.895 -0.4986 -0.8699  1.8015
 4788TIP3   OH214306   3.681   1.698   1.364 -0.3743 -0.2039  0.2073
 4788TIP3    H114307   3.652   1.671   1.451  0.4339 -0.3424  0.4406
 4788TIP3    H214308   3.601   1.700   1.311 -0.6557 -1.6194  0.5571
 4789TIP3   OH214309   5.554   4.279   3.595  0.1755  0.4165 -0.0539
 4789TIP3    H114310   5.537   4.250   3.506  1.3502 -1.6526  0.3351
 4789TIP3    H214311   5.491   4.230   3.649  0.3327  0.6679  0.3652
 4790TIP3   OH214312   0.676   3.997   3.986 -0.1035 -0.4797  0.4305
 4790TIP3    H114313   0.683   4.032   3.897  0.9496  0.3742  0.8150
 4790TIP3    H214314   0.594   4.032   4.019  0.0659  0.1750  0.1862
 4791TIP3   OH214315   6.763   6.787   1.235 -0.3955 -0.2671 -0.5287
 4791TIP3    H114316   6.774   6.755   1.325 -0.4381  0.7286 -0.1529
 4791TIP3    H214317   6.738   6.879   1.246 -0.3949 -0.1356 -1.5679
 4792TIP3   OH214318   5.509   0.166   5.868  0.0149  0.3422  0.1559
 4792TIP3    H114319   5.582   0.227   5.858  0.6244 -0.2631  0.8102
 4792TIP3    H214320   5.547   0.080   5.853 -0.7366  0.0725 -0.2601
 4793TIP3   OH214321   6.626   0.335   3.362 -0.0832  0.3822  0.2911
 4793TIP3    H114322   6.656   0.421   3.335  0.7745  0.0526  0.1726
 4793TIP3    H214323   6.694   0.275   3.332 -1.9256 -0.6825 -2.0900
 4794TIP3   OH214324   2.518   2.745   5.847 -0.5012 -0.0703  0.0224
 4794TIP3    H114325   2.593   2.708   5.800  0.1716  1.1374  0.0984
 4794TIP3    H214326   2.516   2.837   5.821 -0.6566  0.4253  1.6362
 4795TIP3   OH214327   4.030   7.336   6.565 -1.1909 -0.0174 -0.2004
 4795TIP3    H114328   4.066   7.369   6.482 -0.4858  2.0366  0.8480
 4795TIP3    H214329   3.954   7.283   6.539 -0.7784  0.2737 -2.1639
 4796TIP3   OH214330   1.882   6.030   4.040 -0.3475  0.4319  0.1896
 4796TIP3    H114331   1.790   6.044   4.064 -0.3165  1.1800 -0.1235
 4796TIP3    H214332   1.879   5.963   3.972 -0.8184  1.7362 -1.1133
 4797TIP3   OH214333   6.675   4.046   5.569  0.2276  0.4351 -0.5187
 4797TIP3    H114334   6.598   3.999   5.600  0.3103 -0.4917 -1.6769
 4797TIP3    H214335   6.664   4.053   5.475  2.3772 -1.3199 -0.9854
 4798TIP3   OH214336   1.822   3.639   5.305 -0.0571  0.0947  0.5326
 4798TIP3    H114337   1.799   3.731   5.323 -1.6201 -0.2762  0.5600
 4798TIP3    H214338   1.745   3.603   5.261  1.5169 -0.5273 -1.9204
 4799TIP3   OH214339   6.139   4.667   1.677  0.1899  0.2122 -0.1735
 4799TIP3    H114340   6.043   4.669   1.677  0.1563 -0.7464  0.7301
 4799TIP3    H214341   6.164   4.712   1.757  0.3835 -2.1122  1.1535
 4800TIP3   OH214342   2.121   6.851   1.897 -0.2472  0.6864  0.3961
 4800TIP3    H114343   2.099   6.930   1.946 -0.0251  2.2288 -1.8731
 4800TIP3    H214344   2.213   6.835   1.915  0.3342  2.3397 -0.9141
 4801TIP3   OH214345   0.426   3.539   6.371 -0.0682  0.1013 -0.3664
 4801TIP3    H114346   0.508   3.541   6.321  0.0625  0.6505 -0.1360
 4801TIP3    H214347   0.434   3.611   6.433 -1.2134  0.9003 -1.1171
 4802TIP3   OH214348   1.768   2.865   1.048 -0.2062  0.0732  0.5602
 4802TIP3    H114349   1.707   2.862   0.975  2.0276 -0.4780 -1.4024
 4802TIP3    H214350   1.815   2.781   1.044  3.2871  1.8955 -0.5036
 4803TIP3   OH214351   4.956   7.541   0.335  0.1626  0.2474 -0.1275
 4803TIP3    H114352   4.870   7.513   0.366 -1.3149  0.7883 -3.3149
 4803TIP3    H214353   4.949   7.636   0.326  0.9024  0.2522 -0.8113
 4804TIP3   OH214354   8.120   5.621   3.656 -0.5737 -0.2162  0.1050
 4804TIP3    H114355   8.051   5.648   3.716 -1.0546  1.0328 -0.9560
 4804TIP3    H214356   8.198   5.668   3.685  0.0568 -2.0861  1.6740
 4805TIP3   OH214357   4.131   3.503   2.722 -0.3534 -0.1599  0.6122
 4805TIP3    H114358   4.089   3.417   2.713  1.0345 -0.8711  0.7584
 4805TIP3    H214359   4.109   3.531   2.811  0.4413 -1.0611  1.1070
 4806TIP3   OH214360   4.519   3.702   6.437 -0.3495  0.1276 -0.3050
 4806TIP3    H114361   4.517   3.684   6.531 -0.9005 -1.8469 -0.6558
 4806TIP3    H214362   4.612   3.717   6.418 -0.3603  1.7888  0.7150
 4807TIP3   OH214363   2.790   3.147   2.514 -0.1085 -0.1366  0.3731
 4807TIP3    H114364   2.695   3.143   2.524  0.0633 -0.3353  2.3663
 4807TIP3    H214365   2.806   3.121   2.423 -1.7733 -2.9595  0.7828
 4808TIP3   OH214366   1.228   1.514   4.568 -0.0743  0.1100  0.8780
 4808TIP3    H114367   1.139   1.547   4.556  0.2308  1.1406  1.4012
 4808TIP3    H214368   1.270   1.527   4.484  0.2939  1.8857  1.2951
 4809TIP3   OH214369   5.875   6.668   5.617  0.3818 -0.1119  0.3846
 4809TIP3    H114370   5.905   6.661   5.527 -0.7748 -1.6587  0.0864
 4809TIP3    H214371   5.781   6.688   5.610  0.3091 -0.1003  1.2534
 4810TIP3   OH214372   8.065   5.675   3.388 -0.0090 -0.4411  0.5779
 4810TIP3    H114373   8.009   5.753   3.381 -0.4238 -0.8699 -1.5244
 4810TIP3    H214374   8.089   5.671   3.480 -3.4092 -0.2079  1.5918
 4811TIP3   OH214375   6.321   4.104   2.667 -0.4603 -0.2715  0.0685
 4811TIP3    H114376   6.293   4.169   2.731 -1.0880 -0.5316  0.0687
 4811TIP3    H214377   6.324   4.152   2.584 -2.0707 -0.4780 -0.1534
 4812TIP3   OH214378   8.049   7.378   6.236 -0.0878  0.2573  0.1358
 4812TIP3    H114379   7.986   7.402   6.168  1.0118  1.6825 -0.4201
 4812TIP3    H214380   8.085   7.294   6.206 -0.9488 -0.0498 -0.0721
 4813TIP3   OH214381   3.796   6.580   2.716  0.1337 -0.3078 -0.7323
 4813TIP3    H114382   3.818   6.638   2.643  1.8256 -2.3466 -1.9999
 4813TIP3    H214383   3.798   6.636   2.793  2.1189  1.2695 -1.8083
 4814TIP3   OH214384   4.243   6.776   1.327 -0.1576 -0.2867 -0.3564
 4814TIP3    H114385   4.160   6.795   1.371  0.5347  1.1460  0.4205
 4814TIP3    H214386   4.266   6.858   1.283  0.4372 -0.9203 -1.2433
 4815TIP3   OH214387   0.873   0.424   4.846  0.6510 -0.1878 -0.1780
 4815TIP3    H114388   0.923   0.424   4.765  2.4921  0.3746  0.8940
 4815TIP3    H214389   0.907   0.350   4.896  1.2189  0.8512  1.0270
 4816TIP3   OH214390   0.418   7.851   6.624  0.2347 -0.7037  0.2700
 4816TIP3    H114391   0.400   7.812   6.710 -1.1315 -2.3987 -0.7342
 4816TIP3    H214392   0.487   7.797   6.587  2.5204  1.4076  1.1291
 4817TIP3   OH214393   7.333   4.432   6.562  0.3394  0.3397 -0.0354
 4817TIP3    H114394   7.276   4.431   6.639  1.9574  0.1078  1.2048
 4817TIP3    H214395   7.319   4.519   6.524  0.2899  0.8686  1.1277
 4818TIP3   OH214396   1.578   1.310   0.409  0.6681  0.0546 -0.0010
 4818TIP3    H114397   1.670   1.308   0.438  0.4320  0.4044  0.7918
 4818TIP3    H214398   1.563   1.223   0.373  0.8375 -0.5925  1.4100
 4819TIP3   OH214399   0.537   2.149   0.211 -0.3120  0.0416  0.0254
 4819TIP3    H114400   0.583   2.157   0.128 -0.3330  0.5793  0.0618
 4819TIP3    H214401   0.593   2.194   0.274 -0.4472 -0.0936  0.2461
 4820TIP3   OH214402   0.907   5.463   5.178  0.9851  0.0984 -0.3922
 4820TIP3    H114403   0.925   5.482   5.086  2.4974 -1.7107 -0.5237
 4820TIP3    H214404   0.993   5.449   5.217  0.3061 -0.0793  1.0963
 4821TIP3   OH214405   1.164   4.045   0.760 -0.8293  0.5635 -0.2332
 4821TIP3    H114406   1.187   4.136   0.779  1.5263  0.1773 -0.8890
 4821TIP3    H214407   1.104   4.051   0.686  0.0112  1.5581 -0.8619
 4822TIP3   OH214408   3.447   6.215   1.102  0.0205 -0.1648  0.0383
 4822TIP3    H114409   3.418   6.281   1.165  0.2183 -0.6415  0.6412
 4822TIP3    H214410   3.379   6.215   1.035 -0.2188  0.3185  0.2698
 4823TIP3   OH214411   1.598   7.430   5.847 -0.2120  0.5238  0.0946
 4823TIP3    H114412   1.655   7.353   5.839 -2.0523 -0.7906 -1.2757
 4823TIP3    H214413   1.514   7.401   5.810 -1.3251  2.8440  0.6462
 4824TIP3   OH214414   1.296   2.505   4.525  0.0115  0.2950  0.5652
 4824TIP3    H114415   1.388   2.515   4.498 -0.3938  0.2074 -0.9289
 4824TIP3    H214416   1.262   2.594   4.528 -0.4888  0.2009 -1.3086
 4825TIP3   OH214417   5.418   1.251   3.365  0.2938  0.4525  0.0433
 4825TIP3    H114418   5.396   1.166   3.326  3.5964 -0.8457  0.6905
 4825TIP3    H214419   5.423   1.311   3.290  0.1802 -0.4570 -0.7097
 4826TIP3   OH214420   0.589   7.646   6.478  0.0893  0.0845 -0.0560
 4826TIP3    H114421   0.555   7.559   6.455 -1.3310  0.0139  2.0268
 4826TIP3    H214422   0.678   7.629   6.509  0.0661 -0.5256 -0.2896
 4827TIP3   OH214423   0.800   7.746   1.176 -0.1597 -0.0566  0.0857
 4827TIP3    H114424   0.831   7.818   1.122  0.6232 -1.1130 -0.9305
 4827TIP3    H214425   0.869   7.680   1.170  0.1406 -0.0707  2.7256
 4828TIP3   OH214426   6.095   0.251   2.628  0.4171 -0.1059 -0.4131
 4828TIP3    H114427   6.188   0.275   2.622  1.0548 -2.2818 -0.0299
 4828TIP3    H214428   6.065   0.247   2.537  1.3088 -1.4388 -0.6793
 4829TIP3   OH214429   5.064   3.946   5.311  0.2555 -0.5519  0.5488
 4829TIP3    H114430   5.002   4.008   5.271  0.6840 -0.9114 -0.7250
 4829TIP3    H214431   5.143   3.998   5.327  0.6162 -0.7450 -0.5233
 4830TIP3   OH214432   5.709   6.371   2.909 -0.1567  0.0346 -0.1744
 4830TIP3    H114433   5.668   6.346   2.992  2.4930 -0.7343  1.0034
 4830TIP3    H214434   5.698   6.295   2.853 -3.0296  0.9931 -1.0629
 4831TIP3   OH214435   6.573   5.313   5.305  0.1618 -0.4040 -0.2246
 4831TIP3    H114436   6.485   5.304   5.343  0.4116 -0.2863  0.3916
 4831TIP3    H214437   6.577   5.404   5.276 -0.2877 -0.6836 -1.2060
 4832TIP3   OH214438   7.187   0.798   0.559 -0.2186 -0.0615 -0.0501
 4832TIP3    H114439   7.095   0.778   0.539 -0.3442 -1.7643  1.8799
 4832TIP3    H214440   7.212   0.862   0.493 -2.7856  0.4659 -0.6464
 4833TIP3   OH214441   0.865   1.419   2.335 -0.2916  0.1625  0.4924
 4833TIP3    H114442   0.856   1.403   2.241 -0.0422 -1.3261  0.6999
 4833TIP3    H214443   0.828   1.506   2.348 -0.0543  0.5241 -1.0271
 4834TIP3   OH214444   3.847   7.724   6.338 -0.3630 -0.0962  0.2444
 4834TIP3    H114445   3.786   7.739   6.410  0.8109 -0.7925  1.4412
 4834TIP3    H214446   3.845   7.629   6.324 -2.1323  0.1902 -2.1241
 4835TIP3   OH214447   7.567   4.189   0.928 -0.2688  0.6119  0.0273
 4835TIP3    H114448   7.629   4.230   0.989 -0.0539  1.5369 -0.7934
 4835TIP3    H214449   7.481   4.222   0.954 -0.3577 -0.1864  0.7762
 4836TIP3   OH214450   8.039   0.094   1.689 -0.5367  0.0098 -0.6211
 4836TIP3    H114451   8.104   0.162   1.670  0.0259 -0.4010 -0.1789
 4836TIP3    H214452   8.061   0.023   1.629  0.5590 -0.8542  0.7721
 4837TIP3   OH214453   8.131   4.686   1.391  0.1753  0.2835  0.6483
 4837TIP3    H114454   8.225   4.671   1.381 -0.0174 -1.7473  1.4616
 4837TIP3    H214455   8.125   4.746   1.466  0.8156 -0.1047  1.0250
 4838TIP3   OH214456   0.285   0.947   1.594  0.0051  0.0976  0.0005
 4838TIP3    H114457   0.243   0.972   1.512 -0.4958 -0.5770  0.0452
 4838TIP3    H214458   0.347   0.879   1.569 -1.7244 -1.7430  0.4479
 4839TIP3   OH214459   0.892   4.560   2.852 -0.2622 -1.1796  0.1324
 4839TIP3    H114460   0.817   4.556   2.912  0.9963 -3.8724  1.7209
 4839TIP3    H214461   0.937   4.641   2.876 -1.9432 -0.1674  0.0183
 4840TIP3   OH214462   5.369   0.279   6.133 -0.4356 -0.2402 -0.3275
 4840TIP3    H114463   5.304   0.255   6.066 -1.6626 -1.6366  1.2703
 4840TIP3    H214464   5.402   0.195   6.166  0.5763  0.4285  0.4194
 4841TIP3   OH214465   1.485   1.167   1.487 -0.3001 -0.2367  0.5864
 4841TIP3    H114466   1.423   1.202   1.423  0.3203 -0.6627 -0.2778
 4841TIP3    H214467   1.463   1.074   1.494  1.2067 -0.7858 -0.9758
 4842TIP3   OH214468   6.918   7.676   1.860 -0.5288  0.1901  0.2503
 4842TIP3    H114469   6.911   7.698   1.768  0.0166  0.4383  0.2663
 4842TIP3    H214470   6.847   7.726   1.902 -1.6857 -1.0054 -0.2055
 4843TIP3   OH214471   8.013   1.252   5.885  0.1532  0.5261  0.3801
 4843TIP3    H114472   7.980   1.342   5.881 -0.7187  0.1804 -0.9056
 4843TIP3    H214473   7.951   1.206   5.941 -0.5300  0.3127 -0.5147
 4844TIP3   OH214474   5.644   6.919   4.441  0.1600 -0.5595  0.1363
 4844TIP3    H114475   5.593   6.924   4.522  0.5727 -0.4031  0.3906
 4844TIP3    H214476   5.593   6.970   4.378  0.5216  0.5273  0.6790
 4845TIP3   OH214477   7.866   1.814   2.516  0.0005 -0.3533  0.6179
 4845TIP3    H114478   7.917   1.805   2.436 -1.6955 -1.7571 -0.3872
 4845TIP3    H214479   7.931   1.817   2.586  1.4771 -1.4006 -0.6400
 4846TIP3   OH214480   0.371   7.623   3.903 -0.1951  0.6990  0.2558
 4846TIP3    H114481   0.319   7.700   3.926  0.2557  0.7445  1.1791
 4846TIP3    H214482   0.415   7.647   3.821  0.4954  1.7035  0.9047
 4847TIP3   OH214483   1.607   1.838   5.829 -0.6086 -0.0850 -0.4278
 4847TIP3    H114484   1.676   1.816   5.766 -0.2120  0.3267 -0.1452
 4847TIP3    H214485   1.594   1.932   5.818 -0.7282 -0.0605 -0.0812
 4848TIP3   OH214486   7.060   4.656   2.093 -0.1321 -0.1307  0.0344
 4848TIP3    H114487   7.038   4.742   2.057 -0.6528  0.1388  0.9611
 4848TIP3    H214488   7.141   4.671   2.142  0.8219 -0.5916 -1.3390
 4849TIP3   OH214489   2.394   4.491   5.925 -0.0530  0.0812  0.2890
 4849TIP3    H114490   2.312   4.494   5.973  0.2084 -0.6729  0.8080
 4849TIP3    H214491   2.369   4.502   5.833 -0.4867  2.3815  0.6086
 4850TIP3   OH214492   0.672   4.624   6.081  0.0639 -0.4501 -0.0899
 4850TIP3    H114493   0.588   4.666   6.099 -0.1909 -1.6281  1.7098
 4850TIP3    H214494   0.650   4.545   6.032 -0.1693 -1.7805  1.9992
 4851TIP3   OH214495   5.919   0.471   1.316 -0.0666 -0.2109  0.7443
 4851TIP3    H114496   5.848   0.525   1.280  0.8572 -0.2074 -1.2065
 4851TIP3    H214497   5.898   0.462   1.409 -2.2086  0.4204  0.3741
 4852TIP3   OH214498   6.436   1.321   6.502  0.3520  0.5383 -0.4215
 4852TIP3    H114499   6.517   1.278   6.473  1.4935  0.2877  2.7243
 4852TIP3    H214500   6.462   1.412   6.519 -0.0224  0.4894  0.4847
 4853TIP3   OH214501   2.174   2.690   3.593  0.3048 -0.5370 -0.2044
 4853TIP3    H114502   2.171   2.637   3.673  0.2569  0.7367  0.6609
 4853TIP3    H214503   2.263   2.726   3.591 -0.0396  0.3467 -0.1023
 4854TIP3   OH214504   2.182   3.821   2.146 -0.4304 -0.4358  0.5542
 4854TIP3    H114505   2.223   3.906   2.155  0.3077 -0.7084 -0.0973
 4854TIP3    H214506   2.093   3.832   2.182 -0.8023  0.9453 -0.7113
 4855TIP3   OH214507   1.429   6.613   4.878 -0.0706 -0.0783  0.2655
 4855TIP3    H114508   1.371   6.542   4.851 -3.0952  2.7877 -1.5055
 4855TIP3    H214509   1.454   6.656   4.796  1.4768  1.0829  1.2801
 4856TIP3   OH214510   5.860   6.462   2.033  0.7589 -0.0675 -0.3172
 4856TIP3    H114511   5.929   6.475   2.098  0.5709  0.6000 -0.2428
 4856TIP3    H214512   5.788   6.422   2.081  1.4137 -1.6642 -0.5861
 4857TIP3   OH214513   6.540   0.874   0.272 -0.4539 -0.1060  0.3930
 4857TIP3    H114514   6.450   0.897   0.249 -0.4567  0.1519  0.6531
 4857TIP3    H214515   6.593   0.913   0.203 -0.6797 -2.1657 -1.0328
 4858TIP3   OH214516   2.091   4.477   3.865 -0.0396 -0.3293  0.1655
 4858TIP3    H114517   2.156   4.417   3.828  0.1176  0.4870 -0.9476
 4858TIP3    H214518   2.007   4.430   3.855 -0.0125 -0.1201 -1.3383
 4859TIP3   OH214519   4.986   5.427   1.029 -0.1272  0.3890  0.0340
 4859TIP3    H114520   4.973   5.416   0.935 -0.8744  1.8792 -0.0647
 4859TIP3    H214521   4.990   5.338   1.064  0.7541 -0.1922 -1.4732
 4860TIP3   OH214522   6.925   2.213   2.288  0.3274  0.2564  0.7075
 4860TIP3    H114523   6.997   2.227   2.349 -1.4823 -0.9370  3.3143
 4860TIP3    H214524   6.913   2.118   2.287 -0.5883  0.3619 -0.4605
 4861TIP3   OH214525   5.330   5.229   1.438 -0.3176  0.1076  0.2088
 4861TIP3    H114526   5.345   5.282   1.360 -0.4817 -2.1267 -1.4407
 4861TIP3    H214527   5.348   5.139   1.409  1.3808 -0.6604  3.2288
 4862TIP3   OH214528   1.977   1.495   6.661  0.0022  0.1719 -0.5073
 4862TIP3    H114529   1.935   1.483   6.576  0.2067  1.3397 -0.7898
 4862TIP3    H214530   1.950   1.582   6.689 -0.8081 -0.5389  1.0643
 4863TIP3   OH214531   4.538   6.799   2.527  0.0908  0.0804  0.1437
 4863TIP3    H114532   4.442   6.798   2.518 -0.3191  0.6078  3.1146
 4863TIP3    H214533   4.570   6.741   2.458 -2.5291 -1.8156  0.3704
 4864TIP3   OH214534   3.533   7.438   1.491 -0.1909  0.2384  0.6459
 4864TIP3    H114535   3.481   7.432   1.411  0.5080 -0.6519  0.2436
 4864TIP3    H214536   3.587   7.516   1.479  1.3152 -0.9511 -0.6322
 4865TIP3   OH214537   5.319   1.482   4.915  0.2931 -0.0162  0.3393
 4865TIP3    H114538   5.302   1.575   4.933 -1.1773 -0.1595 -0.1221
 4865TIP3    H214539   5.282   1.436   4.990 -0.8403 -0.3122 -0.3696
 4866TIP3   OH214540   7.771   5.226   5.569  0.2627 -0.1048 -0.1065
 4866TIP3    H114541   7.729   5.264   5.492 -0.5519  0.1334  0.4476
 4866TIP3    H214542   7.713   5.155   5.596  0.9074 -0.6496 -0.1210
 4867TIP3   OH214543   4.627   5.108   2.871 -0.1742 -0.2195  0.7066
 4867TIP3    H114544   4.591   5.113   2.959  0.0335 -1.2235  0.8586
 4867TIP3    H214545   4.710   5.063   2.881 -0.2453 -0.5306 -0.0320
 4868TIP3   OH214546   0.277   0.585   3.689 -0.2411  0.0249 -0.0377
 4868TIP3    H114547   0.347   0.611   3.629 -1.1015  1.0790 -0.6205
 4868TIP3    H214548   0.310   0.610   3.776  0.2031  0.3210 -0.2849
 4869TIP3   OH214549   1.846   7.628   3.148 -0.4591 -0.2943 -0.2784
 4869TIP3    H114550   1.836   7.548   3.096 -0.9220 -0.2281 -0.2977
 4869TIP3    H214551   1.831   7.600   3.238  0.2839 -0.3974 -0.1756
 4870TIP3   OH214552   7.921   3.197   6.366 -0.4969 -0.0521  0.4065
 4870TIP3    H114553   7.959   3.152   6.442 -1.5561 -2.2221 -0.2819
 4870TIP3    H214554   7.879   3.128   6.315 -0.0095  1.3693 -2.0779
 4871TIP3   OH214555   3.977   6.941   5.689  0.5458 -0.5156 -0.0648
 4871TIP3    H114556   3.908   7.007   5.699  2.2358  1.4459 -0.5394
 4871TIP3    H214557   3.987   6.932   5.594  2.2314  0.7264 -0.0399
 4872TIP3   OH214558   5.050   3.205   6.528 -0.1164 -0.3858 -0.2805
 4872TIP3    H114559   4.961   3.238   6.517 -0.1469 -0.0223  0.8626
 4872TIP3    H214560   5.045   3.149   6.606  0.3420 -1.5913 -1.0854
 4873TIP3   OH214561   6.193   6.152   5.289  0.0802 -0.1798 -0.0448
 4873TIP3    H114562   6.105   6.117   5.276  0.6637 -1.4637 -0.7149
 4873TIP3    H214563   6.244   6.115   5.217  1.4894 -0.5617  1.1206
 4874TIP3   OH214564   6.834   1.670   2.477  0.3192 -0.2894 -0.1757
 4874TIP3    H114565   6.878   1.591   2.445  0.7420  0.0470 -0.4438
 4874TIP3    H214566   6.791   1.642   2.558 -0.9784 -1.2228 -1.1427
 4875TIP3   OH214567   5.098   7.252   1.081 -0.3701  0.9925  0.3074
 4875TIP3    H114568   5.157   7.258   1.006  0.2678 -0.0170  0.6995
 4875TIP3    H214569   5.011   7.239   1.042 -0.0620  0.5878 -0.2639
 4876TIP3   OH214570   0.673   2.348   0.356  0.4260 -0.6403 -0.2966
 4876TIP3    H114571   0.677   2.443   0.351 -1.1292 -0.6062 -1.6702
 4876TIP3    H214572   0.707   2.327   0.443 -0.4729  1.2636  0.5770
 4877TIP3   OH214573   6.215   2.828   5.527  0.2653  0.5627 -0.2321
 4877TIP3    H114574   6.151   2.894   5.553 -0.8609 -1.3611  2.3659
 4877TIP3    H214575   6.162   2.753   5.499  1.4974  0.8167 -3.7375
 4878TIP3   OH214576   0.669   1.924   3.719 -0.0502 -0.2135  0.5405
 4878TIP3    H114577   0.580   1.959   3.721  1.2469  3.6230 -0.4508
 4878TIP3    H214578   0.696   1.921   3.811 -0.9341 -0.7786  0.7938
 4879TIP3   OH214579   0.166   0.117   5.010 -0.0530 -0.6606 -0.8906
 4879TIP3    H114580   0.101   0.179   5.043 -1.4815 -1.8782 -1.2437
 4879TIP3    H214581   0.246   0.138   5.057 -0.9339  0.3368  0.2440
 4880TIP3   OH214582   1.619   1.619   0.408  0.5502  0.6359  0.3066
 4880TIP3    H114583   1.558   1.588   0.475  0.6224  1.9072  0.9933
 4880TIP3    H214584   1.693   1.559   0.414  0.0002 -0.0546  0.4544
 4881TIP3   OH214585   6.745   0.388   3.760  0.0018 -0.1416  0.1953
 4881TIP3    H114586   6.752   0.459   3.696  1.1607 -0.4356 -0.0382
 4881TIP3    H214587   6.832   0.347   3.759 -0.7897 -1.8826 -0.0455
 4882TIP3   OH214588   2.613   4.592   3.907  0.1254 -0.1266  0.0038
 4882TIP3    H114589   2.703   4.583   3.876  0.2826 -1.8363  0.8196
 4882TIP3    H214590   2.578   4.503   3.904 -0.9446  0.2091  1.4402
 4883TIP3   OH214591   2.731   3.366   4.921 -0.2469  0.3755  0.0369
 4883TIP3    H114592   2.672   3.293   4.902 -0.9290  0.5781  1.2835
 4883TIP3    H214593   2.790   3.370   4.845  0.4951 -2.1475  0.3837
 4884TIP3   OH214594   7.206   6.344   5.212  0.8184 -0.1046 -0.2147
 4884TIP3    H114595   7.195   6.384   5.126  1.5477 -2.6556 -1.5952
 4884TIP3    H214596   7.280   6.391   5.251 -0.9711  2.6470  0.0834
 4885TIP3   OH214597   6.324   2.326   0.630 -0.1989  0.1689  0.2156
 4885TIP3    H114598   6.322   2.230   0.624  0.7186  0.1517  0.0214
 4885TIP3    H214599   6.407   2.350   0.591 -0.5905  1.0802 -0.0774
 4886TIP3   OH214600   0.148   2.291   3.903  0.4178  0.2973 -0.5669
 4886TIP3    H114601   0.177   2.329   3.986  0.2868  0.6992 -0.7033
 4886TIP3    H214602   0.227   2.250   3.867  0.0885 -1.4944  0.6080
 4887TIP3   OH214603   8.185   0.979   5.315 -0.0554  0.0565 -0.1321
 4887TIP3    H114604   8.163   0.950   5.403 -0.8973  0.3246 -0.2457
 4887TIP3    H214605   8.247   1.051   5.328 -0.4417  0.3272  0.2651
 4888TIP3   OH214606   5.597   3.594   0.330  0.2584  0.0422 -0.4218
 4888TIP3    H114607   5.510   3.589   0.291 -0.2166 -3.1459  0.7851
 4888TIP3    H214608   5.652   3.539   0.275  1.4250  1.4882 -0.7839
 4889TIP3   OH214609   6.256   3.035   5.803 -0.6480 -0.4018 -0.0208
 4889TIP3    H114610   6.225   3.080   5.724  1.0216 -0.0404 -0.5034
 4889TIP3    H214611   6.184   3.045   5.866 -1.8770 -0.4104 -1.3775
 4890TIP3   OH214612   5.911   6.240   4.809  0.0838  0.3662  0.1015
 4890TIP3    H114613   6.002   6.272   4.806 -0.3393  1.5187 -1.0803
 4890TIP3    H214614   5.892   6.235   4.903  0.8280  1.7446  0.3658
 4891TIP3   OH214615   0.056   3.388   4.089  0.1457 -0.0408  0.1777
 4891TIP3    H114616  -0.023   3.357   4.133 -0.3689  0.3512 -0.4363
 4891TIP3    H214617   0.033   3.477   4.059  0.2803 -0.4618 -1.2808
 4892TIP3   OH214618   2.623   2.884   5.128 -0.3243  0.0932  0.2884
 4892TIP3    H114619   2.701   2.938   5.125 -0.7775  0.7243 -0.7691
 4892TIP3    H214620   2.567   2.919   5.058 -0.8790 -1.3456 -0.0268
 4893TIP3   OH214621   5.059   4.513   2.629  0.0120  0.8722  0.0810
 4893TIP3    H114622   4.966   4.533   2.638  0.0115  1.5211 -1.1527
 4893TIP3    H214623   5.067   4.422   2.659 -0.5692  1.5672  2.5574
 4894TIP3   OH214624   2.927   5.513   3.654 -0.9311  0.2048  0.1838
 4894TIP3    H114625   2.947   5.579   3.720  0.2048 -0.0135  0.0897
 4894TIP3    H214626   3.012   5.496   3.611 -1.6829  0.5967 -1.5617
 4895TIP3   OH214627   2.019   1.011   0.051 -0.1029 -0.0075 -0.1361
 4895TIP3    H114628   2.106   1.045   0.032  0.4082  0.8887  3.1217
 4895TIP3    H214629   2.033   0.917   0.064  0.8805  0.3882  2.2553
 4896TIP3   OH214630   2.442   2.651   5.070 -0.2768 -0.0385  0.0222
 4896TIP3    H114631   2.424   2.716   5.002 -0.7496 -1.9133 -1.7053
 4896TIP3    H214632   2.516   2.688   5.118 -0.5903  1.8228 -0.8263
 4897TIP3   OH214633   0.112   5.660   3.337 -0.2477 -0.3144 -0.5612
 4897TIP3    H114634   0.154   5.641   3.253 -0.9505 -2.2409 -0.5204
 4897TIP3    H214635   0.085   5.574   3.370 -1.1119  0.5376  1.0414
 4898TIP3   OH214636   3.385   3.713   3.721  0.8677  0.3559 -0.2368
 4898TIP3    H114637   3.320   3.762   3.770 -0.7815 -1.9836  0.0658
 4898TIP3    H214638   3.371   3.738   3.630 -0.9839 -0.5788 -0.2598
 4899TIP3   OH214639   5.409   4.286   5.622  0.2506 -0.1813 -0.2012
 4899TIP3    H114640   5.377   4.319   5.706 -0.1221 -0.7350 -0.1237
 4899TIP3    H214641   5.501   4.265   5.639 -0.0183 -1.0103  0.2883
 4900TIP3   OH214642   4.413   0.997   2.427 -0.6983 -0.0489 -0.6299
 4900TIP3    H114643   4.452   1.068   2.375  0.6206  0.2947  0.7770
 4900TIP3    H214644   4.484   0.964   2.481 -1.5862 -1.6853 -0.3982
 4901TIP3   OH214645   3.556   3.342   0.147  0.1101 -0.3639 -0.1827
 4901TIP3    H114646   3.498   3.302   0.083 -1.6893 -0.2781  1.3010
 4901TIP3    H214647   3.575   3.272   0.210  3.5209 -1.0548 -1.7434
 4902TIP3   OH214648   2.810   1.559   2.300  0.1142  0.0563 -0.8269
 4902TIP3    H114649   2.787   1.478   2.254  1.4434 -1.1251  0.4452
 4902TIP3    H214650   2.886   1.592   2.252  0.8468 -0.6040 -0.1575
 4903TIP3   OH214651   5.441   1.442   5.900  0.0649 -0.8716  0.2319
 4903TIP3    H114652   5.526   1.406   5.925 -0.0717 -1.5134 -0.1997
 4903TIP3    H214653   5.462   1.523   5.852  0.4687 -1.3439 -0.4059
 4904TIP3   OH214654   3.999   2.783   5.691  0.1677 -0.2768  0.0777
 4904TIP3    H114655   3.940   2.710   5.712  0.7710 -0.3603  1.5499
 4904TIP3    H214656   3.955   2.828   5.619 -0.7156 -1.4993 -0.1896
 4905TIP3   OH214657   8.135   7.583   3.389 -0.3861 -0.0250  0.4019
 4905TIP3    H114658   8.177   7.524   3.327 -1.8988 -0.8976  0.1678
 4905TIP3    H214659   8.098   7.526   3.456 -1.3813  0.6769  0.4761
 4906TIP3   OH214660   2.877   4.384   6.712  0.3593 -0.4305  0.1611
 4906TIP3    H114661   2.907   4.298   6.683 -0.0630 -0.8194  0.8432
 4906TIP3    H214662   2.823   4.416   6.640 -0.8886 -1.4958  0.5768
 4907TIP3   OH214663   7.304   5.188   4.035 -0.0247  0.1095 -0.3523
 4907TIP3    H114664   7.278   5.225   4.120 -1.0296 -0.7898 -0.2466
 4907TIP3    H214665   7.232   5.130   4.011  1.1511 -1.1918 -0.8743
 4908TIP3   OH214666   5.832   1.240   1.996 -0.2671  0.0165 -0.2038
 4908TIP3    H114667   5.849   1.147   2.007 -1.4236 -0.5027 -2.1054
 4908TIP3    H214668   5.779   1.264   2.072  1.4394 -0.4151  1.1863
 4909TIP3   OH214669   3.031   5.447   3.151  0.3689  0.9478 -0.3502
 4909TIP3    H114670   2.978   5.440   3.071 -0.9118  1.1474  0.4418
 4909TIP3    H214671   2.974   5.412   3.219  0.2248  3.5262  0.9646
 4910TIP3   OH214672   6.987   4.656   6.145  0.5415  0.0746 -0.0376
 4910TIP3    H114673   7.060   4.712   6.116  1.1515 -0.2885  0.7522
 4910TIP3    H214674   6.954   4.616   6.065  0.3483  1.2617 -0.5727
 4911TIP3   OH214675   1.580   2.341   5.308  0.3365  0.2504 -0.2916
 4911TIP3    H114676   1.524   2.416   5.330  0.4752  0.4952 -0.7577
 4911TIP3    H214677   1.530   2.265   5.336 -0.9882  0.3499 -2.1962
 4912TIP3   OH214678   2.100   0.129   2.483  0.4189  0.4367  0.2081
 4912TIP3    H114679   2.187   0.163   2.465  1.1473 -1.2283  0.4367
 4912TIP3    H214680   2.064   0.108   2.397  1.1472 -0.9655  0.2211
 4913TIP3   OH214681   7.513   5.259   0.816  0.1404  0.5340 -0.2248
 4913TIP3    H114682   7.542   5.350   0.805  1.9170 -0.2635 -3.8104
 4913TIP3    H214683   7.593   5.207   0.804 -1.0982 -1.5750  0.1303
 4914TIP3   OH214684   1.052   3.133   1.660 -0.7654 -0.1059  0.0726
 4914TIP3    H114685   1.101   3.162   1.583 -0.9275  0.0675  0.0349
 4914TIP3    H214686   1.005   3.211   1.689  0.1940  0.1494  1.0253
 4915TIP3   OH214687   2.155   1.160   5.309 -0.2729 -0.1348  0.0276
 4915TIP3    H114688   2.144   1.202   5.223 -0.0194  2.6669  1.2461
 4915TIP3    H214689   2.069   1.166   5.350 -0.3399 -1.2718  0.0672
 4916TIP3   OH214690   1.510   2.418   6.355  0.3855  0.4744  0.2727
 4916TIP3    H114691   1.593   2.435   6.400  0.0755  2.0809  0.2895
 4916TIP3    H214692   1.467   2.353   6.411  1.7631 -0.6733  0.0620
 4917TIP3   OH214693   0.698   5.299   5.219 -0.3967  0.6093  0.2091
 4917TIP3    H114694   0.739   5.277   5.303 -0.9178  0.6697  0.4822
 4917TIP3    H214695   0.748   5.375   5.188  0.2953  0.1218  0.0871
 4918TIP3   OH214696   3.317   1.999   4.453  0.6498  0.5163 -0.8253
 4918TIP3    H114697   3.364   2.079   4.479  1.4607 -0.0722 -0.3979
 4918TIP3    H214698   3.288   1.961   4.536 -0.4842  0.7945 -1.0810
 4919TIP3   OH214699   2.569   4.562   0.123  0.5568 -0.0058  0.1476
 4919TIP3    H114700   2.586   4.572   0.216  3.6019 -0.3189 -0.2695
 4919TIP3    H214701   2.473   4.567   0.115  0.2574  0.8553  3.1366
 4920TIP3   OH214702   2.225   6.331   4.824  0.0683  0.6687  0.2051
 4920TIP3    H114703   2.318   6.313   4.838 -0.2116 -0.9343  0.2634
 4920TIP3    H214704   2.221   6.365   4.734  0.7071  0.7394  0.1951
 4921TIP3   OH214705   6.474   0.464   6.260  0.2979 -0.0448  0.0673
 4921TIP3    H114706   6.526   0.407   6.203 -0.5107  1.2960 -2.1351
 4921TIP3    H214707   6.397   0.411   6.281 -0.5510  0.2099 -2.1348
 4922TIP3   OH214708   7.644   4.878   1.944  0.0814 -0.2877 -0.2408
 4922TIP3    H114709   7.562   4.858   1.988  0.1234  2.0464  1.0384
 4922TIP3    H214710   7.712   4.848   2.004  0.1334  2.0428  0.9427
 4923TIP3   OH214711   6.220   3.223   0.637 -0.4214 -0.3247 -0.0455
 4923TIP3    H114712   6.143   3.272   0.664 -1.4832 -1.8476 -0.1317
 4923TIP3    H214713   6.266   3.281   0.576 -0.5626  1.2732  1.3136
 4924TIP3   OH214714   0.364   3.303   3.846  0.0912  0.4262 -0.2122
 4924TIP3    H114715   0.331   3.269   3.929 -1.1734 -0.2392 -0.9407
 4924TIP3    H214716   0.447   3.256   3.832 -0.0595 -0.0089  0.3206
 4925TIP3   OH214717   2.826   3.986   0.478 -0.9254 -0.3719  0.2686
 4925TIP3    H114718   2.912   4.008   0.442 -1.1933  0.4227  0.0873
 4925TIP3    H214719   2.835   3.999   0.572 -0.8309 -0.3295  0.2542
 4926TIP3   OH214720   4.835   4.710   1.270  0.2193 -0.6109  0.7997
 4926TIP3    H114721   4.743   4.702   1.296  0.1365 -0.3680  0.5965
 4926TIP3    H214722   4.885   4.679   1.345 -0.0001  0.5320  1.4476
 4927TIP3   OH214723   4.102   5.675   3.462 -0.3640 -0.4618 -0.2644
 4927TIP3    H114724   4.041   5.722   3.519 -1.4069 -2.7603  0.6536
 4927TIP3    H214725   4.170   5.642   3.521 -0.8415 -1.9191 -0.4981
 4928TIP3   OH214726   5.894   1.983   3.244  0.2416  0.5871 -0.0299
 4928TIP3    H114727   5.948   1.903   3.242 -0.0863  0.3634  0.0393
 4928TIP3    H214728   5.817   1.958   3.295  0.1034  0.9287 -0.0742
 4929TIP3   OH214729   5.563   2.074   1.270  0.0954  0.2477  0.3195
 4929TIP3    H114730   5.572   2.125   1.189 -0.3453  0.4940  0.4216
 4929TIP3    H214731   5.604   2.130   1.336  1.8257 -0.6032  0.0352
 4930TIP3   OH214732   4.286   0.543   4.725 -0.1326  0.2429  0.7777
 4930TIP3    H114733   4.332   0.482   4.667 -1.0695 -0.7816  1.0764
 4930TIP3    H214734   4.330   0.533   4.809  0.1950  0.5420  0.6447
 4931TIP3   OH214735   5.539   4.850   5.618  0.0549 -0.2369 -0.7082
 4931TIP3    H114736   5.549   4.900   5.699 -1.1006  0.0934 -0.7437
 4931TIP3    H214737   5.476   4.901   5.567  1.4839  0.0594 -2.2295
 4932TIP3   OH214738   0.635   4.549   1.799 -0.4771 -0.6449  0.4786
 4932TIP3    H114739   0.695   4.533   1.727 -0.9144  2.3368 -0.6937
 4932TIP3    H214740   0.688   4.537   1.878  0.3600 -2.6169 -0.3325
 4933TIP3   OH214741   3.230   0.815   2.064 -0.4637 -0.0561  0.5446
 4933TIP3    H114742   3.277   0.805   2.147 -0.2305  0.6414  0.5044
 4933TIP3    H214743   3.157   0.874   2.085 -0.8804 -0.5255  0.4343
 4934TIP3   OH214744   3.510   4.325   0.670 -0.1288  0.0268  0.4420
 4934TIP3    H114745   3.450   4.322   0.744 -1.2397 -0.0436 -0.4423
 4934TIP3    H214746   3.571   4.396   0.692 -1.5497  1.2508  0.6319
 4935TIP3   OH214747   0.615   4.552   4.382 -0.2430 -0.0589  0.0341
 4935TIP3    H114748   0.565   4.574   4.303  0.2991  0.2759 -0.2199
 4935TIP3    H214749   0.675   4.626   4.393 -0.5792  0.0846  0.9799
 4936TIP3   OH214750   3.692   0.131   2.137  0.1597  0.4721  0.6856
 4936TIP3    H114751   3.711   0.080   2.059 -3.0753  0.4246 -0.1969
 4936TIP3    H214752   3.717   0.074   2.210  0.2782 -0.7494 -0.2924
 4937TIP3   OH214753   2.640   2.074   0.586  0.0840 -0.5443  0.4094
 4937TIP3    H114754   2.719   2.127   0.589 -0.8773  0.8927  1.7503
 4937TIP3    H214755   2.615   2.071   0.494  1.0328 -0.0328  0.1288
 4938TIP3   OH214756   5.649   1.627   3.641 -0.6942 -0.2035 -0.4264
 4938TIP3    H114757   5.569   1.679   3.654 -0.4005 -0.0248  0.7801
 4938TIP3    H214758   5.618   1.537   3.628 -1.1250  0.0091 -0.9126
 4939TIP3   OH214759   7.505   3.695   0.900 -0.5435  0.4374 -0.2240
 4939TIP3    H114760   7.455   3.653   0.830 -0.1542 -1.1080  0.3808
 4939TIP3    H214761   7.471   3.656   0.980 -0.0923  1.2196  0.3553
 4940TIP3   OH214762   1.689   5.113   5.708  0.3572 -0.2050  0.2005
 4940TIP3    H114763   1.642   5.031   5.721  1.1212 -0.6935 -0.0062
 4940TIP3    H214764   1.626   5.181   5.728 -0.5182 -0.8341 -0.3639
 4941TIP3   OH214765   0.401   2.509   2.083 -0.3689 -0.3542 -0.2495
 4941TIP3    H114766   0.421   2.577   2.147  0.7423 -0.2634 -0.6780
 4941TIP3    H214767   0.410   2.552   1.998 -2.7559 -0.2159 -0.5054
 4942TIP3   OH214768   7.080   3.353   6.351 -0.1300 -0.1278  0.0169
 4942TIP3    H114769   7.136   3.316   6.420  0.1769  0.8924  0.3460
 4942TIP3    H214770   7.141   3.373   6.280  0.2486  2.3741  0.9395
 4943TIP3   OH214771   4.246   4.554   3.939  0.3873 -0.6149  0.1012
 4943TIP3    H114772   4.164   4.533   3.895  0.8834 -0.2937 -1.0227
 4943TIP3    H214773   4.252   4.491   4.011 -0.9149 -0.5281  0.3105
 4944TIP3   OH214774   4.184   5.725   6.018 -0.1950  0.6082 -0.4392
 4944TIP3    H114775   4.157   5.635   5.999  1.1605  0.5421 -2.3603
 4944TIP3    H214776   4.122   5.755   6.085 -1.4831 -1.3037 -0.6872
 4945TIP3   OH214777   1.354   1.527   5.706 -0.5443 -0.0951  0.1899
 4945TIP3    H114778   1.436   1.530   5.756  1.2036 -0.4810 -2.4573
 4945TIP3    H214779   1.301   1.597   5.744  1.8567  1.6165  0.6428
 4946TIP3   OH214780   4.995   7.379   5.778 -0.0366  0.0074  0.8878
 4946TIP3    H114781   5.080   7.334   5.776 -0.0245  0.0658 -0.7660
 4946TIP3    H214782   4.953   7.355   5.696 -2.0971 -0.8533  2.0945
 4947TIP3   OH214783   5.550   7.407   0.550  0.3123 -0.3091  0.5314
 4947TIP3    H114784   5.549   7.317   0.519 -0.2427 -1.4533  3.5360
 4947TIP3    H214785   5.614   7.451   0.493  0.8838 -2.6568 -0.7856
 4948TIP3   OH214786   7.667   1.291   4.887 -0.0748  0.0117  0.0815
 4948TIP3    H114787   7.602   1.269   4.820 -0.3133 -0.5540  0.4878
 4948TIP3    H214788   7.645   1.381   4.912 -0.2620  0.0720 -0.2809
 4949TIP3   OH214789   7.659   2.931   4.991  0.4376  0.0022 -0.1278
 4949TIP3    H114790   7.642   2.847   5.034  0.7513 -0.0437 -0.0866
 4949TIP3    H214791   7.580   2.950   4.941  0.6607 -0.7025 -0.7681
 4950TIP3   OH214792   3.219   6.105   3.220 -0.1067 -0.2395  0.4038
 4950TIP3    H114793   3.226   6.013   3.195 -0.0378  0.1730 -1.1998
 4950TIP3    H214794   3.304   6.143   3.199 -0.2231  0.2562  0.7906
 4951TIP3   OH214795   4.417   2.801   1.324 -0.3709 -0.0816  0.4988
 4951TIP3    H114796   4.427   2.840   1.237  1.8415 -1.8166 -0.1353
 4951TIP3    H214797   4.399   2.708   1.306 -0.6684 -0.3063  1.8878
 4952TIP3   OH214798   3.773   4.106   4.737  0.0816  0.7364 -0.7221
 4952TIP3    H114799   3.836   4.149   4.681 -0.0330  0.6728 -0.9000
 4952TIP3    H214800   3.712   4.175   4.763 -0.4267  0.5759 -1.4579
 4953TIP3   OH214801   3.331   3.009   6.429 -0.6978  0.2565  0.4994
 4953TIP3    H114802   3.356   2.923   6.394 -1.9158 -0.1959  0.7055
 4953TIP3    H214803   3.286   3.052   6.356  0.0328  0.7977  0.3496
 4954TIP3   OH214804   1.251   7.524   2.562 -0.3010  0.2744  0.4247
 4954TIP3    H114805   1.312   7.454   2.588 -0.4714  0.3035  0.9109
 4954TIP3    H214806   1.197   7.484   2.495 -0.7323 -0.2288  1.0602
 4955TIP3   OH214807   5.206   2.643   4.376 -0.4067 -0.0470  0.3104
 4955TIP3    H114808   5.178   2.594   4.298 -1.0792  1.0746 -0.1937
 4955TIP3    H214809   5.264   2.711   4.341 -1.9662  1.4717  0.5275
 4956TIP3   OH214810   1.041   5.977   1.417 -0.7426  0.0890 -0.6316
 4956TIP3    H114811   1.113   5.918   1.439 -0.0719  1.9056  2.6830
 4956TIP3    H214812   0.972   5.920   1.383  1.1238 -2.0928 -0.9393
 4957TIP3   OH214813   7.519   3.108   4.789  0.2679 -0.5528 -0.0646
 4957TIP3    H114814   7.497   3.165   4.715 -0.5963 -1.1078 -0.2445
 4957TIP3    H214815   7.568   3.036   4.750 -0.0951 -0.7910 -0.0768
 4958TIP3   OH214816   1.818   6.276   4.919 -0.1685  0.3290  0.7905
 4958TIP3    H114817   1.796   6.369   4.915 -0.8315  0.1395 -0.5407
 4958TIP3    H214818   1.834   6.251   4.828  0.8196 -0.6815  1.2090
 4959TIP3   OH214819   5.972   2.465   0.020 -0.1070  0.1886  0.2714
 4959TIP3    H114820   6.017   2.383   0.042 -0.3195  0.1323  0.5016
 4959TIP3    H214821   6.042   2.529   0.011  0.1432 -0.2090 -0.8137
 4960TIP3   OH214822   6.215   7.031   4.713  0.1181 -0.3708  0.2482
 4960TIP3    H114823   6.298   7.003   4.751  0.3596  0.4838  0.3839
 4960TIP3    H214824   6.157   7.046   4.787 -0.1188 -0.8425  0.1601
 4961TIP3   OH214825   1.634   3.480   2.169  0.2596  0.1330 -0.0122
 4961TIP3    H114826   1.621   3.570   2.201 -1.1930  1.0362 -2.7693
 4961TIP3    H214827   1.618   3.486   2.074  3.5774 -2.4137 -0.8980
 4962TIP3   OH214828   6.078   6.475   4.548 -0.2110 -0.0526  0.2326
 4962TIP3    H114829   6.109   6.489   4.638  0.1572 -0.2847  0.1442
 4962TIP3    H214830   5.984   6.459   4.558  0.0236 -1.2851  0.7052
 4963TIP3   OH214831   6.320   4.616   6.173 -0.1236  0.1109 -0.4295
 4963TIP3    H114832   6.389   4.645   6.233  0.1767 -0.4129 -0.5128
 4963TIP3    H214833   6.366   4.566   6.106 -0.7003 -1.2557  0.1562
 4964TIP3   OH214834   2.511   4.662   4.195 -0.5439 -0.2237  0.2063
 4964TIP3    H114835   2.427   4.617   4.195 -0.7685  0.1773  1.0480
 4964TIP3    H214836   2.550   4.642   4.110 -1.8148  0.1941 -0.4898
 4965TIP3   OH214837   6.774   5.380   3.333  0.0200  0.1312  0.2680
 4965TIP3    H114838   6.755   5.468   3.299  1.4968  1.1015  1.8277
 4965TIP3    H214839   6.775   5.391   3.428  1.0944 -1.3901  0.4551
 4966TIP3   OH214840   6.658   2.683   4.883 -0.0393  0.1976 -0.1665
 4966TIP3    H114841   6.666   2.605   4.827  0.3031 -0.4931  0.8241
 4966TIP3    H214842   6.729   2.674   4.946  0.6937  1.8858 -0.6969
 4967TIP3   OH214843   2.228   3.713   0.691  0.4565 -0.4076  0.0298
 4967TIP3    H114844   2.217   3.621   0.669  0.7733 -0.5978  0.6452
 4967TIP3    H214845   2.248   3.756   0.607 -0.5913 -0.7391 -0.4103
 4968TIP3   OH214846   1.278   4.902   2.771  0.3503  0.1087  0.2900
 4968TIP3    H114847   1.299   4.960   2.844 -0.8483 -0.2498  0.9388
 4968TIP3    H214848   1.195   4.934   2.737  0.0120 -0.8004  0.2172
 4969TIP3   OH214849   1.718   3.556   5.723 -0.2672  0.1815  0.0699
 4969TIP3    H114850   1.696   3.473   5.765  0.3562 -0.0223  0.0102
 4969TIP3    H214851   1.810   3.546   5.697  0.2644  1.4218  1.3497
 4970TIP3   OH214852   0.100   2.771   4.299 -0.7763 -0.1093 -0.2702
 4970TIP3    H114853   0.067   2.853   4.335  0.7609  0.0563  0.8977
 4970TIP3    H214854   0.172   2.747   4.358 -0.4871 -1.7204 -1.2300
 4971TIP3   OH214855   1.614   6.524   4.642  0.9259 -0.5255 -0.0964
 4971TIP3    H114856   1.635   6.600   4.587 -2.6303  1.2192  0.6610
 4971TIP3    H214857   1.600   6.453   4.579 -0.5179  0.7760 -1.3471
 4972TIP3   OH214858   2.552   0.223   0.765 -0.4280  0.1004 -0.3287
 4972TIP3    H114859   2.620   0.175   0.812 -1.9339 -0.1707  1.7040
 4972TIP3    H214860   2.600   0.280   0.705  1.5259 -0.9266  0.1679
 4973TIP3   OH214861   4.236   6.418   3.786  0.4677  0.3837 -0.1482
 4973TIP3    H114862   4.250   6.503   3.744 -1.0585 -0.2618 -2.0913
 4973TIP3    H214863   4.220   6.439   3.878  0.4045  2.1612 -0.5271
 4974TIP3   OH214864   3.452   4.090   2.301  0.1151  0.5080  0.4423
 4974TIP3    H114865   3.446   4.020   2.236  1.9198  1.1985 -0.5487
 4974TIP3    H214866   3.382   4.151   2.278  0.2000  0.3179 -0.3430
 4975TIP3   OH214867   5.461   1.705   0.048 -0.1054  0.0832  0.3313
 4975TIP3    H114868   5.395   1.738   0.109 -0.7171 -0.7565  0.1452
 4975TIP3    H214869   5.447   1.756  -0.032 -1.2334 -0.7861 -0.0485
 4976TIP3   OH214870   4.758   4.965   0.345 -0.2132  0.0517  0.1783
 4976TIP3    H114871   4.738   4.891   0.403  2.5258 -0.7400  0.2338
 4976TIP3    H214872   4.726   5.042   0.392 -3.2227 -1.0076  0.0836
 4977TIP3   OH214873   5.016   5.798   0.358  0.0775  0.1211 -0.3759
 4977TIP3    H114874   5.108   5.813   0.380  0.2070  0.4249 -1.1217
 4977TIP3    H214875   5.006   5.703   0.362  0.3837  0.0970 -0.1550
 4978TIP3   OH214876   4.685   4.210   0.931 -0.4260  0.0240  0.7223
 4978TIP3    H114877   4.724   4.123   0.932  0.6879  0.5172  0.7298
 4978TIP3    H214878   4.625   4.208   0.856  2.2771  0.3763 -1.6198
 4979TIP3   OH214879   4.159   1.614   6.407 -0.2935  0.1322 -0.0615
 4979TIP3    H114880   4.157   1.709   6.405  1.1750  0.1895 -0.4664
 4979TIP3    H214881   4.217   1.590   6.334  0.7964 -0.9741  1.1042
 4980TIP3   OH214882   1.012   2.180   4.183 -0.2525  0.3638  0.3041
 4980TIP3    H114883   1.015   2.264   4.230 -0.3353  0.5174  0.0412
 4980TIP3    H214884   1.023   2.204   4.091  0.1787  0.0403  0.2707
 4981TIP3   OH214885   4.273   7.574   1.530 -0.3381 -0.5208 -0.3609
 4981TIP3    H114886   4.225   7.638   1.582  1.8077  1.5494 -0.7428
 4981TIP3    H214887   4.218   7.560   1.453 -0.9139  0.7974 -0.2231
 4982TIP3   OH214888   0.407   2.185   3.958  0.4967 -0.4253  0.2574
 4982TIP3    H114889   0.430   2.123   4.028  0.4122 -0.3993  0.3095
 4982TIP3    H214890   0.438   2.143   3.878  1.8545  0.1823  0.4442
 4983TIP3   OH214891   5.046   5.587   2.852  0.2408 -0.1970 -0.4256
 4983TIP3    H114892   5.084   5.511   2.896 -0.6406 -0.3776  0.0416
 4983TIP3    H214893   5.117   5.651   2.849  0.7856 -0.7837 -0.2021
 4984TIP3   OH214894   2.236   5.224   6.757 -0.3788  0.1279  0.0643
 4984TIP3    H114895   2.329   5.229   6.733 -0.2362 -0.1163  0.5544
 4984TIP3    H214896   2.202   5.312   6.740  0.3389  0.7110  1.4895
 4985TIP3   OH214897   6.085   5.205   6.081 -0.2624  0.5725 -0.3342
 4985TIP3    H114898   6.091   5.114   6.110 -1.1683  0.2699 -1.0522
 4985TIP3    H214899   6.079   5.256   6.162 -0.9651 -0.1094  0.0536
 4986TIP3   OH214900   2.529   3.606   0.319 -0.4726  0.0093  0.2478
 4986TIP3    H114901   2.532   3.658   0.239  2.2818  1.1707  0.9842
 4986TIP3    H214902   2.554   3.666   0.388 -0.7948 -1.4446  1.6899
 4987TIP3   OH214903   1.732   1.181   4.679 -0.4736 -0.3915  0.0103
 4987TIP3    H114904   1.792   1.248   4.645 -0.7547 -0.4290 -0.5599
 4987TIP3    H214905   1.757   1.172   4.771  0.3311 -0.3298 -0.1937
 4988TIP3   OH214906   3.170   3.562   0.210 -0.0536  0.3876 -0.3418
 4988TIP3    H114907   3.248   3.539   0.260 -1.5270 -0.7118  1.6145
 4988TIP3    H214908   3.183   3.653   0.185  1.5428  0.4358  0.5256
 4989TIP3   OH214909   2.766   7.559   5.583  0.0646  0.2480  1.1580
 4989TIP3    H114910   2.812   7.599   5.657  1.0427 -0.4868  0.9788
 4989TIP3    H214911   2.787   7.466   5.590  1.8084  0.3708 -1.1141
 4990TIP3   OH214912   1.937   7.772   6.062 -0.7044 -0.0992  0.0181
 4990TIP3    H114913   2.018   7.824   6.059 -1.7383  1.7209  1.3412
 4990TIP3    H214914   1.948   7.707   5.993  0.5171  2.1373 -2.0646
 4991TIP3   OH214915   3.887   3.911   5.087 -0.7546  0.1370  0.3253
 4991TIP3    H114916   3.839   3.856   5.150 -1.5367  0.0867 -0.2999
 4991TIP3    H214917   3.832   3.911   5.009 -1.6267  3.1808  0.8347
 4992TIP3   OH214918   5.039   4.376   2.882  0.2917  0.1233 -0.4454
 4992TIP3    H114919   4.980   4.397   2.955  0.3891  0.2057 -0.3909
 4992TIP3    H214920   4.981   4.342   2.814  0.3929 -1.6442  0.3031
 4993TIP3   OH214921   7.009   2.632   4.413  0.2021  0.8279 -0.1128
 4993TIP3    H114922   6.926   2.680   4.409  0.2321  0.8774 -0.1402
 4993TIP3    H214923   7.076   2.700   4.410  0.2745  0.7174 -1.7653
 4994TIP3   OH214924   0.053   4.260   6.530  0.0497 -0.0335 -0.0005
 4994TIP3    H114925  -0.025   4.266   6.474  0.5944  0.9965 -0.6982
 4994TIP3    H214926   0.094   4.177   6.506 -0.4789 -0.2585 -0.1235
 4995TIP3   OH214927   4.977   6.634   5.965 -0.1962 -0.0767  0.3766
 4995TIP3    H114928   4.989   6.543   5.935 -0.2192  0.0606 -0.0584
 4995TIP3    H214929   4.907   6.628   6.030 -0.9829 -0.2256 -0.4554
 4996TIP3   OH214930   0.094   7.545   1.860 -0.6612  0.0186 -0.2909
 4996TIP3    H114931   0.139   7.487   1.799  0.2700  1.9444 -1.5343
 4996TIP3    H214932   0.082   7.626   1.812 -0.0880  1.5545  1.9742
 4997TIP3   OH214933   3.009   3.048   5.564  0.1246  0.4821 -0.1725
 4997TIP3    H114934   2.981   2.978   5.623  1.3668  0.1290  0.0238
 4997TIP3    H214935   3.102   3.057   5.580  0.8458 -0.6243 -3.0884
 4998TIP3   OH214936   7.340   3.617   3.360  0.1262 -0.6222  0.1382
 4998TIP3    H114937   7.420   3.569   3.381 -0.4170 -1.3821  0.5211
 4998TIP3    H214938   7.337   3.687   3.425  0.4119 -0.6699  0.2046
 4999TIP3   OH214939   8.236   6.505   6.466 -0.1921  0.8308  0.3048
 4999TIP3    H114940   8.149   6.544   6.467 -0.6030  0.0341 -1.4417
 4999TIP3    H214941   8.269   6.522   6.378 -0.1793 -2.2331 -0.3888
 5000TIP3   OH214942   3.156   1.978   1.834  0.1102  0.1899  0.3383
 5000TIP3    H114943   3.146   1.914   1.764  1.1863  1.0195 -0.6264
 5000TIP3    H214944   3.190   2.056   1.789 -0.6637  1.2546  1.5498
 5001TIP3   OH214945   4.875   0.172   4.287  0.5252 -0.7357 -0.1195
 5001TIP3    H114946   4.791   0.202   4.251  2.2041  2.8182 -1.5321
 5001TIP3    H214947   4.896   0.093   4.236 -0.1810  0.5427 -2.5522
 5002TIP3   OH214948   4.905   7.647   4.116 -0.0335 -0.3949  0.4333
 5002TIP3    H114949   4.868   7.568   4.156 -0.3630 -0.4922 -0.0578
 5002TIP3    H214950   4.890   7.636   4.022  1.0520 -0.3336  0.2398
 5003TIP3   OH214951   8.090   0.946   6.523  0.3709  0.6286 -0.8200
 5003TIP3    H114952   8.025   0.986   6.464 -2.3527 -2.0120  0.0939
 5003TIP3    H214953   8.082   0.852   6.505  0.8958 -0.1038  2.3254
 5004TIP3   OH214954   2.492   3.585   5.508  0.4450  0.1110 -0.4777
 5004TIP3    H114955   2.584   3.568   5.492  0.2395 -1.2328 -0.4195
 5004TIP3    H214956   2.483   3.680   5.505  1.9134  0.2840  0.0008
 5005TIP3   OH214957   7.418   1.035   2.530 -0.5610 -0.0997  0.3916
 5005TIP3    H114958   7.327   1.019   2.507 -0.5552  0.8390 -0.3186
 5005TIP3    H214959   7.464   0.956   2.502 -0.9855 -0.1132 -0.2801
 5006TIP3   OH214960   2.210   0.989   1.006  0.0575  0.0872 -0.2959
 5006TIP3    H114961   2.207   0.960   0.915 -1.2920  1.6662 -0.8032
 5006TIP3    H214962   2.124   0.969   1.041  0.1391  0.6306  0.2427
 5007TIP3   OH214963   2.806   0.959   0.315  0.1712 -0.5436  0.0628
 5007TIP3    H114964   2.723   0.922   0.284 -0.2672  1.3159 -1.1471
 5007TIP3    H214965   2.839   1.009   0.241  0.2466  2.2344  1.8169
 5008TIP3   OH214966   6.112   0.662   4.758  0.2719  0.1239  0.3443
 5008TIP3    H114967   6.143   0.752   4.753 -1.3039  0.6817 -0.2316
 5008TIP3    H214968   6.020   0.667   4.730 -0.5172 -1.3125  2.3780
 5009TIP3   OH214969   0.955   0.461   5.269 -0.4529  0.4665 -0.1439
 5009TIP3    H114970   0.993   0.466   5.357 -1.5244 -2.2337  0.5578
 5009TIP3    H214971   1.004   0.527   5.218  2.3219 -0.0052  1.6905
 5010TIP3   OH214972   8.020   3.604   4.944 -0.1311 -0.0010  0.0722
 5010TIP3    H114973   8.005   3.660   5.020  1.1175 -1.4450  1.4566
 5010TIP3    H214974   8.073   3.532   4.978  0.3086 -0.7872 -2.1511
 5011TIP3   OH214975   8.259   3.208   4.841  0.5960 -0.5359 -0.5122
 5011TIP3    H114976   8.315   3.169   4.774 -0.3488 -2.0448 -0.4770
 5011TIP3    H214977   8.180   3.154   4.839 -0.8515  1.5080 -0.5418
 5012TIP3   OH214978   3.887   7.503   0.230 -0.0572 -0.0853  0.0562
 5012TIP3    H114979   3.800   7.536   0.254 -0.4644 -0.9803 -0.1528
 5012TIP3    H214980   3.903   7.540   0.143  0.7993  1.9815  1.0285
 5013TIP3   OH214981   3.960   1.530   3.224 -0.0210 -0.1387 -0.4137
 5013TIP3    H114982   3.901   1.460   3.249 -1.9704  1.4580 -0.3332
 5013TIP3    H214983   3.910   1.586   3.165  1.5562  1.0386 -0.7383
 5014TIP3   OH214984   6.531   1.760   1.476 -0.4651 -0.1437  0.0801
 5014TIP3    H114985   6.447   1.748   1.520 -0.3352  0.1669  0.4149
 5014TIP3    H214986   6.563   1.671   1.461 -0.4500 -0.2543  0.7346
 5015TIP3   OH214987   1.646   1.244   4.122  0.0689  0.5419  0.1532
 5015TIP3    H114988   1.698   1.206   4.193 -0.2704 -1.6566 -0.6681
 5015TIP3    H214989   1.558   1.210   4.136  0.0246 -0.0276 -1.3467
 5016TIP3   OH214990   2.762   0.760   4.520 -0.8052 -0.1070  0.0259
 5016TIP3    H114991   2.842   0.813   4.523 -1.6448  1.3223 -1.2210
 5016TIP3    H214992   2.696   0.814   4.563 -1.0684 -1.3825  1.2713
 5017TIP3   OH214993   7.945   4.599   2.666 -0.0112  0.0382  0.1905
 5017TIP3    H114994   8.023   4.626   2.714 -0.3341  0.0798  0.6978
 5017TIP3    H214995   7.964   4.511   2.635  0.6862  0.4770 -0.6755
 5018TIP3   OH214996   3.649   6.864   2.509  0.3779 -0.3903  0.2637
 5018TIP3    H114997   3.744   6.855   2.499  0.7904  2.1406  1.0988
 5018TIP3    H214998   3.639   6.928   2.579 -1.9909 -1.2842  0.8179
 5019TIP3   OH214999   2.190   4.230   5.963 -0.2804  0.3764  0.4589
 5019TIP3    H115000   2.161   4.301   5.907  1.9588  1.1573  0.1833
 5019TIP3    H215001   2.217   4.161   5.902 -1.5521 -0.3855  0.7105
 5020TIP3   OH215002   3.829   4.397   5.926  0.5160  0.4336  0.3509
 5020TIP3    H115003   3.857   4.475   5.879  0.2203 -0.1031 -0.7427
 5020TIP3    H215004   3.823   4.329   5.859 -0.0866 -0.3083  1.1328
 5021TIP3   OH215005   0.106   2.193   5.048 -0.3425  0.5164  0.0724
 5021TIP3    H115006   0.050   2.124   5.013 -0.2410  0.7869 -0.6392
 5021TIP3    H215007   0.057   2.274   5.035 -1.1810  0.4575  2.3932
 5022TIP3   OH215008   0.119   6.035   5.719 -0.6032 -0.2921 -0.3263
 5022TIP3    H115009   0.166   5.955   5.740  1.3541  0.0828 -2.8640
 5022TIP3    H215010   0.157   6.101   5.777 -2.9124 -1.2351  2.4965
 5023TIP3   OH215011   1.877   6.516   2.821  0.2864  0.4255 -0.3922
 5023TIP3    H115012   1.958   6.560   2.795  1.4922 -0.0052  2.3225
 5023TIP3    H215013   1.901   6.466   2.898 -2.6302  0.4050  0.6074
 5024TIP3   OH215014   5.962   0.840   5.030  0.3385 -0.3053  0.0843
 5024TIP3    H115015   5.899   0.878   5.092 -1.1392 -1.4486 -0.6641
 5024TIP3    H215016   5.982   0.754   5.067  0.3151 -0.5388 -0.4433
 5025TIP3   OH215017   5.027   5.830   2.022  0.2193 -0.2162  0.4024
 5025TIP3    H115018   4.963   5.831   2.093  0.1797  0.1113  0.3636
 5025TIP3    H215019   5.063   5.741   2.023 -1.4451 -0.9618 -0.6501
 5026TIP3   OH215020   0.325   6.007   1.246 -0.3157  0.3675  0.0989
 5026TIP3    H115021   0.292   5.959   1.170  0.0589 -0.3713  0.3886
 5026TIP3    H215022   0.296   6.097   1.232 -1.2098  0.0209 -0.3595
 5027TIP3   OH215023   2.869   1.157   0.502 -0.0731  0.4784 -0.5729
 5027TIP3    H115024   2.821   1.103   0.439 -1.5212  1.0495 -0.0128
 5027TIP3    H215025   2.848   1.118   0.587  0.1279  0.9961 -0.2848
 5028TIP3   OH215026   1.172   2.552   4.162  0.0728  0.2885 -0.1511
 5028TIP3    H115027   1.175   2.644   4.135 -1.8590  0.2320 -0.6577
 5028TIP3    H215028   1.119   2.552   4.242 -0.8949 -0.4875 -0.7619
 5029TIP3   OH215029   6.170   0.400   4.890  0.0232  0.3213 -0.3197
 5029TIP3    H115030   6.146   0.316   4.851 -0.0183  0.3109 -0.2721
 5029TIP3    H215031   6.148   0.465   4.822  1.0288  0.2091 -0.7617
 5030TIP3   OH215032   2.317   2.391   6.689 -0.2006 -0.1286 -0.2351
 5030TIP3    H115033   2.336   2.406   6.782  0.7152  1.3099 -0.6176
 5030TIP3    H215034   2.223   2.405   6.682 -0.3992 -0.9384  0.5849
 5031TIP3   OH215035   5.322   3.983   1.723 -0.0152 -0.4186 -0.8804
 5031TIP3    H115036   5.304   4.063   1.673 -0.4532 -0.5396 -0.9230
 5031TIP3    H215037   5.394   4.007   1.781 -0.4138  0.1406 -0.5947
 5032TIP3   OH215038   3.160   6.184   3.725 -0.2426 -0.5402 -0.2262
 5032TIP3    H115039   3.227   6.154   3.663  0.7401  2.2130 -0.6370
 5032TIP3    H215040   3.078   6.178   3.677 -0.0406 -2.0045 -0.4374
 5033TIP3   OH215041   0.085   3.009   6.771 -0.4160 -0.1857 -0.0801
 5033TIP3    H115042   0.066   3.102   6.756  1.8931  0.4055  0.3283
 5033TIP3    H215043   0.159   2.990   6.713 -0.6773 -1.7170  0.0553
 5034TIP3   OH215044   7.694   7.417   2.897 -0.2550  0.3979  0.4513
 5034TIP3    H115045   7.619   7.471   2.920 -0.9684  0.4550 -1.8317
 5034TIP3    H215046   7.663   7.327   2.904 -0.8276  0.4332 -1.2584
 5035TIP3   OH215047   4.363   3.795   0.022 -0.5273 -0.1402 -0.7903
 5035TIP3    H115048   4.333   3.721  -0.032 -3.4840 -0.4540  1.0687
 5035TIP3    H215049   4.356   3.763   0.112 -0.4666  1.9414 -0.0072
 5036TIP3   OH215050   6.415   2.160   0.332  0.2000  0.2885  0.2340
 5036TIP3    H115051   6.322   2.165   0.353  0.4308 -1.2204  1.8375
 5036TIP3    H215052   6.437   2.247   0.300 -1.1465  1.5398  2.4550
 5037TIP3   OH215053   5.560   6.383   1.391  0.4435  0.1382  0.2024
 5037TIP3    H115054   5.547   6.375   1.297  2.0121  1.6587 -0.2084
 5037TIP3    H215055   5.519   6.305   1.428 -1.6280  0.3081 -1.5721
 5038TIP3   OH215056   7.950   0.527   2.321  0.2845 -0.0347 -0.2104
 5038TIP3    H115057   7.906   0.604   2.284 -0.5199  0.0245  0.8148
 5038TIP3    H215058   7.965   0.470   2.246 -0.0846  0.6551 -0.8301
 5039TIP3   OH215059   2.724   4.874   4.274 -0.7892  0.0701 -0.3105
 5039TIP3    H115060   2.684   4.953   4.237 -0.0134  0.6182 -0.0092
 5039TIP3    H215061   2.803   4.906   4.319  0.7463 -1.0951 -2.0089
 5040TIP3   OH215062   3.856   5.630   6.360  0.3587  0.0379  0.4424
 5040TIP3    H115063   3.893   5.596   6.441  1.0506 -1.4536 -0.4559
 5040TIP3    H215064   3.764   5.646   6.381  0.6247  0.1152  1.6329
 5041TIP3   OH215065   7.612   1.711   2.083  0.3128 -0.1795  0.3833
 5041TIP3    H115066   7.647   1.623   2.068  2.2461  0.7300 -1.0011
 5041TIP3    H215067   7.637   1.760   2.004 -2.2901  1.1844  0.2805
 5042TIP3   OH215068   3.062   2.988   2.353 -0.4175  0.9478 -0.3973
 5042TIP3    H115069   3.004   2.930   2.303  0.9340  0.2891 -1.2840
 5042TIP3    H215070   3.060   3.071   2.306 -0.3023  0.7782 -0.7114
 5043TIP3   OH215071   5.201   5.338   4.045  0.1204 -0.2457 -0.5755
 5043TIP3    H115072   5.163   5.420   4.013  1.4394  0.8963  0.6763
 5043TIP3    H215073   5.126   5.288   4.077 -0.4271  2.6797  3.5214
 5044TIP3   OH215074   7.886   0.042   4.101 -0.1749 -0.3792 -0.6293
 5044TIP3    H115075   7.872   0.117   4.044 -0.9423 -0.1798 -0.1965
 5044TIP3    H215076   7.980   0.026   4.098  0.1994  1.4614  0.3615
 5045TIP3   OH215077   2.250   4.071   5.203 -0.2244 -0.4781  0.3688
 5045TIP3    H115078   2.327   4.106   5.159 -1.0159 -0.1203 -0.7805
 5045TIP3    H215079   2.194   4.148   5.219 -2.2302 -1.1350 -2.6796
 5046TIP3   OH215080   8.272   0.870   2.015  0.4479  0.3137  0.0160
 5046TIP3    H115081   8.352   0.912   1.983  0.6206  0.9103  1.1718
 5046TIP3    H215082   8.216   0.942   2.041 -1.7402  0.0987 -3.4214
 5047TIP3   OH215083   6.566   0.852   6.406 -0.2980 -0.0867 -0.2115
 5047TIP3    H115084   6.656   0.835   6.381  0.0812  1.7373 -0.2194
 5047TIP3    H215085   6.550   0.795   6.481  0.3070 -1.5955 -1.1739
 5048TIP3   OH215086   6.934   2.350   3.713 -0.0818  0.3963 -0.8402
 5048TIP3    H115087   6.983   2.320   3.790 -1.2663  2.2902  0.7296
 5048TIP3    H215088   7.002   2.387   3.656  0.7249 -0.2843 -0.3600
 5049TIP3   OH215089   0.574   6.884   3.787  0.4948  0.5052  0.6045
 5049TIP3    H115090   0.657   6.922   3.816  1.0751 -1.2555  1.3934
 5049TIP3    H215091   0.517   6.889   3.864  0.1618  0.8531  0.3434
 5050TIP3   OH215092   8.234   4.998   6.540  0.3768  0.0709  0.0166
 5050TIP3    H115093   8.279   4.917   6.566  0.1860  0.1011  0.4508
 5050TIP3    H215094   8.256   5.060   6.609  1.5426  0.7708 -0.9414
 5051TIP3   OH215095   1.441   6.922   2.999  0.0902  0.1273 -0.2547
 5051TIP3    H115096   1.531   6.939   3.029 -0.0140 -0.5116  0.4448
 5051TIP3    H215097   1.449   6.906   2.905  0.4733  1.8331 -0.5461
 5052TIP3   OH215098   0.150   1.421   2.966  0.2770 -0.1298 -0.5204
 5052TIP3    H115099   0.121   1.330   2.959 -1.0017  0.2033  0.2305
 5052TIP3    H215100   0.070   1.472   2.955  1.1158  0.9595 -1.9148
 5053TIP3   OH215101   1.362   6.130   0.507 -0.0951  1.0722  0.1646
 5053TIP3    H115102   1.429   6.078   0.462 -1.2359  0.9536 -1.4757
 5053TIP3    H215103   1.358   6.212   0.458 -0.9264  1.2102  0.4491
 5054TIP3   OH215104   6.679   5.955   4.706  0.0572  0.1202  0.1793
 5054TIP3    H115105   6.712   5.907   4.782  1.4047  0.3238 -0.2413
 5054TIP3    H215106   6.585   5.943   4.708  0.0904 -0.0487  1.7688
 5055TIP3   OH215107   4.960   7.581   3.159 -0.4804 -0.0919 -0.0718
 5055TIP3    H115108   5.023   7.611   3.224 -0.7134  0.8784 -0.2857
 5055TIP3    H215109   5.002   7.505   3.118 -0.5039 -0.9754  1.4677
 5056TIP3   OH215110   4.754   0.103   0.216 -0.0357  0.2121 -0.3752
 5056TIP3    H115111   4.761   0.016   0.176  0.0714 -0.0985  0.3064
 5056TIP3    H215112   4.665   0.106   0.251 -0.9183  1.3228 -2.5204
 5057TIP3   OH215113   5.361   0.233   4.889  0.1705 -0.2553  0.6306
 5057TIP3    H115114   5.397   0.180   4.960  1.4155  1.2798  1.2061
 5057TIP3    H215115   5.285   0.184   4.859  1.1108 -2.2343  1.2786
 5058TIP3   OH215116   7.331   3.724   6.741  0.2005 -0.4219  0.3897
 5058TIP3    H115117   7.294   3.639   6.715  1.5815 -0.6948 -0.7855
 5058TIP3    H215118   7.354   3.766   6.658 -0.2832  1.0356  0.9669
 5059TIP3   OH215119   6.286   7.073   1.242  0.0658  0.7201  0.4107
 5059TIP3    H115120   6.334   7.135   1.188 -1.8815  2.0642  0.1254
 5059TIP3    H215121   6.345   7.055   1.316  0.9701  2.3688  0.1435
 5060TIP3   OH215122   4.722   2.581   3.798 -0.2197  0.3124  0.3134
 5060TIP3    H115123   4.654   2.644   3.823  0.8567  1.7912 -0.3208
 5060TIP3    H215124   4.731   2.592   3.704 -0.2447 -1.0659  0.1389
 5061TIP3   OH215125   2.544   7.672   6.626  0.0769 -0.0929  0.2048
 5061TIP3    H115126   2.575   7.714   6.707  0.1904 -0.2674  0.2509
 5061TIP3    H215127   2.465   7.721   6.603 -0.4298 -0.5659  0.8735
 5062TIP3   OH215128   5.794   6.112   3.854  0.1012  0.0291 -0.3039
 5062TIP3    H115129   5.867   6.052   3.867 -0.2327 -0.3314 -0.0742
 5062TIP3    H215130   5.826   6.196   3.888  1.4001  0.5846 -2.6456
 5063TIP3   OH215131   7.484   3.395   3.600 -0.3587 -0.5576 -0.2020
 5063TIP3    H115132   7.572   3.380   3.635  0.1985  2.4147 -0.0321
 5063TIP3    H215133   7.490   3.366   3.509  0.6209 -0.9506 -0.0330
 5064TIP3   OH215134   0.650   2.411   3.487 -0.1274 -0.4779 -0.0245
 5064TIP3    H115135   0.636   2.317   3.485 -2.5927 -0.2254  1.5052
 5064TIP3    H215136   0.603   2.445   3.411 -1.1905 -0.3014  0.7013
 5065TIP3   OH215137   6.272   0.354   1.034  0.4157 -0.0008  0.3266
 5065TIP3    H115138   6.189   0.374   0.990  1.5535  4.4305 -0.2587
 5065TIP3    H215139   6.254   0.366   1.127 -0.4033 -3.0248  0.6761
 5066TIP3   OH215140   8.227   6.360   4.829 -0.5123 -0.0583  0.5241
 5066TIP3    H115141   8.191   6.334   4.745  0.9370 -0.5477  0.0197
 5066TIP3    H215142   8.260   6.449   4.815 -0.7117  0.0510  0.7270
 5067TIP3   OH215143   3.566   1.243   4.956  0.0935  0.1011  0.0623
 5067TIP3    H115144   3.481   1.279   4.930  1.3295  2.7747 -0.6793
 5067TIP3    H215145   3.622   1.254   4.879  0.9755 -2.2479  0.2956
 5068TIP3   OH215146   6.526   5.765   5.192  0.2690  0.0058 -0.0889
 5068TIP3    H115147   6.450   5.710   5.170 -0.4748  0.7160  0.6386
 5068TIP3    H215148   6.536   5.754   5.287 -0.2556  1.5418  0.1729
 5069TIP3   OH215149   7.266   6.261   2.370  0.1154 -0.5098 -0.1952
 5069TIP3    H115150   7.251   6.338   2.425 -0.2185 -0.4430 -0.3753
 5069TIP3    H215151   7.348   6.279   2.325  0.5993 -0.7396  0.5779
 5070TIP3   OH215152   3.084   1.199   2.676  0.7138 -0.0328  0.1624
 5070TIP3    H115153   3.090   1.293   2.658  0.0974  0.0534  0.3539
 5070TIP3    H215154   3.061   1.195   2.769  2.2527 -0.4193  0.5600
 5071TIP3   OH215155   6.690   4.368   0.527 -0.1305 -0.2795 -0.0218
 5071TIP3    H115156   6.692   4.333   0.616 -0.3436  1.4619  0.6945
 5071TIP3    H215157   6.769   4.422   0.520  1.4436 -2.6011 -1.8855
 5072TIP3   OH215158   5.835   0.701   3.921 -0.1556  0.4213 -0.0240
 5072TIP3    H115159   5.815   0.675   4.010 -0.3001  2.0042  0.4423
 5072TIP3    H215160   5.928   0.722   3.921 -0.5555  2.3581  0.3068
 5073TIP3   OH215161   7.209   5.567   6.259 -0.4273 -0.4193  0.4026
 5073TIP3    H115162   7.159   5.633   6.209 -1.3759 -0.6304  1.0573
 5073TIP3    H215163   7.145   5.500   6.280  0.3136 -1.0608  0.6333
 5074TIP3   OH215164   3.031   2.544   2.566  0.4046 -0.5914 -0.1066
 5074TIP3    H115165   3.122   2.526   2.590 -0.1260 -4.1111 -0.2336
 5074TIP3    H215166   3.028   2.527   2.472 -0.4249 -0.7186 -0.0585
 5075TIP3   OH215167   3.510   5.881   1.421 -0.2180  0.4120  0.1719
 5075TIP3    H115168   3.516   5.867   1.327  1.9569  1.2182  0.1281
 5075TIP3    H215169   3.553   5.804   1.459 -0.6795  0.3121  0.5003
 5076TIP3   OH215170   3.952   5.769   1.785  0.7443 -0.0858 -0.2257
 5076TIP3    H115171   3.924   5.761   1.876  1.7429 -0.7751  0.0425
 5076TIP3    H215172   3.874   5.747   1.733  0.4740 -0.8104  0.4743
 5077TIP3   OH215173   7.615   2.424   6.121  0.7928 -0.1850 -0.6965
 5077TIP3    H115174   7.691   2.459   6.074  1.1200 -0.2737 -0.2470
 5077TIP3    H215175   7.614   2.331   6.099  1.2526 -0.3318 -0.1363
 5078TIP3   OH215176   5.781   6.011   6.615  0.2396  0.2375 -0.6835
 5078TIP3    H115177   5.715   5.950   6.646  0.4864  0.2631 -0.0896
 5078TIP3    H215178   5.826   5.964   6.544  1.7427 -1.0792  1.0489
 5079TIP3   OH215179   7.043   3.650   4.743 -0.2086 -0.5963  0.4819
 5079TIP3    H115180   7.092   3.603   4.675 -1.5273 -0.3147 -0.7210
 5079TIP3    H215181   7.110   3.679   4.804  1.0492 -0.8406 -0.7105
 5080TIP3   OH215182   6.100   6.334   4.160  0.0132 -0.2282 -0.1772
 5080TIP3    H115183   6.103   6.422   4.197  0.6444 -0.4553  0.3463
 5080TIP3    H215184   6.187   6.298   4.178  0.4586 -0.2677 -2.1463
 5081TIP3   OH215185   1.149   6.327   0.046  0.6088  0.4119 -0.1232
 5081TIP3    H115186   1.215   6.396   0.045  2.4391 -1.2071  0.9329
 5081TIP3    H215187   1.192   6.252   0.006 -0.5915 -0.7016  0.5919
 5082TIP3   OH215188   4.294   1.719   4.776  0.3204  0.0641 -0.8776
 5082TIP3    H115189   4.255   1.732   4.863 -0.9379  0.1753 -1.4318
 5082TIP3    H215190   4.237   1.654   4.734  0.5017  0.5321 -1.8702
 5083TIP3   OH215191   6.833   2.240   2.911 -0.4909 -0.4959  0.3660
 5083TIP3    H115192   6.839   2.205   3.000 -1.5067  0.0844  0.6803
 5083TIP3    H215193   6.767   2.309   2.917 -1.5716 -1.3271 -1.0929
 5084TIP3   OH215194   7.095   7.271   0.554 -0.0200 -0.4380  0.8946
 5084TIP3    H115195   7.065   7.301   0.468 -0.4719  0.5180  1.3725
 5084TIP3    H215196   7.101   7.351   0.606 -0.1410 -1.0588  1.8725
 5085TIP3   OH215197   7.048   2.988   0.067  0.1989 -0.0960 -0.3918
 5085TIP3    H115198   7.048   3.083   0.073  1.9682 -0.0674 -0.4979
 5085TIP3    H215199   7.019   2.958   0.153 -0.1971  0.5234 -0.3035
 5086TIP3   OH215200   3.791   2.705   1.494  0.1560  0.0222 -0.2283
 5086TIP3    H115201   3.721   2.729   1.555 -1.4787 -1.5045 -1.4262
 5086TIP3    H215202   3.783   2.767   1.422  1.1967  0.9475  0.4271
 5087TIP3   OH215203   4.890   3.522   0.407 -0.1115  0.7129  0.8351
 5087TIP3    H115204   4.828   3.556   0.343 -0.2787 -0.1753  0.5113
 5087TIP3    H215205   4.859   3.433   0.425  1.3233  0.0873  0.3236
 5088TIP3   OH215206   5.111   2.056   2.313 -0.1287 -0.6039 -0.3234
 5088TIP3    H115207   5.035   2.113   2.314  1.5957  1.8576  0.8123
 5088TIP3    H215208   5.143   2.060   2.223  0.7348  1.4081  0.0283
 5089TIP3   OH215209   5.605   5.229   6.496 -0.1281 -0.5859 -0.0843
 5089TIP3    H115210   5.699   5.249   6.494  0.2350 -1.6064  2.6106
 5089TIP3    H215211   5.563   5.311   6.522  0.3367 -0.7864  1.3831
 5090TIP3   OH215212   0.059   4.757   6.564 -0.2825  0.1183  0.2518
 5090TIP3    H115213   0.021   4.694   6.626 -0.8245  0.0471 -0.1500
 5090TIP3    H215214   0.110   4.703   6.503  1.3560  0.2875  1.3788
 5091TIP3   OH215215   0.047   7.571   2.255  0.0327 -0.6931  0.0274
 5091TIP3    H115216   0.096   7.652   2.273 -1.1644 -0.4369  2.5596
 5091TIP3    H215217   0.111   7.501   2.265  0.3375 -0.2443  1.3667
 5092TIP3   OH215218   3.025   3.676   4.858  0.4291  0.0630 -0.5343
 5092TIP3    H115219   2.959   3.743   4.843 -0.4977 -0.2341  1.7656
 5092TIP3    H215220   3.041   3.637   4.772 -2.6655 -0.0894 -1.1517
 5093TIP3   OH215221   5.780   0.264   2.092  0.2069  0.6607  1.0099
 5093TIP3    H115222   5.727   0.259   2.012 -0.5090  0.9548  1.4549
 5093TIP3    H215223   5.847   0.329   2.073  1.4856 -0.8880 -0.1614
 5094TIP3   OH215224   7.905   4.783   0.432  0.2471  0.6425  0.1253
 5094TIP3    H115225   7.948   4.832   0.362 -0.4107  1.4058  0.2340
 5094TIP3    H215226   7.829   4.744   0.390  1.3118 -1.1781 -0.1999
 5095TIP3   OH215227   0.090   3.079   2.622  0.4039  0.0642  0.4204
 5095TIP3    H115228   0.154   3.050   2.556 -0.6555  1.8728 -1.5254
 5095TIP3    H215229   0.013   3.103   2.571 -1.4483 -0.8758  2.5977
 5096TIP3   OH215230   8.184   1.843   0.226  0.0728 -0.1535  0.4057
 5096TIP3    H115231   8.254   1.814   0.167  1.7957  2.8098  0.7714
 5096TIP3    H215232   8.120   1.885   0.167 -1.9537 -3.4432 -0.0137
 5097TIP3   OH215233   2.858   3.459   2.803  0.1272  0.1849 -0.2890
 5097TIP3    H115234   2.815   3.539   2.832  0.0057 -0.1346  0.4370
 5097TIP3    H215235   2.805   3.429   2.729 -1.5144 -0.7132  1.1810
 5098TIP3   OH215236   4.105   3.499   2.165  0.5170 -0.0176 -0.1015
 5098TIP3    H115237   4.178   3.487   2.225 -0.5226 -0.6414  1.0811
 5098TIP3    H215238   4.045   3.427   2.185 -0.7373  0.8641 -0.5665
 5099TIP3   OH215239   3.670   6.312   6.587 -0.5233  0.2802 -0.0113
 5099TIP3    H115240   3.702   6.225   6.608 -0.1052  0.0342 -1.5442
 5099TIP3    H215241   3.692   6.324   6.495 -1.2003  1.7337 -0.0121
 5100TIP3   OH215242   3.871   0.932   2.691 -0.4083  0.0858 -0.1130
 5100TIP3    H115243   3.841   1.020   2.715  0.1281  0.0841  0.5824
 5100TIP3    H215244   3.870   0.933   2.595  0.5560  1.2005 -0.1377
 5101TIP3   OH215245   4.183   1.998   3.439 -0.4946 -0.3108 -0.0392
 5101TIP3    H115246   4.192   1.955   3.524 -0.5555 -1.7333 -0.7384
 5101TIP3    H215247   4.111   1.953   3.396 -1.6575  1.5635 -0.1840
 5102TIP3   OH215248   6.622   0.830   2.587  0.1137 -0.3647  0.1458
 5102TIP3    H115249   6.561   0.822   2.513  0.4813 -0.4387 -0.1484
 5102TIP3    H215250   6.588   0.768   2.652  0.4080 -1.0843 -0.3831
 5103TIP3   OH215251   7.902   0.193   5.469 -0.2727 -0.1072  0.4561
 5103TIP3    H115252   7.933   0.189   5.560 -0.1189 -0.6012  0.3849
 5103TIP3    H215253   7.807   0.203   5.477 -0.3002 -0.5292  0.6722
 5104TIP3   OH215254   1.706   2.770   1.964 -0.2792  0.0448 -0.1515
 5104TIP3    H115255   1.716   2.865   1.956 -1.1211  0.1545  0.0296
 5104TIP3    H215256   1.745   2.749   2.049 -0.8066  0.3423  0.1651
 5105TIP3   OH215257   2.534   4.902   0.052 -0.5228 -0.1404  0.8545
 5105TIP3    H115258   2.470   4.841   0.090 -0.1652 -1.2629 -0.2990
 5105TIP3    H215259   2.520   4.896  -0.042  0.6666  0.2969  0.6325
 5106TIP3   OH215260   7.111   3.243   0.189  0.1702 -0.7658  0.2309
 5106TIP3    H115261   7.033   3.232   0.243 -0.6102  1.0491 -0.4399
 5106TIP3    H215262   7.156   3.319   0.225  1.8142 -1.9327  0.7622
 5107TIP3   OH215263   5.196   3.737   1.788 -0.3816  0.0336 -0.0342
 5107TIP3    H115264   5.243   3.692   1.858  1.4084  0.4150 -0.9079
 5107TIP3    H215265   5.240   3.822   1.781 -1.6295  0.6706 -0.5193
 5108TIP3   OH215266   7.958   7.466   4.074  0.3833 -0.2844  0.0052
 5108TIP3    H115267   7.922   7.501   4.156 -0.9465 -0.4699 -0.4799
 5108TIP3    H215268   7.977   7.544   4.022  1.1495 -0.1684  0.4342
 5109TIP3   OH215269   4.830   4.992   1.266 -0.0646 -0.3739  0.0558
 5109TIP3    H115270   4.758   4.976   1.326 -0.4677 -0.2758 -0.3920
 5109TIP3    H215271   4.842   4.909   1.220  1.0378 -0.8196  1.0918
 5110TIP3   OH215272   1.519   3.233   3.103  0.2455  0.0546  0.1583
 5110TIP3    H115273   1.558   3.285   3.174  2.6389 -0.1597 -0.9085
 5110TIP3    H215274   1.532   3.287   3.025 -1.1744 -0.2902 -0.3370
 5111TIP3   OH215275   1.174   7.188   2.109 -0.1418 -0.6049  0.0784
 5111TIP3    H115276   1.226   7.112   2.081 -1.1094 -1.2252 -0.0809
 5111TIP3    H215277   1.085   7.168   2.080 -0.2731  0.9618 -0.6791
 5112TIP3   OH215278   2.391   4.917   2.777  0.4200  0.2708  0.2853
 5112TIP3    H115279   2.469   4.917   2.722  0.4487  1.2144  0.3068
 5112TIP3    H215280   2.424   4.931   2.865  0.1758  1.9000  0.1602
 5113TIP3   OH215281   2.325   6.112   1.897 -0.2443 -0.3838 -0.3595
 5113TIP3    H115282   2.252   6.086   1.841  0.0566 -0.8181 -0.5577
 5113TIP3    H215283   2.349   6.200   1.866 -0.9022 -0.0930 -0.0605
 5114TIP3   OH215284   4.337   0.589   6.359 -0.1055  0.4979  0.5566
 5114TIP3    H115285   4.320   0.549   6.445  2.5052 -1.7081  0.2073
 5114TIP3    H215286   4.268   0.554   6.303  0.2155 -1.0059  1.0285
 5115TIP3   OH215287   2.811   7.299   2.314  0.4886 -0.2193  0.6255
 5115TIP3    H115288   2.719   7.301   2.341  0.2488 -0.2428 -0.1618
 5115TIP3    H215289   2.812   7.342   2.229  1.1755 -0.4337  0.5167
 5116TIP3   OH215290   0.617   0.304   3.100  0.2445 -0.2940 -0.5362
 5116TIP3    H115291   0.582   0.382   3.144  1.4568  0.7065 -1.2935
 5116TIP3    H215292   0.671   0.261   3.166 -0.2596 -0.3968 -0.1805
 5117TIP3   OH215293   2.729   7.489   2.070  0.0882 -0.6494 -0.2256
 5117TIP3    H115294   2.683   7.405   2.063 -1.2164  0.1570 -2.7862
 5117TIP3    H215295   2.815   7.472   2.032 -0.1928 -0.8537 -0.7936
 5118TIP3   OH215296   4.511   5.918   4.990 -0.3711 -0.4731 -0.2434
 5118TIP3    H115297   4.418   5.942   4.988 -0.4590 -0.8083 -0.2209
 5118TIP3    H215298   4.556   5.999   5.012 -0.7514 -0.5496  0.8901
 5119TIP3   OH215299   2.185   3.112   4.680 -0.1536  0.2095 -0.0623
 5119TIP3    H115300   2.238   3.032   4.675  0.5223  0.4438  2.2068
 5119TIP3    H215301   2.172   3.138   4.589  1.5139 -1.2529 -0.7710
 5120TIP3   OH215302   2.504   5.885   2.287 -0.3034 -0.4615  0.2255
 5120TIP3    H115303   2.423   5.896   2.337  0.4282  0.1525  1.3219
 5120TIP3    H215304   2.500   5.796   2.253 -1.6692 -0.2632 -0.1714
 5121TIP3   OH215305   1.469   4.654   6.677  0.5088  0.5792 -0.4485
 5121TIP3    H115306   1.446   4.657   6.584  1.8183  0.4512 -0.7905
 5121TIP3    H215307   1.522   4.733   6.692  0.4790  0.4966  0.1390
 5122TIP3   OH215308   3.914   6.435   4.097  0.0682 -0.6977  0.4137
 5122TIP3    H115309   3.851   6.485   4.148 -0.3055 -0.9808  0.2352
 5122TIP3    H215310   3.867   6.411   4.017  0.4649 -0.7418  0.1929
 5123TIP3   OH215311   6.128   0.304   0.203 -0.2180  0.1606 -0.1769
 5123TIP3    H115312   6.103   0.212   0.214 -0.6675  0.4191  1.1730
 5123TIP3    H215313   6.051   0.345   0.166 -0.8569  0.4038  1.3359
 5124TIP3   OH215314   1.378   1.351   1.300 -0.6144 -0.3839 -0.3563
 5124TIP3    H115315   1.430   1.303   1.236  0.5127  0.6527 -0.2564
 5124TIP3    H215316   1.416   1.439   1.300 -1.6388  0.0731  0.5643
 5125TIP3   OH215317   2.049   4.043   0.164  0.2274 -0.3205  0.1710
 5125TIP3    H115318   2.143   4.053   0.145  0.4359  0.1691  1.3716
 5125TIP3    H215319   2.045   4.036   0.259 -0.9929 -0.0087  0.1519
 5126TIP3   OH215320   1.076   1.817   0.914 -0.1830  0.0096  0.4155
 5126TIP3    H115321   1.032   1.884   0.860 -0.5816 -0.7154 -0.1833
 5126TIP3    H215322   1.015   1.743   0.914 -0.1818 -0.0227  1.8595
 5127TIP3   OH215323   7.898   7.302   2.766  0.2857  0.3544  0.1177
 5127TIP3    H115324   7.959   7.360   2.719 -0.7686  0.9319 -0.5689
 5127TIP3    H215325   7.827   7.359   2.793 -0.0720 -0.3609  0.7017
 5128TIP3   OH215326   4.410   7.774   0.198  0.2914  0.5091  0.0263
 5128TIP3    H115327   4.369   7.693   0.229  0.3698  0.5279  0.1758
 5128TIP3    H215328   4.415   7.830   0.275  0.8309  0.4120  0.0686
 5129TIP3   OH215329   6.329   0.885   2.694  0.2773  0.6397  0.0671
 5129TIP3    H115330   6.244   0.924   2.711 -0.0271  0.2047 -0.4293
 5129TIP3    H215331   6.364   0.865   2.781 -0.2765  0.4946  0.2589
 5130TIP3   OH215332   6.182   0.887   1.667 -0.6147  0.2034  0.4091
 5130TIP3    H115333   6.203   0.979   1.649 -0.4094  0.1777  0.5207
 5130TIP3    H215334   6.150   0.854   1.583  0.5466  0.0311  0.0116
 5131TIP3   OH215335   1.568   3.679   5.132 -0.4759  0.2133  0.2175
 5131TIP3    H115336   1.474   3.661   5.130 -0.4498  0.1066 -0.9854
 5131TIP3    H215337   1.598   3.653   5.045  1.1242 -2.1474  1.3740
 5132TIP3   OH215338   0.212   3.214   5.354 -0.3937  0.0758 -0.8123
 5132TIP3    H115339   0.213   3.215   5.258 -1.3209 -0.4658 -0.8432
 5132TIP3    H215340   0.288   3.161   5.378 -0.5187 -0.3223 -1.2710
 5133TIP3   OH215341   1.010   4.297   2.189 -0.4782  0.0050 -0.9599
 5133TIP3    H115342   1.019   4.290   2.094  0.5560 -1.7553 -0.7833
 5133TIP3    H215343   1.050   4.380   2.212 -0.7994  0.4777 -2.0625
 5134TIP3   OH215344   4.602   3.919   1.283 -0.0241 -0.2053  0.3465
 5134TIP3    H115345   4.693   3.934   1.308  0.1393 -0.5020 -0.0605
 5134TIP3    H215346   4.606   3.902   1.189 -0.4898 -0.3214  0.3480
 5135TIP3   OH215347   6.069   6.747   6.207  0.1849 -0.4200 -0.2735
 5135TIP3    H115348   6.068   6.741   6.303  1.0110 -0.9489 -0.2844
 5135TIP3    H215349   6.005   6.815   6.187 -0.2383 -0.5250  0.6348
 5136TIP3   OH215350   0.603   4.910   3.563 -0.0548  0.3432  0.2457
 5136TIP3    H115351   0.519   4.907   3.516  0.3615  1.7424 -0.6474
 5136TIP3    H215352   0.580   4.892   3.654 -0.7900 -3.4093 -0.4888
 5137TIP3   OH215353   1.194   3.800   6.244  0.6280 -0.1894 -0.1286
 5137TIP3    H115354   1.174   3.761   6.160 -0.2443  0.3302 -0.1791
 5137TIP3    H215355   1.252   3.874   6.224  0.9777 -0.4815 -0.1964
 5138TIP3   OH215356   1.903   0.293   1.517  0.0423 -0.4448 -0.3324
 5138TIP3    H115357   1.862   0.329   1.597  0.5043  0.7010 -0.5926
 5138TIP3    H215358   1.829   0.263   1.465 -0.4568  0.9368 -0.4771
 5139TIP3   OH215359   6.883   1.982   2.084 -0.1528 -0.0450  0.2906
 5139TIP3    H115360   6.820   1.909   2.080  0.5161 -0.6109 -0.2132
 5139TIP3    H215361   6.828   2.061   2.079 -0.9633 -0.4709  1.7526
 5140TIP3   OH215362   7.799   1.353   6.236 -0.2168  0.2829  0.5540
 5140TIP3    H115363   7.813   1.296   6.160  1.3373 -0.5721  1.4285
 5140TIP3    H215364   7.705   1.367   6.238 -0.6746 -2.2271  0.2233
 5141TIP3   OH215365   7.909   6.533   4.177  0.1023  0.4941  0.6635
 5141TIP3    H115366   7.982   6.544   4.116 -0.6302 -0.8972 -0.5299
 5141TIP3    H215367   7.856   6.612   4.165  0.7310  0.9228  0.6207
 5142TIP3   OH215368   3.300   1.378   2.889 -0.5552 -0.0407 -0.5526
 5142TIP3    H115369   3.323   1.463   2.927 -1.7633 -0.1554  0.5358
 5142TIP3    H215370   3.245   1.400   2.813  0.3919  0.1647 -1.1882
 5143TIP3   OH215371   3.003   4.047   4.102  0.0302  0.1961 -0.1220
 5143TIP3    H115372   3.008   3.996   4.183  2.6636 -0.1184 -0.3973
 5143TIP3    H215373   3.076   4.108   4.107  1.1584 -0.7479 -2.7944
 5144TIP3   OH215374   4.491   3.330   4.824  0.3631  0.1561 -0.5880
 5144TIP3    H115375   4.477   3.244   4.862 -0.0304  0.4282 -0.0981
 5144TIP3    H215376   4.520   3.384   4.898 -0.6247  0.7458 -0.6148
 5145TIP3   OH215377   6.627   6.182   0.425 -0.1769 -0.4996  0.3466
 5145TIP3    H115378   6.605   6.274   0.408  1.2212 -0.1658  0.2464
 5145TIP3    H215379   6.543   6.142   0.448 -0.7841  0.8466  0.6200
 5146TIP3   OH215380   6.586   0.290   6.507  0.8711 -0.3403 -0.4553
 5146TIP3    H115381   6.578   0.278   6.412 -0.1749 -0.7938 -0.3185
 5146TIP3    H215382   6.500   0.321   6.535  1.3924  0.5168  0.2550
 5147TIP3   OH215383   3.269   6.620   5.169 -0.5764 -0.0678 -0.4858
 5147TIP3    H115384   3.300   6.555   5.106  0.2593  0.5126 -0.6938
 5147TIP3    H215385   3.208   6.675   5.120  0.1371  0.4357 -0.8271
 5148TIP3   OH215386   3.149   5.251   4.836 -0.4112 -0.3262 -0.1269
 5148TIP3    H115387   3.063   5.218   4.862 -0.7383 -0.4148 -1.2872
 5148TIP3    H215388   3.158   5.333   4.884 -1.6171  0.2332 -0.8144
 5149TIP3   OH215389   6.047   3.367   3.222  0.6531 -0.1046  0.0234
 5149TIP3    H115390   5.998   3.285   3.216 -0.7362  0.6065  1.0702
 5149TIP3    H215391   6.139   3.341   3.221  0.2372 -1.7282  1.1775
 5150TIP3   OH215392   4.047   6.668   5.651  0.0006  0.7159  0.0818
 5150TIP3    H115393   4.042   6.758   5.681 -0.0696  0.6262  0.3432
 5150TIP3    H215394   4.135   6.659   5.616 -0.6185  1.4638 -1.8375
 5151TIP3   OH215395   6.999   7.485   3.128  0.5140  0.5358 -0.2842
 5151TIP3    H115396   7.030   7.474   3.218  1.2976 -0.4678 -0.6489
 5151TIP3    H215397   6.922   7.429   3.122 -0.8605  2.2873  0.3515
 5152TIP3   OH215398   3.599   6.818   0.636  0.0337 -0.1976  0.7490
 5152TIP3    H115399   3.618   6.764   0.559  0.8153 -1.2455  1.6356
 5152TIP3    H215400   3.665   6.791   0.700  1.3482  2.8119  0.8003
 5153TIP3   OH215401   6.623   5.455   4.177  0.5994  0.2901  0.0906
 5153TIP3    H115402   6.706   5.486   4.142  0.2398  0.7819 -0.3510
 5153TIP3    H215403   6.641   5.435   4.268  1.0599  0.9632  0.1526
 5154TIP3   OH215404   5.320   2.987   4.759  0.1245 -0.4871  0.3906
 5154TIP3    H115405   5.336   2.897   4.787  0.8022 -1.6146 -3.1575
 5154TIP3    H215406   5.407   3.025   4.749 -0.1410  0.3635  1.2250
 5155TIP3   OH215407   1.942   4.324   4.100 -0.1962  0.5920 -0.1469
 5155TIP3    H115408   1.989   4.242   4.086 -1.1515  0.0754 -0.3502
 5155TIP3    H215409   1.904   4.345   4.015 -1.6907  0.1485  0.3857
 5156TIP3   OH215410   2.293   0.132   0.870  0.2791 -0.4626  0.1589
 5156TIP3    H115411   2.266   0.222   0.888  0.3516 -0.5135  0.5333
 5156TIP3    H215412   2.373   0.121   0.920  1.0552 -0.2871 -1.0146
 5157TIP3   OH215413   1.233   5.016   3.015  0.9433  0.0723  0.1237
 5157TIP3    H115414   1.223   5.006   3.110  0.2371 -1.8131 -0.1156
 5157TIP3    H215415   1.192   5.101   2.996 -1.2023 -0.6449  1.2078
 5158TIP3   OH215416   1.880   2.285   2.163  0.7492 -0.0536 -0.2976
 5158TIP3    H115417   1.970   2.252   2.168  1.6230  2.0732 -0.7339
 5158TIP3    H215418   1.889   2.374   2.128 -1.6576 -0.2218 -1.5539
 5159TIP3   OH215419   5.507   4.009   2.734 -0.1600  0.0203  0.1827
 5159TIP3    H115420   5.592   4.002   2.775 -0.7495  0.3433  1.5039
 5159TIP3    H215421   5.510   3.949   2.660  1.1233 -0.1306  0.3530
 5160TIP3   OH215422   6.936   2.681   5.970  0.4743  0.3050  0.6433
 5160TIP3    H115423   6.988   2.674   6.050  0.6315  1.2024  0.6250
 5160TIP3    H215424   6.982   2.746   5.916  0.0891  0.0935  0.0394
 5161TIP3   OH215425   0.433   5.679   3.765 -0.2849 -0.0280  0.2162
 5161TIP3    H115426   0.452   5.585   3.766 -0.3497 -0.0548 -0.6609
 5161TIP3    H215427   0.365   5.689   3.699 -1.3099  0.4545  1.3010
 5162TIP3   OH215428   7.036   5.406   2.953  0.5208  0.3476 -0.6272
 5162TIP3    H115429   7.076   5.355   2.882 -1.7285 -0.6929 -1.2060
 5162TIP3    H215430   7.034   5.495   2.919 -1.1097 -0.2413 -2.1915
 5163TIP3   OH215431   6.001   3.567   6.697 -0.0508  0.2647  0.3992
 5163TIP3    H115432   6.058   3.498   6.730  0.2640 -0.4387 -1.4649
 5163TIP3    H215433   6.059   3.620   6.642 -1.1309 -0.4073 -1.4581
 5164TIP3   OH215434   3.779   4.194   2.740 -0.5230  0.1761 -0.0278
 5164TIP3    H115435   3.783   4.289   2.747 -0.8312  0.2385 -0.6453
 5164TIP3    H215436   3.742   4.177   2.653  1.9095 -0.5098 -1.0132
 5165TIP3   OH215437   4.070   5.790   5.057 -0.0066 -0.3961 -0.0991
 5165TIP3    H115438   4.155   5.824   5.028 -0.3955  0.0266 -0.7693
 5165TIP3    H215439   4.011   5.808   4.984 -0.5888 -1.0455  0.1993
 5166TIP3   OH215440   1.042   1.010   3.797  0.4059  0.0306 -0.4162
 5166TIP3    H115441   1.129   0.982   3.826 -0.6779 -0.8645  2.2627
 5166TIP3    H215442   0.998   0.930   3.771  0.0903  0.3561 -0.9012
 5167TIP3   OH215443   8.269   5.408   3.126  0.2392 -0.2268 -0.0136
 5167TIP3    H115444   8.242   5.337   3.185  0.9736 -0.2806  0.2621
 5167TIP3    H215445   8.294   5.364   3.045 -1.2583 -0.1173 -0.5792
 5168TIP3   OH215446   3.361   3.186   2.101 -0.2664  0.2897 -0.3544
 5168TIP3    H115447   3.382   3.093   2.099 -1.9553 -0.1238 -1.8398
 5168TIP3    H215448   3.419   3.225   2.035 -0.4316  0.0599 -0.6392
 5169TIP3   OH215449   3.483   3.476   3.504 -0.2566  0.4158 -0.5004
 5169TIP3    H115450   3.400   3.525   3.503  0.2138  1.2324 -1.6120
 5169TIP3    H215451   3.545   3.536   3.546 -0.7305 -1.1686  2.8034
 5170TIP3   OH215452   4.331   0.868   3.713  0.5336  0.1321 -0.2382
 5170TIP3    H115453   4.271   0.904   3.778  1.0530  0.9410 -0.2064
 5170TIP3    H215454   4.417   0.869   3.755  0.7532 -0.0098 -0.6789
 5171TIP3   OH215455   5.681   2.474   6.368  0.1967 -0.4781  0.6675
 5171TIP3    H115456   5.766   2.450   6.405  0.0016 -0.1279  1.3733
 5171TIP3    H215457   5.681   2.570   6.367 -0.2292 -0.4708  0.7982
 5172TIP3   OH215458   4.156   2.115   5.838  0.6438  0.0636  0.0604
 5172TIP3    H115459   4.125   2.058   5.768  1.9506 -0.8265  0.1656
 5172TIP3    H215460   4.156   2.202   5.800 -1.0024 -0.0301 -0.2418
 5173TIP3   OH215461   2.630   1.446   3.155 -0.4391  0.4432 -0.5650
 5173TIP3    H115462   2.641   1.476   3.245  0.0921  1.3101 -0.9011
 5173TIP3    H215463   2.539   1.468   3.134 -0.1038  1.7407 -0.7550
 5174TIP3   OH215464   4.488   2.026   0.486 -0.6817 -0.3227  0.7301
 5174TIP3    H115465   4.549   1.994   0.419  0.1802  0.1775  1.2692
 5174TIP3    H215466   4.414   2.061   0.436  0.7739  1.7743 -0.0575
 5175TIP3   OH215467   4.232   5.239   4.825  1.0476  0.0702  0.0720
 5175TIP3    H115468   4.220   5.153   4.865  2.9008 -0.7543 -0.9970
 5175TIP3    H215469   4.251   5.220   4.733 -1.4757  1.8192 -0.9077
 5176TIP3   OH215470   1.008   7.487   1.129  0.1563  0.0091 -0.3699
 5176TIP3    H115471   0.980   7.441   1.050 -0.0940  0.1759 -0.3796
 5176TIP3    H215472   0.951   7.455   1.198 -1.1039  1.4682 -0.6855
 5177TIP3   OH215473   4.940   0.054   6.135  0.1672 -0.3365 -0.0274
 5177TIP3    H115474   4.941  -0.032   6.178  0.5446 -0.0199  0.6255
 5177TIP3    H215475   5.032   0.070   6.113  0.2294  0.2602  0.6189
 5178TIP3   OH215476   5.228   2.954   5.469  0.8023  0.1744 -0.0662
 5178TIP3    H115477   5.205   2.897   5.396  1.7952 -0.3918  0.0454
 5178TIP3    H215478   5.181   3.036   5.452 -1.8986 -1.1193  0.5538
 5179TIP3   OH215479   5.869   6.912   4.297 -0.7095  0.3971 -0.2101
 5179TIP3    H115480   5.897   6.825   4.324 -0.2671  0.3372 -0.8545
 5179TIP3    H215481   5.789   6.928   4.347 -1.4729 -0.8719 -0.9815
 5180TIP3   OH215482   1.331   4.663   5.688  0.5829 -0.0862  0.4511
 5180TIP3    H115483   1.340   4.579   5.643 -0.0564 -0.3885  0.8742
 5180TIP3    H215484   1.284   4.719   5.626  1.1637  0.0151  0.1013
 5181TIP3   OH215485   4.525   2.470   5.843  0.1687 -0.0456  0.0432
 5181TIP3    H115486   4.572   2.461   5.926 -1.9048 -0.7815  1.2238
 5181TIP3    H215487   4.531   2.383   5.803  1.1628  0.3081 -0.6073
 5182TIP3   OH215488   0.131   6.109   4.098  0.6089  0.3011 -0.3115
 5182TIP3    H115489   0.088   6.070   4.175 -2.0812 -1.4931 -2.5189
 5182TIP3    H215490   0.058   6.136   4.042  2.4704  1.8248 -2.1191
 5183TIP3   OH215491   1.055   7.414   5.348 -0.0957  0.2849  0.9677
 5183TIP3    H115492   1.084   7.449   5.263 -1.4104 -0.5512  0.1409
 5183TIP3    H215493   1.103   7.466   5.413  0.4168  1.4139 -0.2692
 5184TIP3   OH215494   6.834   7.717   3.079 -0.4002 -0.2507  0.1720
 5184TIP3    H115495   6.881   7.635   3.092  0.3397 -0.0495 -1.0483
 5184TIP3    H215496   6.804   7.713   2.988 -0.3234  0.8257  0.0826
 5185TIP3   OH215497   2.379   5.527   2.307 -0.6838 -0.1648 -0.4355
 5185TIP3    H115498   2.331   5.451   2.339 -1.2964 -0.1113 -1.2115
 5185TIP3    H215499   2.382   5.587   2.382 -5.0889  1.4504 -1.2554
 5186TIP3   OH215500   2.893   0.875   5.003 -0.2089  0.4333  0.0841
 5186TIP3    H115501   2.891   0.943   5.070  0.1162  0.3923  0.1389
 5186TIP3    H215502   2.819   0.818   5.023  0.2606  0.0624  0.7929
 5187TIP3   OH215503   0.051   0.612   1.911  0.2884 -0.2683 -0.2661
 5187TIP3    H115504   0.103   0.633   1.834 -0.1612 -1.0815 -0.7951
 5187TIP3    H215505   0.028   0.698   1.948  1.9605  0.1212 -0.0197
 5188TIP3   OH215506   6.120   6.204   5.748  0.1169 -0.1849 -0.6003
 5188TIP3    H115507   6.056   6.275   5.750  0.9227  0.5731  1.5843
 5188TIP3    H215508   6.076   6.134   5.702 -2.1760  0.4393  0.4653
 5189TIP3   OH215509   7.234   6.930   2.914 -0.1921  0.1593 -0.2392
 5189TIP3    H115510   7.194   6.845   2.900 -2.2339  0.8573  0.9529
 5189TIP3    H215511   7.250   6.935   3.008 -1.1860  1.5081 -0.1084
 5190TIP3   OH215512   1.042   0.435   0.377 -0.4660 -0.0109 -0.3588
 5190TIP3    H115513   1.006   0.522   0.394 -0.7894  0.0388 -1.2457
 5190TIP3    H215514   1.106   0.449   0.307  1.2061 -0.1237  1.0735
 5191TIP3   OH215515   0.782   3.795   1.475 -0.5683 -0.4948 -0.0474
 5191TIP3    H115516   0.787   3.787   1.380 -0.3598  0.3720 -0.1121
 5191TIP3    H215517   0.705   3.744   1.499 -1.8621  0.9829 -0.8951
 5192TIP3   OH215518   6.445   7.262   3.943  0.0090  0.6525 -0.3801
 5192TIP3    H115519   6.394   7.335   3.977  1.2026  1.8006 -0.9420
 5192TIP3    H215520   6.455   7.202   4.017 -3.2473 -0.3439 -0.5894
 5193TIP3   OH215521   3.401   1.502   3.126 -0.1407  0.4576  0.1522
 5193TIP3    H115522   3.306   1.504   3.116 -0.1631 -1.3772 -0.4226
 5193TIP3    H215523   3.416   1.527   3.217 -1.2033  0.4617  0.3425
 5194TIP3   OH215524   1.488   3.078   0.454  0.6092 -0.4991 -0.3202
 5194TIP3    H115525   1.442   3.159   0.472  2.5830  0.9245 -1.3290
 5194TIP3    H215526   1.436   3.010   0.497 -0.8457  1.3339  0.9332
 5195TIP3   OH215527   2.126   1.776   6.416 -0.7836 -0.4788 -0.6487
 5195TIP3    H115528   2.128   1.850   6.356  2.8589  0.1325 -0.0296
 5195TIP3    H215529   2.126   1.815   6.503  0.6643 -1.1541 -0.3156
 5196TIP3   OH215530   7.842   2.624   2.716 -0.2553 -0.0803 -0.0354
 5196TIP3    H115531   7.865   2.697   2.774 -0.5492  0.2042 -0.2732
 5196TIP3    H215532   7.828   2.665   2.631 -1.6532 -0.2361  0.1042
 5197TIP3   OH215533   3.019   2.426   2.836  0.3616 -0.1605  0.2124
 5197TIP3    H115534   2.928   2.414   2.862  0.3370  0.3092  0.3449
 5197TIP3    H215535   3.016   2.435   2.741  0.2282  0.2433  0.2541
 5198TIP3   OH215536   4.867   0.359   5.176 -0.1723  0.1472 -0.0448
 5198TIP3    H115537   4.921   0.422   5.127  0.4311  0.4797  1.0287
 5198TIP3    H215538   4.798   0.413   5.216 -1.3077 -0.2618 -1.3371
 5199TIP3   OH215539   5.730   4.886   2.531  0.3431  0.2071 -0.1244
 5199TIP3    H115540   5.642   4.850   2.546 -0.0983  0.5830 -1.5845
 5199TIP3    H215541   5.780   4.860   2.608  0.0163 -3.3433 -0.9168
 5200TIP3   OH215542   5.500   4.392   1.019  0.3643 -0.5437  0.0383
 5200TIP3    H115543   5.505   4.388   1.115 -1.4096  2.1172  0.3182
 5200TIP3    H215544   5.415   4.354   0.998 -0.1019  0.6318 -0.2796
 5201TIP3   OH215545   1.588   5.085   6.481  0.2285  0.5997  0.3741
 5201TIP3    H115546   1.560   4.993   6.476  0.7981  0.4565 -0.6194
 5201TIP3    H215547   1.626   5.102   6.395  1.9402  1.1705  1.1980
 5202TIP3   OH215548   7.130   2.494   6.761 -0.4576 -0.2025  0.5646
 5202TIP3    H115549   7.160   2.549   6.688  1.0026 -0.7849  0.7059
 5202TIP3    H215550   7.208   2.476   6.812 -1.2555 -0.8213  1.6079
 5203TIP3   OH215551   3.766   2.299   0.043  0.0541 -0.1822 -0.9139
 5203TIP3    H115552   3.726   2.263   0.123 -0.0528  1.0239 -0.4003
 5203TIP3    H215553   3.699   2.288  -0.024 -0.3688  0.0144 -0.5251
 5204TIP3   OH215554   3.589   5.901   1.850  0.0353 -0.1508  0.1255
 5204TIP3    H115555   3.502   5.911   1.811  0.2156 -1.3987 -0.6497
 5204TIP3    H215556   3.606   5.807   1.846  0.5287 -0.1968  2.2377
 5205TIP3   OH215557   3.208   4.709   5.308 -0.5166  0.5382 -0.0655
 5205TIP3    H115558   3.304   4.701   5.309 -0.5632 -0.2127 -0.7462
 5205TIP3    H215559   3.183   4.697   5.399  0.0387  0.7016  0.1143
 5206TIP3   OH215560   5.997   3.399   5.436  0.0810  0.5013  0.0584
 5206TIP3    H115561   5.940   3.335   5.395  1.4896 -1.5763  1.1448
 5206TIP3    H215562   6.068   3.411   5.373  0.0367  0.6601  0.0390
 5207TIP3   OH215563   0.168   3.215   5.029 -0.1922 -0.0815 -0.0574
 5207TIP3    H115564   0.081   3.230   4.993 -0.7172  0.6127  1.3977
 5207TIP3    H215565   0.228   3.248   4.963 -1.0765  0.3663 -0.6512
 5208TIP3   OH215566   4.197   6.330   4.773 -0.0125 -0.0280 -0.2948
 5208TIP3    H115567   4.123   6.388   4.790  0.7654  0.5302  1.3837
 5208TIP3    H215568   4.206   6.330   4.677 -0.7428  1.7226 -0.3915
 5209TIP3   OH215569   4.166   7.408   0.922 -0.1084  0.4541  0.5314
 5209TIP3    H115570   4.073   7.431   0.919 -0.4815 -1.0162  0.1035
 5209TIP3    H215571   4.168   7.321   0.961  0.8515 -0.5740 -1.6471
 5210TIP3   OH215572   7.828   7.369   0.763  0.3915  0.1309  0.0732
 5210TIP3    H115573   7.902   7.424   0.736  0.1688  0.7435  0.7022
 5210TIP3    H215574   7.860   7.323   0.840 -0.3494  1.4957  1.2384
 5211TIP3   OH215575   0.454   0.872   0.797  0.6144  0.5708 -0.0980
 5211TIP3    H115576   0.528   0.854   0.739  0.1067  1.2407 -0.9716
 5211TIP3    H215577   0.377   0.849   0.746  0.1321  1.5666  0.1489
 5212TIP3   OH215578   3.925   7.498   1.447  0.3918  0.1440  0.1584
 5212TIP3    H115579   3.934   7.403   1.453  0.0837  0.0322 -1.0677
 5212TIP3    H215580   3.981   7.524   1.374 -1.2341  0.6270 -0.9710
 5213TIP3   OH215581   6.705   0.464   0.853  0.3433  0.3020  0.7801
 5213TIP3    H115582   6.674   0.491   0.766  2.9267  0.5362 -0.1374
 5213TIP3    H215583   6.722   0.370   0.845 -1.3754 -0.1322  1.7076
 5214TIP3   OH215584   7.165   5.160   4.636  0.4636 -0.9751 -0.6513
 5214TIP3    H115585   7.126   5.163   4.549 -1.9290 -0.4975  0.3523
 5214TIP3    H215586   7.173   5.067   4.656  0.6115 -1.0841 -1.1957
 5215TIP3   OH215587   5.105   7.757   0.980 -0.5910  0.0857  0.3645
 5215TIP3    H115588   5.095   7.828   0.917 -2.1351  0.6188  1.1522
 5215TIP3    H215589   5.189   7.773   1.022 -1.6395  2.5185  1.7347
 5216TIP3   OH215590   2.326   2.839   6.095  0.3903  0.4012  0.2911
 5216TIP3    H115591   2.307   2.790   6.175  0.3702 -0.9680 -0.5239
 5216TIP3    H215592   2.417   2.867   6.104  1.0426 -1.4767 -0.0416
 5217TIP3   OH215593   8.009   6.830   5.193  0.4907 -0.1118  0.0460
 5217TIP3    H115594   8.005   6.741   5.159  1.9477  0.1088 -0.7354
 5217TIP3    H215595   8.071   6.876   5.137  1.0810  0.9345  1.4710
 5218TIP3   OH215596   1.383   7.778   1.479  0.3761 -0.1734  0.1836
 5218TIP3    H115597   1.388   7.718   1.404 -1.0494 -0.9228  0.6498
 5218TIP3    H215598   1.459   7.835   1.469  0.3194 -0.3633 -1.7440
 5219TIP3   OH215599   1.533   5.112   1.191 -0.5184  0.0328  0.2435
 5219TIP3    H115600   1.572   5.075   1.111  0.1843  0.8398  0.2071
 5219TIP3    H215601   1.478   5.041   1.225  0.6294 -0.9882  0.0543
 5220TIP3   OH215602   4.212   7.003   3.404 -0.4518  0.1329  0.2426
 5220TIP3    H115603   4.230   7.070   3.337 -0.5797 -1.0088 -0.9815
 5220TIP3    H215604   4.180   6.928   3.354 -0.6400 -0.7305  1.6207
 5221TIP3   OH215605   7.115   4.252   3.464 -0.1975  0.3133  0.1053
 5221TIP3    H115606   7.124   4.348   3.466 -2.0359  0.5156  1.5818
 5221TIP3    H215607   7.033   4.236   3.417  0.3584 -0.5845 -0.5837
 5222TIP3   OH215608   5.798   3.864   5.407 -0.0067  0.3855 -0.1700
 5222TIP3    H115609   5.815   3.949   5.446 -2.0723  1.1291 -0.7769
 5222TIP3    H215610   5.724   3.829   5.457  0.6152 -0.9234 -0.1296
 5223TIP3   OH215611   3.767   4.377   3.466 -0.4330  0.4458  0.5937
 5223TIP3    H115612   3.787   4.468   3.447 -1.5940  1.0268  1.9668
 5223TIP3    H215613   3.704   4.351   3.398  0.1654  0.5325 -0.0065
 5224TIP3   OH215614   7.726   4.670   0.641 -0.1645 -0.1329 -0.3260
 5224TIP3    H115615   7.768   4.725   0.575  0.4691  0.0795  0.2471
 5224TIP3    H215616   7.733   4.581   0.606 -1.8923  0.1844 -1.6330
 5225TIP3   OH215617   3.697   6.581   2.241 -0.2618 -0.7060 -0.3914
 5225TIP3    H115618   3.630   6.626   2.292  1.2504  2.0347 -0.6787
 5225TIP3    H215619   3.759   6.548   2.307  0.0346  0.0275 -0.2998
 5226TIP3   OH215620   4.229   4.926   3.993 -0.5640 -0.3925 -0.4320
 5226TIP3    H115621   4.304   4.943   3.936 -1.4162  0.2112 -1.4113
 5226TIP3    H215622   4.244   4.838   4.028  1.7134  0.5435  1.1951
 5227TIP3   OH215623   0.065   6.019   0.873 -0.2711  0.2057 -0.6095
 5227TIP3    H115624   0.067   5.995   0.781  0.2633  0.9621 -0.8030
 5227TIP3    H215625   0.071   6.115   0.873  0.4550  0.1699  0.2265
 5228TIP3   OH215626   7.862   2.222   4.243  0.4209  0.0921  0.5139
 5228TIP3    H115627   7.850   2.217   4.149  0.5049  0.0995  0.5026
 5228TIP3    H215628   7.892   2.311   4.259 -1.0779  0.5765  0.7163
 5229TIP3   OH215629   3.342   1.925   2.045  0.1955  0.3497 -0.2681
 5229TIP3    H115630   3.340   1.839   2.086  2.7628  0.2516 -0.1850
 5229TIP3    H215631   3.250   1.953   2.044 -0.7105 -2.3237 -0.2494
 5230TIP3   OH215632   0.512   6.759   6.438 -0.0034  0.1320 -0.2111
 5230TIP3    H115633   0.582   6.823   6.449 -0.8291  1.4703 -2.1902
 5230TIP3    H215634   0.552   6.689   6.387 -0.1042  1.0045 -1.5448
 5231TIP3   OH215635   7.849   1.091   4.878  0.4614  0.1688  0.2039
 5231TIP3    H115636   7.805   1.168   4.915 -0.0030  0.3940 -0.7847
 5231TIP3    H215637   7.913   1.127   4.816 -0.3437 -0.2370 -0.8946
 5232TIP3   OH215638   3.366   3.038   2.893 -0.3652  0.3411 -0.3049
 5232TIP3    H115639   3.396   2.999   2.810 -0.1885 -0.5042  0.1454
 5232TIP3    H215640   3.433   3.014   2.956 -1.8672 -1.4485  0.6978
 5233TIP3   OH215641   4.411   2.086   2.617 -0.3497 -0.3250 -0.7152
 5233TIP3    H115642   4.414   2.017   2.552  0.0755  0.0631 -1.1146
 5233TIP3    H215643   4.435   2.166   2.569  0.8263 -0.1648  0.0804
 5234TIP3   OH215644   3.157   0.961   5.860 -0.3538 -0.0853  0.3291
 5234TIP3    H115645   3.189   1.049   5.837  0.2440 -0.4941 -0.4687
 5234TIP3    H215646   3.236   0.914   5.889 -0.5093 -0.6282 -0.1103
 5235TIP3   OH215647   3.762   1.750   6.403  0.0435 -0.1395  0.2966
 5235TIP3    H115648   3.795   1.828   6.358 -1.4898 -0.6450 -1.8223
 5235TIP3    H215649   3.841   1.702   6.428  0.9832  0.6772 -0.9692
 5236TIP3   OH215650   2.316   2.589   5.791 -0.0691 -0.5163 -0.3616
 5236TIP3    H115651   2.363   2.671   5.805 -0.9743  0.0920 -0.7891
 5236TIP3    H215652   2.299   2.587   5.696 -2.1781  0.0234 -0.0498
 5237TIP3   OH215653   6.007   4.420   1.557 -0.1482  0.2827  0.0390
 5237TIP3    H115654   5.942   4.475   1.599 -0.4402 -0.3321  0.4029
 5237TIP3    H215655   6.072   4.403   1.625  0.4992  1.0471 -0.3724
 5238TIP3   OH215656   5.914   6.670   4.769 -0.1246  0.5334 -0.5283
 5238TIP3    H115657   5.917   6.743   4.706  0.8962  0.0843 -1.0279
 5238TIP3    H215658   5.888   6.594   4.717  1.0527  0.0882 -0.5031
 5239TIP3   OH215659   5.260   6.984   5.856  0.6651 -0.1758 -0.1543
 5239TIP3    H115660   5.327   6.934   5.902  2.2621  1.9337 -0.0505
 5239TIP3    H215661   5.279   6.971   5.763  1.5263  0.7531 -0.1239
 5240TIP3   OH215662   5.461   5.421   6.207 -0.4911  0.0439  0.0487
 5240TIP3    H115663   5.472   5.503   6.255 -0.9024  1.2144 -1.7612
 5240TIP3    H215664   5.549   5.398   6.177 -0.5918  0.6693 -0.7430
 5241TIP3   OH215665   0.994   2.006   0.340 -0.1449  0.0705 -0.1183
 5241TIP3    H115666   0.973   1.915   0.363 -1.9730  0.6082  0.4957
 5241TIP3    H215667   1.088   2.005   0.325  0.0687 -1.6878  1.0192
 5242TIP3   OH215668   6.635   4.777   4.458 -0.1475  0.8186  0.0242
 5242TIP3    H115669   6.678   4.694   4.434  1.3205  1.9612 -1.5261
 5242TIP3    H215670   6.543   4.763   4.436 -0.2133 -0.8765  1.1792
 5243TIP3   OH215671   2.645   5.734   1.977 -0.2313 -0.0559  0.0347
 5243TIP3    H115672   2.663   5.742   2.071 -0.6599 -1.1967  0.2394
 5243TIP3    H215673   2.556   5.766   1.967  0.6816  2.5115 -0.4388
 5244TIP3   OH215674   3.997   0.322   5.354 -0.0370  0.7107  0.3293
 5244TIP3    H115675   3.979   0.414   5.333  0.2606  0.7609  0.2959
 5244TIP3    H215676   3.911   0.285   5.374 -0.1169  1.0760  0.6633
 5245TIP3   OH215677   7.171   5.639   4.905  0.1634  0.2110 -0.0312
 5245TIP3    H115678   7.105   5.708   4.906 -2.4117 -2.0738  0.1477
 5245TIP3    H215679   7.215   5.648   4.821 -2.2556  0.2409 -1.3694
 5246TIP3   OH215680   6.538   6.703   3.210 -0.2365 -0.7744  0.4735
 5246TIP3    H115681   6.529   6.609   3.222  1.9366 -1.2148 -0.9469
 5246TIP3    H215682   6.479   6.724   3.137 -1.0786 -0.9156  1.0952
 5247TIP3   OH215683   3.551   1.894   5.320  0.2788 -0.0976 -0.3760
 5247TIP3    H115684   3.510   1.956   5.260  0.6344  1.0775  0.5501
 5247TIP3    H215685   3.608   1.948   5.375  2.1273 -1.4990 -0.7997
 5248TIP3   OH215686   3.059   5.511   3.924  0.3773  0.3282 -0.4465
 5248TIP3    H115687   3.127   5.517   3.857  1.0396  1.3374  0.2762
 5248TIP3    H215688   3.002   5.586   3.906  0.0187  0.0555 -0.4509
 5249TIP3   OH215689   3.492   1.783   4.061  0.4343  0.0796  0.1540
 5249TIP3    H115690   3.554   1.754   4.128  0.1589  2.4392  1.5317
 5249TIP3    H215691   3.445   1.856   4.101 -1.3286  0.1456 -1.8467
 5250TIP3   OH215692   1.450   1.714   6.020  0.0812 -0.2590 -0.3750
 5250TIP3    H115693   1.380   1.765   6.062 -0.4051  0.5357 -2.0602
 5250TIP3    H215694   1.485   1.773   5.953  1.2445 -1.2619 -0.6795
 5251TIP3   OH215695   6.466   6.443   3.276 -0.2519 -0.0411  0.0376
 5251TIP3    H115696   6.529   6.385   3.235  0.5106 -0.1188  1.2841
 5251TIP3    H215697   6.381   6.401   3.262  0.3693 -2.0206  1.7897
 5252TIP3   OH215698   6.711   0.945   4.202  0.3828 -0.3744  0.2786
 5252TIP3    H115699   6.766   0.885   4.152  0.7191 -0.4428  0.7146
 5252TIP3    H215700   6.769   1.019   4.220 -0.1851  0.3336 -0.7117
 5253TIP3   OH215701   7.658   6.751   4.195  0.5388 -0.6322 -0.6385
 5253TIP3    H115702   7.595   6.679   4.199 -0.8110  0.4963 -0.8490
 5253TIP3    H215703   7.624   6.809   4.127  1.0321  0.6993  0.2098
 5254TIP3   OH215704   7.251   2.150   0.196 -0.1789 -0.5274  0.3889
 5254TIP3    H115705   7.312   2.191   0.257 -0.4052 -1.4150  1.2446
 5254TIP3    H215706   7.186   2.218   0.179  1.1597  0.5217 -0.7489
 5255TIP3   OH215707   5.062   3.692   3.636 -0.0293  0.0852 -0.0464
 5255TIP3    H115708   5.047   3.776   3.593 -1.1543  0.6660  1.4100
 5255TIP3    H215709   4.985   3.640   3.615  0.8431 -0.7844 -1.2846
 5256TIP3   OH215710   0.852   6.020   0.268 -0.2720  0.0802 -0.4316
 5256TIP3    H115711   0.852   5.960   0.343 -0.8574 -0.1288 -0.5962
 5256TIP3    H215712   0.852   6.107   0.308 -3.3919  0.0355 -0.0944
 5257TIP3   OH215713   5.015   4.908   0.302  0.0956 -0.6931 -0.2034
 5257TIP3    H115714   5.017   4.891   0.208  0.0314  0.6117 -0.4661
 5257TIP3    H215715   4.936   4.960   0.316 -0.5860 -1.9626  0.7898
 5258TIP3   OH215716   2.689   6.830   5.507 -0.3659  0.0305  0.6135
 5258TIP3    H115717   2.768   6.851   5.457 -0.1544  0.9655  1.2930
 5258TIP3    H215718   2.683   6.735   5.506 -1.3058  0.0273 -2.5804
 5259TIP3   OH215719   5.489   0.448   1.540 -0.3821 -0.3850  0.4621
 5259TIP3    H115720   5.543   0.402   1.604  0.6242  1.9683  1.4186
 5259TIP3    H215721   5.543   0.448   1.460 -1.0430 -2.1056 -0.0248
 5260TIP3   OH215722   2.549   0.506   2.222 -0.3674  0.2642  0.5538
 5260TIP3    H115723   2.594   0.548   2.149 -1.7231  0.3771 -0.2388
 5260TIP3    H215724   2.620   0.479   2.281  0.6433  2.9586  0.7436
 5261TIP3   OH215725   6.284   3.009   3.380  0.4212 -0.0534 -0.1428
 5261TIP3    H115726   6.199   2.965   3.390 -0.0051  1.0759  1.6497
 5261TIP3    H215727   6.305   3.040   3.468  1.9475  1.0753 -0.8655
 5262TIP3   OH215728   4.330   1.065   6.741 -0.3835  0.1302  0.0157
 5262TIP3    H115729   4.238   1.056   6.715 -0.4684  0.8646  0.0444
 5262TIP3    H215730   4.378   1.063   6.658 -0.3267 -1.2197  0.0550
 5263TIP3   OH215731   7.048   0.426   5.299  0.8806  0.2450  0.9349
 5263TIP3    H115732   7.054   0.347   5.244  0.8043  0.1547  1.0543
 5263TIP3    H215733   7.028   0.496   5.238 -0.5042 -0.0627  0.9955
 5264TIP3   OH215734   2.565   4.128   4.781  0.0730  0.1982  0.5995
 5264TIP3    H115735   2.649   4.174   4.784 -0.8137  2.4387 -3.1109
 5264TIP3    H215736   2.583   4.048   4.731  0.0402  0.7069 -0.2453
 5265TIP3   OH215737   5.809   2.851   3.819  0.7172  0.0449  0.4903
 5265TIP3    H115738   5.765   2.777   3.859  1.0666 -0.9673 -0.9322
 5265TIP3    H215739   5.901   2.826   3.815  1.1455  1.2973  1.5751
 5266TIP3   OH215740   1.343   0.829   2.275  0.1460  0.2072 -0.1417
 5266TIP3    H115741   1.321   0.759   2.213  3.0774 -1.0293  0.0575
 5266TIP3    H215742   1.362   0.905   2.220  0.1040 -0.0823 -0.5614
 5267TIP3   OH215743   0.056   5.905   3.463  0.4933  0.5567  0.4200
 5267TIP3    H115744   0.051   5.812   3.440 -0.5538  0.4835  0.9194
 5267TIP3    H215745   0.149   5.926   3.456  0.6417 -0.3311 -0.4640
 5268TIP3   OH215746   1.918   2.982   1.791 -0.2805 -0.4897 -0.0688
 5268TIP3    H115747   1.878   3.041   1.855  3.0338  0.7755  1.0635
 5268TIP3    H215748   1.891   3.017   1.706 -0.0173  1.4952  0.6188
 5269TIP3   OH215749   3.450   2.761   1.479 -1.2566  0.1578  0.1457
 5269TIP3    H115750   3.483   2.816   1.551  0.6925 -0.0542 -0.5030
 5269TIP3    H215751   3.367   2.726   1.510 -0.5383  0.2033  2.2338
 5270TIP3   OH215752   1.111   5.055   4.303 -0.0512  0.3995 -0.0729
 5270TIP3    H115753   1.075   5.032   4.388 -0.4203  1.1993 -0.0044
 5270TIP3    H215754   1.200   5.020   4.305 -0.3519 -0.3765  0.2859
 5271TIP3   OH215755   1.448   0.136   0.640 -0.2965 -0.1867  0.3234
 5271TIP3    H115756   1.375   0.138   0.702 -0.2832  0.6265  0.3213
 5271TIP3    H215757   1.406   0.125   0.554 -0.3270 -1.1076  0.4464
 5272TIP3   OH215758   1.452   0.031   2.471  0.9024  0.7100 -0.7216
 5272TIP3    H115759   1.472  -0.063   2.478  0.6038  0.6129 -1.1725
 5272TIP3    H215760   1.442   0.060   2.562 -3.1317 -0.5719 -0.5546
 5273TIP3   OH215761   5.698   5.227   0.681  0.0556 -0.0551  0.0926
 5273TIP3    H115762   5.689   5.177   0.600 -0.2872  0.9723 -0.5207
 5273TIP3    H215763   5.641   5.183   0.744  0.2642 -0.8122 -0.2458
 5274TIP3   OH215764   3.686   6.368   4.327  1.3351 -0.0400  0.9864
 5274TIP3    H115765   3.609   6.319   4.297  1.9404 -1.4589  1.6899
 5274TIP3    H215766   3.684   6.448   4.275 -0.6480 -0.0039  1.0093
 5275TIP3   OH215767   6.589   3.995   6.574 -0.8215 -0.1279 -0.3256
 5275TIP3    H115768   6.587   4.077   6.524 -1.3919  1.5942  2.3030
 5275TIP3    H215769   6.678   3.991   6.610 -0.6561 -0.9185 -0.8018
 5276TIP3   OH215770   7.555   4.480   6.413  0.7294  0.2256  0.7883
 5276TIP3    H115771   7.606   4.440   6.484  0.5261  0.2527  0.9490
 5276TIP3    H215772   7.464   4.459   6.433  0.7428 -0.9143 -0.1706
 5277TIP3   OH215773   3.929   4.502   5.476  0.5962 -0.2696 -0.2787
 5277TIP3    H115774   3.970   4.418   5.496  1.0810 -0.2477 -1.1151
 5277TIP3    H215775   4.002   4.560   5.456  0.2592  0.3344  0.2115
 5278TIP3   OH215776   4.667   2.178   2.922 -0.4403  0.7124  0.1136
 5278TIP3    H115777   4.660   2.098   2.870 -1.1541  0.0050  1.2588
 5278TIP3    H215778   4.643   2.248   2.861 -0.3896  0.0097 -0.7419
 5279TIP3   OH215779   0.060   2.242   1.799 -0.0198  0.2878 -0.0212
 5279TIP3    H115780  -0.024   2.228   1.844  0.5027 -0.4596  0.7588
 5279TIP3    H215781   0.037   2.247   1.706 -0.9217 -0.0510  0.1733
 5280TIP3   OH215782   6.954   3.816   2.723  0.0647  1.2279 -0.6850
 5280TIP3    H115783   6.943   3.803   2.629 -0.2874  0.3004 -0.5250
 5280TIP3    H215784   7.024   3.881   2.730  2.4712 -1.1243 -1.5535
 5281TIP3   OH215785   7.627   6.868   2.973  0.5607  0.2265  0.4858
 5281TIP3    H115786   7.636   6.780   3.011 -0.2798 -0.1982 -0.2366
 5281TIP3    H215787   7.591   6.852   2.885 -0.8662  1.3567  0.8262
 5282TIP3   OH215788   0.280   6.806   0.118  0.3315  0.8884 -0.0199
 5282TIP3    H115789   0.372   6.818   0.137  0.6884  1.7075 -1.9631
 5282TIP3    H215790   0.263   6.713   0.135  1.8834  0.3929 -0.9524
 5283TIP3   OH215791   2.973   5.738   2.630  0.5849 -0.3063  0.1552
 5283TIP3    H115792   3.066   5.721   2.617  0.6504  0.1868 -0.0420
 5283TIP3    H215793   2.945   5.782   2.550  0.0842 -0.8301  0.0376
 5284TIP3   OH215794   2.163   4.350   2.275  0.3093 -0.3495  0.3035
 5284TIP3    H115795   2.184   4.385   2.362  0.9089 -0.0182  0.0310
 5284TIP3    H215796   2.068   4.361   2.267  0.2437 -0.4026  0.9227
 5285TIP3   OH215797   3.684   1.404   6.109  0.4859 -0.2861 -0.3463
 5285TIP3    H115798   3.767   1.448   6.092  2.1572 -3.2133 -0.5198
 5285TIP3    H215799   3.683   1.329   6.048 -1.0616 -1.7884  1.3721
 5286TIP3   OH215800   1.781   3.840   0.195  0.5236 -0.7070 -0.2764
 5286TIP3    H115801   1.870   3.832   0.161  1.3111 -0.7658  1.6851
 5286TIP3    H215802   1.760   3.753   0.229 -1.1208 -1.2817 -2.4760
 5287TIP3   OH215803   4.713   7.328   3.042 -0.1795  0.1618 -0.0419
 5287TIP3    H115804   4.703   7.396   2.975 -0.4977 -0.5292 -0.7105
 5287TIP3    H215805   4.624   7.302   3.065 -0.0760  0.4763  0.7466
 5288TIP3   OH215806   3.729   5.392   4.819  0.1207 -0.1156 -0.2794
 5288TIP3    H115807   3.795   5.424   4.881  0.7530 -0.0696 -0.9658
 5288TIP3    H215808   3.755   5.302   4.801  0.1231 -0.0247 -0.7280
 5289TIP3   OH215809   4.339   0.910   2.113  0.1935 -0.0834  0.1796
 5289TIP3    H115810   4.302   0.962   2.184  0.3838 -0.8529  0.8578
 5289TIP3    H215811   4.425   0.948   2.097  0.1502  0.0891  0.3605
 5290TIP3   OH215812   7.844   1.813   0.442  0.4831 -0.2172  0.6555
 5290TIP3    H115813   7.821   1.805   0.350 -2.6737  2.6000  0.9988
 5290TIP3    H215814   7.937   1.834   0.442  0.8416 -1.5275 -1.7714
 5291TIP3   OH215815   0.209   0.106   3.399 -0.5435 -0.2248 -0.1839
 5291TIP3    H115816   0.186   0.048   3.472 -0.3983 -0.1431 -0.0724
 5291TIP3    H215817   0.296   0.140   3.422 -0.8246  0.3963 -0.0249
 5292TIP3   OH215818   6.613   7.688   0.356  0.3483  0.1035  0.2256
 5292TIP3    H115819   6.569   7.603   0.349 -1.1526  0.7482  1.2425
 5292TIP3    H215820   6.555   7.749   0.310  0.5714  0.8392  0.8840
 5293TIP3   OH215821   1.903   7.461   4.084 -0.0416 -0.4312  0.3754
 5293TIP3    H115822   1.948   7.541   4.057  0.1293 -0.3710  0.8194
 5293TIP3    H215823   1.845   7.489   4.154  0.8325 -0.8702  1.3053
 5294TIP3   OH215824   0.988   2.437   0.499 -0.1161 -0.0443  0.0026
 5294TIP3    H115825   1.079   2.406   0.493  1.5132  3.4362  2.8966
 5294TIP3    H215826   0.977   2.494   0.423  0.8940  1.0426  0.6369
 5295TIP3   OH215827   8.109   7.734   3.661  0.1563 -0.2099 -0.0039
 5295TIP3    H115828   8.097   7.723   3.567 -1.6955  1.4637 -0.0240
 5295TIP3    H215829   8.100   7.829   3.675 -0.0186 -0.4805  1.9017
 5296TIP3   OH215830   3.065   6.054   4.738  0.0330 -0.2058 -0.5449
 5296TIP3    H115831   3.127   6.022   4.804  0.9532 -1.3717 -1.9212
 5296TIP3    H215832   2.995   6.094   4.789  0.8340 -0.8551  1.1391
 5297TIP3   OH215833   3.429   7.546   6.228 -0.1248 -0.0163  0.6295
 5297TIP3    H115834   3.408   7.484   6.159 -0.9578  0.2742  0.6077
 5297TIP3    H215835   3.482   7.614   6.185  1.2871 -0.9923  0.7806
 5298TIP3   OH215836   7.072   5.951   6.313  0.0109 -0.4198 -0.2759
 5298TIP3    H115837   7.151   5.940   6.260  0.7345 -1.7949  1.0347
 5298TIP3    H215838   7.104   5.976   6.400 -1.1215  1.0331 -0.2296
 5299TIP3   OH215839   1.843   0.804   1.382  0.4761  0.0218 -0.5523
 5299TIP3    H115840   1.899   0.728   1.398  1.0363  0.3420 -0.9651
 5299TIP3    H215841   1.895   0.878   1.414 -0.6084  0.1169  1.1277
 5300TIP3   OH215842   6.198   6.685   2.624  0.3339  0.0644 -0.4759
 5300TIP3    H115843   6.292   6.685   2.645  0.2868 -1.9663 -0.0545
 5300TIP3    H215844   6.156   6.721   2.702  0.7960  2.5158 -1.2575
 5301TIP3   OH215845   7.981   6.317   3.013 -0.0233 -0.0129  0.4161
 5301TIP3    H115846   7.930   6.389   3.051 -0.1645 -0.1046  0.4014
 5301TIP3    H215847   7.935   6.238   3.040 -0.2268 -0.0719 -0.0933
 5302TIP3   OH215848   0.217   6.802   6.227 -0.0352  0.5717  0.3428
 5302TIP3    H115849   0.221   6.719   6.274 -0.0278  0.5552  0.3133
 5302TIP3    H215850   0.239   6.780   6.136 -0.8487  0.4637  0.1619
 5303TIP3   OH215851   8.045   0.758   1.765 -0.5688  0.0823  0.3616
 5303TIP3    H115852   7.972   0.766   1.827 -1.0821  0.7779 -0.3191
 5303TIP3    H215853   8.109   0.822   1.797 -0.3915 -0.3019  0.7770
 5304TIP3   OH215854   3.390   5.012   3.173  0.3399 -0.1705 -0.4109
 5304TIP3    H115855   3.297   4.989   3.176 -0.0716  1.4367  1.2303
 5304TIP3    H215856   3.401   5.057   3.090 -0.5704  0.4046 -0.2385
 5305TIP3   OH215857   6.134   3.267   4.527 -0.5408  0.3582 -0.3333
 5305TIP3    H115858   6.153   3.290   4.436  3.4275  2.6315  0.8082
 5305TIP3    H215859   6.122   3.352   4.571 -1.8610 -0.6441  1.3934
 5306TIP3   OH215860   5.926   4.327   2.395  0.3894  0.0237 -0.8252
 5306TIP3    H115861   5.877   4.263   2.446  1.6462  0.9337  1.7344
 5306TIP3    H215862   6.010   4.285   2.376  0.4069  0.1453 -1.0280
 5307TIP3   OH215863   3.455   6.265   4.161  0.0518  0.0779 -0.6311
 5307TIP3    H115864   3.406   6.221   4.230  1.3782 -0.4163  0.0402
 5307TIP3    H215865   3.432   6.219   4.081  0.4788 -1.0443 -0.1196
 5308TIP3   OH215866   0.558   3.150   2.464  0.5594 -0.2807  0.3422
 5308TIP3    H115867   0.527   3.148   2.554  1.5758  0.4685  0.7280
 5308TIP3    H215868   0.508   3.220   2.423  1.0842  0.3283  0.7209
 5309TIP3   OH215869   1.565   7.738   5.490  0.3970  0.4982  0.5036
 5309TIP3    H115870   1.493   7.736   5.553  0.0520  1.2784  0.1439
 5309TIP3    H215871   1.571   7.830   5.464  0.6924  0.2194 -0.4209
 5310TIP3   OH215872   6.985   6.172   4.366 -0.4169  0.5841  0.1933
 5310TIP3    H115873   6.914   6.124   4.409 -0.8174  1.0455  0.0673
 5310TIP3    H215874   7.034   6.212   4.437 -0.5128  0.5742  0.2644
 5311TIP3   OH215875   6.376   2.860   6.530 -0.1772 -0.8041 -0.0628
 5311TIP3    H115876   6.433   2.851   6.454  2.2850  0.4448  1.5027
 5311TIP3    H215877   6.425   2.818   6.601 -0.7729  1.0784  1.5476
 5312TIP3   OH215878   5.582   5.969   5.684 -0.3096  0.6315  0.1931
 5312TIP3    H115879   5.578   6.042   5.746  0.1698 -0.0085  0.9922
 5312TIP3    H215880   5.557   5.892   5.735 -1.8635  0.3744 -0.9074
 5313TIP3   OH215881   1.316   5.788   0.782 -0.8262 -0.0354  0.4612
 5313TIP3    H115882   1.274   5.850   0.723 -0.1866  0.6243  0.6851
 5313TIP3    H215883   1.289   5.702   0.750 -0.7521  0.3200 -0.5883
 5314TIP3   OH215884   4.608   5.542   6.255 -0.1995  0.0018  0.1270
 5314TIP3    H115885   4.562   5.624   6.235  3.1143  1.6513 -1.5258
 5314TIP3    H215886   4.637   5.552   6.346  0.0128  0.5883 -0.0002
 5315TIP3   OH215887   2.092   3.665   1.748  0.1088  0.0404  0.3883
 5315TIP3    H115888   2.005   3.644   1.713 -0.7183 -0.4368  2.5850
 5315TIP3    H215889   2.149   3.595   1.714 -1.0623 -1.5119  1.4738
 5316TIP3   OH215890   3.515   4.529   3.429 -0.0615  0.0132  0.3265
 5316TIP3    H115891   3.501   4.455   3.370  0.1631  0.1037  0.1570
 5316TIP3    H215892   3.568   4.590   3.378 -1.4452  0.9447 -0.0789
 5317TIP3   OH215893   1.126   7.646   3.082  0.8129 -0.4446 -0.0814
 5317TIP3    H115894   1.144   7.578   3.017 -1.6120 -1.6425  0.3724
 5317TIP3    H215895   1.208   7.693   3.091  1.9445 -1.8662 -2.1110
 5318TIP3   OH215896   5.050   5.257   5.434  0.2639 -0.0293 -0.3703
 5318TIP3    H115897   5.082   5.212   5.512 -0.3382 -0.5459 -0.4105
 5318TIP3    H215898   5.089   5.344   5.438 -1.4654  0.7268  1.6546
 5319TIP3   OH215899   0.389   1.807   5.404  0.3212  0.3658  0.5107
 5319TIP3    H115900   0.474   1.806   5.448  0.6579  1.0378 -0.0908
 5319TIP3    H215901   0.407   1.771   5.317 -0.4559 -1.5082  1.0971
 5320TIP3   OH215902   6.014   0.997   4.534 -0.0082 -0.3311  0.3697
 5320TIP3    H115903   5.968   0.915   4.519  0.6081 -0.8398  1.1982
 5320TIP3    H215904   5.951   1.065   4.508 -1.5213 -0.9821  2.1011
 5321TIP3   OH215905   5.830   7.190   6.184 -0.3104 -0.1753 -0.0253
 5321TIP3    H115906   5.844   7.231   6.098 -1.5702  1.0216  0.3210
 5321TIP3    H215907   5.895   7.231   6.241  0.3419 -0.7737 -0.3093
 5322TIP3   OH215908   4.998   0.356   5.460  0.3121 -0.4089  0.4841
 5322TIP3    H115909   4.953   0.369   5.376  1.7055  1.9281  0.0051
 5322TIP3    H215910   5.049   0.276   5.448 -0.1911 -0.5924 -0.5826
 5323TIP3   OH215911   2.220   7.185   1.888  0.1513  0.3295  0.3110
 5323TIP3    H115912   2.176   7.138   1.959  0.4442  0.9380  0.9030
 5323TIP3    H215913   2.181   7.149   1.808  0.8210 -1.3809  0.7065
 5324TIP3   OH215914   1.574   4.399   0.156  0.1357 -0.4007 -0.3032
 5324TIP3    H115915   1.611   4.312   0.171  0.0658 -0.6551 -1.5568
 5324TIP3    H215916   1.488   4.383   0.118  0.9226  0.1921 -2.4495
 5325TIP3   OH215917   2.311   0.340   1.857  0.3772  0.1122  1.0369
 5325TIP3    H115918   2.294   0.272   1.922  2.6733 -1.0442  0.5327
 5325TIP3    H215919   2.320   0.420   1.908  0.0264 -0.3741  1.8955
 5326TIP3   OH215920   1.709   6.476   5.655  0.0127 -0.1356 -1.0946
 5326TIP3    H115921   1.739   6.386   5.667  2.0792  0.4777 -1.3988
 5326TIP3    H215922   1.614   6.468   5.646 -0.2103 -1.9808  1.7575
 5327TIP3   OH215923   0.798   4.735   4.279  0.5077  0.0167  0.2055
 5327TIP3    H115924   0.812   4.774   4.193  0.2606 -1.3548 -0.4759
 5327TIP3    H215925   0.886   4.711   4.308  0.5327 -0.0586  0.0698
 5328TIP3   OH215926   5.893   5.399   3.141 -0.5029 -0.4082  0.2779
 5328TIP3    H115927   5.951   5.473   3.158  1.3992 -1.6559 -0.3675
 5328TIP3    H215928   5.907   5.341   3.217  2.1187 -2.4353 -1.5234
 5329TIP3   OH215929   7.419   2.836   1.563 -0.2705 -0.0416 -0.2182
 5329TIP3    H115930   7.368   2.755   1.561  0.4664 -0.5280  0.2839
 5329TIP3    H215931   7.461   2.840   1.478 -1.4618  0.5865 -0.8059
 5330TIP3   OH215932   3.924   5.748   4.003  0.1901 -0.8137  0.0527
 5330TIP3    H115933   3.994   5.723   4.063 -1.6189  0.5180  3.0181
 5330TIP3    H215934   3.957   5.825   3.958  0.2861  0.6399  2.4201
 5331TIP3   OH215935   4.974   4.853   1.038 -0.0313 -0.1514  0.7100
 5331TIP3    H115936   4.888   4.835   1.000  0.1704 -1.1713  0.6950
 5331TIP3    H215937   5.031   4.785   1.001  1.0199  1.0981 -0.0600
 5332TIP3   OH215938   5.253   2.299   0.124 -0.2171 -0.1277 -0.5629
 5332TIP3    H115939   5.221   2.230   0.066  1.2340  0.1160 -1.7141
 5332TIP3    H215940   5.287   2.366   0.065  0.9332  0.3218  0.5703
 5333TIP3   OH215941   1.136   2.987   0.497 -0.2297  1.0010 -0.3455
 5333TIP3    H115942   1.210   2.931   0.478 -0.3411  0.8348 -0.2948
 5333TIP3    H215943   1.070   2.964   0.431 -0.7962  0.0805  0.5128
 5334TIP3   OH215944   0.130   3.085   4.666  0.2320 -0.5305 -0.7133
 5334TIP3    H115945   0.081   3.131   4.598  0.5869 -0.6118 -1.0263
 5334TIP3    H215946   0.220   3.083   4.634  0.9543  1.7440  0.9553
 5335TIP3   OH215947   6.400   4.687   1.942  0.1298  0.0630  0.0795
 5335TIP3    H115948   6.337   4.615   1.942 -1.8643  1.7223  0.0777
 5335TIP3    H215949   6.433   4.689   1.853 -1.1554  0.2631 -0.4090
 5336TIP3   OH215950   8.055   5.155   5.888  0.1351  0.4566 -0.2928
 5336TIP3    H115951   8.102   5.232   5.857  0.9767  0.7988  1.6972
 5336TIP3    H215952   8.092   5.136   5.974 -2.0509 -0.4146  0.5489
 5337TIP3   OH215953   3.192   7.495   2.416  0.0350 -0.0123  0.4440
 5337TIP3    H115954   3.168   7.505   2.324 -0.0928 -0.4177  0.4352
 5337TIP3    H215955   3.221   7.404   2.424  1.1164  0.3204  0.5611
 5338TIP3   OH215956   4.045   6.472   2.542  0.1235  0.1129 -0.1367
 5338TIP3    H115957   3.956   6.462   2.508 -0.3331 -2.7019  1.5833
 5338TIP3    H215958   4.085   6.385   2.532  1.6102  0.4771  1.8793
 5339TIP3   OH215959   5.492   1.828   0.563  0.3420  0.3323 -0.1712
 5339TIP3    H115960   5.531   1.826   0.475 -0.5076 -0.5341 -0.5518
 5339TIP3    H215961   5.566   1.823   0.623  0.8772 -0.2655 -0.8663
 5340TIP3   OH215962   3.304   6.459   4.970 -0.6093  0.4639 -0.3660
 5340TIP3    H115963   3.278   6.368   4.981 -1.0820  0.6965  0.4635
 5340TIP3    H215964   3.394   6.454   4.937 -0.8014 -0.3032 -0.7890
 5341TIP3   OH215965   3.596   2.338   3.690 -0.2045  0.3022  0.6258
 5341TIP3    H115966   3.521   2.308   3.741 -0.9895 -1.9250 -1.5974
 5341TIP3    H215967   3.563   2.416   3.643 -0.6568  0.1983  0.7645
 5342TIP3   OH215968   1.702   5.366   4.968 -0.0523  0.4077 -0.2046
 5342TIP3    H115969   1.717   5.339   4.878 -1.5570  0.3760 -0.4728
 5342TIP3    H215970   1.621   5.322   4.994 -1.2962  2.7311  0.1290
 5343TIP3   OH215971   1.067   6.833   6.604 -0.6231 -0.0230  0.3979
 5343TIP3    H115972   1.130   6.766   6.579 -0.5559  0.0816  0.2832
 5343TIP3    H215973   1.022   6.797   6.680  0.1225  0.2223  0.9699
 5344TIP3   OH215974   0.600   5.027   2.245 -0.2230 -0.1663  0.6914
 5344TIP3    H115975   0.573   5.079   2.321 -0.0798 -0.4453  0.9340
 5344TIP3    H215976   0.521   5.021   2.191  0.2114  1.8962 -0.2784
 5345TIP3   OH215977   0.628   1.698   6.249 -0.3092  0.0697  0.4501
 5345TIP3    H115978   0.660   1.667   6.165 -0.1686  0.1063  0.4895
 5345TIP3    H215979   0.597   1.787   6.232  1.4543  0.7965  0.8236
 5346TIP3   OH215980   3.148   1.969   5.087 -0.2591  0.4838  0.1136
 5346TIP3    H115981   3.204   1.918   5.029 -1.0421 -0.1754 -0.0754
 5346TIP3    H215982   3.187   2.057   5.088  0.7262  0.0514 -0.0596
 5347TIP3   OH215983   3.689   5.520   4.231 -0.2321 -0.2020  0.1594
 5347TIP3    H115984   3.774   5.477   4.220 -0.2403 -0.1086 -0.3261
 5347TIP3    H215985   3.667   5.509   4.323  0.4399  0.0089  0.3485
 5348TIP3   OH215986   7.144   7.481   0.766 -1.4338 -0.1638  0.8044
 5348TIP3    H115987   7.234   7.507   0.787 -0.3114 -1.8084 -1.4628
 5348TIP3    H215988   7.096   7.563   0.755  0.3694  0.8172 -0.1133
 5349TIP3   OH215989   7.537   0.527   6.108  0.1578 -0.3684 -0.3247
 5349TIP3    H115990   7.599   0.456   6.092 -0.9482 -1.2902 -0.6306
 5349TIP3    H215991   7.532   0.534   6.203 -1.6783 -2.5104 -0.1915
 5350TIP3   OH215992   2.009   7.062   3.100  0.3362  0.1098 -0.2157
 5350TIP3    H115993   1.953   7.086   3.174 -0.5692  0.5116 -1.0053
 5350TIP3    H215994   2.015   7.142   3.048  1.3296 -0.0451 -0.3585
 5351TIP3   OH215995   8.087   0.428   4.335 -0.0540 -0.5795  0.3198
 5351TIP3    H115996   8.054   0.342   4.358 -0.7725 -0.0472  1.3467
 5351TIP3    H215997   8.010   0.484   4.333  0.3942  0.0391 -0.4074
 5352TIP3   OH215998   3.863   1.025   4.815 -0.3896  0.0740 -0.2091
 5352TIP3    H115999   3.949   0.995   4.784  0.4130  1.8415  0.2256
 5352TIP3    H216000   3.841   0.964   4.885  0.8022 -0.0279  0.1009
 5353TIP3   OH216001   0.370   0.138   1.803  0.0807  0.3825 -0.5835
 5353TIP3    H116002   0.282   0.157   1.838 -0.4540 -0.5168 -1.3912
 5353TIP3    H216003   0.357   0.064   1.744  1.7346 -1.1935  0.9018
 5354TIP3   OH216004   3.696   4.579   1.393  0.1245  0.0694  0.1388
 5354TIP3    H116005   3.772   4.582   1.452 -0.2662 -0.7110  0.6987
 5354TIP3    H216006   3.634   4.521   1.437  0.4629 -1.9089 -1.7997
 5355TIP3   OH216007   7.323   2.694   6.336 -0.4797 -0.1239 -0.3719
 5355TIP3    H116008   7.399   2.678   6.280 -0.6113  1.9014 -1.1901
 5355TIP3    H216009   7.257   2.733   6.278 -1.4152  0.0034  0.7358
 5356TIP3   OH216010   4.553   0.463   6.253  0.2235 -0.1578 -0.1724
 5356TIP3    H116011   4.488   0.530   6.277 -0.0495 -0.1083 -1.0288
 5356TIP3    H216012   4.538   0.392   6.315  0.0209  0.2586  0.2703
 5357TIP3   OH216013   3.666   4.395   1.785  0.1538  0.7159 -0.1671
 5357TIP3    H116014   3.627   4.375   1.700  1.5834 -0.7940 -0.5165
 5357TIP3    H216015   3.734   4.460   1.766  0.1974  0.6869 -0.1115
 5358TIP3   OH216016   4.937   5.194   3.124 -0.7330  0.2398  0.0740
 5358TIP3    H116017   4.918   5.267   3.065  0.3908 -0.8415 -1.7008
 5358TIP3    H216018   4.975   5.236   3.201  0.2814  1.5400 -1.0792
 5359TIP3   OH216019   6.753   3.482   1.758  0.5865 -0.5405 -0.1510
 5359TIP3    H116020   6.686   3.417   1.738  1.0213 -0.9085 -0.4303
 5359TIP3    H216021   6.705   3.565   1.762 -0.1058 -0.9610  0.9687
 5360TIP3   OH216022   7.880   6.804   4.368  0.6114 -0.7080 -0.3628
 5360TIP3    H116023   7.823   6.769   4.299  1.2173 -0.9392 -0.7595
 5360TIP3    H216024   7.885   6.898   4.350 -1.8817 -0.1519  1.3329
 5361TIP3   OH216025   4.790   2.454   0.125  0.4719  0.1554  0.4970
 5361TIP3    H116026   4.732   2.400   0.180  0.5257 -1.7188 -1.1816
 5361TIP3    H216027   4.743   2.463   0.043  1.0928  1.5568  0.2775
 5362TIP3   OH216028   3.542   6.024   2.153 -0.7075 -0.0082 -0.5206
 5362TIP3    H116029   3.498   6.035   2.238  1.8282 -1.8397  1.1725
 5362TIP3    H216030   3.525   6.106   2.107 -3.0243  0.6726  1.2967
 5363TIP3   OH216031   0.544   6.389   4.570 -0.3166 -0.4679  0.2003
 5363TIP3    H116032   0.492   6.429   4.640 -0.7428 -0.6002 -0.0370
 5363TIP3    H216033   0.584   6.463   4.525  0.3402 -0.3992  0.8645
 5364TIP3   OH216034   5.135   7.537   3.765 -0.1353 -0.3257 -0.1131
 5364TIP3    H116035   5.195   7.469   3.795 -0.0085 -0.5515 -0.8653
 5364TIP3    H216036   5.192   7.607   3.734 -0.2239  0.8847  2.1967
 5365TIP3   OH216037   1.546   0.304   2.215  0.0866 -0.1786 -0.0219
 5365TIP3    H116038   1.568   0.319   2.308 -0.6679 -0.4747  0.2087
 5365TIP3    H216039   1.548   0.391   2.176  1.1753 -0.1314  0.0930
 5366TIP3   OH216040   4.293   2.074   6.544 -0.6089 -0.6374 -0.4558
 5366TIP3    H116041   4.255   2.161   6.534  0.2472 -0.1220  0.6676
 5366TIP3    H216042   4.331   2.073   6.632 -0.6233 -2.1557 -0.4302
 5367TIP3   OH216043   4.763   2.042   5.309 -0.2050 -0.3225 -0.3978
 5367TIP3    H116044   4.776   1.967   5.251 -2.2866 -1.9065  1.0483
 5367TIP3    H216045   4.702   2.098   5.262 -0.8025 -0.9087 -0.3286
 5368TIP3   OH216046   7.805   1.624   3.218  0.0343 -0.2372  0.2323
 5368TIP3    H116047   7.730   1.679   3.239  0.8834  0.4741  1.4895
 5368TIP3    H216048   7.872   1.647   3.282  1.7275 -0.0894 -1.4778
 5369TIP3   OH216049   2.415   1.419   4.241  0.0229  0.2466  0.0275
 5369TIP3    H116050   2.493   1.452   4.198  0.5171 -1.2192 -0.2717
 5369TIP3    H216051   2.439   1.410   4.333  0.1881 -0.1098 -0.0475
 5370TIP3   OH216052   4.480   3.705   6.178  0.2292 -0.1033  0.1784
 5370TIP3    H116053   4.573   3.686   6.174 -0.1024 -2.1591  0.9067
 5370TIP3    H216054   4.455   3.682   6.268 -1.1140 -0.3404 -0.2308
 5371TIP3   OH216055   3.634   1.612   5.297  0.0947  0.1965 -0.0309
 5371TIP3    H116056   3.605   1.703   5.296  0.9255  0.4651 -0.4111
 5371TIP3    H216057   3.671   1.599   5.384  0.7445  0.4869 -0.2512
 5372TIP3   OH216058   3.620   2.457   4.941 -0.0767 -0.0610  0.1148
 5372TIP3    H116059   3.609   2.472   5.034 -1.0670  1.6299 -0.2346
 5372TIP3    H216060   3.651   2.366   4.934  0.1660 -0.1542  2.0662
 5373TIP3   OH216061   7.971   5.967   3.656  0.3276  0.2021  0.1554
 5373TIP3    H116062   7.910   6.038   3.674 -0.0966  0.3298 -1.6139
 5373TIP3    H216063   7.944   5.897   3.716 -0.7585  0.6958  0.2635
 5374TIP3   OH216064   6.476   0.337   1.345  0.5593  0.6636 -0.0233
 5374TIP3    H116065   6.501   0.302   1.260  0.5551 -3.0609  1.3495
 5374TIP3    H216066   6.386   0.367   1.334  0.6767  0.5478 -1.3976
 5375TIP3   OH216067   2.535   3.851   4.708 -0.1628  0.0475  0.0426
 5375TIP3    H116068   2.610   3.834   4.650 -0.6462 -1.8221 -0.1045
 5375TIP3    H216069   2.515   3.765   4.747 -0.9517  0.9185  1.6578
 5376TIP3   OH216070   7.879   1.942   6.769 -0.1927 -0.0435  0.1288
 5376TIP3    H116071   7.801   1.930   6.824 -1.2285  1.1966 -0.9943
 5376TIP3    H216072   7.874   1.870   6.705 -0.9289  0.5312 -0.4820
 5377TIP3   OH216073   7.739   6.242   3.299 -0.2408  0.3419  0.1732
 5377TIP3    H116074   7.710   6.209   3.214  0.8663 -1.3679  0.4049
 5377TIP3    H216075   7.670   6.216   3.360 -0.6436  0.8458 -0.0595
 5378TIP3   OH216076   3.087   0.118   0.090  0.4194  0.7157  0.9718
 5378TIP3    H116077   3.051   0.083   0.009  0.1963  0.7643  1.0496
 5378TIP3    H216078   3.123   0.203   0.065  0.8057  0.5105  0.8198
 5379TIP3   OH216079   7.743   7.062   6.528 -0.0931 -0.8753 -0.2674
 5379TIP3    H116080   7.782   7.149   6.513  0.1939 -1.3091 -2.4727
 5379TIP3    H216081   7.649   7.078   6.528 -0.0200 -0.4228  0.4525
 5380TIP3   OH216082   7.484   2.273   1.918 -0.4020  0.3119  0.1715
 5380TIP3    H116083   7.416   2.257   1.853 -0.9380 -0.1090  0.8181
 5380TIP3    H216084   7.535   2.192   1.921 -0.9180  0.0004  0.8884
 5381TIP3   OH216085   5.282   7.257   0.826 -0.4082  0.8424 -0.3327
 5381TIP3    H116086   5.367   7.216   0.810  0.0014  1.5275  0.0401
 5381TIP3    H216087   5.282   7.334   0.770 -1.6766 -0.2615 -1.9681
 5382TIP3   OH216088   4.805   1.747   1.391  0.3160 -0.6241  0.1503
 5382TIP3    H116089   4.790   1.734   1.298  2.0659  0.3080 -0.3045
 5382TIP3    H216090   4.835   1.662   1.423 -0.7350 -1.0690 -0.0281
 5383TIP3   OH216091   7.203   2.554   4.989 -0.7087  0.3664  0.0712
 5383TIP3    H116092   7.294   2.542   5.017 -1.2618  0.2708  1.9452
 5383TIP3    H216093   7.183   2.475   4.939  0.7529  1.1838 -1.9197
 5384TIP3   OH216094   6.183   2.121   3.285  0.5542 -0.0756  0.1654
 5384TIP3    H116095   6.173   2.215   3.298 -0.1526 -0.0562 -0.5081
 5384TIP3    H216096   6.188   2.109   3.190  0.3599 -0.7453  0.2312
 5385TIP3   OH216097   6.786   7.048   1.434  0.3081 -0.3381 -0.3905
 5385TIP3    H116098   6.836   7.083   1.508  0.4918 -0.1953 -0.5827
 5385TIP3    H216099   6.801   6.953   1.437  0.1055 -0.3617 -0.0898
 5386TIP3   OH216100   7.664   0.371   0.633  0.3453 -0.1087 -0.1707
 5386TIP3    H116101   7.569   0.373   0.628  0.2811 -0.9283  0.4382
 5386TIP3    H216102   7.691   0.324   0.554  0.1823 -0.7195  0.1316
 5387TIP3   OH216103   3.594   6.446   4.983  0.5962  0.0811 -0.0884
 5387TIP3    H116104   3.638   6.517   4.936  2.0465 -0.3420  0.5510
 5387TIP3    H216105   3.627   6.366   4.941  0.1357 -0.2504  0.1679
 5388TIP3   OH216106   3.745   2.787   0.961  0.1305  0.2917 -0.3967
 5388TIP3    H116107   3.800   2.865   0.949 -1.4194  1.3290 -0.9957
 5388TIP3    H216108   3.656   2.821   0.963 -0.4645 -1.2347  1.6079
 5389TIP3   OH216109   5.935   1.621   1.728  0.1141  0.1024  0.2403
 5389TIP3    H116110   5.946   1.526   1.727  2.0283  0.2918 -0.1675
 5389TIP3    H216111   5.900   1.641   1.641 -1.2124 -0.2874  0.6557
 5390TIP3   OH216112   1.023   2.801   2.114  0.3364 -0.3484  0.2048
 5390TIP3    H116113   1.116   2.811   2.093 -0.0802  1.9887 -0.9052
 5390TIP3    H216114   0.982   2.782   2.029 -0.2839 -0.5177  0.5408
 5391TIP3   OH216115   0.339   2.656   3.403 -0.0232  0.4475  0.5241
 5391TIP3    H116116   0.409   2.708   3.441  0.3270  0.1470  0.2959
 5391TIP3    H216117   0.272   2.720   3.380  0.3223  0.7767  0.4237
 5392TIP3   OH216118   3.908   7.073   3.410 -0.2805  0.1182  0.1587
 5392TIP3    H116119   3.983   7.058   3.353 -0.0524  1.5476  0.0529
 5392TIP3    H216120   3.933   7.033   3.493  0.7909  0.9537  0.2565
 5393TIP3   OH216121   6.770   1.950   3.451 -0.3872  0.4207 -0.0826
 5393TIP3    H116122   6.761   1.897   3.531 -0.2185  0.4208 -0.0633
 5393TIP3    H216123   6.758   2.040   3.480 -0.8754  0.3760 -0.1491
 5394TIP3   OH216124   6.456   5.647   1.797  0.0929  0.1477 -0.6169
 5394TIP3    H116125   6.529   5.692   1.755 -0.4190  1.2808 -0.3351
 5394TIP3    H216126   6.496   5.571   1.839  0.8666 -0.0848 -1.7142
 5395TIP3   OH216127   0.124   2.568   4.717  0.2755 -0.5201  0.0361
 5395TIP3    H116128   0.214   2.590   4.741 -0.4356  1.5360  1.0581
 5395TIP3    H216129   0.081   2.653   4.707 -2.5550 -1.2937  3.5750
 5396TIP3   OH216130   0.930   1.144   2.697  1.1328 -0.0236  0.5582
 5396TIP3    H116131   0.957   1.214   2.637  0.4456 -1.6403 -1.7630
 5396TIP3    H216132   0.945   1.181   2.784  2.2886  2.4101 -0.5609
 5397TIP3   OH216133   1.685   1.666   0.071 -0.3325 -0.3706  0.3832
 5397TIP3    H116134   1.753   1.690   0.134  0.5864 -0.8150 -0.3946
 5397TIP3    H216135   1.710   1.711  -0.010 -0.4320 -1.2715 -0.1685
 5398TIP3   OH216136   1.314   0.070   4.201 -0.0637 -0.1122 -0.2132
 5398TIP3    H116137   1.348   0.095   4.287 -2.0177  1.0961  0.2681
 5398TIP3    H216138   1.391   0.039   4.153  1.3463  0.7079  1.4114
 5399TIP3   OH216139   0.087  -0.003   1.177  0.0042 -0.4981  0.0271
 5399TIP3    H116140   0.144  -0.063   1.224  0.1683 -0.5178 -0.1953
 5399TIP3    H216141   0.129   0.083   1.185 -0.0128 -0.4860 -0.0091
 5400TIP3   OH216142   4.966   5.746   6.055  0.3891  0.2705  0.5216
 5400TIP3    H116143   4.917   5.664   6.058  0.3197  0.3278  1.0499
 5400TIP3    H216144   4.902   5.812   6.029  0.6480  0.0124 -0.7992
 5401TIP3   OH216145   5.902   1.302   3.653 -0.4856 -0.2829  0.3397
 5401TIP3    H116146   5.831   1.298   3.589 -0.4324 -1.4835  0.3208
 5401TIP3    H216147   5.859   1.289   3.737 -0.2512 -1.7600  0.2712
 5402TIP3   OH216148   1.606   0.993   3.191 -0.5784 -0.1727  0.3098
 5402TIP3    H116149   1.550   1.069   3.174 -1.4721 -0.9277 -0.1726
 5402TIP3    H216150   1.550   0.930   3.236  0.6078  0.0679  2.2458
 5403TIP3   OH216151   7.806   5.867   3.217  0.3185 -0.1295 -0.4246
 5403TIP3    H116152   7.716   5.895   3.235  0.5157  0.0498  0.3403
 5403TIP3    H216153   7.799   5.776   3.191  0.0669 -0.7610  1.6286
 5404TIP3   OH216154   5.343   0.033   5.484 -0.0609 -0.3069  0.3255
 5404TIP3    H116155   5.326   0.031   5.578  2.6155  3.6609  1.1545
 5404TIP3    H216156   5.438   0.023   5.476 -0.1265  0.2242 -1.8614
 5405TIP3   OH216157   1.196   3.342   1.813  0.2029 -0.1255 -0.4201
 5405TIP3    H116158   1.265   3.286   1.850  2.0750  2.0343 -0.4353
 5405TIP3    H216159   1.230   3.367   1.727 -1.1014  0.1647 -0.8615
 5406TIP3   OH216160   7.095   0.677   1.720 -0.6884  0.2669 -0.4419
 5406TIP3    H116161   7.048   0.755   1.750 -2.9183 -0.7217 -1.1325
 5406TIP3    H216162   7.171   0.671   1.778 -1.8919  1.4611  1.3673
 5407TIP3   OH216163   3.137   6.235   0.541 -0.2003  0.2574 -0.0297
 5407TIP3    H116164   3.155   6.324   0.572 -0.2819  0.1214  0.4053
 5407TIP3    H216165   3.091   6.193   0.613  2.1513 -0.9841  0.8554
 5408TIP3   OH216166   0.870   4.002   5.153 -0.0333  0.0589  0.9714
 5408TIP3    H116167   0.862   3.922   5.203  2.2709 -1.0022 -0.1852
 5408TIP3    H216168   0.964   4.012   5.139 -0.2809  2.7244  0.6776
 5409TIP3   OH216169   4.013   1.780   3.403 -0.3694  0.3676 -0.0589
 5409TIP3    H116170   4.051   1.709   3.454 -2.3041 -0.8500 -0.2035
 5409TIP3    H216171   3.964   1.832   3.467 -1.8359 -0.4871 -0.4487
 5410TIP3   OH216172   6.265   3.208   3.888  0.5053  0.4046 -0.1671
 5410TIP3    H116173   6.172   3.220   3.867  0.2752 -0.6457  0.2024
 5410TIP3    H216174   6.301   3.296   3.888 -0.2731  0.7431 -1.3339
 5411TIP3   OH216175   2.065   1.214   3.998  0.0772 -0.4141 -0.1134
 5411TIP3    H116176   2.157   1.237   3.985 -0.1320  0.1427 -0.6852
 5411TIP3    H216177   2.032   1.283   4.056 -0.5938  0.9033 -1.9640
 5412TIP3   OH216178   6.722   2.129   2.520  0.3611 -0.7817 -0.0434
 5412TIP3    H116179   6.758   2.196   2.462  0.6004 -0.0681  0.9161
 5412TIP3    H216180   6.759   2.047   2.487 -2.3063 -0.9568 -3.1825
 5413TIP3   OH216181   0.681   5.989   2.081 -0.2218 -0.4315  0.5539
 5413TIP3    H116182   0.589   5.987   2.055  0.2261 -0.2450 -1.1861
 5413TIP3    H216183   0.725   6.036   2.010  1.2896 -0.9185  1.1278
 5414TIP3   OH216184   3.701   0.596   3.476  0.2533 -0.0094  0.2521
 5414TIP3    H116185   3.655   0.560   3.552 -1.1891  0.3224 -0.4353
 5414TIP3    H216186   3.698   0.691   3.490  0.3531  0.0322 -0.0039
 5415TIP3   OH216187   4.183   4.068   1.906 -0.6602  0.0026  0.1430
 5415TIP3    H116188   4.243   3.994   1.917 -0.7827  0.1030  1.7099
 5415TIP3    H216189   4.231   4.130   1.852 -1.1452 -1.8275 -2.5687
 5416TIP3   OH216190   0.596   4.376   2.166  0.1652  0.1839  0.3327
 5416TIP3    H116191   0.632   4.450   2.118  1.1953  1.1703  2.4846
 5416TIP3    H216192   0.642   4.377   2.250 -0.2178 -2.5668  0.6680
 5417TIP3   OH216193   2.992   1.412   5.503 -0.2030 -0.3704 -0.2650
 5417TIP3    H116194   3.006   1.490   5.557 -1.1636  0.3463 -1.0234
 5417TIP3    H216195   3.016   1.339   5.560 -1.1700  0.3550  1.1377
 5418TIP3   OH216196   6.588   3.102   3.549 -0.2352 -0.1103 -0.2713
 5418TIP3    H116197   6.664   3.124   3.495 -0.7459 -0.6840 -1.2599
 5418TIP3    H216198   6.616   3.025   3.599 -0.1288 -0.2805 -0.5842
 5419TIP3   OH216199   1.423   4.625   3.804  0.0610 -0.6231  0.0797
 5419TIP3    H116200   1.446   4.650   3.714  1.1132  0.8942  0.7186
 5419TIP3    H216201   1.454   4.698   3.857  0.5920 -2.0424  1.8125
 5420TIP3   OH216202   5.007   5.961   6.691  0.4270  0.6420  0.1582
 5420TIP3    H116203   5.031   5.972   6.599  1.1348  0.7928  0.3561
 5420TIP3    H216204   4.978   5.870   6.697  0.8375  0.4891 -0.1196
 5421TIP3   OH216205   8.134   0.545   1.293  0.0058  0.4751 -0.5272
 5421TIP3    H116206   8.043   0.557   1.320 -1.1077 -1.7546 -2.8850
 5421TIP3    H216207   8.153   0.621   1.239 -0.1070  1.3786  0.6519
 5422TIP3   OH216208   1.266   7.659   0.037  1.0232 -0.2766  0.1281
 5422TIP3    H116209   1.280   7.749   0.008  0.8241 -0.2111  0.2367
 5422TIP3    H216210   1.354   7.623   0.047  1.1460  0.3035  1.3295
 5423TIP3   OH216211   7.378   5.901   6.626 -0.5802 -0.0930  0.2771
 5423TIP3    H116212   7.392   5.815   6.586  0.2783  1.2818 -2.6998
 5423TIP3    H216213   7.307   5.939   6.574  1.3202  2.2299 -0.7862
 5424TIP3   OH216214   2.063   6.137   6.331 -0.2779 -0.6442  0.4218
 5424TIP3    H116215   2.073   6.229   6.358  0.5221 -0.5895 -0.0195
 5424TIP3    H216216   2.105   6.133   6.245  0.4364 -1.6134  0.8042
 5425TIP3   OH216217   3.116   6.419   3.352 -0.2126 -0.2063  0.2076
 5425TIP3    H116218   3.066   6.343   3.323 -1.0374 -0.1416  1.3961
 5425TIP3    H216219   3.054   6.470   3.404  0.6249  0.7491  0.2883
 5426TIP3   OH216220   6.606   2.708   0.235  0.0898  0.0609  0.1082
 5426TIP3    H116221   6.560   2.746   0.310  0.0281 -0.2213  0.2156
 5426TIP3    H216222   6.674   2.653   0.274  1.8894  2.0639 -0.0479
 5427TIP3   OH216223   4.190   6.215   0.241 -0.0438  0.1111  0.1987
 5427TIP3    H116224   4.131   6.162   0.188 -0.4496  0.1705  0.5887
 5427TIP3    H216225   4.278   6.186   0.215 -0.1654  1.1809 -1.5995
 5428TIP3   OH216226   1.844   7.808   2.299 -0.0164  0.2058  0.1547
 5428TIP3    H116227   1.883   7.869   2.362  1.5463 -0.0560 -0.5231
 5428TIP3    H216228   1.805   7.739   2.354  2.4057 -0.6755  0.8677
 5429TIP3   OH216229   1.471   6.502   4.214 -0.1035 -0.9272  0.1443
 5429TIP3    H116230   1.412   6.576   4.225 -1.0306 -1.8425  1.7558
 5429TIP3    H216231   1.533   6.530   4.147 -1.1089  0.8535 -0.0994
 5430TIP3   OH216232   6.548   1.630   4.659 -0.5811 -0.0571  0.4284
 5430TIP3    H116233   6.613   1.578   4.708  1.1415  0.8045 -0.8056
 5430TIP3    H216234   6.485   1.565   4.628 -1.6911 -0.6396  3.5864
 5431TIP3   OH216235   3.055   3.592   2.391  0.1014 -0.0461  0.4879
 5431TIP3    H116236   3.012   3.521   2.439 -0.6249  0.2630  0.3189
 5431TIP3    H216237   3.066   3.662   2.456 -0.8165  0.3451  0.2543
 5432TIP3   OH216238   0.408   7.745   3.664  0.8146 -0.1357  0.3265
 5432TIP3    H116239   0.339   7.734   3.599 -0.8923  0.8647  1.8521
 5432TIP3    H216240   0.432   7.838   3.658  2.7418 -0.6531 -0.7991
 5433TIP3   OH216241   1.312   4.540   3.049  0.1847  0.4315 -0.1845
 5433TIP3    H116242   1.234   4.587   3.078  1.2620  2.0432  0.2493
 5433TIP3    H216243   1.308   4.545   2.953 -0.1719  0.6368 -0.1609
 5434TIP3   OH216244   4.751   1.224   2.733  0.0347 -0.0876  0.4652
 5434TIP3    H116245   4.811   1.153   2.710 -1.2377 -0.8455 -0.6251
 5434TIP3    H216246   4.694   1.234   2.656 -0.4528  1.4438  0.9868
 5435TIP3   OH216247   1.932   3.621   4.384  0.3730 -0.6234  0.9181
 5435TIP3    H116248   1.839   3.603   4.369  0.5098 -1.3638  0.9095
 5435TIP3    H216249   1.940   3.627   4.479 -0.0078  1.3390  0.8661
 5436TIP3   OH216250   7.130   6.304   6.296 -0.1189 -0.6768  0.5961
 5436TIP3    H116251   7.099   6.273   6.211 -0.2209 -1.2432  0.8391
 5436TIP3    H216252   7.201   6.365   6.274 -1.0306  0.2189  0.0640
 5437TIP3   OH216253   6.496   2.794   3.848  0.1263  0.0775  0.3591
 5437TIP3    H116254   6.580   2.827   3.817 -0.2667  0.8031  0.0475
 5437TIP3    H216255   6.438   2.801   3.772 -0.1598 -0.6308  0.5019
 5438TIP3   OH216256   3.545   4.965   3.804 -0.2558 -0.1240  0.3521
 5438TIP3    H116257   3.626   5.015   3.803 -0.9889  1.1085 -0.2997
 5438TIP3    H216258   3.566   4.884   3.756  0.3317  0.6222 -0.7019
 5439TIP3   OH216259   6.313   4.070   3.860 -0.2050 -0.0170 -0.4782
 5439TIP3    H116260   6.284   3.996   3.914 -0.0555 -0.3535 -0.8608
 5439TIP3    H216261   6.256   4.068   3.784  0.2878 -0.1880 -0.8436
 5440TIP3   OH216262   4.035   3.857   4.543  0.2324  0.8008 -0.4565
 5440TIP3    H116263   4.121   3.878   4.505  0.5028 -1.7896 -1.4566
 5440TIP3    H216264   3.993   3.803   4.477 -1.3180  0.2533  0.9292
 5441TIP3   OH216265   5.969   7.298   5.616  0.4643 -0.1418  0.6330
 5441TIP3    H116266   5.885   7.254   5.622  0.1032  0.1670 -1.3776
 5441TIP3    H216267   5.951   7.387   5.648 -0.3871  0.3667 -1.1227
 5442TIP3   OH216268   3.761   4.442   2.574 -0.3739 -0.2568 -0.6059
 5442TIP3    H116269   3.673   4.425   2.541 -1.0697  1.5536  0.1640
 5442TIP3    H216270   3.758   4.533   2.604  1.6559 -0.2765 -0.2023
 5443TIP3   OH216271   4.553   7.170   1.524  0.1348 -0.1741 -0.1541
 5443TIP3    H116272   4.501   7.240   1.483  1.0329  0.3887 -0.3804
 5443TIP3    H216273   4.559   7.195   1.616 -0.4084 -0.5074 -0.0244
 5444TIP3   OH216274   1.940   4.622   5.799  0.4281  0.1505  0.0546
 5444TIP3    H116275   1.906   4.712   5.804  0.3761  0.0708  2.7323
 5444TIP3    H216276   1.861   4.567   5.803  0.4960 -0.0205 -0.9227
 5445TIP3   OH216277   7.723   7.540   6.472 -0.1789 -0.0955  0.2289
 5445TIP3    H116278   7.798   7.593   6.499  0.9988 -1.8669  0.5405
 5445TIP3    H216279   7.701   7.574   6.385  1.4200  0.0291 -0.1634
 5446TIP3   OH216280   0.604   3.161   3.859  0.1166 -0.0177 -0.0766
 5446TIP3    H116281   0.587   3.094   3.926  1.3474 -1.3837 -1.0675
 5446TIP3    H216282   0.682   3.206   3.890  0.1192  0.0031 -0.1140
 5447TIP3   OH216283   1.605   1.271   3.517  0.3913  0.2063  0.7096
 5447TIP3    H116284   1.650   1.338   3.465  0.6580  0.3102  1.0627
 5447TIP3    H216285   1.656   1.191   3.503 -0.0324  0.0330  0.1465
 5448TIP3   OH216286   4.946   6.756   3.889  0.6447 -0.0228  0.0593
 5448TIP3    H116287   4.996   6.829   3.926  2.3610 -0.9031 -0.4111
 5448TIP3    H216288   4.879   6.798   3.835  0.4743  1.2099  1.1513
 5449TIP3   OH216289   7.035   5.789   5.878 -0.4619  0.1760 -0.1589
 5449TIP3    H116290   7.046   5.764   5.787 -1.0192 -1.1385  0.1057
 5449TIP3    H216291   7.040   5.706   5.927  1.3714  1.0109  1.1663
 5450TIP3   OH216292   0.350   5.909   0.643  0.0975 -0.0474 -0.5730
 5450TIP3    H116293   0.337   5.818   0.670 -0.9576 -0.1803 -1.4422
 5450TIP3    H216294   0.414   5.903   0.572 -0.5966 -0.2264 -1.2013
 5451TIP3   OH216295   7.661   0.265   4.441  0.4242  0.4407 -0.4667
 5451TIP3    H116296   7.746   0.222   4.448  0.3737  0.5307  1.0409
 5451TIP3    H216297   7.633   0.277   4.532 -1.4232 -0.0200 -0.9408
 5452TIP3   OH216298   6.413   4.275   2.056 -0.1178  0.0868 -1.0240
 5452TIP3    H116299   6.384   4.365   2.044 -0.0714  0.4317  1.0543
 5452TIP3    H216300   6.342   4.222   2.021 -2.1075  0.9359  1.4313
 5453TIP3   OH216301   0.888   5.565   4.307 -0.0117 -0.3517 -0.2205
 5453TIP3    H116302   0.829   5.502   4.266  0.5210 -1.0723  0.0955
 5453TIP3    H216303   0.880   5.644   4.254  1.4622 -1.5773 -2.3985
 5454TIP3   OH216304   0.868   0.455   1.170 -0.2922 -0.2070  0.2686
 5454TIP3    H116305   0.773   0.455   1.185 -0.7625 -0.4199 -2.3239
 5454TIP3    H216306   0.895   0.545   1.184 -0.8511 -0.1405  1.0107
 5455TIP3   OH216307   6.936   4.657   4.270  0.2662 -0.3441  0.1843
 5455TIP3    H116308   6.938   4.591   4.201 -0.7410 -0.3610  0.1679
 5455TIP3    H216309   6.850   4.649   4.309  0.3146  0.6215  0.5154
 5456TIP3   OH216310   3.208   4.753   0.062 -0.0807  0.3935 -0.3674
 5456TIP3    H116311   3.184   4.675   0.012 -0.4406  0.6911 -0.6626
 5456TIP3    H216312   3.298   4.737   0.089 -0.3735 -0.4482  0.1904
 5457TIP3   OH216313   0.670   7.806   4.401  0.0570 -0.4986 -0.1942
 5457TIP3    H116314   0.692   7.866   4.472 -0.2818  0.2182 -0.6829
 5457TIP3    H216315   0.590   7.763   4.429  0.1257 -0.4882  0.0162
 5458TIP3   OH216316   1.335   4.029   6.106 -0.3318 -0.2189  0.5622
 5458TIP3    H116317   1.327   3.977   6.026 -1.4577 -0.0183  0.5239
 5458TIP3    H216318   1.290   4.111   6.085  0.0498  0.1471  1.1480
 5459TIP3   OH216319   0.417   7.338   2.588 -0.3679  0.4031 -0.0110
 5459TIP3    H116320   0.462   7.411   2.547 -0.5380 -0.6677 -2.2626
 5459TIP3    H216321   0.418   7.269   2.522 -2.0603 -0.9205  1.2413
 5460TIP3   OH216322   4.621   4.082   3.937 -0.5527 -0.1315 -0.1310
 5460TIP3    H116323   4.597   4.163   3.983 -1.7198 -0.0403 -0.8681
 5460TIP3    H216324   4.538   4.047   3.906  0.2263  0.1151 -2.6931
 5461TIP3   OH216325   1.838   0.631   2.065 -0.3942  0.3423  0.5405
 5461TIP3    H116326   1.848   0.682   2.146 -0.6369 -0.5205  1.1348
 5461TIP3    H216327   1.916   0.650   2.014  0.2886  0.0663  1.4612
 5462TIP3   OH216328   3.525   2.441   3.426  0.1125  0.1475  0.1752
 5462TIP3    H116329   3.593   2.379   3.399  1.8856  3.0107 -2.6317
 5462TIP3    H216330   3.450   2.420   3.370  0.1749 -0.3840  0.2875
 5463TIP3   OH216331   6.519   6.951   6.016  0.6018  0.0322  0.0303
 5463TIP3    H116332   6.543   6.859   6.002  0.0526 -0.1860  0.4713
 5463TIP3    H216333   6.566   6.999   5.948  1.2210 -0.5278  0.0582
 5464TIP3   OH216334   6.890   4.335   6.284 -0.1214  0.1230  0.2972
 5464TIP3    H116335   6.981   4.353   6.305 -0.3867 -0.2478  1.8601
 5464TIP3    H216336   6.890   4.320   6.189  1.2940  0.9303  0.1476
 5465TIP3   OH216337   7.386   6.633   2.299 -0.2420 -0.0762 -0.0677
 5465TIP3    H116338   7.291   6.629   2.300 -0.3509  1.6536  0.4126
 5465TIP3    H216339   7.408   6.687   2.223  0.2556  0.7125  0.6097
 5466TIP3   OH216340   3.072   4.517   3.151 -0.2118 -0.0094 -0.3567
 5466TIP3    H116341   3.135   4.585   3.125  1.4740 -0.3036  2.5143
 5466TIP3    H216342   3.101   4.438   3.106  0.3124  0.3023 -0.5702
 5467TIP3   OH216343   8.173   3.922   4.434 -0.2366 -0.4145  0.4540
 5467TIP3    H116344   8.179   3.891   4.525  0.0799 -0.3589  0.4553
 5467TIP3    H216345   8.193   3.846   4.381  0.5967 -0.2087  0.4589
 5468TIP3   OH216346   7.048   5.903   2.605  0.8197  0.4249 -0.0788
 5468TIP3    H116347   7.039   5.841   2.678 -2.3542 -0.5278 -1.1178
 5468TIP3    H216348   7.054   5.989   2.647 -3.2790  0.1519  1.4741
 5469TIP3   OH216349   8.076   2.583   0.879 -0.3352 -0.3616  0.4277
 5469TIP3    H116350   8.166   2.566   0.908 -1.0345 -2.9483  1.3853
 5469TIP3    H216351   8.035   2.628   0.954  0.1774  1.1112 -0.1305
 5470TIP3   OH216352   7.555   6.487   4.843 -0.6463 -0.0165  0.0798
 5470TIP3    H116353   7.527   6.488   4.752  0.9829 -0.6727 -0.4742
 5470TIP3    H216354   7.572   6.394   4.862  2.1026  0.3686 -0.0286
 5471TIP3   OH216355   3.717   3.952   3.521 -0.3322  0.1734  0.1231
 5471TIP3    H116356   3.788   4.010   3.491 -0.7829  0.8780  0.3853
 5471TIP3    H216357   3.668   4.005   3.584 -0.8418 -0.4548  0.2651
 5472TIP3   OH216358   0.037   5.573   0.658  0.3763 -0.1575 -0.5967
 5472TIP3    H116359   0.099   5.500   0.652 -0.7546 -1.0537 -1.9338
 5472TIP3    H216360  -0.046   5.537   0.627 -0.9166  0.9395  1.3902
 5473TIP3   OH216361   4.968   1.947   2.552 -0.7371 -0.1488  0.3275
 5473TIP3    H116362   5.027   1.968   2.480 -0.4304 -1.3471  0.2105
 5473TIP3    H216363   4.903   2.018   2.552  1.9148  2.5347  1.8710
 5474TIP3   OH216364   2.637   0.392   5.474 -0.7080 -0.5613 -0.5585
 5474TIP3    H116365   2.688   0.462   5.433 -0.3534  0.1974  1.0880
 5474TIP3    H216366   2.692   0.362   5.546 -1.7533 -1.0800  0.0408
 5475TIP3   OH216367   6.954   5.578   6.726  0.6710 -0.4263 -0.2600
 5475TIP3    H116368   6.917   5.510   6.668 -1.3373 -0.7105  1.2366
 5475TIP3    H216369   7.046   5.553   6.736  0.3917 -1.9588 -1.0965
 5476TIP3   OH216370   0.018   1.248   0.101  0.1830  0.3671 -0.4988
 5476TIP3    H116371   0.082   1.249   0.173 -0.3628 -1.8838  0.0994
 5476TIP3    H216372  -0.054   1.302   0.132 -0.0323 -0.5497  0.6629
 5477TIP3   OH216373   5.561   3.254   6.454 -0.1968  0.3012  0.2411
 5477TIP3    H116374   5.471   3.228   6.435 -0.1305 -0.1235  0.5041
 5477TIP3    H216375   5.575   3.332   6.400 -1.7077  2.2172  2.3862
 5478TIP3   OH216376   2.742   4.682   2.684 -0.1114  0.5917 -0.5297
 5478TIP3    H116377   2.814   4.713   2.739 -0.4428  2.9069 -1.2722
 5478TIP3    H216378   2.723   4.594   2.715  2.8328  0.0104 -0.1190
 5479TIP3   OH216379   7.296   6.819   3.189  0.0779  0.2970  0.1857
 5479TIP3    H116380   7.345   6.754   3.239 -0.3165  0.0461  0.2566
 5479TIP3    H216381   7.211   6.823   3.233 -0.3122 -0.0117 -0.5211
 5480TIP3   OH216382   4.023   0.266   6.499  0.3418  0.1703 -0.8425
 5480TIP3    H116383   3.986   0.292   6.583  0.3939  1.9830 -1.3519
 5480TIP3    H216384   4.116   0.286   6.506  0.4575 -0.2329 -1.1403
 5481TIP3   OH216385   3.975   1.263   3.029 -0.0035  0.1896  0.0138
 5481TIP3    H116386   4.013   1.280   3.115 -0.7386 -0.6259  0.5200
 5481TIP3    H216387   3.936   1.347   3.003  0.8782  0.6454  0.1178
 5482TIP3   OH216388   4.480   4.793   6.178  0.2315 -0.5288 -0.2279
 5482TIP3    H116389   4.523   4.710   6.160 -0.7172 -1.0573 -0.1101
 5482TIP3    H216390   4.487   4.842   6.097  1.0900 -0.5830 -0.1963
 5483TIP3   OH216391   4.868   1.006   0.455 -0.2744  0.4630 -0.0455
 5483TIP3    H116392   4.938   1.000   0.389 -2.7297 -0.8721 -2.7226
 5483TIP3    H216393   4.828   1.092   0.439 -0.6804  0.2613 -0.1276
 5484TIP3   OH216394   2.243   0.649   5.374 -1.1417  0.4121  0.1183
 5484TIP3    H116395   2.206   0.636   5.287 -1.4967  0.7644  0.2136
 5484TIP3    H216396   2.258   0.744   5.379  0.4626  0.2001 -0.1998
 5485TIP3   OH216397   5.452   5.900   4.530  0.1544  0.1063 -0.2805
 5485TIP3    H116398   5.507   5.938   4.598  0.2919  0.0634 -0.3685
 5485TIP3    H216399   5.447   5.967   4.462  1.2058 -0.4080 -0.8820
 5486TIP3   OH216400   1.672   7.593   0.744  0.2003  0.5301  0.2819
 5486TIP3    H116401   1.653   7.569   0.834  0.5995  3.3486  1.2156
 5486TIP3    H216402   1.609   7.663   0.724 -0.1077 -0.2506 -1.7759
 5487TIP3   OH216403   7.964   7.491   1.749  0.1977  0.1476 -0.0752
 5487TIP3    H116404   7.938   7.535   1.830  1.6966 -1.3505  1.3120
 5487TIP3    H216405   7.882   7.463   1.709 -0.5958  1.3047  0.6915
 5488TIP3   OH216406   7.089   1.181   3.325 -0.2543  0.7793 -0.1845
 5488TIP3    H116407   7.046   1.251   3.373 -1.5307  0.4824 -0.8333
 5488TIP3    H216408   7.072   1.201   3.233 -1.2101 -0.6881 -0.3663
 5489TIP3   OH216409   7.040   5.883   5.265 -0.8624  0.0973 -0.5738
 5489TIP3    H116410   7.038   5.915   5.356  1.0195  0.4953 -0.6332
 5489TIP3    H216411   7.005   5.795   5.271 -0.0408 -0.1822  0.7049
 5490TIP3   OH216412   1.791   6.322   3.279 -0.1165  0.1316  0.1164
 5490TIP3    H116413   1.713   6.374   3.258  0.0622 -0.2798 -1.7442
 5490TIP3    H216414   1.800   6.330   3.374 -0.6409  2.6967  0.0385
 5491TIP3   OH216415   1.906   3.240   0.819  0.3599  0.4919  0.9257
 5491TIP3    H116416   1.983   3.192   0.851  0.5649 -0.1398 -0.4165
 5491TIP3    H216417   1.943   3.313   0.770  0.1827 -0.4687 -0.7219
 5492TIP3   OH216418   2.958   4.905   2.319  0.1781 -0.1746  0.0254
 5492TIP3    H116419   2.898   4.833   2.341 -1.6275  1.0197 -0.7883
 5492TIP3    H216420   2.930   4.933   2.232  1.6279  0.7716 -0.1656
 5493TIP3   OH216421   4.240   1.911   4.166 -0.0189  0.2386  0.0929
 5493TIP3    H116422   4.282   1.995   4.146 -1.0384  0.8534  0.4089
 5493TIP3    H216423   4.147   1.933   4.177 -0.5466 -1.1539 -1.1876
 5494TIP3   OH216424   2.173   2.915   5.082 -0.4002 -0.3807  0.1371
 5494TIP3    H116425   2.206   2.983   5.023  0.4211  0.9975  2.0741
 5494TIP3    H216426   2.090   2.950   5.116 -0.9539 -1.2314 -0.2998
 5495TIP3   OH216427   7.583   6.278   4.394 -0.4021 -0.2338 -0.1661
 5495TIP3    H116428   7.641   6.203   4.380 -0.7172 -0.2169 -1.7584
 5495TIP3    H216429   7.497   6.247   4.365 -0.6724  0.5395 -0.2032
 5496TIP3   OH216430   5.565   1.991   4.706  0.4009 -0.3575 -0.3247
 5496TIP3    H116431   5.636   1.954   4.759 -1.2118 -2.8016  0.3141
 5496TIP3    H216432   5.511   2.038   4.769 -1.7105 -3.5583  0.4946
 5497TIP3   OH216433   6.896   4.510   6.613  0.1842 -0.4481 -0.0146
 5497TIP3    H116434   6.835   4.437   6.600  1.4765 -1.8166  1.1030
 5497TIP3    H216435   6.884   4.534   6.705 -0.5262  1.0653 -0.4859
 5498TIP3   OH216436   1.181   4.236   5.401 -0.1824 -0.2502  0.3386
 5498TIP3    H116437   1.169   4.196   5.487 -2.2862  1.1050  0.7318
 5498TIP3    H216438   1.249   4.182   5.360  1.1375 -0.7663  2.9209
 5499TIP3   OH216439   7.108   1.974   3.122  0.4821 -0.8196 -0.2560
 5499TIP3    H116440   7.172   1.902   3.122  0.9461 -0.4105 -0.3149
 5499TIP3    H216441   7.161   2.053   3.114 -0.0447 -0.4808 -0.4086
 5500TIP3   OH216442   6.877   4.988   4.273  0.3816  0.3436  0.4842
 5500TIP3    H116443   6.953   4.941   4.238 -0.1190 -0.3597  0.3356
 5500TIP3    H216444   6.827   4.922   4.320  0.4113  1.0317  1.5189
 5501TIP3   OH216445  -0.030   7.654   5.911 -0.3278 -0.7287 -0.1130
 5501TIP3    H116446  -0.005   7.714   5.982  0.1303 -1.1191  0.0631
 5501TIP3    H216447   0.042   7.661   5.848 -1.6610  1.1362 -1.5425
 5502TIP3   OH216448   5.324   2.685   0.670 -0.2417  0.2973 -0.4366
 5502TIP3    H116449   5.338   2.768   0.716 -0.0270  0.5515 -0.9583
 5502TIP3    H216450   5.412   2.651   0.654 -0.3301 -0.9269  1.3632
 5503TIP3   OH216451   5.228   0.919   2.604  0.0949 -1.2075  0.4369
 5503TIP3    H116452   5.248   0.862   2.529 -0.8009 -0.6805 -0.2239
 5503TIP3    H216453   5.259   1.006   2.577 -2.2829 -0.5156 -0.3328
 5504TIP3   OH216454   7.799   3.369   5.220  0.2842  0.6541  0.2223
 5504TIP3    H116455   7.830   3.428   5.151 -0.9364  2.6803  1.2925
 5504TIP3    H216456   7.706   3.356   5.200  0.1700  0.4107  0.8825
 5505TIP3   OH216457   3.791   3.632   6.305  0.3419 -0.7241 -0.4404
 5505TIP3    H116458   3.735   3.677   6.368  0.3620 -0.0644 -0.8829
 5505TIP3    H216459   3.857   3.588   6.359  0.5169  0.0477 -0.0042
 5506TIP3   OH216460   2.851   5.905   6.348  0.0075  0.4253  0.5905
 5506TIP3    H116461   2.758   5.883   6.348  0.2327 -0.5812  0.9378
 5506TIP3    H216462   2.859   5.976   6.286 -0.8217 -0.2685 -0.3359
 5507TIP3   OH216463   5.310   4.788   4.765 -0.0505 -0.3238 -0.9170
 5507TIP3    H116464   5.246   4.809   4.832  0.3749  0.9561 -0.8760
 5507TIP3    H216465   5.263   4.797   4.682 -1.0835 -3.6581 -0.8457
 5508TIP3   OH216466   6.884   7.516   4.253 -0.7653 -0.3993  0.1832
 5508TIP3    H116467   6.954   7.453   4.235 -1.2781 -0.8649 -0.2067
 5508TIP3    H216468   6.861   7.552   4.167  0.9224  1.8627  0.6023
 5509TIP3   OH216469   5.771   1.776   0.171  0.5904 -0.0487  0.2496
 5509TIP3    H116470   5.792   1.868   0.157  0.3574 -0.2614 -1.7268
 5509TIP3    H216471   5.728   1.774   0.256  0.0673  1.7563  0.0586
 5510TIP3   OH216472   7.531   3.783   6.264  0.1845 -0.5055 -0.3823
 5510TIP3    H116473   7.488   3.821   6.187 -0.1568  1.6298  0.7639
 5510TIP3    H216474   7.624   3.796   6.247  0.0863  0.6425 -0.1630
 5511TIP3   OH216475   7.270   2.083   1.064  0.2063  0.1634  0.0338
 5511TIP3    H116476   7.322   2.145   1.013 -0.7804 -0.7115 -2.1861
 5511TIP3    H216477   7.333   2.015   1.089  0.8923  1.0620  0.8222
 5512TIP3   OH216478   0.927   1.620   5.690  0.1386  0.0524  0.5529
 5512TIP3    H116479   0.868   1.648   5.760  1.5624 -0.1981  1.9076
 5512TIP3    H216480   1.012   1.607   5.733  0.9048 -0.7847 -1.0951
 5513TIP3   OH216481   3.636   7.646   5.246 -0.4268  0.5833 -0.0638
 5513TIP3    H116482   3.686   7.575   5.287 -0.7540  0.2167 -0.2930
 5513TIP3    H216483   3.688   7.670   5.169 -0.2319  0.7048  0.1054
 5514TIP3   OH216484   7.809   0.642   5.555 -0.8189  0.6612 -0.4706
 5514TIP3    H116485   7.728   0.685   5.583 -0.7639  1.8112 -1.9926
 5514TIP3    H216486   7.872   0.712   5.546  1.4597 -0.4766  3.8353
 5515TIP3   OH216487   5.410   3.507   3.001 -0.3276 -0.6028  0.1911
 5515TIP3    H116488   5.458   3.589   2.993  0.7340 -1.1748  0.5724
 5515TIP3    H216489   5.319   3.534   3.013 -0.1026  0.5005 -0.4283
 5516TIP3   OH216490   3.006   5.206   0.343 -0.3216 -0.5586  0.2514
 5516TIP3    H116491   2.985   5.262   0.268  1.2433 -0.7577 -0.3692
 5516TIP3    H216492   2.996   5.117   0.310  1.0516 -0.6585  0.0313
 5517TIP3   OH216493   0.576   0.142   4.194  0.3610 -0.2368  0.5023
 5517TIP3    H116494   0.575   0.195   4.115  0.0784 -0.2893  0.4693
 5517TIP3    H216495   0.659   0.164   4.237  0.9692 -0.8929 -0.2709
 5518TIP3   OH216496   7.282   4.807   1.379  0.6439 -0.0808  0.6777
 5518TIP3    H116497   7.311   4.806   1.288 -0.2959  1.7165  0.3127
 5518TIP3    H216498   7.295   4.898   1.407 -1.8115  0.1034  1.4150
 5519TIP3   OH216499   2.924   6.836   6.482 -0.1595 -0.0766 -0.5913
 5519TIP3    H116500   2.920   6.757   6.428  0.4552  0.2032 -1.0593
 5519TIP3    H216501   2.952   6.804   6.568  1.1887 -0.2509 -1.0670
 5520TIP3   OH216502   4.678   0.803   3.572 -0.5293  0.5739 -0.2900
 5520TIP3    H116503   4.642   0.813   3.484 -0.3799 -0.2091 -0.4491
 5520TIP3    H216504   4.767   0.840   3.566 -0.7222  1.0351 -0.3176
 5521TIP3   OH216505   8.019   3.996   5.303  0.2444  0.6562 -0.2774
 5521TIP3    H116506   7.936   4.021   5.261 -0.6279  0.7258  1.3752
 5521TIP3    H216507   8.031   4.061   5.372  0.4822 -0.6320  0.9587
 5522TIP3   OH216508   6.189   1.037   0.055  0.8152  0.4886 -0.1776
 5522TIP3    H116509   6.165   0.972   0.121  0.0786 -1.2160 -2.0167
 5522TIP3    H216510   6.147   1.118   0.085  0.2964 -0.2833  1.3033
 5523TIP3   OH216511   1.988   0.476   0.045  0.3330 -0.6286  0.1284
 5523TIP3    H116512   2.050   0.431  -0.011 -0.3410 -0.4865 -0.7597
 5523TIP3    H216513   1.919   0.412   0.061  0.1967 -0.4552  0.2450
 5524TIP3   OH216514   5.648   4.621   5.575  0.0779  0.0571  0.3842
 5524TIP3    H116515   5.598   4.699   5.599 -0.6241 -0.5574  0.9482
 5524TIP3    H216516   5.739   4.647   5.588 -0.1491  0.7416  0.6865
 5525TIP3   OH216517   6.522   2.039   2.049  0.0375 -0.3752 -0.0711
 5525TIP3    H116518   6.601   2.088   2.028  0.8244 -1.8567 -0.6868
 5525TIP3    H216519   6.533   1.955   2.005 -1.5398 -0.8965  0.4588
 5526TIP3   OH216520   2.099   4.550   1.801 -0.3528 -0.3915 -0.6481
 5526TIP3    H116521   2.178   4.562   1.749  0.0540  1.9466  0.4017
 5526TIP3    H216522   2.126   4.492   1.872  0.5011  0.5035 -0.2167
 5527TIP3   OH216523   4.945   0.911   3.989 -0.6636 -0.3931 -0.3085
 5527TIP3    H116524   5.011   0.965   3.946  0.6242 -1.3229  0.4090
 5527TIP3    H216525   4.870   0.969   4.001  0.0151  0.6958 -1.1676
 5528TIP3   OH216526   7.903   2.505   2.371 -0.1583 -0.6676 -0.4479
 5528TIP3    H116527   7.989   2.520   2.412  0.2686 -1.1579 -1.1443
 5528TIP3    H216528   7.854   2.585   2.390  0.3275 -0.5252  0.2675
 5529TIP3   OH216529   7.946   2.722   6.683 -0.1437  0.2055  0.4473
 5529TIP3    H116530   7.887   2.781   6.638  0.2133  0.9574  0.9449
 5529TIP3    H216531   7.948   2.643   6.628 -0.6727  0.6226 -0.1824
 5530TIP3   OH216532   8.090   0.040   3.854 -0.1096 -0.1523 -0.2949
 5530TIP3    H116533   8.129   0.093   3.923  0.2413 -1.2782  0.3941
 5530TIP3    H216534   8.029   0.099   3.810 -0.0312  0.7043  0.7128
 5531TIP3   OH216535   6.343   3.066   4.325  0.0375  0.6369 -0.0181
 5531TIP3    H116536   6.369   3.064   4.233  1.7798  1.8430  0.4054
 5531TIP3    H216537   6.384   2.989   4.363  0.5543  0.9198  0.0197
 5532TIP3   OH216538   8.061   7.090   4.935 -0.4254 -0.3867 -0.5864
 5532TIP3    H116539   8.108   7.170   4.958 -0.7259 -0.4573  0.3169
 5532TIP3    H216540   8.040   7.101   4.842 -1.7320  1.2723 -0.1718
 5533TIP3   OH216541   4.362   0.773   5.070 -0.0241 -0.0195  0.4773
 5533TIP3    H116542   4.430   0.710   5.093  0.7252  0.7782  0.5026
 5533TIP3    H216543   4.281   0.722   5.071  0.6157 -1.0902  0.0005
 5534TIP3   OH216544   0.455   5.160   5.255 -0.3013 -0.4464 -0.1346
 5534TIP3    H116545   0.537   5.201   5.225  0.8404  1.2682  4.3743
 5534TIP3    H216546   0.391   5.231   5.250 -0.3296 -0.4278  0.4269
 5535TIP3   OH216547   6.779   0.159   2.982 -0.1663 -0.0572  0.3434
 5535TIP3    H116548   6.829   0.108   2.918 -1.1915  0.4752 -0.9202
 5535TIP3    H216549   6.694   0.116   2.986  0.3085 -0.9026  2.4157
 5536TIP3   OH216550   6.802   5.937   5.646  0.3117 -0.5760  0.3666
 5536TIP3    H116551   6.726   5.929   5.703  2.6579 -1.4857  3.6395
 5536TIP3    H216552   6.837   5.848   5.641  1.4595 -0.0889 -0.6341
 5537TIP3   OH216553   2.595   0.402   5.156  0.4597  0.1736 -0.6660
 5537TIP3    H116554   2.536   0.371   5.088 -0.7779 -0.3144  0.5603
 5537TIP3    H216555   2.544   0.395   5.237  1.7304  1.0847  0.2732
 5538TIP3   OH216556   4.798   4.985   6.211 -0.3471 -0.5854 -0.4002
 5538TIP3    H116557   4.745   4.913   6.247 -1.1489 -0.4067 -1.1681
 5538TIP3    H216558   4.742   5.062   6.221  1.2762  0.3552  2.2425
 5539TIP3   OH216559   6.095   0.668   3.335 -0.5900 -0.3290 -0.2237
 5539TIP3    H116560   6.051   0.738   3.383 -1.4622 -0.3421 -0.9863
 5539TIP3    H216561   6.090   0.695   3.244 -1.5244 -1.6983 -0.5941
 5540TIP3   OH216562   1.197   1.592   3.001 -0.2776 -0.0116  0.1317
 5540TIP3    H116563   1.109   1.586   3.040  0.4265 -1.3812  1.6418
 5540TIP3    H216564   1.197   1.525   2.933 -0.9226  1.1368 -1.0237
 5541TIP3   OH216565   5.249   7.661   2.497 -0.6238 -0.1381  0.3108
 5541TIP3    H116566   5.204   7.614   2.426  1.2518 -0.7502 -0.5520
 5541TIP3    H216567   5.267   7.594   2.562  1.4489 -0.5542 -0.6143
 5542TIP3   OH216568   0.693   3.460   3.592 -0.6996  1.0859  0.3892
 5542TIP3    H116569   0.705   3.486   3.501 -0.4805  1.7486  0.5988
 5542TIP3    H216570   0.774   3.488   3.636 -0.0923 -0.6928  0.4873
 5543TIP3   OH216571   1.839   1.283   0.515  0.0028 -0.8046  0.0342
 5543TIP3    H116572   1.898   1.354   0.541 -2.4569  2.2549 -1.9543
 5543TIP3    H216573   1.880   1.244   0.438  1.0701 -1.1667  0.7663
 5544TIP3   OH216574   7.042   3.591   0.697  0.8067 -0.4527  0.4541
 5544TIP3    H116575   6.947   3.601   0.691  0.8476 -0.3329  0.0071
 5544TIP3    H216576   7.072   3.591   0.606  1.2732 -0.1278  0.6079
 5545TIP3   OH216577   2.396   6.022   5.207 -0.1909  0.0587  0.1181
 5545TIP3    H116578   2.320   6.069   5.241 -0.9458 -0.8075 -0.3341
 5545TIP3    H216579   2.383   6.021   5.112  0.0756 -0.6211  0.0839
 5546TIP3   OH216580   1.710   0.310   5.192 -0.3478 -0.0105  0.1706
 5546TIP3    H116581   1.646   0.353   5.135 -0.7111  2.1311  2.0406
 5546TIP3    H216582   1.745   0.381   5.245  2.6519 -1.3455  0.1353
 5547TIP3   OH216583   6.060   0.851   1.906  0.3994 -0.4683  0.4477
 5547TIP3    H116584   6.116   0.793   1.958  1.7019  0.8705  0.6331
 5547TIP3    H216585   6.111   0.868   1.827  0.6740  1.4305  0.9776
 5548TIP3   OH216586   6.374   3.291   3.520  0.6924  0.2444 -0.0159
 5548TIP3    H116587   6.430   3.219   3.547  0.8570 -0.1279 -1.3222
 5548TIP3    H216588   6.397   3.308   3.429 -0.0833  1.2515 -0.0470
 5549TIP3   OH216589   5.860   5.220   3.369  0.5014 -0.1446 -0.3221
 5549TIP3    H116590   5.803   5.189   3.440  1.2032  0.0745  0.3596
 5549TIP3    H216591   5.944   5.239   3.413  0.2458  2.3208 -0.7421
 5550TIP3   OH216592   1.279   5.795   3.116  0.1045  0.3500 -0.0767
 5550TIP3    H116593   1.228   5.761   3.190  0.0045  1.7569  0.5346
 5550TIP3    H216594   1.245   5.883   3.102  0.5975  0.3483 -1.3755
 5551TIP3   OH216595   8.204   3.682   3.754 -0.9323 -0.1709 -0.3251
 5551TIP3    H116596   8.164   3.634   3.826 -0.9133 -1.0814 -0.9001
 5551TIP3    H216597   8.289   3.640   3.741 -0.9318 -0.0180 -0.8615
 5552TIP3   OH216598   2.349   0.103   4.798 -0.3414  0.4033  0.5428
 5552TIP3    H116599   2.424   0.107   4.857  0.6838 -1.2967 -0.5486
 5552TIP3    H216600   2.380   0.143   4.717 -1.0320  0.8089  0.4687
 5553TIP3   OH216601   2.901   4.009   6.114  0.5462  0.5621 -0.0867
 5553TIP3    H116602   2.985   4.008   6.160  0.0327  0.8042  0.8903
 5553TIP3    H216603   2.923   3.986   6.024  1.7050  0.9360  0.0764
 5554TIP3   OH216604   1.745   4.735   6.418  0.3629  0.3394  0.8252
 5554TIP3    H116605   1.666   4.788   6.408 -0.2802 -0.6832  0.4245
 5554TIP3    H216606   1.754   4.722   6.512  0.3848  0.9321  0.9092
 5555TIP3   OH216607   5.562   4.230   3.901 -0.2304  0.1518 -0.2615
 5555TIP3    H116608   5.470   4.219   3.923 -0.0913 -1.0430 -0.2020
 5555TIP3    H216609   5.601   4.269   3.979 -0.6999  0.7411 -0.3202
 5556TIP3   OH216610   7.246   7.728   5.708  0.4927 -0.3269 -0.2538
 5556TIP3    H116611   7.196   7.808   5.721  0.2242 -0.6637  0.8348
 5556TIP3    H216612   7.222   7.699   5.620 -1.1034 -0.3900  0.1740
 5557TIP3   OH216613   4.580   7.329   4.712 -0.4036  1.2856 -0.0495
 5557TIP3    H116614   4.611   7.338   4.622 -1.9018  1.1619 -0.5921
 5557TIP3    H216615   4.498   7.281   4.705 -0.3294  0.9082  1.4271
 5558TIP3   OH216616   5.221   0.442   1.483 -0.1259  0.4138  0.0651
 5558TIP3    H116617   5.271   0.375   1.435 -0.4447  0.3099 -0.1248
 5558TIP3    H216618   5.288   0.502   1.517  0.0197  1.9798 -2.6782
 5559TIP3   OH216619   3.154   4.314   2.966 -0.6037  0.1866 -0.3000
 5559TIP3    H116620   3.207   4.236   2.984  0.6680  0.8872 -0.8632
 5559TIP3    H216621   3.170   4.333   2.874  0.9597  2.4167  0.3434
 5560TIP3   OH216622   1.684   0.354   3.663  0.3425 -0.1613 -0.7111
 5560TIP3    H116623   1.597   0.393   3.670  0.5463  0.3083 -0.7914
 5560TIP3    H216624   1.738   0.404   3.724  0.6864 -0.0865 -1.0730
 5561TIP3   OH216625   7.889   2.458   6.599 -0.2942 -0.1290  0.3759
 5561TIP3    H116626   7.966   2.404   6.582 -0.2139  0.0716  0.0863
 5561TIP3    H216627   7.837   2.451   6.519 -0.5105 -0.1538  0.5185
 5562TIP3   OH216628   6.780   4.497   2.842  0.0192 -0.2902  0.3430
 5562TIP3    H116629   6.703   4.549   2.821 -2.0529 -2.8524  1.0120
 5562TIP3    H216630   6.811   4.531   2.926 -0.4041  0.7205  0.0992
 5563TIP3   OH216631   0.209   3.359   2.622  0.0412  0.3661  0.1528
 5563TIP3    H116632   0.168   3.276   2.598  1.5692 -0.0088 -1.4051
 5563TIP3    H216633   0.148   3.426   2.591  0.5530 -0.1674 -2.2031
 5564TIP3   OH216634   1.218   4.716   3.386  0.0303  0.0956 -0.4029
 5564TIP3    H116635   1.126   4.741   3.395 -0.1962 -0.9048  0.1399
 5564TIP3    H216636   1.216   4.628   3.349  0.7910  0.2351 -0.8182
 5565TIP3   OH216637   3.980   1.027   0.840 -0.0693 -0.6843 -0.2699
 5565TIP3    H116638   3.958   1.010   0.931 -0.2309 -1.4441 -0.4429
 5565TIP3    H216639   3.940   1.113   0.821  2.1052  0.6930  1.0680
 5566TIP3   OH216640   2.704   7.313   2.924  0.6508 -0.6359  0.1183
 5566TIP3    H116641   2.797   7.325   2.942  0.1401 -0.2514  2.9272
 5566TIP3    H216642   2.689   7.363   2.844  2.8606 -0.8481 -0.4935
 5567TIP3   OH216643   6.504   0.225   0.996 -0.4785  0.4269  0.3780
 5567TIP3    H116644   6.410   0.241   0.988 -0.7007 -1.1603 -0.7177
 5567TIP3    H216645   6.542   0.265   0.917 -0.4114 -0.0497  0.1644
 5568TIP3   OH216646   6.268   7.696   3.423 -0.0253 -0.3166  0.0610
 5568TIP3    H116647   6.264   7.726   3.332  0.7903  2.3948  0.8055
 5568TIP3    H216648   6.237   7.771   3.474  0.7069 -1.3145  2.0774
 5569TIP3   OH216649   4.588   4.606   6.010 -0.1228  0.6174 -0.4391
 5569TIP3    H116650   4.664   4.614   5.952  0.9716  1.9788  1.0841
 5569TIP3    H216651   4.522   4.562   5.957  1.4254  0.1861 -2.1082
 5570TIP3   OH216652   7.099   4.566   4.630 -0.2394 -0.4308 -0.2303
 5570TIP3    H116653   7.019   4.590   4.677 -0.4049 -0.4894 -0.4802
 5570TIP3    H216654   7.170   4.589   4.690 -0.4474 -0.4466  0.0221
 5571TIP3   OH216655   1.045   0.895   2.585  1.2445 -0.0463  0.3954
 5571TIP3    H116656   1.001   0.967   2.629  1.4817 -0.4381  1.3129
 5571TIP3    H216657   0.977   0.828   2.573  1.1984  0.0279  0.2435
 5572TIP3   OH216658   2.530   7.219   4.264  0.2486  0.5861  0.2565
 5572TIP3    H116659   2.447   7.230   4.218  0.9035  1.6252 -0.7322
 5572TIP3    H216660   2.595   7.256   4.205  1.3125  0.5864  1.3913
 5573TIP3   OH216661   4.171   0.074   1.769  0.1270  0.2961 -0.9596
 5573TIP3    H116662   4.266   0.069   1.784  0.0761 -0.7581 -0.8774
 5573TIP3    H216663   4.151  -0.007   1.721 -1.0103 -0.4553  0.6824
 5574TIP3   OH216664   4.175   0.029   2.835 -0.2136  0.4873  0.5406
 5574TIP3    H116665   4.267   0.054   2.822  0.1793 -0.3695  1.4596
 5574TIP3    H216666   4.172  -0.063   2.808 -1.0200  0.7527 -0.3250
 5575TIP3   OH216667   7.697   3.008   2.384  0.1689 -0.2852  0.5340
 5575TIP3    H116668   7.791   2.994   2.372  0.0810 -1.4236  0.9904
 5575TIP3    H216669   7.683   3.101   2.364  1.1417 -0.4360 -1.0015
 5576TIP3   OH216670   2.894   7.525   4.634 -0.3170 -0.9156 -0.2683
 5576TIP3    H116671   2.925   7.572   4.556 -2.0407 -0.9964 -1.0682
 5576TIP3    H216672   2.871   7.595   4.696  0.9630 -0.8474  0.1487
 5577TIP3   OH216673   7.113   4.731   0.065  0.5372  0.5021  0.6019
 5577TIP3    H116674   7.089   4.723   0.157  0.0147 -1.0914  0.3645
 5577TIP3    H216675   7.089   4.821   0.041  1.7493  1.3217  2.2859
 5578TIP3   OH216676   0.570   3.522   1.202  0.2402  0.0411  0.3369
 5578TIP3    H116677   0.577   3.453   1.267 -4.4241 -0.5084  0.5853
 5578TIP3    H216678   0.586   3.478   1.118 -0.7921 -0.9821  0.6472
 5579TIP3   OH216679   1.392   2.212   4.389  0.4067  0.2389 -0.1424
 5579TIP3    H116680   1.415   2.267   4.463  3.4606 -1.8371  0.6195
 5579TIP3    H216681   1.395   2.270   4.313  4.8712  1.0949  0.4217
 5580TIP3   OH216682   4.070   1.882   2.076 -0.3049  0.4948  0.2623
 5580TIP3    H116683   4.053   1.802   2.127  2.3438 -0.3319  0.0215
 5580TIP3    H216684   4.164   1.879   2.058 -0.6121  2.2882 -2.1581
 5581TIP3   OH216685   8.228   4.873   3.722 -0.2192 -0.2148  0.1288
 5581TIP3    H116686   8.260   4.905   3.807  0.8566 -0.6261 -0.1111
 5581TIP3    H216687   8.160   4.810   3.745 -2.2238  1.9879  0.6157
 5582TIP3   OH216688   6.140   0.349   3.719  0.4742  0.2161  0.5069
 5582TIP3    H116689   6.092   0.336   3.801 -0.5627 -2.2198 -0.3956
 5582TIP3    H216690   6.103   0.430   3.683 -1.3307 -0.3584  0.9701
 5583TIP3   OH216691   0.397   7.795   3.259 -0.3843 -0.4783 -0.6350
 5583TIP3    H116692   0.360   7.743   3.330 -0.5009 -0.4590 -0.6806
 5583TIP3    H216693   0.345   7.876   3.258  1.1879  0.6368  0.8715
 5584TIP3   OH216694   0.750   3.190   0.044 -0.3032  0.6614  0.3878
 5584TIP3    H116695   0.667   3.163   0.084  0.2016 -2.3020 -0.3899
 5584TIP3    H216696   0.817   3.148   0.098  0.6134  1.2390 -0.2806
 5585TIP3   OH216697   4.461   5.145   3.582 -0.2179  0.3341 -0.7457
 5585TIP3    H116698   4.442   5.096   3.501  2.3375 -1.1602 -0.5368
 5585TIP3    H216699   4.540   5.104   3.617  0.1720  2.5676  1.2256
 5586TIP3   OH216700   5.669   1.324   4.873 -0.4605  0.5557 -0.3662
 5586TIP3    H116701   5.590   1.274   4.894  1.0790 -1.2425  1.6526
 5586TIP3    H216702   5.707   1.278   4.799 -0.1199 -0.0391  0.1679
 5587TIP3   OH216703   0.073   3.684   4.084 -0.1659 -0.1072  0.7888
 5587TIP3    H116704   0.125   3.672   4.005 -3.2475 -1.4693 -1.2478
 5587TIP3    H216705   0.115   3.756   4.130  2.7161 -0.3413 -1.2415
 5588TIP3   OH216706   7.002   4.687   2.408 -0.2564  0.3082  0.4101
 5588TIP3    H116707   7.039   4.701   2.320 -0.5443  0.3779  0.3003
 5588TIP3    H216708   7.021   4.596   2.427  0.4981  0.4909  0.5986
 5589TIP3   OH216709   1.465   1.362   1.016  0.3780 -0.2594  0.1953
 5589TIP3    H116710   1.511   1.287   1.055 -0.2086  0.1506  1.7481
 5589TIP3    H216711   1.505   1.438   1.058 -0.0368  0.2245 -0.2859
 5590TIP3   OH216712   3.997   4.775   2.279  0.0857 -0.1615  0.3128
 5590TIP3    H116713   4.069   4.713   2.265  1.8523  1.5759  1.1781
 5590TIP3    H216714   4.005   4.799   2.372 -0.6890  1.1476  0.0594
 5591TIP3   OH216715   8.309   0.281   5.183  0.5509 -0.6665  0.0951
 5591TIP3    H116716   8.256   0.357   5.206  1.2030  0.0485 -0.6806
 5591TIP3    H216717   8.266   0.207   5.225  0.2222  0.2114  1.3429
 5592TIP3   OH216718   3.616   7.616   1.144  0.4980 -0.3914  0.4269
 5592TIP3    H116719   3.532   7.659   1.132  0.9066  0.0839 -0.9546
 5592TIP3    H216720   3.615   7.543   1.082  0.6595 -1.0933  1.2270
 5593TIP3   OH216721   8.123   3.518   5.352  0.0646  0.0924 -0.0758
 5593TIP3    H116722   8.145   3.435   5.394  1.1378 -0.2556 -1.2849
 5593TIP3    H216723   8.192   3.579   5.378 -0.1071  0.2995 -0.0959
 5594TIP3   OH216724   0.284   5.948   2.979  0.0373  0.0127  0.2883
 5594TIP3    H116725   0.212   5.886   2.994 -0.5296  0.6165  0.0850
 5594TIP3    H216726   0.298   5.946   2.885  1.1637 -1.0633  0.4594
 5595TIP3   OH216727   2.343   1.558   3.435 -0.4668 -0.2504  0.2028
 5595TIP3    H116728   2.254   1.594   3.430 -1.5284 -2.1717  3.0174
 5595TIP3    H216729   2.343   1.486   3.373 -0.4204  0.5399 -0.7407
 5596TIP3   OH216730   0.664   4.356   6.025 -0.2619  0.5501 -0.4399
 5596TIP3    H116731   0.693   4.279   6.074  0.1516  0.8136 -0.2709
 5596TIP3    H216732   0.626   4.321   5.945  1.1964  0.2382 -1.0180
 5597TIP3   OH216733   5.757   0.301   5.604 -0.0925 -0.1937 -0.5115
 5597TIP3    H116734   5.799   0.321   5.521  0.7424  1.8678  0.3400
 5597TIP3    H216735   5.677   0.353   5.604 -0.8034 -1.2603 -0.5825
 5598TIP3   OH216736   3.870   3.481   2.590  0.0123 -0.2427  0.5323
 5598TIP3    H116737   3.792   3.476   2.645 -0.1177 -0.2788  0.3477
 5598TIP3    H216738   3.929   3.415   2.625  0.7612  1.1114  1.9099
 5599TIP3   OH216739   3.398   6.142   3.892 -0.7654 -0.1175  0.2211
 5599TIP3    H116740   3.308   6.115   3.874 -1.7253  1.7467  1.8406
 5599TIP3    H216741   3.428   6.180   3.809 -1.4908 -0.6626 -0.3065
 5600TIP3   OH216742   1.871   7.092   6.322 -0.0813  0.7271 -0.0206
 5600TIP3    H116743   1.861   7.141   6.404  0.8154  0.4117  0.2829
 5600TIP3    H216744   1.961   7.060   6.323 -0.3189 -0.0115 -0.7327
 5601TIP3   OH216745   1.642   4.990   4.442  0.3190  0.0014 -0.5678
 5601TIP3    H116746   1.672   4.899   4.436 -0.3503 -0.3615  1.1264
 5601TIP3    H216747   1.723   5.041   4.451  0.6418 -0.5093 -0.5464
 5602TIP3   OH216748   7.966   3.272   1.648  0.2287 -0.0541 -0.0376
 5602TIP3    H116749   7.900   3.220   1.602 -0.7271 -0.2982  1.5197
 5602TIP3    H216750   7.978   3.350   1.594  0.2389 -0.9665 -1.4116
 5603TIP3   OH216751   5.694   7.355   3.971 -0.2907  0.6404 -0.0463
 5603TIP3    H116752   5.614   7.327   4.016 -0.9041  0.3957 -1.2513
 5603TIP3    H216753   5.724   7.277   3.924  1.5560  0.2701  1.6067
 5604TIP3   OH216754   0.040   0.731   3.686  0.0012 -0.3980 -0.2460
 5604TIP3    H116755   0.114   0.682   3.721  2.8710  1.8508 -2.6000
 5604TIP3    H216756   0.017   0.686   3.605  0.8853  0.5947 -1.0684
 5605TIP3   OH216757   5.900   2.489   2.078 -0.0747 -0.6311  0.4861
 5605TIP3    H116758   5.811   2.473   2.048 -0.3491 -2.5034  2.1251
 5605TIP3    H216759   5.946   2.521   2.000 -1.5962 -1.9177 -1.0198
 5606TIP3   OH216760   7.422   3.382   2.734 -0.4988  0.1508 -0.1021
 5606TIP3    H116761   7.432   3.374   2.829  1.8344 -0.3083 -0.3076
 5606TIP3    H216762   7.354   3.318   2.712  0.3299 -1.2149  1.0758
 5607TIP3   OH216763   6.522   4.062   2.195 -0.1768 -0.1871  0.2687
 5607TIP3    H116764   6.468   4.016   2.259  0.7118 -0.3496  0.9173
 5607TIP3    H216765   6.469   4.136   2.167 -0.3534  0.2286  1.6405
 5608TIP3   OH216766   5.704   4.300   3.253  0.0254  0.0109  0.0784
 5608TIP3    H116767   5.675   4.377   3.303 -0.4244 -0.2296  0.1920
 5608TIP3    H216768   5.704   4.229   3.317  1.8929  0.2020  0.3556
 5609TIP3   OH216769   7.856   5.096   4.553  0.1590 -0.0897 -0.3424
 5609TIP3    H116770   7.839   5.013   4.597 -0.7092 -0.6792 -1.7371
 5609TIP3    H216771   7.949   5.114   4.570  0.5757 -1.7593 -0.7027
 5610TIP3   OH216772   4.346   6.755   0.555 -0.2875  0.3586 -0.6230
 5610TIP3    H116773   4.345   6.677   0.611 -1.8485  0.5982 -0.2562
 5610TIP3    H216774   4.392   6.728   0.476 -0.6078 -0.8727 -0.4109
 5611TIP3   OH216775   5.253   6.657   1.767 -0.5659  0.1005  0.2349
 5611TIP3    H116776   5.190   6.617   1.828  0.2687 -0.3365  0.8300
 5611TIP3    H216777   5.335   6.662   1.817 -0.5271  2.2283  0.0503
 5612TIP3   OH216778   3.768   6.939   5.861 -0.1775  0.0422  0.3598
 5612TIP3    H116779   3.684   6.937   5.815 -1.0021 -0.1712  1.7976
 5612TIP3    H216780   3.755   6.881   5.937  2.5333 -3.1732 -1.3701
 5613TIP3   OH216781   4.139   4.612   0.948 -0.3384 -0.2868  0.2273
 5613TIP3    H116782   4.125   4.529   0.994  0.6760 -1.4862 -1.4916
 5613TIP3    H216783   4.055   4.658   0.954 -0.9871 -1.5264  1.0381
 5614TIP3   OH216784   5.638   6.341   1.817 -0.0003  0.0876  0.0388
 5614TIP3    H116785   5.549   6.312   1.837  0.4140 -0.1111  1.8369
 5614TIP3    H216786   5.650   6.419   1.871  0.1000  1.6339 -2.0871
 5615TIP3   OH216787   1.143  -0.024   2.151 -0.5130  0.2573 -0.2393
 5615TIP3    H116788   1.229   0.014   2.173 -0.1069 -0.3081 -0.8232
 5615TIP3    H216789   1.081   0.030   2.200  0.0249  1.8151 -1.1784
 5616TIP3   OH216790   1.855   1.336   0.033 -0.1534 -0.5555 -0.0314
 5616TIP3    H116791   1.759   1.336   0.043  0.0031 -1.2702  1.8702
 5616TIP3    H216792   1.873   1.257  -0.018 -0.5423 -0.8122  0.2184
 5617TIP3   OH216793   1.075   6.560   1.192 -0.2805 -0.7583 -0.3220
 5617TIP3    H116794   0.980   6.565   1.192 -0.3647 -1.3903 -2.1130
 5617TIP3    H216795   1.100   6.557   1.284 -1.9845 -0.6713  0.1693
 5618TIP3   OH216796   0.653   0.899   3.190  0.0437  0.2782  0.0909
 5618TIP3    H116797   0.706   0.959   3.136 -2.5606  0.9194 -1.9147
 5618TIP3    H216798   0.646   0.820   3.138  0.0452 -0.2813  0.9223
 5619TIP3   OH216799   5.805   6.685   3.054 -0.6910  0.1086 -0.1600
 5619TIP3    H116800   5.798   6.755   2.989 -2.4258  1.0244  0.9358
 5619TIP3    H216801   5.725   6.634   3.044  0.4957 -1.6956 -0.8456
 5620TIP3   OH216802   5.851   5.656   2.748 -0.4917 -0.2847 -0.2110
 5620TIP3    H116803   5.939   5.626   2.728 -0.5630 -1.0095  0.4975
 5620TIP3    H216804   5.794   5.583   2.722 -0.6353 -1.0005  1.9124
 5621TIP3   OH216805   1.283   0.836   3.511  0.1132 -0.6209  0.1423
 5621TIP3    H116806   1.334   0.913   3.536  0.6000 -0.9357  0.1482
 5621TIP3    H216807   1.273   0.786   3.592 -0.2337 -0.5439  0.1464
 5622TIP3   OH216808   7.935   1.926   2.820 -0.5356 -0.8065  0.3638
 5622TIP3    H116809   7.876   2.001   2.830 -0.7902 -1.1252  1.3198
 5622TIP3    H216810   7.892   1.855   2.868 -1.0185 -2.0050 -1.6982
 5623TIP3   OH216811   4.898   2.752   0.221 -0.3942  0.0677  0.0186
 5623TIP3    H116812   4.836   2.678   0.224 -0.7243  0.3590  2.3075
 5623TIP3    H216813   4.842   2.829   0.215 -0.2763  0.3052  1.6102
 5624TIP3   OH216814   2.982   5.710   5.538 -0.2679 -0.4918  0.2755
 5624TIP3    H116815   3.011   5.693   5.448  1.2115  2.0092  0.2072
 5624TIP3    H216816   2.918   5.780   5.530 -1.8347 -1.7851  1.0216
 5625TIP3   OH216817   0.172   6.789   3.000  0.4917  0.3138 -0.3432
 5625TIP3    H116818   0.142   6.877   2.976  1.9149  0.9555  0.1502
 5625TIP3    H216819   0.138   6.732   2.931 -1.5987  1.0168  0.0315
 5626TIP3   OH216820   3.276   5.329   1.122  0.3546 -0.1448 -0.0778
 5626TIP3    H116821   3.323   5.399   1.076 -0.7294  0.2971 -0.5266
 5626TIP3    H216822   3.343   5.262   1.138  1.6092  1.3124  1.0591
 5627TIP3   OH216823   2.807   5.744   1.480  0.2465 -0.1963 -0.0982
 5627TIP3    H116824   2.800   5.738   1.385 -3.3833  1.5597 -0.1152
 5627TIP3    H216825   2.775   5.659   1.512  2.1763 -1.0709 -0.3711
 5628TIP3   OH216826   5.791   3.205   0.163 -0.1434  0.1249 -0.2433
 5628TIP3    H116827   5.816   3.189   0.072  2.9289 -0.5533  0.6225
 5628TIP3    H216828   5.758   3.295   0.163  0.3229  0.3274 -1.9157
 5629TIP3   OH216829   8.103   5.444   6.088  0.5362 -0.1659 -0.0951
 5629TIP3    H116830   8.016   5.412   6.114  0.5253 -1.7006 -1.8384
 5629TIP3    H216831   8.088   5.485   6.002  1.3420  0.6810  0.1534
 5630TIP3   OH216832   7.055   3.819   3.158 -0.1645 -0.3165 -0.1099
 5630TIP3    H116833   7.057   3.822   3.254  1.1983 -0.1026 -0.1307
 5630TIP3    H216834   7.073   3.910   3.131 -1.2862 -0.2173 -0.5748
 5631TIP3   OH216835   3.719   3.558   5.852 -0.5844 -0.1700  0.4316
 5631TIP3    H116836   3.722   3.469   5.817  0.1284 -0.1821  0.4984
 5631TIP3    H216837   3.658   3.553   5.925 -1.8475 -0.2165 -0.5952
 5632TIP3   OH216838   1.379   5.563   1.253 -0.4949 -0.4963  0.0013
 5632TIP3    H116839   1.330   5.626   1.200 -1.1704 -0.7519  0.3175
 5632TIP3    H216840   1.398   5.491   1.193  0.2693 -0.0190 -0.3587
 5633TIP3   OH216841   2.018   7.433   2.806 -1.0096  0.2567  0.5238
 5633TIP3    H116842   2.074   7.499   2.846  0.4186 -0.6739  0.1208
 5633TIP3    H216843   2.050   7.350   2.839 -1.0721 -0.4113 -0.9976
 5634TIP3   OH216844   2.883   3.002   6.295 -0.3290  0.2386  0.3964
 5634TIP3    H116845   2.907   2.993   6.202 -1.2984 -1.7703  0.2856
 5634TIP3    H216846   2.788   3.005   6.294 -0.3874 -0.9265  1.3921
 5635TIP3   OH216847   6.993   5.207   4.406 -0.2347  0.1292  0.1341
 5635TIP3    H116848   6.934   5.259   4.461 -0.9514 -1.1169  0.5938
 5635TIP3    H216849   6.937   5.140   4.367  0.6750 -0.3774 -0.3423
 5636TIP3   OH216850   4.007   5.043   0.966 -0.2130  0.1984  0.0717
 5636TIP3    H116851   3.988   4.959   1.007 -2.0101  0.6967  0.3370
 5636TIP3    H216852   4.017   5.104   1.039 -0.7017  0.5560 -0.1519
 5637TIP3   OH216853   5.531   7.732   4.258 -0.2928  0.5014 -0.0508
 5637TIP3    H116854   5.504   7.755   4.169 -0.7515  0.6004  0.1108
 5637TIP3    H216855   5.461   7.675   4.290 -0.2287  0.6280  0.3171
 5638TIP3   OH216856   7.818   1.711   6.608 -0.2858  0.0054 -0.3056
 5638TIP3    H116857   7.895   1.655   6.602 -0.2344 -0.1040  1.0810
 5638TIP3    H216858   7.769   1.695   6.527  1.3882  0.4642 -1.4580
 5639TIP3   OH216859   7.009   2.965   0.710 -0.5150  0.0496 -0.5842
 5639TIP3    H116860   7.026   3.058   0.724 -1.6689  0.4211 -1.4603
 5639TIP3    H216861   6.953   2.941   0.784  0.7678 -0.2765  0.3129
 5640TIP3   OH216862   7.964   4.786   0.860  0.1982 -0.5279 -0.0935
 5640TIP3    H116863   8.017   4.856   0.823 -1.3982  0.5710 -0.3593
 5640TIP3    H216864   7.944   4.729   0.786  0.8851 -0.8991 -0.0085
 5641TIP3   OH216865   7.151   6.279   5.518 -0.4865  0.4644 -0.3454
 5641TIP3    H116866   7.075   6.335   5.533 -0.7558  0.4304 -1.4934
 5641TIP3    H216867   7.182   6.305   5.431 -0.7308 -1.2940 -0.9895
 5642TIP3   OH216868   6.401   7.109   4.202 -0.1466 -0.0148  0.0301
 5642TIP3    H116869   6.409   7.155   4.286  1.0956  0.1921 -0.1897
 5642TIP3    H216870   6.335   7.042   4.218  1.4599 -1.2715  1.7769
 5643TIP3   OH216871   5.684   0.505   0.833  0.0329 -0.2727  0.3994
 5643TIP3    H116872   5.700   0.414   0.809 -0.2805 -0.2801  0.2109
 5643TIP3    H216873   5.735   0.556   0.770 -0.2712 -0.3057  0.1269
 5644TIP3   OH216874   5.533   5.126   2.449  0.3402 -0.1876 -0.0726
 5644TIP3    H116875   5.619   5.117   2.491 -0.1903 -2.3525  0.6738
 5644TIP3    H216876   5.504   5.214   2.474  1.3216 -0.3066  1.6495
 5645TIP3   OH216877   6.913   6.412   3.340 -0.4115 -0.5903 -0.3029
 5645TIP3    H116878   6.865   6.369   3.411  0.7928 -0.4915  0.5969
 5645TIP3    H216879   7.004   6.413   3.370 -0.0516  0.4341 -1.3809
 5646TIP3   OH216880   2.573   5.026   4.625  0.5774  0.3285  0.4120
 5646TIP3    H116881   2.568   5.090   4.554 -0.3407  0.0945  0.2532
 5646TIP3    H216882   2.529   4.948   4.591  2.5757 -0.7805  0.2181
 5647TIP3   OH216883   1.590   6.838   4.373 -0.1828 -0.1899 -0.2003
 5647TIP3    H116884   1.609   6.853   4.465  0.6472 -2.3203  0.0252
 5647TIP3    H216885   1.560   6.923   4.341 -0.0193  0.7230  1.8941
 5648TIP3   OH216886   1.096   2.373   6.418 -0.6172 -0.1236 -0.0765
 5648TIP3    H116887   1.086   2.340   6.507  0.5463  0.9989  0.4926
 5648TIP3    H216888   1.069   2.464   6.423 -0.8811 -0.1501 -0.9515
 5649TIP3   OH216889   6.563   5.684   2.103 -0.3120  0.3661  0.0270
 5649TIP3    H116890   6.600   5.712   2.186 -0.9213 -0.8080  0.7260
 5649TIP3    H216891   6.550   5.765   2.053  1.5241  0.9584  0.4330
 5650TIP3   OH216892   0.424   5.281   0.523  0.1459 -0.1141  0.0145
 5650TIP3    H116893   0.444   5.355   0.465 -0.2681 -0.2465 -0.3075
 5650TIP3    H216894   0.472   5.207   0.484 -1.3211 -0.5511 -1.0609
 5651TIP3   OH216895   3.265   5.786   6.052  0.0406  0.3820 -0.2123
 5651TIP3    H116896   3.302   5.701   6.030  0.6102  0.6804 -0.4273
 5651TIP3    H216897   3.340   5.844   6.061 -0.1480  0.3232  2.4999
 5652TIP3   OH216898   2.212   7.047   3.379 -0.2653 -0.0449 -0.1098
 5652TIP3    H116899   2.141   6.982   3.380  0.5239 -0.9345 -0.6975
 5652TIP3    H216900   2.272   7.016   3.311  1.0984  0.2485  0.9203
 5653TIP3   OH216901   3.390   0.683   3.342 -0.0228 -0.1899  0.4384
 5653TIP3    H116902   3.343   0.613   3.387  0.5643 -0.6008  0.4297
 5653TIP3    H216903   3.396   0.753   3.407  1.3923 -1.0187  1.2829
 5654TIP3   OH216904   0.171   3.982   0.695  0.3064  0.1841  0.0237
 5654TIP3    H116905   0.110   3.978   0.621 -2.4427  3.5128  1.8270
 5654TIP3    H216906   0.222   4.061   0.680  1.6796 -0.6011  0.3944
 5655TIP3   OH216907   0.593   2.237   1.401  0.1743 -0.2896 -0.1251
 5655TIP3    H116908   0.581   2.221   1.494 -0.1995  1.1536  0.0941
 5655TIP3    H216909   0.657   2.172   1.374  0.4385 -0.6012  1.1829
 5656TIP3   OH216910   7.099   5.542   5.974  0.0975 -0.2301 -0.2337
 5656TIP3    H116911   7.172   5.485   6.000  0.0695 -0.5273 -0.7754
 5656TIP3    H216912   7.021   5.492   5.997  0.0678 -0.0493  0.0548
 5657TIP3   OH216913   2.536   3.836   4.393 -0.0975 -0.4347 -0.1954
 5657TIP3    H116914   2.497   3.867   4.475  1.0028  0.1612  0.1290
 5657TIP3    H216915   2.518   3.742   4.392 -4.3091  0.1832 -1.6362
 5658TIP3   OH216916   6.371   1.586   0.347  0.2775 -0.5097  0.7718
 5658TIP3    H116917   6.409   1.641   0.415 -1.2811  0.8892  0.5941
 5658TIP3    H216918   6.385   1.635   0.266  2.4107 -2.3060 -0.0543
 5659TIP3   OH216919   2.341   3.017   2.001  0.4616 -0.3769 -0.0872
 5659TIP3    H116920   2.430   3.001   2.032  0.6989 -0.4649 -0.7974
 5659TIP3    H216921   2.351   3.082   1.931 -0.1266  0.2492  0.3909
 5660TIP3   OH216922   7.794   4.276   4.953  0.0784  0.1058 -0.1873
 5660TIP3    H116923   7.749   4.304   4.873  0.4735  0.5736 -0.2498
 5660TIP3    H216924   7.879   4.244   4.923  0.5549  1.0423  0.1095
 5661TIP3   OH216925   3.852   6.334   5.247  0.1806 -0.2850 -0.0622
 5661TIP3    H116926   3.864   6.319   5.341 -0.3782 -0.8652 -0.0741
 5661TIP3    H216927   3.791   6.407   5.242 -0.0978 -0.5056  0.0387
 5662TIP3   OH216928   4.719   1.693   0.093  0.4198  0.3826  0.1119
 5662TIP3    H116929   4.751   1.765   0.146 -0.2300 -0.1154  1.2198
 5662TIP3    H216930   4.788   1.627   0.098 -0.6928 -0.7230  2.5626
 5663TIP3   OH216931  -0.004   2.237   1.533 -0.0569 -0.3384 -0.2915
 5663TIP3    H116932  -0.055   2.169   1.489 -0.4908  0.1276 -0.5173
 5663TIP3    H216933   0.081   2.236   1.488  0.4637 -1.6961  0.6435
 5664TIP3   OH216934   8.234   6.276   3.251  0.3189  0.2060 -0.4529
 5664TIP3    H116935   8.236   6.225   3.332  0.8962  2.6616  1.1948
 5664TIP3    H216936   8.316   6.254   3.206 -0.0389 -1.2306 -0.4518
 5665TIP3   OH216937   5.191   2.597   5.128 -0.5469 -0.2463 -0.3574
 5665TIP3    H116938   5.231   2.653   5.195  0.9318 -2.6756  0.9378
 5665TIP3    H216939   5.099   2.589   5.156 -0.2388 -0.2505  0.6952
 5666TIP3   OH216940   8.146   6.852   2.059 -0.0787 -0.0232 -0.1273
 5666TIP3    H116941   8.131   6.887   2.147 -0.3059  0.2245 -0.2627
 5666TIP3    H216942   8.097   6.911   2.001  0.4598  0.0995 -0.4671
 5667TIP3   OH216943   0.944   6.235   3.624 -0.2733 -0.4037 -0.0640
 5667TIP3    H116944   1.006   6.207   3.691 -0.8463  1.5885  1.3970
 5667TIP3    H216945   0.975   6.321   3.596 -1.1925 -0.3026 -0.8369
 5668TIP3   OH216946   1.434   0.122   6.082 -0.4005 -0.3165 -0.0104
 5668TIP3    H116947   1.510   0.128   6.140 -0.8301 -1.0275  0.6356
 5668TIP3    H216948   1.382   0.200   6.103 -1.8624 -1.8436  2.4827
 5669TIP3   OH216949   3.220   5.152   2.131 -0.6364  0.0148 -0.4132
 5669TIP3    H116950   3.161   5.190   2.196  0.1443 -1.2590  1.0932
 5669TIP3    H216951   3.193   5.191   2.048 -3.3580 -0.2616  0.2663
 5670TIP3   OH216952   7.341   2.594   4.301  0.0685 -0.2561 -0.1629
 5670TIP3    H116953   7.271   2.653   4.330 -0.5493 -0.6800 -0.7560
 5670TIP3    H216954   7.408   2.653   4.266  0.0569  0.1587  0.4895
 5671TIP3   OH216955   2.251   4.905   3.325 -0.0651 -0.4223 -0.3146
 5671TIP3    H116956   2.318   4.969   3.348  0.4407 -1.4774  1.3807
 5671TIP3    H216957   2.171   4.955   3.316  0.7293  0.7242 -1.3059
 5672TIP3   OH216958   5.175   4.392   0.504  0.1200  0.3578  0.0988
 5672TIP3    H116959   5.107   4.336   0.466 -0.0251  0.1397  0.6554
 5672TIP3    H216960   5.127   4.466   0.540 -0.1231 -0.7858  2.3533
 5673TIP3   OH216961   3.522   6.787   2.004 -0.2897  0.3083 -0.3945
 5673TIP3    H116962   3.488   6.716   2.059 -0.4735  0.1710 -0.6801
 5673TIP3    H216963   3.487   6.768   1.917  2.5647 -1.3071 -1.3072
 5674TIP3   OH216964   2.193   3.450   3.194  0.0018  0.5503  0.6047
 5674TIP3    H116965   2.200   3.521   3.258 -1.0594  0.6434  0.6230
 5674TIP3    H216966   2.109   3.409   3.212  0.5573 -0.6574  0.5202
 5675TIP3   OH216967   3.959   0.201   4.911  0.6440  0.0621  0.5190
 5675TIP3    H116968   3.908   0.278   4.884  0.7763 -0.2111 -0.5745
 5675TIP3    H216969   3.896   0.144   4.955  0.2170  0.1700  0.0586
 5676TIP3   OH216970   6.090   3.241   5.669  0.1026  0.0262 -0.0191
 5676TIP3    H116971   6.116   3.318   5.718  0.9905 -0.1564 -0.1906
 5676TIP3    H216972   6.073   3.273   5.580 -1.0301  0.2719  0.2637
 5677TIP3   OH216973   1.206   1.890   3.287  0.1748  0.1738 -0.4447
 5677TIP3    H116974   1.253   1.958   3.240  0.1428  1.4157  1.2489
 5677TIP3    H216975   1.137   1.936   3.335 -1.0642 -1.2881 -0.7266
 5678TIP3   OH216976   1.211   0.353   4.903 -0.1562 -0.6504 -0.1576
 5678TIP3    H116977   1.284   0.296   4.927  0.4498 -0.5662 -1.7042
 5678TIP3    H216978   1.162   0.304   4.838 -1.1534 -0.4524  0.4120
 5679TIP3   OH216979   6.849   0.556   6.253  0.5210 -0.1781 -0.2083
 5679TIP3    H116980   6.835   0.528   6.163 -0.5219 -0.1312 -0.0721
 5679TIP3    H216981   6.934   0.519   6.277  0.5868 -0.5841 -1.0505
 5680TIP3   OH216982   1.381   0.995   0.882 -0.4153 -0.0945 -0.4960
 5680TIP3    H116983   1.439   1.029   0.815 -2.2001  0.1187 -2.0070
 5680TIP3    H216984   1.381   0.900   0.868  2.8672 -0.7284  2.3365
 5681TIP3   OH216985   1.483   5.258   3.800  0.5355 -0.0891 -0.3641
 5681TIP3    H116986   1.428   5.233   3.726  1.6684  1.2130 -1.6912
 5681TIP3    H216987   1.536   5.180   3.817  1.4433  0.1294 -2.0403
 5682TIP3   OH216988   6.717   5.632   5.715  0.2837 -0.1062 -0.6674
 5682TIP3    H116989   6.746   5.670   5.798 -0.5314 -0.8134 -0.0387
 5682TIP3    H216990   6.691   5.543   5.738 -2.4091  0.4850 -1.1383
 5683TIP3   OH216991   3.078   1.831   2.381  0.4525  0.8288 -0.3867
 5683TIP3    H116992   3.168   1.797   2.376  0.3087  0.5592 -1.5128
 5683TIP3    H216993   3.032   1.770   2.438  0.9877  0.9833  0.2248
 5684TIP3   OH216994   0.529   0.844   4.353 -0.1028  0.7368 -0.0874
 5684TIP3    H116995   0.438   0.840   4.323 -0.2784 -2.1985  0.5357
 5684TIP3    H216996   0.539   0.766   4.408  2.9066  0.7183 -0.5171
 5685TIP3   OH216997   5.349   6.311   5.609 -0.1544  0.2397  0.6274
 5685TIP3    H116998   5.326   6.275   5.694  0.9164 -1.1408  0.3778
 5685TIP3    H216999   5.269   6.354   5.578 -0.3182  1.5486  2.6725
 5686TIP3   OH217000   3.542   0.885   0.977 -0.1698  0.3449  0.5149
 5686TIP3    H117001   3.556   0.861   1.069 -0.5417  0.1145  0.5121
 5686TIP3    H217002   3.466   0.834   0.950  0.0813  0.2320  0.0073
 5687TIP3   OH217003   1.276   4.464   5.507  0.1619  0.2150  0.1888
 5687TIP3    H117004   1.329   4.488   5.431  2.1660 -2.1099  0.7286
 5687TIP3    H217005   1.220   4.392   5.476 -2.3781  2.2000 -0.1875
 5688TIP3   OH217006   1.505   6.161   1.340 -0.4887  0.6131  0.0049
 5688TIP3    H117007   1.551   6.196   1.417  0.8060 -0.8503 -0.0714
 5688TIP3    H217008   1.567   6.170   1.268 -0.2721 -1.3620 -0.1129
 5689TIP3   OH217009   5.388   1.905   4.372  0.1060  0.0898 -0.1661
 5689TIP3    H117010   5.436   1.973   4.324 -0.0795  0.3881  0.0696
 5689TIP3    H217011   5.304   1.898   4.327  0.2449 -0.2151 -0.3882
 5690TIP3   OH217012   3.109   3.235   4.809 -0.2661 -0.0139 -0.3509
 5690TIP3    H117013   3.051   3.276   4.745 -0.6158  0.3649  0.2067
 5690TIP3    H217014   3.180   3.298   4.822 -0.6111  0.2590  0.2294
 5691TIP3   OH217015   7.081   6.982   1.747  0.5011  0.2130 -0.3119
 5691TIP3    H117016   7.093   6.922   1.820 -0.5870  0.6681  0.2624
 5691TIP3    H217017   7.139   6.949   1.679  0.8640 -0.7389  0.4376
 5692TIP3   OH217018   4.914   3.794   5.017  0.4192 -0.4006 -0.1596
 5692TIP3    H117019   4.962   3.781   4.936  0.3273 -0.4602 -0.2048
 5692TIP3    H217020   4.948   3.876   5.053  0.3898 -0.3225 -0.3087
 5693TIP3   OH217021   0.345   4.736   4.702 -0.6011  0.1795  0.3590
 5693TIP3    H117022   0.307   4.757   4.787  0.9476  0.3913  1.0229
 5693TIP3    H217023   0.432   4.703   4.722 -0.1943  0.2668 -1.1503
 5694TIP3   OH217024   6.521   0.838   1.152 -0.2236 -0.4404 -0.2173
 5694TIP3    H117025   6.531   0.827   1.246 -1.4446  1.5910  0.2123
 5694TIP3    H217026   6.525   0.749   1.116  0.3201 -1.2423  1.7153
 5695TIP3   OH217027   6.003   1.979   2.278 -0.2075 -0.4096  0.4357
 5695TIP3    H117028   5.917   1.971   2.237 -0.3767 -2.3969  1.0654
 5695TIP3    H217029   6.064   1.948   2.212  0.0146  0.6892  0.1069
 5696TIP3   OH217030   3.356   2.356   1.423  0.1372  0.0623  0.3023
 5696TIP3    H117031   3.420   2.417   1.461  1.2691 -1.3980  0.8417
 5696TIP3    H217032   3.402   2.317   1.349 -0.2767 -0.6739  0.4265
 5697TIP3   OH217033   2.181   4.354   1.974 -1.0227 -0.2019  0.2335
 5697TIP3    H117034   2.133   4.273   1.957 -1.5828 -0.0887  1.2070
 5697TIP3    H217035   2.180   4.363   2.070  0.8726 -0.1499  0.2949
 5698TIP3   OH217036   1.951   1.787   1.126 -0.2930  0.0443 -0.7051
 5698TIP3    H117037   1.958   1.794   1.031 -1.0923 -0.3681 -0.8017
 5698TIP3    H217038   1.857   1.795   1.144 -0.3602 -1.7421 -0.1158
 5699TIP3   OH217039   3.132   0.945   4.023 -0.5255 -0.2357 -1.0743
 5699TIP3    H117040   3.101   1.001   4.094 -0.6590 -0.8777 -0.6142
 5699TIP3    H217041   3.170   1.005   3.959  0.7980  0.2658  0.1354
 5700TIP3   OH217042   2.697   1.320   4.910  0.1819 -0.4292  0.1419
 5700TIP3    H117043   2.740   1.236   4.891  0.4575 -0.5883  1.3789
 5700TIP3    H217044   2.637   1.300   4.981 -0.0150  0.3607  0.2011
 5701TIP3   OH217045   5.235   2.154   2.573 -0.2720 -0.7081  0.3175
 5701TIP3    H117046   5.190   2.203   2.642 -0.4266 -1.0436  0.4585
 5701TIP3    H217047   5.176   2.161   2.497 -0.3089 -0.7035  0.3465
 5702TIP3   OH217048   7.111   0.765   1.351  0.1946  0.1124 -0.0443
 5702TIP3    H117049   7.093   0.774   1.257  0.0015 -0.8605 -0.1146
 5702TIP3    H217050   7.029   0.731   1.388  0.3412  0.2773  0.4437
 5703TIP3   OH217051   0.909   0.900   6.583  0.1326 -0.1789 -0.8969
 5703TIP3    H117052   0.962   0.865   6.654 -1.0476  0.5009  0.3681
 5703TIP3    H217053   0.909   0.830   6.517 -0.5376 -1.7745  0.7011
 5704TIP3   OH217054   7.933   1.492   6.441 -0.4322 -0.5980 -0.2035
 5704TIP3    H117055   7.986   1.563   6.406  1.0635 -2.6510 -2.4588
 5704TIP3    H217056   7.886   1.458   6.365 -5.1179  1.0036  1.6383
 5705TIP3   OH217057   1.759   6.179   6.265 -0.0226 -0.0971 -0.4534
 5705TIP3    H117058   1.830   6.146   6.319  0.3399 -0.1507 -0.9486
 5705TIP3    H217059   1.778   6.145   6.177 -0.8074 -0.3403 -0.5385
 5706TIP3   OH217060   4.275   1.595   5.690  0.2296 -0.5132 -0.4527
 5706TIP3    H117061   4.325   1.673   5.666  0.5650 -0.4820  0.3119
 5706TIP3    H217062   4.335   1.522   5.672  0.5464 -0.4791  0.4102
 5707TIP3   OH217063   5.451   1.646   2.912  0.1605  0.3746  0.0638
 5707TIP3    H117064   5.460   1.739   2.936  0.8430  0.1216  0.8311
 5707TIP3    H217065   5.359   1.636   2.889  0.2743  1.4607 -0.9741
 5708TIP3   OH217066   5.423   5.048   6.634  0.4267 -0.2092  0.7916
 5708TIP3    H117067   5.496   5.039   6.695  0.1304  0.6081  1.2837
 5708TIP3    H217068   5.462   5.086   6.555  1.2023 -3.0788 -0.3560
 5709TIP3   OH217069   0.022   1.127   5.018 -0.4465 -0.2541 -0.0290
 5709TIP3    H117070   0.067   1.114   5.101  0.4049 -0.5845 -0.5299
 5709TIP3    H217071   0.058   1.209   4.984  0.3806 -0.9090 -0.7960
 5710TIP3   OH217072   3.101   0.854   6.146 -0.6801  0.1559 -0.8574
 5710TIP3    H117073   3.030   0.862   6.209 -1.2177  0.0043 -1.4289
 5710TIP3    H217074   3.163   0.923   6.170 -1.3124  0.6869 -0.7227
 5711TIP3   OH217075   3.292   0.634   5.916 -0.2533  0.0017 -0.0613
 5711TIP3    H117076   3.348   0.711   5.927 -1.2412  0.5567  1.4247
 5711TIP3    H217077   3.275   0.605   6.006 -0.5284 -1.4961 -0.5797
 5712TIP3   OH217078   2.850   2.531   2.102  0.2489  0.1426 -0.4848
 5712TIP3    H117079   2.832   2.488   2.185  0.1347  1.4265  0.1716
 5712TIP3    H217080   2.934   2.494   2.073  2.0735  2.0847  1.8890
 5713TIP3   OH217081   7.871   6.865   4.631  0.7939 -0.1102  0.4628
 5713TIP3    H117082   7.797   6.820   4.672 -0.0482  0.6173 -0.2161
 5713TIP3    H217083   7.874   6.830   4.542  1.5058 -0.4039  0.6010
 5714TIP3   OH217084   2.992   1.539   0.847  0.5810 -0.5988 -0.0290
 5714TIP3    H117085   2.911   1.559   0.895  0.1385 -0.2377 -0.9135
 5714TIP3    H217086   3.007   1.446   0.866  0.3041 -0.5170  0.6454
 5715TIP3   OH217087   0.743   2.340   1.081  0.0932 -0.5928  0.2480
 5715TIP3    H117088   0.834   2.318   1.059  0.0916  0.4736 -0.9122
 5715TIP3    H217089   0.751   2.400   1.155  0.4175  0.4327 -0.5923
 5716TIP3   OH217090   6.543   2.570   2.181 -0.3222  0.4253  0.1184
 5716TIP3    H117091   6.587   2.530   2.106  1.4052  1.6848  0.3893
 5716TIP3    H217092   6.581   2.525   2.257 -1.4091 -0.2330  0.2869
 5717TIP3   OH217093   6.404   5.080   0.423  0.0437  0.3520 -0.4170
 5717TIP3    H117094   6.467   5.130   0.372  0.5187  0.8142  0.5799
 5717TIP3    H217095   6.339   5.145   0.450  0.0117  0.1962 -0.1155
 5718TIP3   OH217096   5.875   4.005   2.628  0.2751 -0.1578 -0.2133
 5718TIP3    H117097   5.806   4.037   2.687  0.7091 -1.4882  1.0800
 5718TIP3    H217098   5.932   3.952   2.684  0.5552 -1.7438 -1.8937
 5719TIP3   OH217099   1.189   4.515   3.876 -0.1119 -0.0536 -0.2606
 5719TIP3    H117100   1.266   4.553   3.834  0.6937 -0.6069  0.6640
 5719TIP3    H217101   1.215   4.502   3.967 -1.4485  0.1210  0.1721
 5720TIP3   OH217102   4.010   3.581   1.507  0.4436 -0.3689 -0.0642
 5720TIP3    H117103   4.030   3.501   1.556  0.1041 -1.0707 -1.0432
 5720TIP3    H217104   3.955   3.632   1.566 -2.0950 -2.3288 -0.5733
 5721TIP3   OH217105   8.274   6.839   6.374 -0.4509 -0.3816 -0.5290
 5721TIP3    H117106   8.213   6.861   6.303  0.6566 -0.6203 -1.5909
 5721TIP3    H217107   8.359   6.833   6.331  0.2290 -0.6894  0.8130
 5722TIP3   OH217108   3.766   5.096   0.840 -0.7550 -0.0304 -0.4731
 5722TIP3    H117109   3.851   5.066   0.872 -1.6734 -2.0077  0.2776
 5722TIP3    H217110   3.785   5.180   0.799  1.4911 -0.2221  0.0054
 5723TIP3   OH217111   2.027   6.404   1.679  0.6851 -0.0520 -0.3880
 5723TIP3    H117112   2.034   6.309   1.695  0.4035  0.1156  0.8529
 5723TIP3    H217113   2.086   6.443   1.743 -1.1806  0.7285  0.9523
 5724TIP3   OH217114   1.210   7.482   3.918  0.1051  0.4776 -0.0815
 5724TIP3    H117115   1.295   7.524   3.932  0.1347  0.4397 -0.1496
 5724TIP3    H217116   1.232   7.392   3.893  0.0609  0.6684 -0.8087
 5725TIP3   OH217117   7.864   0.086   4.908 -0.1931 -0.3111  0.5577
 5725TIP3    H117118   7.929   0.139   4.954 -1.4279 -0.2617  2.3234
 5725TIP3    H217119   7.911   0.007   4.883  1.3175  0.9708 -0.9289
 5726TIP3   OH217120   7.406   3.256   6.210  0.0902  0.2512 -0.0900
 5726TIP3    H117121   7.398   3.319   6.282  1.0321  0.6340 -0.2892
 5726TIP3    H217122   7.350   3.291   6.141 -0.8132 -0.1151  0.4444
 5727TIP3   OH217123   5.867   0.510   4.684 -0.7996  0.2690  0.1486
 5727TIP3    H117124   5.847   0.562   4.762  1.6550 -0.0406  1.0687
 5727TIP3    H217125   5.886   0.422   4.717  2.0908  0.5578 -0.4682
 5728TIP3   OH217126   7.153   7.122   3.260 -0.3754 -0.0299  0.1001
 5728TIP3    H117127   7.126   7.030   3.266 -0.0199 -0.2990 -1.7902
 5728TIP3    H217128   7.111   7.153   3.180  0.3822  1.1592  0.1493
 5729TIP3   OH217129   4.469   5.394   2.511  0.4241  0.2509 -0.4039
 5729TIP3    H117130   4.423   5.453   2.570 -0.1288 -1.0417  0.5242
 5729TIP3    H217131   4.400   5.348   2.463  0.8258  0.1919 -0.9400
 5730TIP3   OH217132   7.270   6.037   1.666  0.3792  0.3839  0.0473
 5730TIP3    H117133   7.343   6.010   1.611  0.0823  2.1424 -1.3138
 5730TIP3    H217134   7.309   6.057   1.751  0.6690 -3.6247  1.0301
 5731TIP3   OH217135   0.414   1.918   4.096  0.0286 -0.4204  0.2392
 5731TIP3    H117136   0.453   1.866   4.167 -0.2947 -0.5509  0.3252
 5731TIP3    H217137   0.328   1.879   4.084 -1.2305  1.6286  1.9907
 5732TIP3   OH217138   0.945   4.709   5.085  0.3241 -0.2584 -0.5465
 5732TIP3    H117139   0.947   4.786   5.028  3.0544  0.5307  0.4147
 5732TIP3    H217140   0.925   4.636   5.027 -2.3286  1.0998 -1.5063
 5733TIP3   OH217141   6.686   1.292   5.228 -0.4940  0.0626 -0.3386
 5733TIP3    H117142   6.720   1.381   5.235 -2.4002  0.7895  0.4287
 5733TIP3    H217143   6.623   1.295   5.156 -1.4898 -0.3013  0.4807
 5734TIP3   OH217144   7.101   1.476   6.379  0.5014 -0.1084 -0.2437
 5734TIP3    H117145   7.058   1.410   6.326 -0.2692  0.0761  0.1307
 5734TIP3    H217146   7.052   1.557   6.362  0.2342 -0.0449  0.7232
 5735TIP3   OH217147   1.108   7.655   0.564 -0.2692 -0.0820  0.2677
 5735TIP3    H117148   1.128   7.742   0.528  0.2532 -0.3000  0.0151
 5735TIP3    H217149   1.193   7.610   0.564 -0.9274 -1.4977 -2.0302
 5736TIP3   OH217150   5.434   3.189   0.764  0.2461  0.0444 -0.8155
 5736TIP3    H117151   5.499   3.125   0.790 -0.1288 -0.4516 -1.0849
 5736TIP3    H217152   5.473   3.274   0.787  0.2748 -0.3266  0.5568
 5737TIP3   OH217153   6.296   2.828   2.795  0.5905 -0.2064 -0.1292
 5737TIP3    H117154   6.247   2.763   2.845  0.2058 -0.6107 -1.0141
 5737TIP3    H217155   6.244   2.908   2.803  1.1571  0.0629  1.1116
 5738TIP3   OH217156   0.754   0.929   0.124 -0.1271  0.1904 -0.3800
 5738TIP3    H117157   0.802   0.850   0.099 -0.7917  0.1711 -1.6580
 5738TIP3    H217158   0.667   0.917   0.087 -0.1298  1.6778 -0.9160
 5739TIP3   OH217159   0.559   0.306   1.222 -0.1916  0.0901  0.3191
 5739TIP3    H117160   0.507   0.296   1.142  0.7019  1.9190 -0.5336
 5739TIP3    H217161   0.527   0.386   1.262 -0.5093 -0.7193  1.7390
 5740TIP3   OH217162   4.946   7.223   6.423  0.5534 -0.1315 -0.3227
 5740TIP3    H117163   4.925   7.148   6.366  0.0468  0.6974 -1.2592
 5740TIP3    H217164   4.948   7.298   6.363  0.5118  0.6910  0.6885
 5741TIP3   OH217165   3.742   7.305   2.433 -0.1006  0.3676  0.2623
 5741TIP3    H117166   3.716   7.345   2.350 -2.6538 -1.1722  0.2392
 5741TIP3    H217167   3.706   7.364   2.500 -3.5707 -1.4484  0.2231
 5742TIP3   OH217168   4.427   3.159   2.480  0.4186 -0.3996 -0.1445
 5742TIP3    H117169   4.439   3.114   2.564  2.1336  1.7194  0.8380
 5742TIP3    H217170   4.495   3.122   2.424  2.0566  1.1166  0.7679
 5743TIP3   OH217171   0.387   6.565   6.253  0.5293 -0.1243  0.3066
 5743TIP3    H117172   0.359   6.482   6.215  0.0918  0.5406 -0.8965
 5743TIP3    H217173   0.325   6.582   6.323 -0.7245  0.2108 -0.8406
 5744TIP3   OH217174   6.913   7.176   5.921 -0.1224 -0.1848  0.1790
 5744TIP3    H117175   6.939   7.176   5.829 -0.3683  0.1887  0.1054
 5744TIP3    H217176   6.887   7.267   5.938 -0.3991 -0.3275  0.5259
 5745TIP3   OH217177   6.896   7.150   1.659  0.0412 -0.1163  0.1821
 5745TIP3    H117178   6.957   7.078   1.677  2.2774  1.7041  0.2951
 5745TIP3    H217179   6.904   7.208   1.735 -0.4688  1.0805 -0.6542
 5746TIP3   OH217180   3.339   1.120   4.763  0.2524 -0.1568 -0.0690
 5746TIP3    H117181   3.383   1.152   4.685 -0.1488 -0.6435 -0.5029
 5746TIP3    H217182   3.382   1.036   4.782  0.2233 -0.1293  0.1214
 5747TIP3   OH217183   2.572   0.176   3.595  0.0942 -0.1803 -0.1968
 5747TIP3    H117184   2.647   0.171   3.536  0.4138 -0.3054  0.2153
 5747TIP3    H217185   2.522   0.252   3.565  0.8936  0.4755  0.1226
 5748TIP3   OH217186   4.847   1.344   6.131 -0.0391 -0.1893  0.2474
 5748TIP3    H117187   4.767   1.397   6.136 -0.1400 -0.4411  1.5891
 5748TIP3    H217188   4.816   1.256   6.113  0.0773  0.0045 -1.0647
 5749TIP3   OH217189   0.486   5.399   6.052 -0.1730 -0.0010  0.5667
 5749TIP3    H117190   0.474   5.330   5.986 -1.6514  0.6938  0.0780
 5749TIP3    H217191   0.442   5.366   6.130  1.7475 -0.9101  1.3166
 5750TIP3   OH217192   0.482   0.894   3.943 -0.9687 -0.0835  0.3323
 5750TIP3    H117193   0.565   0.942   3.947 -0.1595 -1.3242 -0.7660
 5750TIP3    H217194   0.428   0.944   3.882 -0.5055 -0.0041 -0.0214
 5751TIP3   OH217195   4.974   6.446   2.618 -0.1575 -0.4344 -0.4072
 5751TIP3    H117196   5.019   6.467   2.700 -2.6135  2.8794  0.3247
 5751TIP3    H217197   5.044   6.421   2.558  2.0651 -0.0838  1.8704
 5752TIP3   OH217198   4.975   2.162   6.390 -0.2714 -0.2752  0.0495
 5752TIP3    H117199   5.030   2.085   6.376 -0.4851 -0.3544 -0.3549
 5752TIP3    H217200   5.004   2.197   6.474  0.6657 -0.0880 -0.3424
 5753TIP3   OH217201   6.958   2.875   0.303  0.1581  0.1623  0.1034
 5753TIP3    H117202   6.900   2.800   0.315  2.5036 -1.8060 -0.1491
 5753TIP3    H217203   6.921   2.943   0.360 -0.7139 -1.9862  2.2609
 5754TIP3   OH217204   0.987   5.802   2.285 -0.0549  0.4044  0.1146
 5754TIP3    H117205   0.913   5.756   2.246 -0.3494  0.4053  0.6618
 5754TIP3    H217206   1.011   5.868   2.220 -0.6803  0.5550  0.0272
 5755TIP3   OH217207   3.859   4.210   1.423 -0.2154  0.3011 -0.3806
 5755TIP3    H117208   3.920   4.273   1.459  0.1708 -0.2193 -0.1196
 5755TIP3    H217209   3.852   4.142   1.490 -2.3364  1.1405  0.3324
 5756TIP3   OH217210   1.201   0.661   6.045 -0.3362 -0.7186  0.1050
 5756TIP3    H117211   1.136   0.722   6.081 -1.4956 -1.9784  0.2020
 5756TIP3    H217212   1.214   0.691   5.955 -0.8012 -0.2643  0.1815
 5757TIP3   OH217213   7.171   1.635   4.839  0.1814  0.0056  0.3598
 5757TIP3    H117214   7.103   1.617   4.774  1.5864  0.3198 -1.2502
 5757TIP3    H217215   7.137   1.598   4.920 -1.0151 -1.6428 -0.8372
 5758TIP3   OH217216   3.656   1.960   0.424 -0.2396  0.3781 -0.2788
 5758TIP3    H117217   3.576   2.013   0.429 -1.2298 -1.1739  1.9621
 5758TIP3    H217218   3.630   1.874   0.457  2.4048 -0.1152  0.7581
 5759TIP3   OH217219   7.276   3.335   4.742  0.5706 -0.3645  0.0897
 5759TIP3    H117220   7.352   3.326   4.685  0.4630 -0.0533 -0.1026
 5759TIP3    H217221   7.280   3.425   4.774  0.3372 -0.3759  0.1533
 5760TIP3   OH217222   0.125   1.341   6.285 -0.0900 -0.0058  0.2045
 5760TIP3    H117223   0.058   1.280   6.316  0.5250 -1.0830 -0.5349
 5760TIP3    H217224   0.199   1.286   6.260  0.7829  1.1046  0.2342
 5761TIP3   OH217225   0.706   6.240   5.426  0.2043  0.8058 -0.4719
 5761TIP3    H117226   0.762   6.309   5.390  1.4171  0.1483  0.1040
 5761TIP3    H217227   0.708   6.255   5.521 -1.1080  1.1421 -0.4797
 5762TIP3   OH217228   7.968   3.978   2.569  0.0898  0.2202  0.3435
 5762TIP3    H117229   8.020   3.901   2.547 -1.3009 -0.6592 -0.0502
 5762TIP3    H217230   7.921   3.999   2.488 -0.2726  0.8805  0.7212
 5763TIP3   OH217231   6.293   1.247   6.252  0.0758  0.5031  0.2616
 5763TIP3    H117232   6.212   1.298   6.251 -0.2213  0.0288 -0.5095
 5763TIP3    H217233   6.329   1.262   6.340  0.1307  2.2296 -0.0173
 5764TIP3   OH217234   1.500   5.514   2.977  0.1262  0.6958  0.3610
 5764TIP3    H117235   1.566   5.503   3.045  0.6964  2.7325  0.1868
 5764TIP3    H217236   1.462   5.600   2.992  0.7302  1.5229 -2.2215
 5765TIP3   OH217237   3.330   6.918   2.907 -0.1100 -0.3884 -0.0432
 5765TIP3    H117238   3.379   6.993   2.872 -1.1405 -0.5815 -2.0606
 5765TIP3    H217239   3.396   6.863   2.949  1.1091  0.2638 -1.0504
 5766TIP3   OH217240   1.168   0.099   1.822  0.4950  0.6121  0.4425
 5766TIP3    H117241   1.131   0.172   1.871  1.5568  0.6797  1.1836
 5766TIP3    H217242   1.098   0.034   1.817  0.3958  0.5392  2.2028
 5767TIP3   OH217243   7.627   6.411   5.980 -0.1652  0.8318  0.5940
 5767TIP3    H117244   7.646   6.433   5.889  0.4152  0.3682  0.5974
 5767TIP3    H217245   7.712   6.407   6.023 -0.2962 -0.5128  0.7801
 5768TIP3   OH217246   6.314   3.587   2.641 -0.0051 -0.5515 -0.1570
 5768TIP3    H117247   6.303   3.552   2.553 -0.3097  1.0822 -0.8090
 5768TIP3    H217248   6.335   3.511   2.695 -1.3713 -1.8279 -1.3344
 5769TIP3   OH217249   5.198   6.585   3.260  0.0516  0.1544 -0.3959
 5769TIP3    H117250   5.219   6.508   3.207 -1.6867 -0.4384 -0.2785
 5769TIP3    H217251   5.196   6.552   3.350 -0.0098  0.5009 -0.2670
 5770TIP3   OH217252   2.829   3.067   3.588 -0.1272 -0.0922 -0.3530
 5770TIP3    H117253   2.878   3.082   3.507  1.2095  1.2731  0.6642
 5770TIP3    H217254   2.737   3.067   3.560  0.2932  0.3771 -1.8539
 5771TIP3   OH217255   3.865   7.429   3.159 -0.4190 -0.3225  0.1664
 5771TIP3    H117256   3.919   7.405   3.235  0.1343  1.4117  0.3502
 5771TIP3    H217257   3.921   7.484   3.106 -1.5804  0.4234 -0.3169
 5772TIP3   OH217258   4.356   0.711   0.606  0.1644 -0.0173 -0.3824
 5772TIP3    H117259   4.278   0.674   0.565  0.7093 -1.5210 -0.1188
 5772TIP3    H217260   4.344   0.806   0.599 -1.0809 -0.2296 -1.4671
 5773TIP3   OH217261   4.430   4.092   0.441 -0.7744 -0.4648 -0.1141
 5773TIP3    H117262   4.489   4.017   0.441  0.0198  0.0477 -2.9133
 5773TIP3    H217263   4.479   4.162   0.484 -0.6727 -0.9357  0.5459
 5774TIP3   OH217264   1.033   7.136   1.797 -0.5950  0.1448  0.2194
 5774TIP3    H117265   1.087   7.057   1.805  0.7313  1.0032 -0.0625
 5774TIP3    H217266   0.974   7.132   1.872  0.5082 -0.3365  1.0849
 5775TIP3   OH217267   6.552   5.069   6.291 -0.2374  0.3843  0.7864
 5775TIP3    H117268   6.483   5.020   6.247 -0.6900  0.8483  0.9693
 5775TIP3    H217269   6.633   5.024   6.266 -0.0971  2.3112 -3.0561
 5776TIP3   OH217270   0.276   2.774   1.553  0.0079  0.2935  0.1573
 5776TIP3    H117271   0.268   2.695   1.608 -1.4434 -0.1657 -0.6577
 5776TIP3    H217272   0.352   2.820   1.589 -0.1420 -0.6117  1.7503
 5777TIP3   OH217273   2.923   4.115   4.955 -0.9158 -0.2529 -0.3094
 5777TIP3    H117274   3.014   4.146   4.964 -0.6867 -0.9808 -0.0332
 5777TIP3    H217275   2.871   4.178   5.005 -0.5754  0.2426 -0.5768
 5778TIP3   OH217276   4.575   2.279   5.276  0.0053 -0.1645 -0.0222
 5778TIP3    H117277   4.551   2.282   5.369 -0.6872  0.7556 -0.2098
 5778TIP3    H217278   4.493   2.294   5.230  0.6125  1.1725 -0.7334
 5779TIP3   OH217279   0.094   7.080   2.577 -0.3580  0.1209  0.3999
 5779TIP3    H117280   0.103   7.172   2.600  1.3014 -0.0637  0.5849
 5779TIP3    H217281   0.182   7.043   2.587 -0.3590 -0.8736 -2.3090
 5780TIP3   OH217282   4.705   0.123   1.829 -0.0668  0.3152 -0.2161
 5780TIP3    H117283   4.618   0.157   1.807 -0.0994  0.8816  0.7308
 5780TIP3    H217284   4.756   0.135   1.749 -0.2260  2.1741 -0.0825
 5781TIP3   OH217285   4.972   4.532   0.765  0.4326 -1.0016  0.7435
 5781TIP3    H117286   5.050   4.587   0.777  0.2247 -0.5255 -0.0275
 5781TIP3    H217287   4.969   4.478   0.844 -0.5917  1.5943  2.6271
 5782TIP3   OH217288   4.108   5.943   3.893 -0.0137 -0.1748 -0.5363
 5782TIP3    H117289   4.148   6.001   3.827 -1.4884  0.2851 -1.0846
 5782TIP3    H217290   4.164   5.951   3.970  0.3656  1.2618 -0.9262
 5783TIP3   OH217291   0.300   2.117   4.830  0.2652 -0.0982  0.5290
 5783TIP3    H117292   0.282   2.068   4.910 -0.6583  0.9616  0.9923
 5783TIP3    H217293   0.232   2.089   4.769  0.9783 -0.9176  0.0824
 5784TIP3   OH217294   3.608   0.819   1.772 -0.4699 -0.6945  0.0823
 5784TIP3    H117295   3.667   0.788   1.841 -0.2320  1.1176  0.7436
 5784TIP3    H217296   3.543   0.872   1.818  0.8209  2.2202 -1.1767
 5785TIP3   OH217297   8.048   1.985   0.042 -0.1930 -0.7341 -0.0068
 5785TIP3    H117298   8.026   1.918  -0.022  0.4485  0.7557 -1.9071
 5785TIP3    H217299   7.966   2.033   0.056 -0.1343 -0.5050 -0.4311
 5786TIP3   OH217300   8.095   6.476   5.507  0.1420  0.5887 -0.0284
 5786TIP3    H117301   8.184   6.465   5.475  0.3317 -0.6579  0.8507
 5786TIP3    H217302   8.043   6.414   5.457  0.3111 -0.8309  1.4682
 5787TIP3   OH217303   7.559   1.164   0.082  0.4333  0.4828  0.8637
 5787TIP3    H117304   7.542   1.200   0.169 -0.3957  1.0698  0.4678
 5787TIP3    H217305   7.647   1.195   0.060 -0.1420  2.0440  0.6550
 5788TIP3   OH217306   7.589   1.066   5.086  0.4368 -0.7396  0.2642
 5788TIP3    H117307   7.604   1.126   5.013  1.9521 -1.1524  0.1944
 5788TIP3    H217308   7.616   0.980   5.052  2.4932 -0.7428  1.6653
 5789TIP3   OH217309   0.195   7.285   2.302 -0.1454 -0.7298 -0.0527
 5789TIP3    H117310   0.160   7.301   2.390  0.6719 -1.5133  0.4230
 5789TIP3    H217311   0.290   7.280   2.314 -0.0395 -1.0301 -0.9497
 5790TIP3   OH217312   1.355   1.688   6.639  0.5008 -0.2449 -0.3160
 5790TIP3    H117313   1.437   1.665   6.682  0.3200 -0.6463 -0.1807
 5790TIP3    H217314   1.310   1.743   6.702  1.3180  1.2499 -0.9863
 5791TIP3   OH217315   0.514   2.073   2.138 -0.1466  0.0454 -0.6668
 5791TIP3    H117316   0.515   2.049   2.046  0.8542  0.2886 -0.7336
 5791TIP3    H217317   0.553   2.161   2.141 -0.4377  0.1624 -0.0452
 5792TIP3   OH217318   0.845   2.864   1.649 -0.3653  0.1848 -0.0173
 5792TIP3    H117319   0.853   2.959   1.641 -0.1060  0.1595 -0.0453
 5792TIP3    H217320   0.914   2.829   1.594  2.1619  0.0138  2.9770
 5793TIP3   OH217321   6.500   2.126   4.980  0.5742  0.7564  0.2561
 5793TIP3    H117322   6.500   2.156   4.889 -1.4473 -0.7098 -0.2887
 5793TIP3    H217323   6.516   2.032   4.975 -1.3524  0.3299  1.2362
 5794TIP3   OH217324   3.711   5.728   0.281 -0.3376 -0.4328 -0.2460
 5794TIP3    H117325   3.713   5.809   0.331  0.6715 -0.2258 -0.5997
 5794TIP3    H217326   3.635   5.680   0.316  0.2075 -0.2090  1.3210
 5795TIP3   OH217327   8.086   7.052   2.240  0.4092  0.2332 -0.0856
 5795TIP3    H117328   8.042   7.104   2.173  1.9471  1.6138 -0.0627
 5795TIP3    H217329   8.179   7.061   2.221  0.9016  0.6038  2.1631
 5796TIP3   OH217330   1.558   5.929   5.176 -0.5706 -0.4535 -0.5414
 5796TIP3    H117331   1.529   5.892   5.259  0.3198  0.0432  0.0046
 5796TIP3    H217332   1.590   5.854   5.126 -0.1926 -0.6249 -0.0440
 5797TIP3   OH217333   3.714   0.766   2.157 -0.4974 -0.3098 -0.0183
 5797TIP3    H117334   3.655   0.700   2.194 -0.0223 -0.7724 -0.0835
 5797TIP3    H217335   3.708   0.840   2.217  0.0951 -0.9702  0.8645
 5798TIP3   OH217336   3.338   4.441   3.629 -0.3976  0.0979 -0.5348
 5798TIP3    H117337   3.416   4.457   3.575 -1.1873 -2.6440 -2.7454
 5798TIP3    H217338   3.300   4.362   3.592 -2.5992 -0.3729  2.4132
 5799TIP3   OH217339   1.171   7.078   1.375 -0.4910  0.0647  0.2134
 5799TIP3    H117340   1.246   7.105   1.321  0.9109 -0.7730  1.6605
 5799TIP3    H217341   1.148   7.157   1.425  0.3665 -0.0428  0.7961
 5800TIP3   OH217342   6.667   4.497   3.663  0.3082 -0.1323 -0.2612
 5800TIP3    H117343   6.644   4.588   3.682 -0.0783  0.0244 -1.4027
 5800TIP3    H217344   6.747   4.503   3.611 -0.7671 -0.3069 -2.0230
 5801TIP3   OH217345   1.839   5.161   4.462  0.0141 -0.0833 -0.6715
 5801TIP3    H117346   1.899   5.203   4.523  0.1875 -0.6541 -0.4454
 5801TIP3    H217347   1.822   5.228   4.395  1.6399 -0.2307 -1.2665
 5802TIP3   OH217348   2.663   5.810   3.779 -0.4159  0.2072 -0.4170
 5802TIP3    H117349   2.661   5.837   3.687 -0.0218  0.6589 -0.2988
 5802TIP3    H217350   2.665   5.893   3.828  1.3605 -0.0071 -0.0549
 5803TIP3   OH217351   5.716   4.636   4.894 -0.0341 -0.6617 -0.3347
 5803TIP3    H117352   5.761   4.651   4.811  1.5181 -0.3742  0.5312
 5803TIP3    H217353   5.739   4.711   4.949 -1.9013 -0.2977  0.0331
 5804TIP3   OH217354   6.361   6.258   4.086  0.2775  0.4759 -0.0210
 5804TIP3    H117355   6.380   6.204   4.009 -0.3549  1.0752 -0.6079
 5804TIP3    H217356   6.334   6.195   4.153  3.0089 -0.3169  0.5012
 5805TIP3   OH217357   6.457   4.303   3.818  0.2337  0.3539 -0.2938
 5805TIP3    H117358   6.402   4.380   3.832  1.5647  1.2537  0.1920
 5805TIP3    H217359   6.408   4.231   3.859 -1.9334  0.5030 -2.3720
 5806TIP3   OH217360   4.275   3.901   4.395  0.0367 -0.1304 -0.9228
 5806TIP3    H117361   4.285   3.806   4.386 -2.0009 -0.4647 -0.1165
 5806TIP3    H217362   4.365   3.933   4.405  0.9151 -1.7746 -2.7479
 5807TIP3   OH217363   6.003   2.224   6.331 -0.2370 -0.3991  0.5435
 5807TIP3    H117364   5.918   2.242   6.371 -1.2107 -0.8906 -1.1925
 5807TIP3    H217365   6.061   2.290   6.367 -1.9179  1.4655  0.0082
 5808TIP3   OH217366   5.090   0.423   1.187 -0.2880 -0.2502  0.0044
 5808TIP3    H117367   5.060   0.437   1.277 -1.9749  0.0866 -0.5592
 5808TIP3    H217368   5.120   0.332   1.186  1.6026  0.2975  1.3494
 5809TIP3   OH217369   0.668   7.604   3.341 -0.4446  0.4466 -0.1486
 5809TIP3    H117370   0.597   7.555   3.299  0.2094 -1.1499  0.5263
 5809TIP3    H217371   0.640   7.613   3.432  0.1232 -0.0540  0.0843
 5810TIP3   OH217372   3.191   5.188   5.498  0.3030 -0.2404  0.3422
 5810TIP3    H117373   3.167   5.140   5.577  1.4112 -0.4530  0.5656
 5810TIP3    H217374   3.269   5.143   5.465  0.2645  0.2766 -0.4793
 5811TIP3   OH217375   2.240   0.467   3.039  0.8098  0.1265  0.5795
 5811TIP3    H117376   2.216   0.475   2.947  1.3195 -1.2151  0.3166
 5811TIP3    H217377   2.173   0.517   3.086 -1.1206 -1.5458 -0.3082
 5812TIP3   OH217378   4.226   2.285   2.713 -0.0026  0.3087 -0.7483
 5812TIP3    H117379   4.291   2.221   2.685 -0.3632 -0.4489  0.0637
 5812TIP3    H217380   4.276   2.365   2.727  0.7780 -0.2682 -0.0922
 5813TIP3   OH217381   4.451   0.340   3.277  0.3941 -0.3058  0.5163
 5813TIP3    H117382   4.385   0.399   3.313  0.6619  0.9928 -1.0143
 5813TIP3    H217383   4.531   0.360   3.327  0.2219 -0.1436  0.7303
 5814TIP3   OH217384   7.827   5.442   6.208  0.1523 -0.0699 -0.1777
 5814TIP3    H117385   7.793   5.362   6.169 -1.8675  0.0654  1.1473
 5814TIP3    H217386   7.830   5.424   6.302  0.8171  0.9997  0.0219
 5815TIP3   OH217387   3.133   3.477   3.084 -0.0382 -0.3611  0.0501
 5815TIP3    H117388   3.196   3.429   3.138  0.5287  0.3115  0.0042
 5815TIP3    H217389   3.078   3.409   3.045 -0.2788 -0.8844  1.2419
 5816TIP3   OH217390   5.999   5.997   1.749  0.0786 -0.1161  0.3078
 5816TIP3    H117391   6.049   5.920   1.722 -0.3621 -0.5103  0.5965
 5816TIP3    H217392   6.049   6.071   1.715 -0.7318 -0.6021 -2.0952
 5817TIP3   OH217393   5.500   5.089   4.672  0.3124 -0.1828 -0.3629
 5817TIP3    H117394   5.441   5.014   4.670  1.2822 -1.2134  3.2149
 5817TIP3    H217395   5.444   5.163   4.697  0.2346 -0.9018  1.7231
 5818TIP3   OH217396   7.743   2.236   0.208  0.1126 -0.2189 -0.2451
 5818TIP3    H117397   7.743   2.162   0.269 -0.0857 -0.7080 -0.8246
 5818TIP3    H217398   7.658   2.277   0.220  0.4615  0.3034  0.5268
 5819TIP3   OH217399   0.725   3.471   2.852 -0.3551  0.1628  0.1755
 5819TIP3    H117400   0.757   3.452   2.940 -0.0256 -1.6752 -0.2869
 5819TIP3    H217401   0.630   3.477   2.862 -0.3449 -0.3395  0.6189
 5820TIP3   OH217402   7.577   6.480   5.147  0.3154 -0.4362  0.2842
 5820TIP3    H117403   7.526   6.514   5.073  1.4473 -1.6335 -1.0870
 5820TIP3    H217404   7.665   6.467   5.112  1.0696 -0.3890  2.0472
 5821TIP3   OH217405   2.915   5.708   3.855 -0.0227 -0.3574  0.1178
 5821TIP3    H117406   2.969   5.771   3.807 -1.3196  0.8647  0.2217
 5821TIP3    H217407   2.825   5.730   3.832 -0.6430 -0.4201  2.2934
 5822TIP3   OH217408   4.174   3.377   5.289  0.2926 -0.0776  0.3433
 5822TIP3    H117409   4.215   3.423   5.215 -0.0289  1.1553  0.8988
 5822TIP3    H217410   4.142   3.295   5.252 -1.7666  1.4240 -1.4091
 5823TIP3   OH217411   6.388   4.602   6.626  0.0063 -0.3589 -0.6905
 5823TIP3    H117412   6.444   4.645   6.690  0.6996 -2.2302  0.0425
 5823TIP3    H217413   6.303   4.646   6.634  0.9059  1.4154 -0.6400
 5824TIP3   OH217414   4.851   1.523   5.840  0.2631  0.3529  0.3283
 5824TIP3    H117415   4.831   1.598   5.784 -1.0773 -0.2655 -0.0550
 5824TIP3    H217416   4.795   1.535   5.916  0.6032  0.1250  0.6176
 5825TIP3   OH217417   6.258   7.425   3.482 -0.0867  0.6077  0.2200
 5825TIP3    H117418   6.187   7.393   3.426 -0.3455 -0.0169  0.8729
 5825TIP3    H217419   6.246   7.520   3.485 -0.7155  0.5395  0.0738
 5826TIP3   OH217420   5.565   4.332   2.462 -0.0520 -0.1878 -0.6138
 5826TIP3    H117421   5.619   4.257   2.438  2.3087  1.0002  0.6206
 5826TIP3    H217422   5.552   4.323   2.557  0.0473  0.8285 -0.4933
 5827TIP3   OH217423   5.143   0.461   6.548 -0.0885  0.0893  0.3196
 5827TIP3    H117424   5.148   0.366   6.558 -3.7976 -0.1159  2.0459
 5827TIP3    H217425   5.183   0.479   6.463  1.5837 -2.8493  0.3546
 5828TIP3   OH217426   5.262   1.258   0.854 -0.6173  0.0098  0.4245
 5828TIP3    H117427   5.357   1.250   0.852 -0.7237 -1.3087 -0.0325
 5828TIP3    H217428   5.242   1.326   0.790  0.0337  0.6340  0.8669
 5829TIP3   OH217429   8.114   3.864   1.325 -0.0524  0.4142  0.2156
 5829TIP3    H117430   8.105   3.788   1.267  0.9414  1.0111 -0.7409
 5829TIP3    H217431   8.198   3.902   1.303  0.8828  0.0721  2.7918
 5830TIP3   OH217432   4.022   0.594   0.119  0.5464  0.2103  0.3908
 5830TIP3    H117433   3.930   0.611   0.097  0.9337  0.1486 -1.4062
 5830TIP3    H217434   4.049   0.669   0.172 -0.0629  1.0812 -0.5185
 5831TIP3   OH217435   6.604   2.388   3.401  0.2722 -0.3100  0.3581
 5831TIP3    H117436   6.607   2.418   3.311 -2.0298  1.1502  0.6795
 5831TIP3    H217437   6.516   2.351   3.411  1.1882 -2.3548  1.4762
 5832TIP3   OH217438   8.205   0.588   0.188  0.6469 -0.2484  0.1111
 5832TIP3    H117439   8.295   0.621   0.181  0.6209 -0.3905 -1.1238
 5832TIP3    H217440   8.155   0.642   0.126 -0.0849 -0.3206  0.6232
 5833TIP3   OH217441   2.957   0.757   3.537  0.1039  1.0244  0.0624
 5833TIP3    H117442   2.962   0.689   3.470  1.5200 -1.6021  2.6244
 5833TIP3    H217443   3.036   0.809   3.525  1.6914 -1.0185  1.1652
 5834TIP3   OH217444   1.470   5.388   4.424 -0.2087  0.8413  0.6342
 5834TIP3    H117445   1.482   5.483   4.425 -3.2789  1.3663  0.4079
 5834TIP3    H217446   1.388   5.374   4.472 -0.4809 -1.5472 -0.3649
 5835TIP3   OH217447   0.165   3.197   2.248 -0.3640 -0.3671 -0.0994
 5835TIP3    H117448   0.228   3.258   2.209  1.1248 -1.1333  1.0239
 5835TIP3    H217449   0.087   3.251   2.265  0.5955  1.0243  0.0551
 5836TIP3   OH217450   3.269   4.311   5.715 -0.4341  0.1835 -0.3598
 5836TIP3    H117451   3.253   4.220   5.693 -0.4229 -0.0782  0.6651
 5836TIP3    H217452   3.309   4.308   5.802  0.5779  1.0965 -0.7655
 5837TIP3   OH217453   0.841   1.980   3.221  0.4157 -0.2685 -0.0188
 5837TIP3    H117454   0.823   1.888   3.202  2.6554 -0.9142  0.6443
 5837TIP3    H217455   0.836   1.986   3.316  1.2223  0.0474  0.0094
 5838TIP3   OH217456   7.050   4.987   3.707 -0.5664  0.4614 -0.0174
 5838TIP3    H117457   6.980   5.045   3.739 -1.8974 -1.1728  0.2140
 5838TIP3    H217458   7.051   5.000   3.613 -2.7332 -1.0174 -0.3175
 5839TIP3   OH217459   7.416   6.780   1.663  0.4841 -0.7289 -0.3204
 5839TIP3    H117460   7.382   6.772   1.752 -1.7155  0.5179 -0.9580
 5839TIP3    H217461   7.426   6.874   1.649  0.4206 -0.8798 -1.5108
 5840TIP3   OH217462   4.799   5.970   1.835  0.0506 -0.0564  0.3230
 5840TIP3    H117463   4.786   6.042   1.773 -0.7281 -0.1152  0.4054
 5840TIP3    H217464   4.733   5.985   1.903 -0.8840 -1.4613 -0.2390
 5841TIP3   OH217465   3.135   5.090   6.389 -0.4001  0.1810 -0.3385
 5841TIP3    H117466   3.187   5.170   6.388  0.0830 -0.1356 -0.7229
 5841TIP3    H217467   3.045   5.120   6.380 -0.3459  0.7746  0.8882
 5842TIP3   OH217468   1.772   1.948   3.237  0.2215 -0.1619 -0.0413
 5842TIP3    H117469   1.851   1.939   3.290 -1.4161  0.1833  2.6744
 5842TIP3    H217470   1.726   1.865   3.249 -0.5693  0.2345 -0.2842
 5843TIP3   OH217471   8.209   2.925   2.406  0.2596  0.5724 -0.0229
 5843TIP3    H117472   8.266   2.856   2.372  0.5786  1.7683 -2.0643
 5843TIP3    H217473   8.249   3.007   2.377 -0.5062  1.6259  1.7027
 5844TIP3   OH217474   1.943   0.812   3.504 -0.3399 -0.3779  0.5453
 5844TIP3    H117475   2.020   0.855   3.468  0.2689 -2.4258 -0.7886
 5844TIP3    H217476   1.965   0.795   3.595  0.6477 -0.6007  0.2729
 5845TIP3   OH217477   4.757   6.496   4.455  0.3253  0.5140 -0.2830
 5845TIP3    H117478   4.717   6.583   4.443 -0.3136  0.4442  1.1342
 5845TIP3    H217479   4.793   6.474   4.369  0.7414  2.2993 -0.6001
 5846TIP3   OH217480   8.148   6.762   3.847 -0.2082  0.2936 -0.1444
 5846TIP3    H117481   8.137   6.674   3.882  1.6405  0.4956  1.1138
 5846TIP3    H217482   8.079   6.771   3.782  0.1665 -2.4310 -1.0312
 5847TIP3   OH217483   4.632   6.919   1.446  0.1186  0.4755  0.2611
 5847TIP3    H117484   4.606   7.010   1.454  0.1812  0.7616 -2.1278
 5847TIP3    H217485   4.615   6.896   1.355  1.2045 -1.5582  0.4913
 5848TIP3   OH217486   7.824   7.304   0.045 -0.1951 -0.5880  0.3842
 5848TIP3    H117487   7.891   7.237   0.061  0.8398  0.3761  0.2244
 5848TIP3    H217488   7.863   7.385   0.077 -1.1904  0.0448  0.0484
 5849TIP3   OH217489   4.222   7.419   5.995 -0.2950 -0.3406 -0.0826
 5849TIP3    H117490   4.186   7.465   5.919 -1.5732 -0.4624  0.4392
 5849TIP3    H217491   4.310   7.393   5.967  0.6623  2.7191 -0.2861
 5850TIP3   OH217492   3.296   5.598   3.795  0.0602 -0.0818 -0.0268
 5850TIP3    H117493   3.321   5.674   3.741 -1.2210  0.1942 -0.2565
 5850TIP3    H217494   3.299   5.631   3.885  1.8354 -0.4401  0.0788
 5851TIP3   OH217495   1.077   3.241   5.487  0.0095 -0.6365  0.0167
 5851TIP3    H117496   1.076   3.190   5.567  1.7604  0.9817  1.1645
 5851TIP3    H217497   1.160   3.220   5.445  0.9485  1.4433  0.7099
 5852TIP3   OH217498   2.906   1.536   3.054  0.4904  0.5776  0.2209
 5852TIP3    H117499   2.843   1.604   3.030  0.1458 -0.6549 -2.8313
 5852TIP3    H217500   2.859   1.454   3.040  1.4260 -0.3587  2.2016
 5853TIP3   OH217501   0.997   2.598   6.498  0.3977 -0.5139 -0.9702
 5853TIP3    H117502   1.071   2.651   6.528  0.4430 -1.0563 -0.0984
 5853TIP3    H217503   0.920   2.652   6.517  0.4887 -0.4800 -0.6838
 5854TIP3   OH217504   0.618   5.603   5.250  0.4826 -0.0111 -0.3720
 5854TIP3    H117505   0.679   5.532   5.271  0.3571 -0.5285 -1.6626
 5854TIP3    H217506   0.674   5.672   5.214  0.4713  0.0909 -0.1940
 5855TIP3   OH217507   4.692   3.030   5.661 -0.7017 -0.8063 -0.2225
 5855TIP3    H117508   4.629   3.003   5.728 -1.0040 -0.5970 -0.4225
 5855TIP3    H217509   4.758   3.080   5.709 -2.6557  2.2777 -0.5146
 5856TIP3   OH217510   6.931   3.903   0.611  0.0316  0.3082 -0.4076
 5856TIP3    H117511   7.008   3.849   0.590 -0.2224 -0.1338 -0.2229
 5856TIP3    H217512   6.857   3.844   0.601 -0.2547  0.6298 -0.2151
 5857TIP3   OH217513   1.963   1.783   6.649 -0.3476 -0.3286  0.0143
 5857TIP3    H117514   1.927   1.836   6.578  0.7181  0.1137 -0.2153
 5857TIP3    H217515   1.923   1.818   6.728 -1.4331 -0.7305 -0.3411
 5858TIP3   OH217516   0.303   4.902   5.214  0.1660  0.1893  0.1038
 5858TIP3    H117517   0.321   4.860   5.299 -0.8324  2.4798  1.5386
 5858TIP3    H217518   0.337   4.991   5.223  1.0213  0.1953 -2.3539
 5859TIP3   OH217519   0.093   1.620   6.278 -0.1975 -0.0515  0.0088
 5859TIP3    H117520   0.127   1.537   6.245  0.3542  0.7914 -1.6909
 5859TIP3    H217521   0.161   1.684   6.255 -0.3142  0.7899  1.8425
 5860TIP3   OH217522   1.979   1.855   2.469 -0.2383 -0.5629 -0.1528
 5860TIP3    H117523   1.959   1.889   2.382 -1.8739 -0.8994  0.0616
 5860TIP3    H217524   1.951   1.924   2.529  1.6534  0.0238  0.1250
 5861TIP3   OH217525   5.030   3.805   4.778  0.1830 -0.2555  0.0847
 5861TIP3    H117526   5.049   3.774   4.689  1.0266 -1.6811  0.7377
 5861TIP3    H217527   5.045   3.899   4.773 -1.8285  0.0644 -1.7985
 5862TIP3   OH217528   3.893   4.133   0.767 -0.0572  0.2384  0.2709
 5862TIP3    H117529   3.814   4.087   0.739 -0.5055  0.6378  0.8495
 5862TIP3    H217530   3.928   4.172   0.686 -1.0764  0.9999  0.1812
 5863TIP3   OH217531   1.622   0.231   0.328  0.3114 -0.5057  0.3317
 5863TIP3    H117532   1.591   0.306   0.379 -0.7389  1.0116 -2.3401
 5863TIP3    H217533   1.568   0.158   0.357  1.4431 -0.3581  3.0842
 5864TIP3   OH217534   0.841   5.101   4.140 -0.1133 -0.2535 -0.2477
 5864TIP3    H117535   0.928   5.124   4.172  0.4999 -1.1371 -1.2057
 5864TIP3    H217536   0.854   5.019   4.092 -1.4197 -0.2495 -0.6540
 5865TIP3   OH217537   5.614   2.847   2.999  0.4355  0.0753  0.0910
 5865TIP3    H117538   5.637   2.757   2.976 -1.5241 -0.1488 -1.2295
 5865TIP3    H217539   5.664   2.901   2.937  0.9447 -0.1333  0.3124
 5866TIP3   OH217540   0.325   7.319   6.218 -0.0544 -0.6467  0.0465
 5866TIP3    H117541   0.284   7.266   6.150  0.8591 -0.9031 -0.3158
 5866TIP3    H217542   0.416   7.289   6.221 -0.0519 -0.5596  1.3062
 5867TIP3   OH217543   0.163   5.538   6.695  0.0435 -0.8053  0.3635
 5867TIP3    H117544   0.224   5.612   6.704  0.4356 -0.9796 -0.6850
 5867TIP3    H217545   0.090   5.560   6.751  0.7689 -0.2546  1.1166
 5868TIP3   OH217546   5.974   6.281   6.070  0.3307 -0.0901  0.0349
 5868TIP3    H117547   6.008   6.340   6.002 -0.1258 -0.7188 -0.7552
 5868TIP3    H217548   5.944   6.339   6.139  0.0561  0.6018 -0.6522
 5869TIP3   OH217549   5.078   7.330   6.142 -0.2558 -0.5916  0.1112
 5869TIP3    H117550   4.992   7.312   6.104  0.6466  0.0279 -2.4712
 5869TIP3    H217551   5.096   7.253   6.196 -1.0141 -2.4443 -2.0555
 5870TIP3   OH217552   5.119   4.299   4.234  0.3441 -0.0553  0.1977
 5870TIP3    H117553   5.071   4.218   4.250  0.7817 -0.0237  1.8364
 5870TIP3    H217554   5.069   4.344   4.166  0.6382 -2.1377 -1.4900
 5871TIP3   OH217555   4.453   5.569   4.274  0.1291 -0.2224 -0.2343
 5871TIP3    H117556   4.441   5.601   4.363  0.8273 -0.2853 -0.1185
 5871TIP3    H217557   4.363   5.556   4.242 -0.1253 -1.1449  0.7883
 5872TIP3   OH217558   3.734   1.016   1.616 -0.2728 -0.1711 -0.0771
 5872TIP3    H117559   3.644   1.043   1.597  0.0050  0.2026 -0.9509
 5872TIP3    H217560   3.725   0.939   1.672 -1.1679 -0.8424 -1.0836
 5873TIP3   OH217561   3.528   4.381   1.554  0.0184  0.1422 -0.0654
 5873TIP3    H117562   3.477   4.302   1.534  0.3951  0.2142 -1.4752
 5873TIP3    H217563   3.462   4.450   1.560 -0.1079  0.2950 -2.2056
 5874TIP3   OH217564   1.390   4.266   0.374 -0.2888  0.2834  0.4531
 5874TIP3    H117565   1.415   4.195   0.315  0.5998 -0.0144  1.1814
 5874TIP3    H217566   1.329   4.319   0.322 -2.4800 -1.9843  0.4724
 5875TIP3   OH217567   5.549   0.125   0.524  0.6715  0.4311  0.1574
 5875TIP3    H117568   5.476   0.086   0.476  1.6863 -0.9300 -0.3371
 5875TIP3    H217569   5.588   0.187   0.463 -0.2644  1.4534  0.5563
 5876TIP3   OH217570   5.190   3.509   6.528  0.4966  0.2013  0.0276
 5876TIP3    H117571   5.127   3.439   6.541 -0.1061  0.9639  1.4044
 5876TIP3    H217572   5.222   3.529   6.616  0.4915  1.7977 -0.3089
 5877TIP3   OH217573   6.303   5.974   5.087  0.2344 -0.4140  0.2227
 5877TIP3    H117574   6.398   5.981   5.095  0.6895 -0.2386 -3.5597
 5877TIP3    H217575   6.287   5.885   5.054 -0.8601 -0.2748  0.3158
 5878TIP3   OH217576   6.211   4.222   6.533 -0.2071  0.6780  0.0970
 5878TIP3    H117577   6.221   4.261   6.620  0.4933 -0.4876  0.5656
 5878TIP3    H217578   6.277   4.266   6.479 -0.9472  1.7257  0.0138
 5879TIP3   OH217579   3.978   4.612   3.547 -0.1370 -0.1058 -0.1569
 5879TIP3    H117580   3.991   4.644   3.458  3.7998  0.1938  0.3571
 5879TIP3    H217581   3.955   4.691   3.597  1.6297  0.5316 -0.2809
 5880TIP3   OH217582   1.255   1.087   6.504  0.3000  0.3238  0.1084
 5880TIP3    H117583   1.331   1.138   6.476 -0.9524  1.3702 -1.6328
 5880TIP3    H217584   1.267   1.002   6.462  1.0923  0.0626  0.8428
 5881TIP3   OH217585   2.464   0.592   2.648  0.7655  0.2232 -0.0217
 5881TIP3    H117586   2.371   0.568   2.654 -0.0664  3.1034  0.1868
 5881TIP3    H217587   2.511   0.509   2.658 -1.7790 -1.5585 -1.5869
 5882TIP3   OH217588   4.425   1.697   2.832 -0.0549  0.1170 -0.6016
 5882TIP3    H117589   4.369   1.620   2.823  1.7393 -1.2384 -0.7420
 5882TIP3    H217590   4.455   1.715   2.744 -0.3394  0.8982 -0.5430
 5883TIP3   OH217591   3.657   3.908   4.878  0.1948 -0.5111 -0.6277
 5883TIP3    H117592   3.694   3.846   4.816  1.0252 -0.6011 -0.0532
 5883TIP3    H217593   3.688   3.994   4.849  1.0145 -0.6001 -0.0599
 5884TIP3   OH217594   0.701   5.627   1.856 -0.6940  0.5570 -0.1542
 5884TIP3    H117595   0.627   5.677   1.891 -0.9592  1.0740 -1.4175
 5884TIP3    H217596   0.666   5.584   1.778  0.0453 -0.0996 -0.1392
 5885TIP3   OH217597   0.653   1.275   3.777  0.0289 -0.7055  0.0043
 5885TIP3    H117598   0.733   1.248   3.732  0.0901 -0.0447 -0.3074
 5885TIP3    H217599   0.583   1.224   3.736 -0.0299  0.4779 -1.4557
 5886TIP3   OH217600   0.251   2.241   3.553 -0.1006 -0.4099 -0.3123
 5886TIP3    H117601   0.268   2.315   3.495 -0.9585 -1.3498 -1.8115
 5886TIP3    H217602   0.155   2.236   3.558 -0.0670 -1.8848 -0.8586
 5887TIP3   OH217603   7.926   4.489   5.697  0.1949 -0.0916  0.0000
 5887TIP3    H117604   7.980   4.433   5.752  0.1019  0.0473  0.2337
 5887TIP3    H217605   7.936   4.453   5.609  0.0124 -0.5651  0.1732
 5888TIP3   OH217606   2.398   3.404   1.510  0.3114  0.0709 -0.2135
 5888TIP3    H117607   2.376   3.459   1.586  0.9236  0.3824 -0.2595
 5888TIP3    H217608   2.313   3.368   1.482  0.2312 -1.2718  1.5396
 5889TIP3   OH217609   2.446   2.560   2.146  0.6511  0.3324 -0.0414
 5889TIP3    H117610   2.452   2.552   2.051  0.3460  1.4159 -0.1713
 5889TIP3    H217611   2.420   2.473   2.176  0.8250 -0.0438 -0.9400
 5890TIP3   OH217612   1.658   0.964   3.689  0.2316 -0.0276  0.4277
 5890TIP3    H117613   1.697   0.990   3.605  1.1867 -0.5752  0.6937
 5890TIP3    H217614   1.696   1.024   3.753 -1.4695  1.2444  0.3245
 5891TIP3   OH217615   7.632   6.794   6.206 -0.2211 -0.4993 -0.3541
 5891TIP3    H117616   7.695   6.797   6.278 -0.9418 -0.3493  0.2829
 5891TIP3    H217617   7.594   6.707   6.211  1.3872 -1.3782 -2.0412
 5892TIP3   OH217618   6.474   2.779   6.229 -0.6809  0.4418 -0.2836
 5892TIP3    H117619   6.404   2.837   6.200  0.8524  2.6605  0.1874
 5892TIP3    H217620   6.479   2.712   6.161 -4.0050 -0.5433  0.2724
 5893TIP3   OH217621   1.028   7.702   2.045  0.3121  0.1692  0.4219
 5893TIP3    H117622   1.114   7.674   2.078  0.0691  1.1577  1.9931
 5893TIP3    H217623   0.965   7.662   2.104 -0.3271 -0.3462 -0.5768
 5894TIP3   OH217624   4.688   1.058   0.997  0.7826  0.0180 -0.1860
 5894TIP3    H117625   4.600   1.034   0.968 -0.5447  2.1527  1.7454
 5894TIP3    H217626   4.745   1.023   0.929 -1.4516 -2.0788 -1.1510
 5895TIP3   OH217627   2.303   0.862   2.980 -0.8198  0.2391  0.3175
 5895TIP3    H117628   2.248   0.859   2.902 -0.6761  0.2761  0.2134
 5895TIP3    H217629   2.242   0.854   3.053 -1.1495  1.9807  0.2721
 5896TIP3   OH217630   2.937   0.655   1.161 -0.3439 -0.5888 -0.4992
 5896TIP3    H117631   2.881   0.612   1.096 -0.8206 -0.3033 -0.2897
 5896TIP3    H217632   2.875   0.686   1.227  0.1130 -0.6645 -0.0333
 5897TIP3   OH217633   2.171   3.747   3.937  0.2918 -0.2740  0.5530
 5897TIP3    H117634   2.250   3.732   3.988  0.1615 -0.0392  0.8282
 5897TIP3    H217635   2.187   3.702   3.854  0.3029 -1.0720  0.9819
 5898TIP3   OH217636   1.656   7.284   3.481 -0.2327  0.1134  0.0104
 5898TIP3    H117637   1.628   7.250   3.396  1.1845 -0.2656 -0.3142
 5898TIP3    H217638   1.635   7.215   3.543 -0.4636  0.0349 -0.1538
 5899TIP3   OH217639   7.510   7.122   6.744 -0.0322  0.3406  0.5383
 5899TIP3    H117640   7.459   7.170   6.810  0.0593  1.0474  0.1057
 5899TIP3    H217641   7.516   7.182   6.670  1.4833  0.3136  0.5971
 5900TIP3   OH217642   6.636   0.099   5.803 -0.6490 -0.0671 -0.3305
 5900TIP3    H117643   6.607   0.031   5.742  1.1476 -1.0345 -0.1895
 5900TIP3    H217644   6.680   0.163   5.747  0.3877 -0.6106 -0.1736
 5901TIP3   OH217645   2.308   0.002   6.749  0.0416  0.0166 -0.3526
 5901TIP3    H117646   2.214   0.019   6.758  0.0568  0.1016 -0.3609
 5901TIP3    H217647   2.323   0.002   6.654  0.1820  0.6999 -0.3283
 5902TIP3   OH217648   8.117   3.416   0.735  0.1098  0.8030 -0.2392
 5902TIP3    H117649   8.117   3.335   0.684  1.8135 -0.3451  1.4285
 5902TIP3    H217650   8.027   3.425   0.766 -0.3473  0.1397 -1.3408
 5903TIP3   OH217651   3.924   0.565   5.278  0.7464  0.6988  0.5883
 5903TIP3    H117652   3.857   0.633   5.267 -0.0729 -0.4007 -2.1000
 5903TIP3    H217653   3.984   0.600   5.344 -1.9785  2.0917  2.5165
 5904TIP3   OH217654   5.622   2.498   1.998  0.7196  0.3252  0.3590
 5904TIP3    H117655   5.613   2.542   2.082  1.1098  1.0604  0.0228
 5904TIP3    H217656   5.579   2.557   1.936  0.0183 -0.4299  0.1010
 5905TIP3   OH217657   3.216   6.042   6.215  0.1781 -0.0332 -0.0179
 5905TIP3    H117658   3.177   6.130   6.214 -0.6830 -0.3631  1.4015
 5905TIP3    H217659   3.195   6.005   6.129 -0.6169  0.6620 -0.1368
 5906TIP3   OH217660   1.960   7.643   4.344 -0.1534  0.0716 -0.0005
 5906TIP3    H117661   2.024   7.577   4.371  0.4937  0.5886 -0.2430
 5906TIP3    H217662   2.001   7.686   4.269 -0.4834  0.8866  0.2872
 5907TIP3   OH217663   6.184   2.386   2.496 -0.5297  0.0191 -0.2300
 5907TIP3    H117664   6.243   2.460   2.510  0.7656 -1.1798  0.9946
 5907TIP3    H217665   6.238   2.321   2.450 -1.4022 -0.4801 -0.5708
 5908TIP3   OH217666   2.155   7.103   0.077 -0.0459 -0.5655  0.6009
 5908TIP3    H117667   2.172   7.188   0.036  1.0468 -1.8396 -1.8138
 5908TIP3    H217668   2.060   7.094   0.075 -0.3579  1.4101  2.7963
 5909TIP3   OH217669   2.910   5.395   2.128  0.5038 -0.0905  0.2984
 5909TIP3    H117670   2.915   5.474   2.074  1.6913  0.5234  1.2592
 5909TIP3    H217671   2.892   5.325   2.066 -1.1155  0.9809 -0.5163
 5910TIP3   OH217672   0.548   5.664   2.382 -0.0386 -0.0084  0.4870
 5910TIP3    H117673   0.491   5.740   2.381  0.1821  0.1661  0.8177
 5910TIP3    H217674   0.497   5.596   2.426 -0.7318 -0.4620 -0.9562
 5911TIP3   OH217675   3.176   6.933   4.705  0.1060  0.6285 -0.1452
 5911TIP3    H117676   3.170   6.838   4.697  0.8533  0.5317  0.3003
 5911TIP3    H217677   3.242   6.959   4.641 -0.1277  0.8529 -0.2967
 5912TIP3   OH217678   7.850   2.220   6.079 -0.3178  0.5543 -0.5024
 5912TIP3    H117679   7.806   2.190   6.158 -0.7574  0.9034 -0.6122
 5912TIP3    H217680   7.868   2.141   6.029  0.8831  0.2162  0.4075
 5913TIP3   OH217681   2.929   3.122   2.773  0.4152  0.2774  0.0011
 5913TIP3    H117682   2.868   3.062   2.816  1.5740  0.7936  2.4847
 5913TIP3    H217683   2.887   3.142   2.689 -1.1046 -2.1314  0.1097
 5914TIP3   OH217684   5.375   7.092   1.567 -0.0639  0.3059  0.5279
 5914TIP3    H117685   5.287   7.054   1.563 -0.1104  0.4488  0.0848
 5914TIP3    H217686   5.428   7.025   1.609 -0.1063 -0.3524 -0.4152
 5915TIP3   OH217687   2.216   0.363   6.282  0.0876  0.4015 -0.2496
 5915TIP3    H117688   2.208   0.391   6.373  1.8721 -0.5791  0.2636
 5915TIP3    H217689   2.131   0.323   6.262 -0.4373  0.9039  0.8720
 5916TIP3   OH217690   3.313   0.482   2.820  0.8275 -0.3625 -0.4506
 5916TIP3    H117691   3.405   0.456   2.829  0.1031 -2.7237  1.6296
 5916TIP3    H217692   3.293   0.526   2.903  0.3919  1.3883 -1.4494
 5917TIP3   OH217693   3.751   6.876   5.453  0.1284  0.2081 -0.5267
 5917TIP3    H117694   3.701   6.833   5.522 -0.9474  0.7214 -0.9703
 5917TIP3    H217695   3.759   6.967   5.482  0.1941  0.2892 -0.8002
 5918TIP3   OH217696   3.764   2.724   2.202  0.2257  0.0129  0.3083
 5918TIP3    H117697   3.673   2.696   2.211  0.9206 -2.3278  0.6974
 5918TIP3    H217698   3.796   2.676   2.125  0.7713  1.9737 -0.7666
 5919TIP3   OH217699   1.102   6.544   1.457 -0.1869  0.4822  0.2080
 5919TIP3    H117700   1.077   6.456   1.483 -0.6419  0.5266 -0.0638
 5919TIP3    H217701   1.162   6.574   1.525  1.1471 -0.5876 -0.4484
 5920TIP3   OH217702   6.220   3.085   1.616  0.3227 -0.3421 -0.1938
 5920TIP3    H117703   6.240   3.134   1.696  0.0632  0.6118 -0.6981
 5920TIP3    H217704   6.145   3.031   1.639  1.2118 -1.2622  0.6570
 5921TIP3   OH217705   0.308   6.946   0.508  0.0607 -0.6746  0.1332
 5921TIP3    H117706   0.380   6.980   0.455 -0.3888  0.2154  0.0877
 5921TIP3    H217707   0.237   7.009   0.496 -0.7502 -1.5692  0.1347
 5922TIP3   OH217708   4.549   7.076   3.160  0.1086 -1.0713 -0.2452
 5922TIP3    H117709   4.588   7.020   3.227  2.3086 -0.1812 -0.6672
 5922TIP3    H217710   4.506   7.146   3.209  0.4764 -1.1955  0.2584
 5923TIP3   OH217711   1.383   2.196   5.557 -0.6059 -0.1651 -0.3967
 5923TIP3    H117712   1.420   2.134   5.493  0.1318  0.1148 -0.2443
 5923TIP3    H217713   1.422   2.171   5.640  0.9833  1.4897 -0.5774
 5924TIP3   OH217714   6.008   0.860   3.512  0.4561 -0.3005 -0.1918
 5924TIP3    H117715   6.029   0.952   3.497  1.2778 -0.8150 -2.6101
 5924TIP3    H217716   5.955   0.860   3.592  1.6227  2.0933  0.6824
 5925TIP3   OH217717   5.228   4.355   1.042 -0.0591 -0.0951  0.1595
 5925TIP3    H117718   5.178   4.273   1.034  0.3999 -0.4890  1.1952
 5925TIP3    H217719   5.216   4.398   0.957 -3.0357  0.3512  0.7140
 5926TIP3   OH217720   0.958   0.221   5.040  0.6994  0.4661 -0.3248
 5926TIP3    H117721   0.977   0.140   4.992  1.3664  0.0936  0.5257
 5926TIP3    H217722   1.028   0.226   5.105 -0.4912  0.6467  0.9904
 5927TIP3   OH217723   0.132   1.948   6.498 -0.1306 -0.5283 -0.1996
 5927TIP3    H117724   0.211   1.896   6.484  2.0909  2.6592 -0.7845
 5927TIP3    H217725   0.086   1.944   6.414  1.8376  1.0427 -1.4862
 5928TIP3   OH217726   0.168   0.509   5.956  0.1484 -0.2444  0.1073
 5928TIP3    H117727   0.241   0.549   6.004 -0.2093 -1.1711  1.4814
 5928TIP3    H217728   0.199   0.504   5.866  1.4196  0.2361  0.4896
 5929TIP3   OH217729   3.462   5.245   2.673 -0.6221 -0.2177 -0.1697
 5929TIP3    H117730   3.495   5.334   2.665 -0.6666 -0.3114 -1.7744
 5929TIP3    H217731   3.411   5.231   2.592 -0.4555 -1.7573 -0.0412
 5930TIP3   OH217732   6.949   6.999   4.746  0.2610  0.1308  0.1165
 5930TIP3    H117733   6.985   7.003   4.835  3.3846  0.0139 -1.0181
 5930TIP3    H217734   6.967   7.085   4.709  2.9404 -1.0487 -1.6599
 5931TIP3   OH217735   7.408   3.626   5.859 -0.6663  0.2599  0.2120
 5931TIP3    H117736   7.379   3.684   5.930 -2.7013 -0.2918 -0.1049
 5931TIP3    H217737   7.374   3.667   5.779 -0.3503 -0.3022 -0.2198
 5932TIP3   OH217738   4.686   6.951   3.367  0.5141 -0.3726  0.3730
 5932TIP3    H117739   4.688   7.036   3.410 -1.1608  0.1750 -0.5213
 5932TIP3    H217740   4.777   6.930   3.350  0.9250  1.5982 -0.0407
 5933TIP3   OH217741   5.380   5.767   6.595  0.4046 -0.4240 -0.1852
 5933TIP3    H117742   5.473   5.782   6.613  0.5109  1.1700 -1.8016
 5933TIP3    H217743   5.334   5.816   6.663  0.7728  0.4740 -0.5704
 5934TIP3   OH217744   6.537   3.393   5.848  0.8113 -0.0226  0.3589
 5934TIP3    H117745   6.506   3.483   5.852  1.8079  0.3637 -0.3485
 5934TIP3    H217746   6.630   3.400   5.825  1.1534 -1.1849  1.2721
 5935TIP3   OH217747   1.259   0.429   3.877 -0.5563 -0.2494 -0.1220
 5935TIP3    H117748   1.272   0.434   3.971 -1.9759 -1.9684  0.2201
 5935TIP3    H217749   1.347   0.435   3.840 -0.0545  1.3047  1.2333
 5936TIP3   OH217750   2.837   6.060   2.382  0.1477  0.1867  0.0626
 5936TIP3    H117751   2.858   6.117   2.308 -0.6376 -0.5725 -0.7631
 5936TIP3    H217752   2.887   5.979   2.365 -0.2704 -0.1020  0.1968
 5937TIP3   OH217753   6.008   7.538   0.721 -0.5080 -0.7093 -0.2079
 5937TIP3    H117754   5.932   7.521   0.777  1.6485 -1.6418  2.6972
 5937TIP3    H217755   6.028   7.453   0.681 -0.3424 -0.7288 -0.0841
 5938TIP3   OH217756   5.905   3.601   3.351  0.0521 -0.4258 -0.0947
 5938TIP3    H117757   5.967   3.569   3.286  1.2477  1.3943  0.0567
 5938TIP3    H217758   5.827   3.547   3.340  0.9773 -1.5202 -1.5988
 5939TIP3   OH217759   2.352   6.258   4.428 -0.2474 -0.1553 -1.0490
 5939TIP3    H117760   2.446   6.260   4.411  0.1660 -0.8964  0.8328
 5939TIP3    H217761   2.335   6.338   4.479 -0.7980  0.3510 -1.9952
 5940TIP3   OH217762   3.172   1.431   4.244 -0.2358  0.1768  0.0336
 5940TIP3    H117763   3.237   1.472   4.187 -0.4818  0.4007 -0.0826
 5940TIP3    H217764   3.088   1.451   4.204 -0.3725 -0.2037  0.1286
 5941TIP3   OH217765   1.120   2.289   0.782 -0.2968 -0.4064  0.1599
 5941TIP3    H117766   1.070   2.240   0.716  0.0443  0.9835 -1.2107
 5941TIP3    H217767   1.061   2.361   0.807 -0.3111 -0.7590  1.1903
 5942TIP3   OH217768   1.160   7.767   1.117  0.2609  0.1103 -0.4679
 5942TIP3    H117769   1.086   7.816   1.081  1.1373 -0.3878 -3.2246
 5942TIP3    H217770   1.163   7.687   1.064  1.7891 -0.6348  0.6733
 5943TIP3   OH217771   1.436   5.236   2.953 -0.4302 -0.0309  0.1205
 5943TIP3    H117772   1.437   5.331   2.939 -0.3219  0.1425  1.2529
 5943TIP3    H217773   1.459   5.225   3.045 -0.3009 -1.1713 -0.0370
 5944TIP3   OH217774   2.587   5.618   2.512 -0.0684 -0.1192 -0.1218
 5944TIP3    H117775   2.607   5.540   2.563  1.0640  0.1774 -0.0861
 5944TIP3    H217776   2.631   5.689   2.559  0.8383  0.1833 -1.4030
 5945TIP3   OH217777   6.616   3.164   3.140  0.3718  0.4697 -0.4326
 5945TIP3    H117778   6.651   3.239   3.091  1.3167 -0.2705 -0.9365
 5945TIP3    H217779   6.690   3.133   3.191  0.2267 -0.6032 -0.8426
 5946TIP3   OH217780   1.634   3.008   0.215 -0.2349 -0.1710 -0.2188
 5946TIP3    H117781   1.566   3.044   0.273 -0.3953  1.0460 -1.1556
 5946TIP3    H217782   1.635   3.065   0.139  0.8369 -1.0404 -0.8902
 5947TIP3   OH217783   4.927   1.995   2.025 -0.4337 -0.1206  0.0659
 5947TIP3    H117784   4.859   2.061   2.009 -0.0927  0.6311  1.6306
 5947TIP3    H217785   4.902   1.922   1.967 -0.9797  1.2302 -1.4740
 5948TIP3   OH217786   3.404   3.813   2.840  0.3442  0.2571  0.3502
 5948TIP3    H117787   3.471   3.820   2.773 -0.7754  1.4669 -0.6997
 5948TIP3    H217788   3.394   3.719   2.855 -0.2746 -0.1351 -2.1346
 5949TIP3   OH217789   4.515   4.284   2.522 -0.4836 -0.0884 -0.2551
 5949TIP3    H117790   4.594   4.325   2.486 -1.0385  0.3721 -0.9855
 5949TIP3    H217791   4.526   4.290   2.617 -0.1571  1.0068 -0.3476
 5950TIP3   OH217792   6.698   4.526   4.395  0.1341  0.7608  0.1883
 5950TIP3    H117793   6.649   4.481   4.326  2.6089  0.0224 -1.1737
 5950TIP3    H217794   6.691   4.467   4.470 -1.8556  1.1570  0.3749
 5951TIP3   OH217795   1.953   6.962   0.921  0.7288  0.3750 -0.5871
 5951TIP3    H117796   1.966   6.991   0.831 -1.0919  1.7150 -0.4780
 5951TIP3    H217797   1.863   6.987   0.941  0.7149 -0.9446  1.2341
 5952TIP3   OH217798   5.154   4.244   2.598  0.3839 -0.3350  0.3185
 5952TIP3    H117799   5.173   4.251   2.505 -0.7277 -0.1082  0.0913
 5952TIP3    H217800   5.059   4.254   2.604  0.5926  1.2734  1.6165
 5953TIP3   OH217801   0.728   1.959   1.147 -0.3291 -0.3243  0.1518
 5953TIP3    H117802   0.806   1.903   1.150 -0.9338 -1.3708 -1.9120
 5953TIP3    H217803   0.761   2.047   1.161  1.0540 -0.8817  0.5577
 5954TIP3   OH217804   2.545   6.569   2.987  0.0088  0.2016  0.1301
 5954TIP3    H117805   2.608   6.503   3.018  0.6140  0.6088 -0.1991
 5954TIP3    H217806   2.578   6.651   3.022 -1.3928  0.2100  1.5288
 5955TIP3   OH217807   4.484   6.153   4.449 -0.4841 -0.1900 -0.2590
 5955TIP3    H117808   4.543   6.080   4.469 -1.4256 -0.5976  1.1882
 5955TIP3    H217809   4.543   6.225   4.422  0.5526 -1.0092 -0.2579
 5956TIP3   OH217810   3.402   2.834   1.897  0.5500 -0.2359  0.0813
 5956TIP3    H117811   3.376   2.914   1.851 -0.2861 -0.2454  0.5256
 5956TIP3    H217812   3.435   2.864   1.981 -1.9617 -0.4652  1.2270
 5957TIP3   OH217813   6.923   3.124   6.346  0.0200  0.0708  0.3140
 5957TIP3    H117814   6.841   3.146   6.300 -2.1614 -0.4747  3.5739
 5957TIP3    H217815   6.945   3.203   6.395 -1.1055 -1.0761  2.8111
 5958TIP3   OH217816   6.679   2.497   2.981 -0.5065  0.4631  0.1212
 5958TIP3    H117817   6.676   2.522   2.889 -1.3861  0.2090  0.0745
 5958TIP3    H217818   6.734   2.564   3.022 -1.4456  1.5385 -0.3044
 5959TIP3   OH217819   0.815   7.787   0.277 -0.6809  0.4488  0.2166
 5959TIP3    H117820   0.784   7.696   0.278 -1.8975  0.8393 -0.2292
 5959TIP3    H217821   0.832   7.806   0.185 -1.0543  0.8717  0.2315
 5960TIP3   OH217822   2.634   6.090   2.709 -0.7446  0.1290 -0.5082
 5960TIP3    H117823   2.582   6.138   2.773 -2.8897 -0.0540 -2.0017
 5960TIP3    H217824   2.613   6.131   2.625  3.0439  1.2861 -1.0884
 5961TIP3   OH217825   4.017   7.651   2.969  0.1020  0.3577  0.1061
 5961TIP3    H117826   4.047   7.734   2.932  0.0191  0.3532  0.0270
 5961TIP3    H217827   4.067   7.585   2.922 -0.4512  0.3208 -0.4424
 5962TIP3   OH217828   5.141   3.600   3.996 -0.1462  0.1345 -0.4554
 5962TIP3    H117829   5.231   3.626   3.974 -0.5074  1.6784 -0.2084
 5962TIP3    H217830   5.090   3.620   3.918 -0.5943  1.1009  0.0663
 5963TIP3   OH217831   1.076   1.654   0.122  0.3014  0.5220 -0.6147
 5963TIP3    H117832   1.053   1.563   0.145  0.1519  0.4090 -1.1927
 5963TIP3    H217833   1.093   1.651   0.028  0.7652  1.0046 -0.5473
 5964TIP3   OH217834   7.693   6.718   4.773 -0.3784  0.9582  0.1604
 5964TIP3    H117835   7.650   6.635   4.793  2.1400 -0.7220 -0.9243
 5964TIP3    H217836   7.677   6.773   4.849 -1.0572 -0.9712  1.4800
 5965TIP3   OH217837   6.981   1.655   3.949  0.3651  0.0958  0.1997
 5965TIP3    H117838   6.990   1.745   3.982  0.6034  0.1200  0.0710
 5965TIP3    H217839   6.950   1.605   4.024  1.2646  0.0765  0.5594
 5966TIP3   OH217840   3.713   1.222   0.033 -0.2959  0.5980 -0.0100
 5966TIP3    H117841   3.733   1.246  -0.058 -0.4251  0.4224 -0.0834
 5966TIP3    H217842   3.621   1.198   0.032  0.0344 -0.7099 -0.1017
 5967TIP3   OH217843   3.554   4.842   2.203 -0.0683  0.1012  0.0574
 5967TIP3    H117844   3.486   4.892   2.248  0.0931  0.3951 -0.0233
 5967TIP3    H217845   3.556   4.879   2.114 -0.7353 -0.8132 -0.3494
 5968TIP3   OH217846   4.411   5.056   5.391 -0.6688  0.7771  0.0526
 5968TIP3    H117847   4.346   5.010   5.444  2.7224 -1.6050  2.6156
 5968TIP3    H217848   4.465   5.103   5.454  1.3801  0.8693 -1.6310
 5969TIP3   OH217849   3.190   3.542   6.249  0.2610 -0.4447 -0.2010
 5969TIP3    H117850   3.161   3.476   6.313  1.5713 -1.8194 -0.9465
 5969TIP3    H217851   3.109   3.575   6.210 -0.4486 -1.3446  0.4527
 5970TIP3   OH217852   0.574   3.914   0.387  0.6596  0.5256 -0.3436
 5970TIP3    H117853   0.631   3.880   0.456 -0.6502 -1.0129  0.0307
 5970TIP3    H217854   0.488   3.879   0.407 -0.1587  1.6807 -1.6669
 5971TIP3   OH217855   0.067   6.024   4.373 -0.0251  0.0557  0.0107
 5971TIP3    H117856   0.151   5.979   4.364 -0.4317 -1.1864  1.7371
 5971TIP3    H217857   0.056   6.035   4.468 -1.1711  1.4682 -0.2458
 5972TIP3   OH217858   1.417   1.088   4.087 -0.1814 -0.1926 -0.4178
 5972TIP3    H117859   1.325   1.085   4.115  0.2540  0.7060  1.2218
 5972TIP3    H217860   1.413   1.112   3.995 -1.5545  2.5618  0.2729
 5973TIP3   OH217861   6.680   0.637   6.773  0.0319 -0.4670 -0.1134
 5973TIP3    H117862   6.701   0.651   6.681  0.5010 -1.3924 -0.1617
 5973TIP3    H217863   6.734   0.562   6.799 -1.0461 -1.0438  0.5655
 5974TIP3   OH217864   7.292   3.702   1.600 -0.2179  0.0636  0.1832
 5974TIP3    H117865   7.288   3.733   1.510  2.1159  0.2696  0.0758
 5974TIP3    H217866   7.279   3.780   1.653  0.9791  0.4466 -0.0463
 5975TIP3   OH217867   5.766   6.981   5.602  0.4605 -0.0645  0.7974
 5975TIP3    H117868   5.725   6.908   5.555  1.6897  0.7228 -1.6483
 5975TIP3    H217869   5.811   6.939   5.676  0.1434 -1.6375  0.1409
 5976TIP3   OH217870   8.238   4.476   3.943  0.2302  0.2257 -0.7867
 5976TIP3    H117871   8.331   4.456   3.927 -0.0536 -2.1274  0.1014
 5976TIP3    H217872   8.199   4.482   3.856  0.6095 -2.2284 -1.1894
 5977TIP3   OH217873   0.278   6.962   6.710 -0.6415  0.2072  0.0017
 5977TIP3    H117874   0.290   6.955   6.615  0.5827 -0.8953  0.2084
 5977TIP3    H217875   0.358   6.925   6.747 -1.5598 -0.3801  1.4782
 5978TIP3   OH217876   5.358   0.457   0.233 -0.1061  0.2180  0.2131
 5978TIP3    H117877   5.356   0.385   0.170  0.8472  1.3984 -1.2405
 5978TIP3    H217878   5.450   0.482   0.238 -0.2498  0.5499  1.6481
 5979TIP3   OH217879   2.658   0.543   6.415 -0.7005  0.3989  0.4938
 5979TIP3    H117880   2.669   0.464   6.361 -2.7643  1.0937 -1.0721
 5979TIP3    H217881   2.577   0.582   6.383  0.5417  3.4855  0.7940
 5980TIP3   OH217882   2.720   3.901   3.261 -0.2713 -0.2394 -0.2112
 5980TIP3    H117883   2.664   3.960   3.210  1.1702 -0.1431 -1.7727
 5980TIP3    H217884   2.724   3.940   3.348 -0.2157  1.3917 -0.9173
 5981TIP3   OH217885   2.421   3.758   5.040  0.4397  0.7990 -0.2783
 5981TIP3    H117886   2.426   3.664   5.021  0.0536  0.5044  0.9662
 5981TIP3    H217887   2.512   3.784   5.052  0.4786  0.2854  0.6470
 5982TIP3   OH217888   7.774   5.580   4.752 -0.6454 -0.2554 -0.8867
 5982TIP3    H117889   7.771   5.661   4.701  1.2997  0.3914 -0.0420
 5982TIP3    H217890   7.759   5.607   4.842  0.5935 -0.7254 -0.5164
 5983TIP3   OH217891   0.475   1.817   5.820  0.2470 -0.2825  0.0832
 5983TIP3    H117892   0.513   1.905   5.816  0.9307 -0.6020 -1.5926
 5983TIP3    H217893   0.541   1.764   5.865 -0.3046  0.1103  1.3773
 5984TIP3   OH217894   7.955   2.653   0.433 -0.1966  0.7292  0.0953
 5984TIP3    H117895   8.004   2.655   0.350 -0.6890 -0.1171 -0.2281
 5984TIP3    H217896   7.871   2.613   0.410 -0.7158  1.3869  0.8146
 5985TIP3   OH217897   6.516   7.581   6.517  0.0229 -0.2750  0.0682
 5985TIP3    H117898   6.428   7.546   6.530  0.5823 -1.5115  0.7955
 5985TIP3    H217899   6.503   7.670   6.486 -1.4788 -0.4514  0.1312
 5986TIP3   OH217900   5.185   0.515   5.588  0.6532  0.4751  0.6252
 5986TIP3    H117901   5.138   0.453   5.533  1.2657  0.4629  0.1107
 5986TIP3    H217902   5.206   0.466   5.667 -1.5974  0.9248  1.5967
 5987TIP3   OH217903   6.663   1.880   4.645  0.6925 -0.1306  0.3040
 5987TIP3    H117904   6.622   1.794   4.638 -0.1939  0.3534 -0.7287
 5987TIP3    H217905   6.627   1.930   4.572  1.5102  0.9950  0.6394
 5988TIP3   OH217906   3.348   0.641   1.859  0.3679  0.0335 -0.3657
 5988TIP3    H117907   3.328   0.692   1.938  3.1163  0.5018  0.1192
 5988TIP3    H217908   3.341   0.550   1.887 -1.9380  0.0916 -0.5333
 5989TIP3   OH217909   1.661   0.306   0.732  0.6590  0.4095 -0.0633
 5989TIP3    H117910   1.611   0.388   0.739  2.8009  2.0726 -2.4559
 5989TIP3    H217911   1.601   0.245   0.689 -0.0340  1.6841 -0.9735
 5990TIP3   OH217912   8.247   3.400   1.829 -0.1464 -0.6544  0.7942
 5990TIP3    H117913   8.252   3.341   1.904  0.7863 -0.8181  0.6202
 5990TIP3    H217914   8.184   3.468   1.855 -1.3829 -1.8071  0.9165
 5991TIP3   OH217915   3.547   3.320   6.310  0.0232 -0.2313 -0.7878
 5991TIP3    H117916   3.587   3.345   6.394 -0.3151  0.3467 -0.7983
 5991TIP3    H217917   3.508   3.400   6.277 -0.5081 -0.6307 -1.1408
 5992TIP3   OH217918   3.478   5.329   3.552 -0.2655  0.1666  0.4814
 5992TIP3    H117919   3.536   5.391   3.596  0.1928 -0.7712  1.2382
 5992TIP3    H217920   3.435   5.282   3.624 -0.1379 -0.8154 -0.0697
 5993TIP3   OH217921   7.415   4.009   5.646 -0.1450 -0.2203  0.3107
 5993TIP3    H117922   7.323   4.033   5.656 -0.1610 -0.8643  2.0508
 5993TIP3    H217923   7.457   4.039   5.727  0.6617 -2.1112  0.6604
 5994TIP3   OH217924   1.226   5.018   3.939  0.1564 -0.0559 -0.2495
 5994TIP3    H117925   1.318   5.020   3.966  0.5680 -0.3420 -1.5666
 5994TIP3    H217926   1.228   4.976   3.853 -1.3138 -0.8965  0.0993
 5995TIP3   OH217927   2.974   7.610   3.885 -0.6593 -0.0442 -0.6294
 5995TIP3    H117928   2.986   7.697   3.847 -1.1720  0.3111 -0.0130
 5995TIP3    H217929   2.886   7.613   3.923 -0.4549 -0.6385 -0.0952
 5996TIP3   OH217930   1.734   6.997   3.551 -0.0634 -0.4106  0.3620
 5996TIP3    H117931   1.714   7.009   3.644 -0.1882 -0.5453  0.3531
 5996TIP3    H217932   1.786   6.917   3.549  2.4042  1.0883  0.6454
 5997TIP3   OH217933   1.516   6.971   0.416  0.4433  0.2764 -0.6689
 5997TIP3    H117934   1.485   7.036   0.353  1.1133  0.0695 -1.2256
 5997TIP3    H217935   1.479   6.888   0.385 -0.9205  0.4641  0.3898
 5998TIP3   OH217936   5.675   7.582   2.704  0.0856  0.0072  0.1741
 5998TIP3    H117937   5.670   7.628   2.787  1.8504 -0.4615  0.5774
 5998TIP3    H217938   5.638   7.496   2.722 -0.1177  0.1232  0.3084
 5999TIP3   OH217939   5.558   3.984   4.239  0.2467  0.3089  0.2167
 5999TIP3    H117940   5.571   3.893   4.268  0.5580  0.6548  1.2109
 5999TIP3    H217941   5.546   3.977   4.145 -3.0272 -1.0984  0.6088
 6000TIP3   OH217942   0.066   4.267   1.717  0.1787 -0.1174  0.4434
 6000TIP3    H117943   0.009   4.198   1.751  0.9651 -0.0591  1.9468
 6000TIP3    H217944   0.054   4.340   1.778 -0.4045  1.0061 -0.9460
 6001TIP3   OH217945   6.906   7.503   0.517 -0.0677 -0.0780  0.0574
 6001TIP3    H117946   6.874   7.563   0.450  0.3653 -0.1904 -0.2530
 6001TIP3    H217947   6.854   7.424   0.507 -0.9060  0.3760  0.7193
 6002TIP3   OH217948   0.099   4.396   4.450 -0.3257  0.6842 -0.2732
 6002TIP3    H117949   0.119   4.381   4.357  0.4108  0.1522 -0.0289
 6002TIP3    H217950   0.038   4.326   4.473  2.4147 -1.5861  0.6274
 6003TIP3   OH217951   1.317   1.684   0.849  0.3340 -0.5482 -0.1492
 6003TIP3    H117952   1.381   1.719   0.910  0.4646 -0.7379 -0.1764
 6003TIP3    H217953   1.234   1.726   0.874  0.7471  0.9235 -1.1309
 6004TIP3   OH217954   0.129   6.487   3.980 -0.2265  0.1084 -0.3767
 6004TIP3    H117955   0.161   6.414   4.032 -2.2179 -1.1025 -0.7302
 6004TIP3    H217956   0.086   6.545   4.043 -1.7919 -0.8719 -0.5039
 6005TIP3   OH217957   3.131   7.610   4.138 -0.0169  0.1196  0.8064
 6005TIP3    H117958   3.099   7.536   4.189 -1.1819  0.1655  0.1934
 6005TIP3    H217959   3.092   7.597   4.051 -0.2062  1.4135  0.6801
 6006TIP3   OH217960   7.858   0.199   1.893 -0.3558  0.2238  0.2113
 6006TIP3    H117961   7.913   0.144   1.837  0.5162 -0.9202  2.1184
 6006TIP3    H217962   7.793   0.139   1.930  1.4192  0.0665  3.3715
 6007TIP3   OH217963   8.158   7.578   0.459  0.4671  0.1675 -0.0667
 6007TIP3    H117964   8.227   7.643   0.448  1.0627 -0.2110  1.2368
 6007TIP3    H217965   8.157   7.529   0.377  1.1238  0.7733 -0.4408
 6008TIP3   OH217966   4.155   3.196   3.414  0.4391  0.2686 -0.2575
 6008TIP3    H117967   4.178   3.279   3.372 -0.5599  0.6787 -0.0194
 6008TIP3    H217968   4.137   3.219   3.505  0.5314 -0.2782 -0.0961
 6009TIP3   OH217969   3.066   6.332   0.927  0.1063  0.4102  0.2529
 6009TIP3    H117970   3.150   6.287   0.927  0.0320  0.2433  1.3807
 6009TIP3    H217971   3.013   6.284   0.864  0.2437 -0.6950  0.9465
 6010TIP3   OH217972   3.953   2.056   2.610 -0.2933  0.6847 -0.0628
 6010TIP3    H117973   3.975   2.014   2.527  0.5369  1.5500 -0.3025
 6010TIP3    H217974   3.982   1.995   2.678  0.1162  0.4978 -0.4063
 6011TIP3   OH217975   0.028   3.016   2.086 -0.3199  0.2343 -0.3251
 6011TIP3    H117976   0.093   3.081   2.114 -1.7149  1.4901  0.1429
 6011TIP3    H217977  -0.044   3.068   2.052 -1.6900 -1.0485  0.4869
 6012TIP3   OH217978   3.847   6.399   0.645  0.4644  0.0726 -0.4268
 6012TIP3    H117979   3.813   6.310   0.649  1.0883 -0.1395  0.3247
 6012TIP3    H217980   3.834   6.434   0.733  1.2652  0.3257 -0.4034
 6013TIP3   OH217981   2.723   0.294   5.719  0.3466 -0.6548 -0.3386
 6013TIP3    H117982   2.696   0.315   5.808 -0.6923 -0.4763 -0.6763
 6013TIP3    H217983   2.810   0.256   5.728  0.4547 -0.1858  0.6990
 6014TIP3   OH217984   7.947   3.112   0.930  0.0077  0.6002  0.2011
 6014TIP3    H117985   7.918   3.030   0.970 -0.5784 -0.4143 -2.1251
 6014TIP3    H217986   7.905   3.113   0.844  2.2229  1.9332 -0.9781
 6015TIP3   OH217987   6.629   0.695   2.177  0.1165  0.0930 -0.3121
 6015TIP3    H117988   6.547   0.699   2.226  0.4415  0.4449  0.2139
 6015TIP3    H217989   6.603   0.671   2.089 -0.5869  0.4907 -0.2214
 6016TIP3   OH217990   6.532   5.961   0.058  0.3687  0.6385 -0.5101
 6016TIP3    H117991   6.472   5.942  -0.015  0.5676 -1.8236 -0.1353
 6016TIP3    H217992   6.540   5.877   0.103  2.8132  1.3213  0.4351
 6017TIP3   OH217993   4.577   5.196   6.182 -0.3640 -0.0627 -0.6758
 6017TIP3    H117994   4.598   5.268   6.242 -0.7436  1.7450 -2.5747
 6017TIP3    H217995   4.497   5.158   6.218  0.1674  0.0645  0.6904
 6018TIP3   OH217996   0.669   3.930   2.569  0.5035  0.6618  0.4252
 6018TIP3    H117997   0.641   3.982   2.644 -0.3465  0.9943 -0.1056
 6018TIP3    H217998   0.687   3.994   2.500 -3.5145  0.3266 -1.2732
 6019TIP3   OH217999   4.653   5.870   1.061 -0.1309 -0.5072  0.0086
 6019TIP3    H118000   4.561   5.849   1.078 -1.0576  2.6802 -0.4001
 6019TIP3    H218001   4.650   5.944   1.001  2.6817  0.6833  1.1673
 6020TIP3   OH218002   0.412   5.525   2.573  0.2665 -0.5553 -0.3728
 6020TIP3    H118003   0.493   5.481   2.597  0.9731  0.9996  0.2088
 6020TIP3    H218004   0.404   5.598   2.635 -1.6347 -0.7244 -0.3408
 6021TIP3   OH218005   4.569   3.083   5.224 -0.0631 -0.1954 -0.2494
 6021TIP3    H118006   4.504   3.114   5.161  0.7595 -0.1167 -1.0916
 6021TIP3    H218007   4.569   2.988   5.215 -0.4545 -0.2402  0.1664
 6022TIP3   OH218008   7.336   3.723   5.571 -0.1825 -0.8217 -0.0302
 6022TIP3    H118009   7.355   3.812   5.600 -1.6294 -0.8945  1.2627
 6022TIP3    H218010   7.250   3.729   5.531  0.0710 -1.5033 -0.7029
 6023TIP3   OH218011   5.885   3.813   3.041  0.3480  0.7690  0.4877
 6023TIP3    H118012   5.928   3.727   3.039 -0.9135  0.1150  0.8535
 6023TIP3    H218013   5.953   3.873   3.072  1.7456  0.2243 -1.3454
 6024TIP3   OH218014   6.850   5.992   4.507 -0.3645 -0.3182 -0.2416
 6024TIP3    H118015   6.809   5.933   4.443  0.0033 -2.1154  1.1267
 6024TIP3    H218016   6.787   5.997   4.579 -0.1972  0.6467 -0.1482
 6025TIP3   OH218017   0.352   2.924   6.674  0.3560  0.1006 -0.2446
 6025TIP3    H118018   0.339   2.932   6.769  2.6861  0.7204  0.0854
 6025TIP3    H218019   0.426   2.864   6.665 -1.0677 -1.5421 -1.8079
 6026TIP3   OH218020   3.314   4.585   1.291  0.3839 -0.4584  0.3009
 6026TIP3    H118021   3.226   4.585   1.252  0.7451  1.5923 -0.6903
 6026TIP3    H218022   3.359   4.512   1.249 -0.5186 -0.8652  0.0145
 6027TIP3   OH218023   4.910   0.593   4.557 -0.1348  0.4443 -0.9609
 6027TIP3    H118024   4.900   0.498   4.563  1.8321  0.2117 -0.3818
 6027TIP3    H218025   4.921   0.622   4.647 -1.8278  1.4133 -1.0260
 6028TIP3   OH218026   3.032   2.628   5.279  0.1629  0.4099  0.0412
 6028TIP3    H118027   3.060   2.630   5.370  2.3185 -3.2591 -0.3526
 6028TIP3    H218028   2.964   2.695   5.273  3.5622  4.6547  2.9808
 6029TIP3   OH218029   6.944   3.203   4.993 -0.5405  0.1370  0.6107
 6029TIP3    H118030   7.034   3.235   4.982  0.0347 -1.7166 -0.5363
 6029TIP3    H218031   6.944   3.162   5.079 -1.0747  2.3953  1.7630
 6030TIP3   OH218032   3.267   2.510   5.205 -0.3265 -0.5173 -0.3182
 6030TIP3    H118033   3.208   2.579   5.234  0.5450  0.1897 -0.1860
 6030TIP3    H218034   3.325   2.495   5.279  0.2942 -0.5059 -0.7943
 6031TIP3   OH218035   4.007   2.648   0.974  0.5742 -0.4413  0.1940
 6031TIP3    H118036   3.994   2.555   0.994 -0.6143 -0.5320 -0.8952
 6031TIP3    H218037   3.919   2.684   0.969  1.0200  0.7163  0.4199
 6032TIP3   OH218038   4.123   6.304   5.586  0.0371 -0.0311 -0.1169
 6032TIP3    H118039   4.110   6.355   5.666 -0.4571 -2.3555  1.3993
 6032TIP3    H218040   4.035   6.291   5.552  0.0901 -0.4795 -0.0829
 6033TIP3   OH218041   2.041   5.772   2.542 -0.8694 -0.3484  0.3066
 6033TIP3    H118042   1.990   5.781   2.623 -1.0754 -0.2895  0.1719
 6033TIP3    H218043   2.059   5.678   2.536 -0.8026 -0.3456  0.4506
 6034TIP3   OH218044   0.501   2.556   2.916  0.7868 -0.2828 -0.3710
 6034TIP3    H118045   0.581   2.609   2.918  1.3934 -1.1911  1.7819
 6034TIP3    H218046   0.436   2.611   2.959  0.7938 -0.3376 -0.2898
 6035TIP3   OH218047   4.246   7.661   0.822  0.5414  0.3096 -0.2505
 6035TIP3    H118048   4.208   7.583   0.862  2.4084 -0.9255 -0.6976
 6035TIP3    H218049   4.212   7.734   0.873 -0.5689 -0.8639  0.7622
 6036TIP3   OH218050   4.418   3.018   0.829  0.0383  0.3462 -0.0908
 6036TIP3    H118051   4.448   2.935   0.794 -1.8571 -2.0490  3.3841
 6036TIP3    H218052   4.361   3.055   0.761 -1.8693 -2.9774 -0.4790
 6037TIP3   OH218053   1.958   5.771   5.301 -0.0171 -0.0431 -0.0073
 6037TIP3    H118054   2.026   5.740   5.241 -0.8564  0.0697 -1.0374
 6037TIP3    H218055   1.994   5.853   5.336  1.3229 -1.0727  1.1895
 6038TIP3   OH218056   4.665   6.741   4.400  0.3559 -0.7616 -0.2520
 6038TIP3    H118057   4.689   6.798   4.472 -0.7121 -1.0134  0.3233
 6038TIP3    H218058   4.727   6.763   4.330 -0.5981  1.7547 -0.3941
 6039TIP3   OH218059   4.808   3.110   1.451 -0.0825 -0.4380 -0.2174
 6039TIP3    H118060   4.760   3.175   1.400  1.6824  1.1820  0.0419
 6039TIP3    H218061   4.853   3.057   1.386  0.5266  0.3066 -0.4273
 6040TIP3   OH218062   4.055   1.538   5.145 -0.1891  0.6036  0.0067
 6040TIP3    H118063   4.126   1.474   5.153  0.4259  1.1093 -1.2088
 6040TIP3    H218064   3.979   1.486   5.121 -0.9882 -0.3385  3.8642
 6041TIP3   OH218065   6.848   3.986   6.699  0.6174  0.2878  0.2834
 6041TIP3    H118066   6.932   3.973   6.654  1.2099 -1.8108  1.8274
 6041TIP3    H218067   6.833   4.080   6.695  0.6472  0.3152 -4.1132
 6042TIP3   OH218068   8.104   2.144   1.884  0.1001  0.5437  0.2370
 6042TIP3    H118069   8.138   2.079   1.822 -0.1249 -0.1296  0.8034
 6042TIP3    H218070   8.091   2.095   1.965 -2.3554  0.7345  0.0258
 6043TIP3   OH218071   4.454   2.573   5.158 -0.0373 -0.2619 -0.0575
 6043TIP3    H118072   4.505   2.493   5.177 -0.8023 -0.9403 -0.7942
 6043TIP3    H218073   4.461   2.584   5.064  1.6010  1.6347  0.2114
 6044TIP3   OH218074   5.334   5.319   4.733 -0.2925  0.3903 -0.2744
 6044TIP3    H118075   5.274   5.331   4.660 -2.3650  0.3424  1.3017
 6044TIP3    H218076   5.350   5.407   4.766 -2.9322  0.2512  1.7780
 6045TIP3   OH218077   2.935   4.033   5.311  0.2963 -0.6581 -0.2399
 6045TIP3    H118078   2.847   3.997   5.307 -0.0339 -0.1884  1.6436
 6045TIP3    H218079   2.927   4.121   5.275  0.5812 -1.4547 -2.4453
 6046TIP3   OH218080   6.517   1.553   5.568 -0.4228  0.0753 -0.1122
 6046TIP3    H118081   6.571   1.631   5.581  0.9367 -0.3140 -2.8408
 6046TIP3    H218082   6.427   1.582   5.584  0.1986  1.7318  0.5626
 6047TIP3   OH218083   5.860   3.679   1.554 -0.0590 -0.3010 -0.2865
 6047TIP3    H118084   5.778   3.700   1.509  0.4555 -0.9888 -1.5984
 6047TIP3    H218085   5.838   3.603   1.608 -1.1236  1.5509  2.0798
 6048TIP3   OH218086   3.939   4.245   3.950  0.3341  0.0087 -0.5223
 6048TIP3    H118087   3.873   4.270   4.015  0.2760 -0.2779 -0.4698
 6048TIP3    H218088   3.958   4.154   3.970  0.2760 -0.0944 -0.9475
 6049TIP3   OH218089   6.607   3.421   6.140 -0.5971  0.2077 -0.1652
 6049TIP3    H118090   6.558   3.455   6.065 -0.9305  1.5080  0.6242
 6049TIP3    H218091   6.584   3.478   6.213  0.5569 -0.3705  0.6938
 6050TIP3   OH218092   3.956   7.551   0.898  0.7219 -0.6828 -0.0344
 6050TIP3    H118093   3.899   7.617   0.938 -1.8600 -2.7761  0.0341
 6050TIP3    H218094   3.972   7.583   0.810  0.9693  0.8402  0.5366
 6051TIP3   OH218095   0.734   6.616   0.276 -0.2670  0.1617 -0.3805
 6051TIP3    H118096   0.696   6.657   0.354  0.0703  2.9075 -1.5532
 6051TIP3    H218097   0.674   6.544   0.256 -2.4872  1.7275  0.2660
 6052TIP3   OH218098   1.594   6.970   1.769 -0.5679  0.0195 -0.3417
 6052TIP3    H118099   1.640   6.899   1.813  1.9428  2.0604  0.5948
 6052TIP3    H218100   1.574   6.936   1.682 -1.8587 -2.6612  0.8576
 6053TIP3   OH218101   2.000   2.310   2.904  0.1847 -0.2979  0.2083
 6053TIP3    H118102   1.945   2.255   2.961  0.1782 -1.4519 -0.8641
 6053TIP3    H218103   2.081   2.261   2.894 -0.2223 -0.6784 -1.6384
 6054TIP3   OH218104   6.340   2.341   3.447 -0.2064  0.0225  0.1568
 6054TIP3    H118105   6.256   2.374   3.415  0.3454  0.7078 -0.6409
 6054TIP3    H218106   6.338   2.357   3.542 -0.7854  0.4679  0.0738
 6055TIP3   OH218107   8.254   0.416   0.571  0.4094  0.0482  0.0734
 6055TIP3    H118108   8.225   0.424   0.480  0.8641 -0.0285 -0.0834
 6055TIP3    H218109   8.297   0.331   0.575  0.0726 -0.1046  0.4518
 6056TIP3   OH218110   3.934   1.391   6.407 -0.1655 -0.1828  0.0451
 6056TIP3    H118111   4.008   1.448   6.430 -1.8287  2.0532  0.1483
 6056TIP3    H218112   3.942   1.379   6.313  0.5561 -0.3515  0.1169
 6057TIP3   OH218113   1.771   1.118   4.334 -0.1860 -0.6543  0.3132
 6057TIP3    H118114   1.833   1.045   4.343  1.3365  0.5390 -0.0128
 6057TIP3    H218115   1.800   1.182   4.399  0.6025  1.0248 -1.5754
 6058TIP3   OH218116   1.775   4.331   0.393  0.2830 -0.3632 -0.1689
 6058TIP3    H118117   1.784   4.426   0.383 -1.9755  0.0639  1.2631
 6058TIP3    H218118   1.758   4.299   0.305 -1.4332  0.9169 -0.3433
 6059TIP3   OH218119   1.393   0.662   2.987 -0.5154  0.0909 -0.3701
 6059TIP3    H118120   1.321   0.726   2.991 -0.9189 -0.3863  0.1127
 6059TIP3    H218121   1.402   0.642   2.894 -0.9041  0.2685 -0.4478
 6060TIP3   OH218122   0.191   2.740   0.272 -0.0541  0.3683  0.3329
 6060TIP3    H118123   0.266   2.774   0.223 -0.3439 -0.3777 -0.6767
 6060TIP3    H218124   0.222   2.655   0.305 -0.1737  0.4466  0.6433
 6061TIP3   OH218125   2.603   4.744   6.122 -0.1934  0.2179 -0.0887
 6061TIP3    H118126   2.593   4.650   6.106 -0.6095  0.3981 -0.9623
 6061TIP3    H218127   2.525   4.783   6.083 -0.4281  0.8642  0.9793
 6062TIP3   OH218128   0.787   2.823   5.864  0.1174  0.3386 -0.0474
 6062TIP3    H118129   0.872   2.860   5.890  0.1013  1.6555 -1.6483
 6062TIP3    H218130   0.734   2.900   5.841 -0.6696 -0.5603 -1.4099
 6063TIP3   OH218131   7.193   6.825   6.769  0.7915 -0.1882 -0.6893
 6063TIP3    H118132   7.098   6.824   6.756  0.5293  0.7721  0.8570
 6063TIP3    H218133   7.229   6.850   6.684 -0.3488 -0.3277 -1.2306
 6064TIP3   OH218134   6.148   5.969   4.865  0.1750 -0.1443  0.4488
 6064TIP3    H118135   6.128   6.062   4.858  0.7232 -0.0640 -0.1327
 6064TIP3    H218136   6.189   5.959   4.951 -0.6215  0.0091  0.8510
 6065TIP3   OH218137   3.864   7.459   6.301  0.0908 -0.1427  0.1695
 6065TIP3    H118138   3.826   7.443   6.214  0.9267 -0.7108 -0.1048
 6065TIP3    H218139   3.955   7.429   6.294 -0.4361 -2.3980  1.9027
 6066TIP3   OH218140   5.984   0.509   2.493  0.3592  0.0057 -0.0440
 6066TIP3    H118141   5.939   0.424   2.496  0.6891 -0.1400  1.8126
 6066TIP3    H218142   6.073   0.488   2.468  0.7882 -0.4045  1.6898
 6067TIP3   OH218143   4.603   7.040   0.669  0.6495  0.1336 -0.4040
 6067TIP3    H118144   4.619   7.016   0.760  1.2390  1.0037 -0.2646
 6067TIP3    H218145   4.576   7.132   0.672  2.2457  0.6713 -1.2096
 6068TIP3   OH218146   1.507   3.470   4.136  0.0188 -0.5404 -0.5111
 6068TIP3    H118147   1.437   3.430   4.188  1.2466 -0.5939  1.1764
 6068TIP3    H218148   1.490   3.564   4.140 -1.5181 -0.6622 -2.5026
 6069TIP3   OH218149   7.973   3.335   3.171  0.1705 -0.3028 -0.3557
 6069TIP3    H118150   8.063   3.304   3.157  0.2451 -0.5969  0.6796
 6069TIP3    H218151   7.929   3.316   3.088  1.2137  0.4652 -1.1322
 6070TIP3   OH218152   4.620   5.532   4.068 -0.0034 -0.5491  0.0530
 6070TIP3    H118153   4.591   5.607   4.018 -0.6651 -0.0681  1.1270
 6070TIP3    H218154   4.562   5.529   4.144  0.5275 -1.6575  0.4460
 6071TIP3   OH218155   6.627   6.499   1.106 -0.3234  0.6631  0.3463
 6071TIP3    H118156   6.672   6.575   1.143  0.2599  0.3290  0.3354
 6071TIP3    H218157   6.688   6.464   1.041 -0.9405  0.6785 -0.2537
 6072TIP3   OH218158   5.833   3.270   2.377  0.2816 -0.0488 -0.4794
 6072TIP3    H118159   5.757   3.328   2.380  1.8563  2.0773  1.4097
 6072TIP3    H218160   5.903   3.325   2.341  1.3959 -1.4024 -0.4594
 6073TIP3   OH218161   7.762   1.428   1.413 -0.1293  0.0680  0.0348
 6073TIP3    H118162   7.688   1.380   1.376  0.7026 -0.9250 -0.4056
 6073TIP3    H218163   7.812   1.362   1.461  0.2170  0.8161  0.7245
 6074TIP3   OH218164   2.080   0.545   4.768  0.9166 -0.6578  0.0823
 6074TIP3    H118165   2.008   0.489   4.795  3.0089 -2.8229  1.5198
 6074TIP3    H218166   2.089   0.529   4.674  0.2521 -1.1753  0.0983
 6075TIP3   OH218167   1.105   0.013   4.049 -0.6981  0.2427 -0.1249
 6075TIP3    H118168   1.139  -0.012   3.964 -1.6769  0.5089 -0.6046
 6075TIP3    H218169   1.182   0.037   4.100 -0.2358  1.9886 -1.5607
 6076TIP3   OH218170   6.519   7.742   4.341 -0.2052  0.0542 -0.1234
 6076TIP3    H118171   6.574   7.690   4.401 -0.3119 -0.6336 -0.6108
 6076TIP3    H218172   6.539   7.707   4.255  1.4785  2.3756 -0.7879
 6077TIP3   OH218173   6.094   4.337   3.715  0.1776  0.2667  0.3914
 6077TIP3    H118174   6.104   4.248   3.683 -1.7203  0.6983 -1.6620
 6077TIP3    H218175   6.103   4.330   3.810  1.6632 -1.8072  0.1675
 6078TIP3   OH218176   4.214   6.043   3.119  0.3634 -0.1384  0.4554
 6078TIP3    H118177   4.141   6.008   3.169  0.6949  0.4148  1.3451
 6078TIP3    H218178   4.264   6.094   3.182  2.1669 -1.4372  0.1466
 6079TIP3   OH218179   6.273   1.701   5.540  0.0671 -0.0869  0.1307
 6079TIP3    H118180   6.270   1.797   5.539  1.8949  0.0110 -0.7387
 6079TIP3    H218181   6.201   1.674   5.482 -0.4118  0.7548  0.3164
 6080TIP3   OH218182   0.567   5.486   1.413  0.4756  0.0691  0.3154
 6080TIP3    H118183   0.641   5.543   1.393  0.1274 -0.2052 -2.0150
 6080TIP3    H218184   0.595   5.399   1.386 -0.1176 -0.3394  0.9701
 6081TIP3   OH218185   0.812   2.766   4.069  0.0990  0.3060 -0.2583
 6081TIP3    H118186   0.826   2.683   4.023 -2.5967 -0.9272  0.9902
 6081TIP3    H218187   0.860   2.830   4.016  1.4855 -1.8541 -1.7913
 6082TIP3   OH218188   7.866   2.887   4.507  0.5963  0.6716  0.2661
 6082TIP3    H118189   7.804   2.953   4.537 -1.7711 -0.3457 -1.9077
 6082TIP3    H218190   7.823   2.803   4.527  0.5526 -0.0542 -2.4798
 6083TIP3   OH218191   2.386   1.571   0.110  0.0068  0.3350 -0.1107
 6083TIP3    H118192   2.429   1.631   0.171  1.4131 -0.3582 -0.3840
 6083TIP3    H218193   2.375   1.622   0.030  0.8231  0.3766 -0.2089
 6084TIP3   OH218194   6.829   5.340   2.360 -0.6419 -0.6099 -0.3959
 6084TIP3    H118195   6.901   5.322   2.419 -1.9676 -2.4172  0.7707
 6084TIP3    H218196   6.812   5.257   2.316 -2.5517 -0.4775 -0.0035
 6085TIP3   OH218197   4.227   0.226   6.190 -0.0843 -0.6180 -0.3425
 6085TIP3    H118198   4.252   0.160   6.255 -0.6933 -0.1048  0.4139
 6085TIP3    H218199   4.288   0.211   6.117 -0.1101 -1.9109 -0.1208
 6086TIP3   OH218200   6.973   7.757   0.956 -1.0939 -0.4954 -0.3700
 6086TIP3    H118201   6.997   7.758   0.864  0.1414  0.0859 -0.0674
 6086TIP3    H218202   6.878   7.749   0.957 -1.1250 -0.3901 -1.6882
 6087TIP3   OH218203   6.160   4.139   1.422 -0.0607  0.3101  0.2022
 6087TIP3    H118204   6.096   4.069   1.439  1.3450 -0.6513  1.8700
 6087TIP3    H218205   6.164   4.189   1.503  1.7484 -0.0613  0.3946
 6088TIP3   OH218206   4.773   5.314   4.291 -0.3024 -0.2487 -0.2857
 6088TIP3    H118207   4.741   5.358   4.370 -0.3348  0.1023 -0.4907
 6088TIP3    H218208   4.829   5.380   4.248  0.1510 -0.6225 -0.2758
 6089TIP3   OH218209   6.057   1.299   0.841 -0.1578  0.2233 -0.0436
 6089TIP3    H118210   6.073   1.374   0.898 -0.5945 -0.4937  1.0637
 6089TIP3    H218211   6.076   1.331   0.753  0.8502  1.2789  0.5243
 6090TIP3   OH218212   6.630   3.727   1.691  0.3460  0.0678 -0.2819
 6090TIP3    H118213   6.655   3.776   1.612  0.1302 -0.3230 -0.5976
 6090TIP3    H218214   6.600   3.794   1.752  2.5736  0.6237  0.3011
 6091TIP3   OH218215   7.529   5.946   5.034  0.5633  0.2367 -0.1757
 6091TIP3    H118216   7.454   5.987   5.077 -2.6001 -1.8575 -3.1022
 6091TIP3    H218217   7.529   5.982   4.946  2.0335 -0.9544 -0.7085
 6092TIP3   OH218218   7.406   5.095   5.158  0.6396  0.5006 -0.3048
 6092TIP3    H118219   7.326   5.043   5.155  0.4874  0.3400  3.2660
 6092TIP3    H218220   7.456   5.065   5.082 -1.3704 -1.5415 -0.9414
 6093TIP3   OH218221   3.989   0.813   2.412  0.3716 -0.3268 -0.3110
 6093TIP3    H118222   4.017   0.732   2.455  1.1441 -0.4250 -0.9741
 6093TIP3    H218223   4.021   0.804   2.323 -0.6671  0.1493 -0.7448
 6094TIP3   OH218224   3.697   6.605   0.054 -0.6579 -0.0573  0.3995
 6094TIP3    H118225   3.679   6.513   0.035 -0.3143  0.1429 -1.0017
 6094TIP3    H218226   3.697   6.648  -0.031  1.0894  0.9085  0.8282
 6095TIP3   OH218227   4.125   2.171   1.659 -0.0874 -0.1442 -0.3981
 6095TIP3    H118228   4.058   2.178   1.727 -0.9930 -0.2555 -1.2590
 6095TIP3    H218229   4.163   2.258   1.654  0.9774 -0.4708  1.2104
 6096TIP3   OH218230   6.991   3.476   5.594  0.3726  0.3723 -0.4385
 6096TIP3    H118231   6.988   3.420   5.517  0.3470 -0.0291 -0.1498
 6096TIP3    H218232   7.046   3.550   5.568  1.6608 -0.5286 -0.3463
 6097TIP3   OH218233   7.084   0.166   1.559  0.3875  0.3920  0.0955
 6097TIP3    H118234   7.071   0.255   1.590 -1.5198  0.0977  0.2562
 6097TIP3    H218235   7.069   0.171   1.465 -1.9324 -0.0802  0.3806
 6098TIP3   OH218236   2.523   5.272   5.214  0.0508  0.1656 -0.2838
 6098TIP3    H118237   2.436   5.302   5.191  1.0191  2.4914 -1.1953
 6098TIP3    H218238   2.519   5.257   5.309 -1.0028  1.4819 -0.1010
 6099TIP3   OH218239   5.487   7.477   6.429 -0.0334 -0.1303  0.2661
 6099TIP3    H118240   5.575   7.509   6.446  0.2611 -0.5623 -0.4319
 6099TIP3    H218241   5.499   7.401   6.373 -0.8973  0.4003 -0.6737
 6100TIP3   OH218242   7.170   0.404   5.531 -0.2561  0.0277 -0.2257
 6100TIP3    H118243   7.253   0.358   5.518 -0.9214 -1.1668 -0.3919
 6100TIP3    H218244   7.127   0.401   5.446 -1.1777 -0.8178  0.2543
 6101TIP3   OH218245   2.983   1.832   5.419  0.0355  0.2313  0.1320
 6101TIP3    H118246   3.041   1.874   5.483  0.0622  0.8352 -0.2850
 6101TIP3    H218247   2.909   1.800   5.471 -0.7199  2.1158  0.2702
 6102TIP3   OH218248   0.292   6.443   0.679 -0.0980  0.3055  0.4568
 6102TIP3    H118249   0.322   6.529   0.651  1.8214 -0.2126  0.7662
 6102TIP3    H218250   0.252   6.405   0.600  0.7521  0.7613 -0.2088
 6103TIP3   OH218251   2.516   5.814   6.326 -0.3303  0.7447  0.1480
 6103TIP3    H118252   2.493   5.721   6.321 -0.0733  0.7332 -1.1030
 6103TIP3    H218253   2.442   5.860   6.286  0.6117  0.8801 -1.5303
 6104TIP3   OH218254   4.393   5.805   1.600 -0.7808  0.6639  0.1626
 6104TIP3    H118255   4.302   5.833   1.600 -1.7663 -2.2557 -0.5706
 6104TIP3    H218256   4.404   5.759   1.684 -0.7692 -1.1435 -0.7881
 6105TIP3   OH218257   2.469   7.568   2.896 -0.0415  0.2334  0.1230
 6105TIP3    H118258   2.439   7.484   2.862  0.9361  0.4234 -1.2639
 6105TIP3    H218259   2.407   7.631   2.859  0.4551  0.3398 -0.5301
 6106TIP3   OH218260   8.052   5.259   5.521  0.4647 -0.0855  0.2427
 6106TIP3    H118261   8.062   5.222   5.433 -0.1874  1.6860 -0.6188
 6106TIP3    H218262   7.963   5.238   5.546 -0.1969  1.5098 -0.6034
 6107TIP3   OH218263   4.301   1.569   0.444 -0.3487 -0.3931 -0.1836
 6107TIP3    H118264   4.261   1.656   0.453 -0.6806 -0.4924 -0.6656
 6107TIP3    H218265   4.387   1.578   0.485 -0.3027  0.2148 -0.3938
 6108TIP3   OH218266   5.579   4.546   6.102 -0.4802 -0.0723 -0.6829
 6108TIP3    H118267   5.524   4.580   6.032  0.0309  0.6054 -0.7673
 6108TIP3    H218268   5.652   4.608   6.108 -0.6506  0.0376  0.6140
 6109TIP3   OH218269   1.432   5.670   4.488  0.3287  0.3968 -0.5928
 6109TIP3    H118270   1.384   5.742   4.529 -1.0742 -0.1102 -1.2451
 6109TIP3    H218271   1.363   5.607   4.464  1.4880 -1.0697 -0.2172
 6110TIP3   OH218272   4.193   0.948   3.223  0.1034  0.0693  0.4565
 6110TIP3    H118273   4.236   0.942   3.137 -0.8069  1.4768 -0.1472
 6110TIP3    H218274   4.137   0.871   3.227  1.0117 -0.6216  0.3029
 6111TIP3   OH218275   6.144   1.337   5.984 -0.4160 -0.0345  0.1174
 6111TIP3    H118276   6.114   1.335   6.075  2.0087 -0.5061  0.9793
 6111TIP3    H218277   6.200   1.260   5.976  0.7369  0.9108 -1.2951
 6112TIP3   OH218278   2.086   6.789   4.091  0.4286  0.3923  0.0583
 6112TIP3    H118279   2.008   6.760   4.138  0.4411 -1.1293 -0.7921
 6112TIP3    H218280   2.154   6.792   4.158  0.1420 -0.4461  0.4098
 6113TIP3   OH218281   6.668   2.886   4.689  0.1708 -0.0779  0.2471
 6113TIP3    H118282   6.682   2.829   4.765  1.0542 -0.7636 -0.4038
 6113TIP3    H218283   6.706   2.970   4.715  1.1828 -0.5318  0.2943
 6114TIP3   OH218284   4.386   2.582   0.098 -0.0676 -0.2791  0.5773
 6114TIP3    H118285   4.426   2.635   0.029  0.5007 -1.1804  0.1851
 6114TIP3    H218286   4.422   2.494   0.084 -0.4660 -0.6248  1.6142
 6115TIP3   OH218287   5.792   1.622   1.500  0.6509 -0.0977 -0.3219
 6115TIP3    H118288   5.723   1.555   1.504 -0.1944  0.7521 -0.2148
 6115TIP3    H218289   5.746   1.703   1.478  1.6068  0.5180 -0.1339
 6116TIP3   OH218290   1.792   4.870   5.866  0.4554 -0.6844  0.0792
 6116TIP3    H118291   1.787   4.946   5.923 -0.9525 -1.0182  0.4477
 6116TIP3    H218292   1.701   4.840   5.859  0.4493 -0.2555 -2.8844
 6117TIP3   OH218293   5.878   5.157   1.975  0.0456 -0.2183 -0.3387
 6117TIP3    H118294   5.871   5.248   1.947  1.0648  0.2084  0.7105
 6117TIP3    H218295   5.948   5.157   2.040 -0.1581 -1.7005 -0.0783
 6118TIP3   OH218296   4.774   5.234   1.639  0.5100 -0.2554 -0.4120
 6118TIP3    H118297   4.681   5.229   1.660  0.3731  1.5347 -0.4002
 6118TIP3    H218298   4.781   5.314   1.586  1.7726 -1.3269 -1.9493
 6119TIP3   OH218299   1.975   4.082   1.606  0.7052 -0.1607 -0.0200
 6119TIP3    H118300   1.904   4.146   1.595  2.4155  1.6181 -1.3915
 6119TIP3    H218301   2.047   4.132   1.644  1.7186 -1.5829  0.0187
 6120TIP3   OH218302   6.015   0.484   2.853 -0.0664 -0.4035  0.0825
 6120TIP3    H118303   6.040   0.410   2.908 -0.4039 -0.3585  0.2947
 6120TIP3    H218304   5.930   0.460   2.818 -0.4689  0.1634  0.6556
 6121TIP3   OH218305   0.649   0.905   1.954 -0.0277  0.4988 -0.0835
 6121TIP3    H118306   0.617   0.976   2.009  0.2231  1.1512 -0.7643
 6121TIP3    H218307   0.589   0.832   1.973  0.8637  0.2593  2.0309
 6122TIP3   OH218308   6.396   5.979   5.563  0.0139  0.2594 -0.3134
 6122TIP3    H118309   6.432   6.056   5.520  1.2115 -0.3138 -0.3759
 6122TIP3    H218310   6.390   6.003   5.655  2.7552 -0.3687  0.0994
 6123TIP3   OH218311   0.435   1.534   6.009  0.1721 -0.1736 -1.0009
 6123TIP3    H118312   0.515   1.563   5.966 -0.6366  1.3864 -1.5514
 6123TIP3    H218313   0.438   1.438   6.005  2.2765 -0.1782 -0.4373
 6124TIP3   OH218314   6.414   4.491   1.210 -0.4954  0.1932  0.8386
 6124TIP3    H118315   6.350   4.452   1.150 -0.8809 -0.5120  1.6809
 6124TIP3    H218316   6.362   4.516   1.287  0.2811 -0.6426  1.6548
 6125TIP3   OH218317   7.314   3.677   2.769  0.5997  0.4324  0.1610
 6125TIP3    H118318   7.229   3.685   2.814  0.2187 -0.2782 -0.4155
 6125TIP3    H218319   7.335   3.584   2.776  0.9556  0.4729 -0.3786
 6126TIP3   OH218320   1.860   1.874   3.805 -0.6398  0.0476  0.3271
 6126TIP3    H118321   1.935   1.885   3.863 -1.0602  0.7837  0.7539
 6126TIP3    H218322   1.842   1.962   3.773 -1.3951 -0.0961  0.3325
 6127TIP3   OH218323   6.513   6.494   3.816 -0.3434  0.0783 -0.3606
 6127TIP3    H118324   6.566   6.488   3.736 -0.5684 -0.9455 -0.4538
 6127TIP3    H218325   6.546   6.571   3.861  0.9160 -0.2663 -0.6449
 6128TIP3   OH218326   8.018   1.459   4.302 -0.0035 -0.2288 -0.0980
 6128TIP3    H118327   8.090   1.437   4.243 -0.0885  0.6409 -0.5342
 6128TIP3    H218328   7.944   1.407   4.270 -0.0939  0.3716 -0.8666
 6129TIP3   OH218329   4.517   6.079   4.055  0.3946 -0.0992 -0.5136
 6129TIP3    H118330   4.443   6.018   4.063  0.4688 -0.1664 -0.3436
 6129TIP3    H218331   4.503   6.143   4.124  0.2686  0.1275 -0.7509
 6130TIP3   OH218332   1.678   2.909   3.265 -0.5054  0.0439 -0.2978
 6130TIP3    H118333   1.653   2.855   3.190 -1.8013  0.0036  0.1461
 6130TIP3    H218334   1.605   2.969   3.277 -0.4922 -0.1900  1.1520
 6131TIP3   OH218335   5.129   0.141   5.320 -0.5689 -0.4224  0.3822
 6131TIP3    H118336   5.166   0.069   5.370  0.9869  0.1707  0.1207
 6131TIP3    H218337   5.133   0.111   5.229 -1.7473 -0.7746  0.4245
 6132TIP3   OH218338   8.229   2.620   2.797  0.4667  0.2126  0.0307
 6132TIP3    H118339   8.187   2.694   2.840  1.0100 -0.2432  1.3854
 6132TIP3    H218340   8.312   2.655   2.764  1.1184  0.0267  1.4225
 6133TIP3   OH218341   3.502   2.162   6.433 -0.1548 -0.0411 -0.1701
 6133TIP3    H118342   3.445   2.224   6.480  2.1098  0.2951  2.3947
 6133TIP3    H218343   3.563   2.218   6.384 -0.2264 -0.3286 -0.5886
 6134TIP3   OH218344   5.409   6.835   4.936  0.1015 -0.1104  0.4397
 6134TIP3    H118345   5.380   6.875   4.853  1.1795  0.4065  0.2928
 6134TIP3    H218346   5.363   6.885   5.003 -1.4626 -1.0927  0.1608
 6135TIP3   OH218347   0.356   5.615   1.239 -0.0311 -0.0211 -0.1948
 6135TIP3    H118348   0.415   5.545   1.266  0.8061  0.3078 -1.1164
 6135TIP3    H218349   0.412   5.679   1.196 -1.3500 -1.2377 -4.1943
 6136TIP3   OH218350   1.286   0.812   2.551  0.1819 -0.1844 -0.2791
 6136TIP3    H118351   1.297   0.825   2.457  0.4251 -1.7648 -0.5090
 6136TIP3    H218352   1.195   0.833   2.568  0.4449  1.3606 -0.6056
 6137TIP3   OH218353   3.209   3.467   4.436  0.7466  0.1071 -0.1958
 6137TIP3    H118354   3.239   3.476   4.345  1.3031 -0.4969 -0.0730
 6137TIP3    H218355   3.244   3.383   4.465  0.2390  0.1121  0.4557
 6138TIP3   OH218356   5.648   6.136   2.759 -0.1046  0.4704 -0.0212
 6138TIP3    H118357   5.629   6.042   2.764  0.7170  0.2552 -0.5683
 6138TIP3    H218358   5.563   6.178   2.756 -0.4830 -0.2850 -0.0740
 6139TIP3   OH218359   5.257   4.890   5.457 -0.7532  0.3448 -0.4749
 6139TIP3    H118360   5.239   4.823   5.523 -1.0181 -0.6104 -1.4958
 6139TIP3    H218361   5.208   4.862   5.380 -0.7979  1.6753 -0.9558
 6140TIP3   OH218362   3.608   7.031   2.049  0.0913  0.3449 -0.6457
 6140TIP3    H118363   3.596   6.944   2.011 -0.0614  0.8563 -1.8028
 6140TIP3    H218364   3.555   7.030   2.129  0.7890 -0.9059 -0.1697
 6141TIP3   OH218365   4.040   0.862   4.704 -0.2624 -0.1408  0.3571
 6141TIP3    H118366   4.134   0.880   4.715 -0.1005 -0.6493 -0.1415
 6141TIP3    H218367   4.030   0.848   4.610 -1.1828  1.7785  0.1302
 6142TIP3   OH218368   0.939   5.955   2.682  0.0896  1.0139  0.5379
 6142TIP3    H118369   0.964   6.046   2.700  0.8989  0.7159  0.9737
 6142TIP3    H218370   1.014   5.919   2.636 -1.4190  1.3980 -2.4816
 6143TIP3   OH218371   0.739   1.247   5.496  0.1682 -0.4370  0.1019
 6143TIP3    H118372   0.802   1.280   5.560 -0.0081  0.8229 -0.3552
 6143TIP3    H218373   0.666   1.309   5.499  0.2770 -0.1758 -1.5127
 6144TIP3   OH218374   2.366   7.309   4.050  0.1050  0.2982  0.2701
 6144TIP3    H118375   2.313   7.255   3.992 -0.0786  0.7746 -0.0187
 6144TIP3    H218376   2.397   7.381   3.993  0.1396  0.6264  0.6998
 6145TIP3   OH218377   4.979   3.106   0.610 -0.2885 -0.2846 -0.0093
 6145TIP3    H118378   5.067   3.068   0.607  0.7116  1.9513 -1.5692
 6145TIP3    H218379   4.979   3.161   0.688 -0.5434 -0.8068  0.3604
 6146TIP3   OH218380   1.348   5.995   1.483  0.0465  0.0554  0.5802
 6146TIP3    H118381   1.370   6.060   1.416  0.1013 -0.0246  0.5213
 6146TIP3    H218382   1.429   5.982   1.532  0.3552 -0.8374 -0.1422
 6147TIP3   OH218383   7.696   7.289   3.636  0.2151 -0.2108  0.2938
 6147TIP3    H118384   7.735   7.372   3.664 -1.8132  0.7517  0.4383
 6147TIP3    H218385   7.636   7.313   3.566  0.1157 -1.6639 -0.1491
 6148TIP3   OH218386   5.183   1.700   4.144  0.2722 -0.3739 -0.1307
 6148TIP3    H118387   5.108   1.649   4.113 -0.0153 -0.8111  1.2239
 6148TIP3    H218388   5.252   1.681   4.081 -0.3126 -1.1754 -0.5530
 6149TIP3   OH218389   4.476   6.582   2.070 -0.4960 -0.0523  0.3896
 6149TIP3    H118390   4.458   6.594   1.976 -0.9900 -0.0591  0.4800
 6149TIP3    H218391   4.401   6.533   2.102  0.5513 -1.7018  0.4236
 6150TIP3   OH218392   2.076   0.249   1.059  0.0493  0.2155 -0.5430
 6150TIP3    H118393   2.141   0.315   1.037 -0.4032  1.2692  1.1024
 6150TIP3    H218394   2.085   0.237   1.154 -1.5961 -0.1834 -0.4036
 6151TIP3   OH218395   1.363   5.959   2.758  0.5381  0.0722  0.3894
 6151TIP3    H118396   1.445   5.911   2.748  0.9748  0.9226 -0.3445
 6151TIP3    H218397   1.325   5.962   2.670  0.8500  1.5829  0.2657
 6152TIP3   OH218398   2.002   2.420   4.331 -0.0413  0.1949  0.2691
 6152TIP3    H118399   2.031   2.437   4.420 -0.5380  0.9376  0.2954
 6152TIP3    H218400   1.906   2.413   4.338  0.0301 -1.5055  0.0717
 6153TIP3   OH218401   2.411   5.855   1.932 -0.1437  0.1662 -0.1495
 6153TIP3    H118402   2.356   5.823   2.004  2.9397 -1.6733  1.5946
 6153TIP3    H218403   2.386   5.947   1.922 -0.0897  0.8334  4.0334
 6154TIP3   OH218404   6.652   4.891   1.015 -0.0281 -0.3174  0.3819
 6154TIP3    H118405   6.742   4.898   1.047  0.1552  1.1417 -0.3575
 6154TIP3    H218406   6.634   4.977   0.976 -0.8497 -1.4178 -1.8134
 6155TIP3   OH218407   6.921   3.048   5.241  0.3371 -0.1720  0.1519
 6155TIP3    H118408   6.835   3.008   5.231 -0.1213  1.1020 -1.3994
 6155TIP3    H218409   6.961   3.001   5.313 -1.2684 -1.4700  0.2480
 6156TIP3   OH218410   7.406   0.542   3.833 -0.0447  0.2646  0.1013
 6156TIP3    H118411   7.395   0.628   3.792 -1.7918  0.0715  0.0865
 6156TIP3    H218412   7.437   0.562   3.922  0.6425  0.8308 -0.2519
 6157TIP3   OH218413   8.140   6.582   3.544  0.7621 -0.6674 -0.1166
 6157TIP3    H118414   8.145   6.677   3.533 -3.3968 -0.2080  0.4626
 6157TIP3    H218415   8.115   6.549   3.458  0.6837 -1.0439  0.0471
 6158TIP3   OH218416   1.136   6.686   4.536  0.4803  0.2783  0.0261
 6158TIP3    H118417   1.099   6.774   4.521 -4.0738 -1.0337  1.7619
 6158TIP3    H218418   1.131   6.675   4.631  0.2691 -2.0925 -0.2131
 6159TIP3   OH218419   5.470   0.109   5.107 -0.5571 -0.0943  0.4759
 6159TIP3    H118420   5.446   0.019   5.130  0.4676 -0.6698 -0.5788
 6159TIP3    H218421   5.458   0.158   5.188 -1.7664 -1.0381  0.9109
 6160TIP3   OH218422   5.496   0.418   5.590 -0.2507 -0.1064  0.2781
 6160TIP3    H118423   5.438   0.381   5.657  1.1977  1.9167  2.8501
 6160TIP3    H218424   5.479   0.512   5.594  0.8836  0.1949 -1.2575
 6161TIP3   OH218425   4.277   0.786   1.885  0.1824 -0.5825  1.1781
 6161TIP3    H118426   4.285   0.829   1.970 -2.8366  1.7042  0.4793
 6161TIP3    H218427   4.347   0.824   1.831 -1.3257  2.3109  1.1034
 6162TIP3   OH218428   7.478   3.694   0.189 -0.6614  0.3684 -0.1273
 6162TIP3    H118429   7.416   3.750   0.144  0.8817  1.3821 -1.1095
 6162TIP3    H218430   7.525   3.648   0.119 -0.3414 -0.4196  0.5804
 6163TIP3   OH218431   6.938   0.193   0.146 -0.2181 -0.0656 -0.0199
 6163TIP3    H118432   7.017   0.247   0.140 -0.4780  0.2869 -0.3115
 6163TIP3    H218433   6.873   0.240   0.095 -0.1816 -1.1463 -1.1337
 6164TIP3   OH218434   6.404   5.850   4.743  0.3558  1.1697  0.6832
 6164TIP3    H118435   6.367   5.783   4.685  0.6917  1.3882  0.2089
 6164TIP3    H218436   6.328   5.892   4.782  0.1467  0.3325  1.1947
 6165TIP3   OH218437   2.242   0.871   4.688 -0.2370  0.1007  0.9060
 6165TIP3    H118438   2.197   0.955   4.680 -0.1039  0.0695 -0.6053
 6165TIP3    H218439   2.212   0.820   4.612  1.8898 -0.1182  0.1109
 6166TIP3   OH218440   6.330   2.295   4.306  0.2817  0.5804 -0.1501
 6166TIP3    H118441   6.321   2.326   4.396  2.1168  0.5836  0.0607
 6166TIP3    H218442   6.333   2.376   4.254 -0.6650  0.5804 -0.2320
 6167TIP3   OH218443   3.094   3.304   3.611  0.0081 -0.0119  0.4535
 6167TIP3    H118444   3.002   3.328   3.623 -0.0712 -0.8989  1.7914
 6167TIP3    H218445   3.138   3.339   3.688  0.5637 -0.7316  0.4642
 6168TIP3   OH218446   5.287   6.818   2.373 -0.2203  0.2820 -0.1408
 6168TIP3    H118447   5.343   6.879   2.327 -1.5702  0.3068 -1.8614
 6168TIP3    H218448   5.257   6.757   2.306  0.5857 -1.9289  1.4005
 6169TIP3   OH218449   6.058   7.770   1.479 -0.5421 -0.0124  0.2909
 6169TIP3    H118450   6.032   7.761   1.387 -0.9359 -1.9495  0.5541
 6169TIP3    H218451   6.143   7.728   1.485 -0.2148  0.6837  0.7045
 6170TIP3   OH218452   6.709   2.601   3.530  0.2819  0.0805  0.2386
 6170TIP3    H118453   6.682   2.513   3.504 -0.0567  0.3268 -0.2609
 6170TIP3    H218454   6.753   2.589   3.614  1.6572 -0.7858 -0.5701
 6171TIP3   OH218455   7.625   1.141   5.753  0.0463 -0.1936 -0.1114
 6171TIP3    H118456   7.712   1.118   5.784  0.7922  0.0260 -1.9536
 6171TIP3    H218457   7.639   1.208   5.687 -1.5304 -0.1108 -0.4152
 6172TIP3   OH218458   1.316   6.227   3.221  0.1819 -0.2459 -0.5233
 6172TIP3    H118459   1.377   6.154   3.221  0.9069  0.3294  0.8382
 6172TIP3    H218460   1.332   6.272   3.138  0.3497 -1.1217 -0.9698
 6173TIP3   OH218461   1.550   7.210   5.587  0.3120  0.3216 -0.0917
 6173TIP3    H118462   1.635   7.169   5.569  0.3718 -0.5417  1.9341
 6173TIP3    H218463   1.498   7.141   5.628 -0.7743  1.3402  0.3146
 6174TIP3   OH218464   3.382   4.904   5.076  0.2879 -0.1264  0.5811
 6174TIP3    H118465   3.288   4.910   5.056 -0.0711 -0.3866  2.0278
 6174TIP3    H218466   3.386   4.845   5.152  1.4782  1.0114  1.4410
 6175TIP3   OH218467   3.435   1.140   4.391  0.1903 -0.5211  0.5550
 6175TIP3    H118468   3.351   1.183   4.404  0.5732  0.0040  1.3138
 6175TIP3    H218469   3.493   1.179   4.455  1.1922 -0.4288 -0.3707
 6176TIP3   OH218470   0.586   7.152   4.507 -0.6212 -1.1534  0.4290
 6176TIP3    H118471   0.522   7.103   4.455 -1.5026  0.2461  0.1556
 6176TIP3    H218472   0.670   7.134   4.464 -1.1309 -1.2655 -0.5534
 6177TIP3   OH218473   5.037   5.561   4.459  0.0947 -0.4321  0.3211
 6177TIP3    H118474   5.076   5.474   4.470  1.4811  0.0934 -0.1765
 6177TIP3    H218475   5.111   5.618   4.438 -0.7196  0.9633  1.0443
 6178TIP3   OH218476   6.313   2.251   2.031  0.5661  0.5600  0.5787
 6178TIP3    H118477   6.377   2.181   2.049  0.6320  0.9293  1.8897
 6178TIP3    H218478   6.353   2.303   1.961  0.5814 -0.6100 -0.3162
 6179TIP3   OH218479   3.719   5.933   4.997 -0.2642  0.3035  0.5095
 6179TIP3    H118480   3.805   5.975   4.993  0.4360 -1.1684 -1.0388
 6179TIP3    H218481   3.668   5.989   5.056  0.8509  2.8098 -0.7308
 6180TIP3   OH218482   5.586   6.657   0.761  0.1707  0.4873 -0.1836
 6180TIP3    H118483   5.511   6.626   0.811  1.2047  0.5610  1.4768
 6180TIP3    H218484   5.615   6.736   0.807  0.3966  1.3124 -1.6639
 6181TIP3   OH218485   1.587   6.518   0.632  0.1791  0.1956 -0.6847
 6181TIP3    H118486   1.588   6.613   0.617 -1.1573  0.0506 -1.9788
 6181TIP3    H218487   1.541   6.507   0.715 -2.7393  0.6045 -2.1117
 6182TIP3   OH218488   3.004   3.580   3.351 -0.0186  0.1143 -0.8194
 6182TIP3    H118489   3.067   3.552   3.285  0.2452 -0.5373 -0.3127
 6182TIP3    H218490   2.932   3.517   3.343 -0.0256  0.0872 -0.5480
 6183TIP3   OH218491   4.950   7.501   2.488  0.2616  0.2219  0.1860
 6183TIP3    H118492   4.914   7.412   2.497 -0.5135  0.3402 -1.3635
 6183TIP3    H218493   4.935   7.541   2.574  1.0619 -1.2736  1.0745
 6184TIP3   OH218494   7.635   6.070   1.712  0.2880 -0.0576  0.1393
 6184TIP3    H118495   7.620   6.160   1.739  0.6099 -0.5969  2.3259
 6184TIP3    H218496   7.588   6.062   1.629  1.9121  2.6340 -1.1879
 6185TIP3   OH218497   4.608   6.368   6.310  0.2338  0.1516 -0.4718
 6185TIP3    H118498   4.513   6.381   6.305  0.4966  2.0811 -1.3002
 6185TIP3    H218499   4.624   6.348   6.402 -0.9868 -0.3470 -0.3430
 6186TIP3   OH218500   7.586   3.615   4.602 -0.2714 -0.3364 -0.1482
 6186TIP3    H118501   7.611   3.589   4.691  2.1785  1.7467 -0.1437
 6186TIP3    H218502   7.510   3.672   4.615  0.7628  0.8790  0.7512
 6187TIP3   OH218503   3.434   5.481   1.750  0.0895 -0.0024  0.1786
 6187TIP3    H118504   3.341   5.466   1.732  0.1179  1.1912 -1.1935
 6187TIP3    H218505   3.480   5.434   1.680  0.4714  0.1975  0.2924
 6188TIP3   OH218506   7.084   1.460   5.356  0.3206  0.0110 -0.2882
 6188TIP3    H118507   7.129   1.475   5.438  0.8977 -0.8705 -0.4312
 6188TIP3    H218508   6.991   1.470   5.377  0.5024  0.5316  0.2917
 6189TIP3   OH218509   1.926   6.506   4.631 -0.0425  0.3155 -0.6201
 6189TIP3    H118510   1.947   6.526   4.723  0.5188  2.0601 -1.0747
 6189TIP3    H218511   1.966   6.421   4.616  1.5905  0.8599  0.2501
 6190TIP3   OH218512   6.457   0.966   6.166  1.1036  0.1824 -0.3023
 6190TIP3    H118513   6.519   0.924   6.225  3.8865  0.5460 -2.7291
 6190TIP3    H218514   6.421   0.894   6.114  0.4523  0.1229  0.2113
 6191TIP3   OH218515   4.474   2.279   3.423 -0.2250  0.2870  0.6600
 6191TIP3    H118516   4.507   2.204   3.373  0.2452  0.7399  0.2711
 6191TIP3    H218517   4.508   2.355   3.376 -1.0501  0.7546  0.8033
 6192TIP3   OH218518   3.310   2.416   3.711 -0.7758 -0.4175  0.1572
 6192TIP3    H118519   3.265   2.351   3.658 -0.9616 -0.6778  0.6262
 6192TIP3    H218520   3.279   2.500   3.678  3.4294 -0.1563 -4.1940
 6193TIP3   OH218521   8.108   1.243   2.660 -0.0939 -0.1507  0.0247
 6193TIP3    H118522   8.191   1.256   2.614 -0.1349  0.3010  0.0752
 6193TIP3    H218523   8.133   1.204   2.744  0.1278  0.6548  0.3345
 6194TIP3   OH218524   6.268   6.281   3.235  0.0445 -0.6221  0.0500
 6194TIP3    H118525   6.259   6.239   3.150 -0.8182 -0.3404 -0.0068
 6194TIP3    H218526   6.224   6.221   3.296  2.5373 -1.9291  0.6891
 6195TIP3   OH218527   0.328   2.059   0.561 -0.4799 -0.0917  0.7115
 6195TIP3    H118528   0.417   2.078   0.593  0.4257 -0.0906 -1.6127
 6195TIP3    H218529   0.309   1.972   0.595 -0.3206  0.5723  2.6420
 6196TIP3   OH218530   0.442   0.697   1.003  0.3596 -0.2119 -0.2725
 6196TIP3    H118531   0.454   0.746   0.922  1.2351 -1.3955 -0.8975
 6196TIP3    H218532   0.366   0.737   1.044 -1.2185 -0.7044 -2.5471
 6197TIP3   OH218533   3.656   7.319   2.011  0.0205  0.4673 -0.4100
 6197TIP3    H118534   3.625   7.232   2.033  1.0648  0.2845  0.4425
 6197TIP3    H218535   3.627   7.374   2.084 -0.2596  0.7538 -0.7309
 6198TIP3   OH218536   2.831   3.454   6.516 -0.5195  0.0605  0.6811
 6198TIP3    H118537   2.751   3.478   6.470  0.7514  0.7041 -1.3147
 6198TIP3    H218538   2.858   3.371   6.476  0.2603  0.2966  0.6977
 6199TIP3   OH218539   4.868   6.394   0.339  0.1959 -0.3773  0.1039
 6199TIP3    H118540   4.877   6.485   0.365  1.3630 -0.8502  1.5154
 6199TIP3    H218541   4.955   6.356   0.352 -0.5618 -1.9844  0.8097
 6200TIP3   OH218542   3.673   2.618   6.225  0.2872 -0.2300 -0.2610
 6200TIP3    H118543   3.714   2.660   6.301 -0.2579  0.8421 -0.5374
 6200TIP3    H218544   3.655   2.690   6.165 -0.2059 -0.9373 -0.9821
 6201TIP3   OH218545   0.661   3.428   6.055 -0.3344 -0.2095 -0.4491
 6201TIP3    H118546   0.669   3.438   6.150  1.0262 -0.7239 -0.4882
 6201TIP3    H218547   0.671   3.517   6.021  1.5932 -0.3134 -0.2283
 6202TIP3   OH218548   6.716   0.899   6.728 -0.1125 -0.3525 -0.0992
 6202TIP3    H118549   6.642   0.960   6.721 -0.4770 -0.9120 -1.7016
 6202TIP3    H218550   6.677   0.816   6.753  0.0145 -0.5418 -0.5072
 6203TIP3   OH218551   2.117   5.687   5.576  1.0100 -0.1541 -0.2716
 6203TIP3    H118552   2.154   5.750   5.514 -0.9974  1.5640  0.1869
 6203TIP3    H218553   2.029   5.719   5.594 -0.9354 -4.1940 -1.5382
 6204TIP3   OH218554   5.798   3.464   5.189 -0.3550 -0.3984  0.1698
 6204TIP3    H118555   5.881   3.428   5.158 -0.6673 -0.7873 -0.2300
 6204TIP3    H218556   5.762   3.510   5.113 -1.5358 -2.0812 -0.3543
 6205TIP3   OH218557   4.258   0.506   3.409 -0.3854 -0.4571 -0.1375
 6205TIP3    H118558   4.308   0.581   3.440  0.0477 -1.0829  0.7151
 6205TIP3    H218559   4.171   0.541   3.391 -0.0429  0.3514 -0.2727
 6206TIP3   OH218560   5.979   2.518   3.175  0.4311  0.3695  0.1770
 6206TIP3    H118561   5.969   2.611   3.154 -1.9040 -0.1436 -1.3898
 6206TIP3    H218562   6.031   2.483   3.102  0.5911  0.3053  0.3224
 6207TIP3   OH218563   3.369   3.621   4.634  0.3826  0.2642 -0.4109
 6207TIP3    H118564   3.297   3.630   4.572 -1.3205 -0.2163  1.4069
 6207TIP3    H218565   3.387   3.527   4.636 -1.3334 -0.0752  1.6536
 6208TIP3   OH218566   6.571   3.944   0.711 -0.1717 -0.2804  0.1644
 6208TIP3    H118567   6.554   3.993   0.630  0.5828  0.2595  0.3217
 6208TIP3    H218568   6.484   3.931   0.749 -0.3326  2.2469  0.8676
 6209TIP3   OH218569   6.470   6.409   0.679  0.6543  0.1368 -0.2140
 6209TIP3    H118570   6.383   6.430   0.645  0.4528  0.9090  0.7267
 6209TIP3    H218571   6.476   6.459   0.761  1.4046 -1.0845  0.4980
 6210TIP3   OH218572   4.563   4.339   0.029  0.5724  0.4823 -1.0262
 6210TIP3    H118573   4.634   4.309   0.085  0.4617  0.0989 -1.0848
 6210TIP3    H218574   4.483   4.312   0.074  0.4924 -1.7304 -2.3492
 6211TIP3   OH218575   5.862   4.275   2.927 -0.3951  0.4019 -0.4333
 6211TIP3    H118576   5.921   4.267   2.852  1.8066 -0.1940  1.2388
 6211TIP3    H218577   5.873   4.365   2.957  0.3661  0.0653  0.3627
 6212TIP3   OH218578   8.078   4.615   4.526 -0.3531 -0.1190 -0.0002
 6212TIP3    H118579   8.160   4.640   4.570 -0.6516  2.6857 -0.8722
 6212TIP3    H218580   8.096   4.629   4.433 -1.7403  0.2032 -0.2286
 6213TIP3   OH218581   3.578   0.498   4.675  0.0795 -0.4607 -0.2867
 6213TIP3    H118582   3.486   0.478   4.663  0.5140 -2.2261 -1.0222
 6213TIP3    H218583   3.599   0.561   4.606 -0.5432 -0.0993 -0.1516
 6214TIP3   OH218584   8.186   0.137   4.092  0.1781  0.1372  0.5175
 6214TIP3    H118585   8.154   0.145   4.181  0.2704  1.5788  0.4333
 6214TIP3    H218586   8.229   0.220   4.073  0.1935 -0.1497 -0.8646
 6215TIP3   OH218587   5.721   0.632   5.497  0.0605 -0.3583  0.1953
 6215TIP3    H118588   5.704   0.610   5.406  0.1767 -0.7187  0.2589
 6215TIP3    H218589   5.634   0.645   5.535 -0.1985 -2.9265  0.7000
 6216TIP3   OH218590   8.188   6.694   0.283  0.1951 -0.2282 -0.0572
 6216TIP3    H118591   8.255   6.638   0.322  0.9892  0.0491 -0.9650
 6216TIP3    H218592   8.236   6.773   0.255 -0.4932 -0.0398 -0.7629
 6217TIP3   OH218593   4.793   6.150   1.426 -0.5546  0.0992 -0.0438
 6217TIP3    H118594   4.708   6.108   1.436 -0.8529  0.6128 -0.4087
 6217TIP3    H218595   4.805   6.200   1.507  0.2658 -1.4746  0.8654
 6218TIP3   OH218596   4.782   4.479   2.610 -0.2641  0.6045  0.4683
 6218TIP3    H118597   4.740   4.559   2.642  2.1768  1.8557  0.7026
 6218TIP3    H218598   4.770   4.483   2.515 -0.3817  1.1062  0.4983
 6219TIP3   OH218599   3.225   5.661   5.702  0.0166 -0.2686  0.4744
 6219TIP3    H118600   3.158   5.676   5.636  0.1695 -1.1938  0.0973
 6219TIP3    H218601   3.200   5.578   5.744  0.7252 -0.4467  0.5696
 6220TIP3   OH218602   5.182   5.555   5.650  0.3307  0.7415  0.0763
 6220TIP3    H118603   5.158   5.640   5.687 -2.5146  0.4724 -0.9103
 6220TIP3    H218604   5.121   5.493   5.690  1.7948 -0.7222  0.1278
 6221TIP3   OH218605   6.301   2.620   1.973  0.0129 -0.2016  0.1034
 6221TIP3    H118606   6.250   2.577   1.905 -0.7713 -3.5041  2.5515
 6221TIP3    H218607   6.383   2.570   1.977 -0.5792 -1.0893  2.5016
 6222TIP3   OH218608   6.733   3.385   3.838 -0.6298 -0.0585 -0.4740
 6222TIP3    H118609   6.722   3.373   3.744 -1.1340 -0.2224 -0.3961
 6222TIP3    H218610   6.659   3.440   3.865 -1.1477 -0.9759  0.0184
 6223TIP3   OH218611   7.118   4.384   6.720  0.2704  0.4476 -0.0394
 6223TIP3    H118612   7.087   4.301   6.757 -0.1642  0.1944 -0.9507
 6223TIP3    H218613   7.051   4.408   6.656  1.3585  0.5047 -1.1964
 6224TIP3   OH218614   5.979   4.369   5.330  0.0140  0.2531  0.1189
 6224TIP3    H118615   5.916   4.370   5.402  1.1891  2.6787  1.2376
 6224TIP3    H218616   5.963   4.450   5.282  0.8115 -0.1924 -0.9568
 6225TIP3   OH218617   0.295   2.984   0.705  0.0315  0.1975  0.1176
 6225TIP3    H118618   0.257   2.937   0.779  0.9276 -0.1795  0.3560
 6225TIP3    H218619   0.268   2.934   0.628 -0.0447  0.0034  0.2699
 6226TIP3   OH218620   4.150   4.662   5.437 -0.0068 -0.2286 -0.0502
 6226TIP3    H118621   4.151   4.642   5.344 -0.5920  0.2811 -0.1674
 6226TIP3    H218622   4.238   4.640   5.467 -0.3136 -2.0091 -0.3689
 6227TIP3   OH218623   7.267   1.405   0.385 -0.1148 -0.2046 -0.8355
 6227TIP3    H118624   7.176   1.416   0.412  0.7200 -0.2277  2.4344
 6227TIP3    H218625   7.297   1.494   0.366 -0.1851  0.1513  0.5929
 6228TIP3   OH218626   5.727   3.469   6.052 -0.0708 -0.3460  0.3532
 6228TIP3    H118627   5.809   3.424   6.031 -1.5095 -2.8574 -0.3314
 6228TIP3    H218628   5.703   3.513   5.970  0.4625  0.1943  0.4831
 6229TIP3   OH218629   3.884   2.629   5.133 -0.4110 -0.3363  0.3317
 6229TIP3    H118630   3.902   2.644   5.040  2.0293  0.1298  0.8145
 6229TIP3    H218631   3.816   2.562   5.134 -0.7904 -0.0457 -1.7829
 6230TIP3   OH218632   6.746   5.768   5.952  0.0425  0.0365  0.2816
 6230TIP3    H118633   6.716   5.694   6.004  0.0458  0.9147  1.5896
 6230TIP3    H218634   6.836   5.783   5.983  0.4158 -0.0632 -0.7278
 6231TIP3   OH218635   6.467   6.010   2.882  0.0315 -0.1057  0.7793
 6231TIP3    H118636   6.531   5.948   2.918  0.3756 -0.8965 -1.0948
 6231TIP3    H218637   6.514   6.055   2.812 -1.4680 -0.8198 -0.7655
 6232TIP3   OH218638   3.707   0.291   5.667  0.4767  0.4524 -0.6715
 6232TIP3    H118639   3.700   0.350   5.741  0.3221  1.6735 -1.6297
 6232TIP3    H218640   3.630   0.234   5.673  0.9466 -0.0753  0.5935
 6233TIP3   OH218641   5.939   7.450   1.803  0.2132 -0.4538  0.2328
 6233TIP3    H118642   5.860   7.504   1.797 -1.0256 -2.2160 -4.9143
 6233TIP3    H218643   5.920   7.387   1.872 -2.3652 -0.0382  0.0001
 6234TIP3   OH218644   0.180   0.635   4.999  0.2907  0.1448 -0.2803
 6234TIP3    H118645   0.126   0.673   5.068  1.1619 -0.1611  0.5769
 6234TIP3    H218646   0.264   0.618   5.040  0.4711 -1.0908 -1.1120
 6235TIP3   OH218647   0.934   6.381   2.269  0.9084  0.2978  0.3937
 6235TIP3    H118648   0.912   6.468   2.303 -1.0520 -1.3370  3.7585
 6235TIP3    H218649   0.858   6.357   2.216  0.1135 -0.4148  1.8023
 6236TIP3   OH218650   0.384   4.964   2.079  0.7175  0.7180 -0.0423
 6236TIP3    H118651   0.300   4.921   2.094  0.4163  1.0212 -0.8198
 6236TIP3    H218652   0.447   4.892   2.072  0.3870  0.4485 -0.2866
 6237TIP3   OH218653   8.162   6.909   5.424 -0.2293  0.1942 -0.0262
 6237TIP3    H118654   8.241   6.886   5.375 -0.4539 -0.7312  0.0286
 6237TIP3    H218655   8.090   6.894   5.362 -0.4008  0.5297  0.0900
 6238TIP3   OH218656   0.130   2.049   2.692 -0.7420 -0.0320  0.3307
 6238TIP3    H118657   0.110   2.065   2.784 -2.9066  1.1961 -0.2926
 6238TIP3    H218658   0.192   2.118   2.668  0.1496 -0.5989  0.9253
 6239TIP3   OH218659   2.086   5.530   3.815  0.2918  0.1002  0.1665
 6239TIP3    H118660   2.117   5.483   3.892  1.4670 -0.1981 -0.4612
 6239TIP3    H218661   2.087   5.622   3.840  0.6066 -0.0016  0.5324
 6240TIP3   OH218662   1.414   3.484   0.610 -0.0144  0.3812 -0.0255
 6240TIP3    H118663   1.373   3.569   0.624  3.2631  2.0675  0.3317
 6240TIP3    H218664   1.397   3.464   0.518  0.1063  1.9958 -0.4228
 6241TIP3   OH218665   6.446   3.258   1.078  0.2513 -0.1625 -0.0301
 6241TIP3    H118666   6.538   3.277   1.060  0.1990  0.5444  0.3832
 6241TIP3    H218667   6.430   3.297   1.164 -0.5399  0.1013 -0.2838
 6242TIP3   OH218668   2.808   3.121   5.090  0.4145  0.0316  0.5157
 6242TIP3    H118669   2.718   3.150   5.105  0.0934  0.1211 -1.3279
 6242TIP3    H218670   2.856   3.201   5.072  0.1816 -0.2288 -1.5123
 6243TIP3   OH218671   7.866   1.353   0.250 -0.2131 -0.0557  0.3662
 6243TIP3    H118672   7.864   1.364   0.155 -1.5349  0.4575  0.4460
 6243TIP3    H218673   7.921   1.425   0.281 -0.0393 -0.0363  0.0229
 6244TIP3   OH218674   0.292   6.692   5.254 -0.9284 -0.1480  0.6829
 6244TIP3    H118675   0.237   6.763   5.286  1.8093  2.4044  0.1710
 6244TIP3    H218676   0.367   6.691   5.313  3.5154  3.6327 -3.9634
 6245TIP3   OH218677   7.792   0.803   5.292 -0.1339  0.8455  0.4847
 6245TIP3    H118678   7.849   0.838   5.223 -1.7613  1.6992 -0.4977
 6245TIP3    H218679   7.819   0.848   5.371 -0.5044  2.5112 -0.2866
 6246TIP3   OH218680   5.745   5.728   0.523  0.1498 -0.0099 -0.1608
 6246TIP3    H118681   5.811   5.663   0.500  0.8823 -0.1123  1.9996
 6246TIP3    H218682   5.717   5.765   0.439  1.3881 -1.4647 -1.2714
 6247TIP3   OH218683   2.537   7.256   5.464 -0.1849 -0.0467  0.2749
 6247TIP3    H118684   2.627   7.260   5.498  0.3590 -2.7703 -0.6123
 6247TIP3    H218685   2.488   7.207   5.529 -0.3189 -1.0319 -0.5496
 6248TIP3   OH218686   7.237   5.505   2.696 -0.2882  0.1336  0.1034
 6248TIP3    H118687   7.270   5.558   2.623  0.7902 -1.3622 -0.5608
 6248TIP3    H218688   7.167   5.557   2.735 -0.8761  0.9978 -1.9880
 6249TIP3   OH218689   7.231   7.226   2.069 -0.6438  0.4002  0.2530
 6249TIP3    H118690   7.234   7.251   1.977 -1.6273  1.0847  0.3928
 6249TIP3    H218691   7.176   7.293   2.110 -0.2172  0.1024  1.3380
 6250TIP3   OH218692   4.928   2.934   3.687  0.2385  0.1095 -0.1246
 6250TIP3    H118693   4.935   2.855   3.634  1.2064 -0.2775  0.5517
 6250TIP3    H218694   4.936   3.006   3.624  3.2908 -0.3089 -0.3845
 6251TIP3   OH218695   1.359   6.995   4.539  0.6542  0.0994 -0.3874
 6251TIP3    H118696   1.449   7.021   4.556  0.5959 -0.2751  0.5524
 6251TIP3    H218697   1.307   7.049   4.599  0.3154 -0.1915 -0.4146
 6252TIP3   OH218698   0.911   5.906   0.501  0.2730 -0.4084 -0.2580
 6252TIP3    H118699   0.891   5.814   0.517 -0.4791 -0.0751  0.8509
 6252TIP3    H218700   1.002   5.916   0.528  0.1918 -0.7215  0.1403
 6253TIP3   OH218701   6.300   0.682   0.824 -0.1601 -0.4582  0.2726
 6253TIP3    H118702   6.349   0.642   0.897 -0.1819 -2.0279 -0.5451
 6253TIP3    H218703   6.221   0.630   0.816  0.0136 -0.5436 -1.1164
 6254TIP3   OH218704   5.656   1.429   1.822  0.3007 -0.3724  0.0763
 6254TIP3    H118705   5.742   1.398   1.852  1.1576 -0.6570 -2.4016
 6254TIP3    H218706   5.634   1.370   1.750 -1.0619  0.9044 -0.5977
 6255TIP3   OH218707   7.857   4.348   5.984  0.2477 -0.2409 -0.3739
 6255TIP3    H118708   7.781   4.404   6.003 -0.7638 -1.8169  0.3971
 6255TIP3    H218709   7.929   4.388   6.033 -0.0798  1.2110 -1.0139
 6256TIP3   OH218710   1.824   1.118   6.454  0.0974  0.4273 -0.9021
 6256TIP3    H118711   1.817   1.050   6.521 -1.3760  1.2545 -0.1839
 6256TIP3    H218712   1.917   1.143   6.456 -0.0146  0.9073  1.3434
 6257TIP3   OH218713   6.107   2.208   0.053 -0.6203  0.1287 -0.6367
 6257TIP3    H118714   6.093   2.116   0.075 -0.4316  0.5460  1.5033
 6257TIP3    H218715   6.194   2.210   0.013 -0.8542 -0.6719 -1.2105
 6258TIP3   OH218716   5.324   2.539   6.146  0.0403 -0.5718  0.5616
 6258TIP3    H118717   5.378   2.467   6.114  0.8751 -0.4906  1.7524
 6258TIP3    H218718   5.235   2.516   6.118  0.2961 -2.0207  0.8629
 6259TIP3   OH218719   6.607   7.085  -0.013  0.6281 -0.4575  0.3063
 6259TIP3    H118720   6.578   7.098   0.078  3.2254 -1.2258  1.3261
 6259TIP3    H218721   6.550   7.016  -0.047 -0.1016 -0.4594  1.4728
 6260TIP3   OH218722   5.518   5.281   0.063 -0.3974 -0.0783  0.2632
 6260TIP3    H118723   5.599   5.281   0.012  0.2499  1.1769  1.2318
 6260TIP3    H218724   5.460   5.340   0.016  0.8764  2.6664  1.8701
 6261TIP3   OH218725   1.140   2.671   0.715  0.0730 -0.2284  0.3958
 6261TIP3    H118726   1.098   2.757   0.719 -0.1977 -0.4063  2.5193
 6261TIP3    H218727   1.113   2.635   0.630 -2.0165  0.7035  0.5953
 6262TIP3   OH218728   3.546   0.294   0.079  0.1832  1.1139  0.3819
 6262TIP3    H118729   3.492   0.272   0.154  0.3938  0.4514  0.3452
 6262TIP3    H218730   3.584   0.211   0.051  1.2865  1.5690  0.4653
 6263TIP3   OH218731   2.874   0.842   0.941 -0.5286 -0.2277 -0.0765
 6263TIP3    H118732   2.825   0.802   0.869  0.5547  1.2943 -1.7321
 6263TIP3    H218733   2.947   0.782   0.956 -1.1742 -0.9334  0.2890
 6264TIP3   OH218734   7.008   6.436   5.860 -0.3672  0.4444  0.3610
 6264TIP3    H118735   7.011   6.341   5.850  2.4559  0.2740  1.8147
 6264TIP3    H218736   6.956   6.451   5.939 -0.3065  0.0487  0.4768
 6265TIP3   OH218737   5.546   3.811   2.509  1.0445  0.5410 -0.5158
 6265TIP3    H118738   5.638   3.805   2.483  0.5834 -1.7258 -1.8653
 6265TIP3    H218739   5.530   3.730   2.559 -0.1955  0.9821 -0.1653
 6266TIP3   OH218740   2.542   3.361   6.623  0.2028  0.3796 -0.3165
 6266TIP3    H118741   2.556   3.452   6.652  0.9360  0.5131 -1.0515
 6266TIP3    H218742   2.619   3.314   6.655  0.3384  0.2396 -0.8390
 6267TIP3   OH218743   1.796   6.044   3.285 -0.1015  0.2553 -0.8115
 6267TIP3    H118744   1.846   6.006   3.213 -0.2197 -0.4366 -0.5385
 6267TIP3    H218745   1.810   6.139   3.277  0.3818  0.1426 -1.3709
 6268TIP3   OH218746   6.591   2.960   1.041  0.2249 -0.0811  0.0127
 6268TIP3    H118747   6.497   2.963   1.057  0.1516  0.7138 -0.5086
 6268TIP3    H218748   6.625   3.034   1.092  0.0592  2.1730 -2.9080
 6269TIP3   OH218749   6.767   6.055   6.738  0.3649 -0.4364 -0.3395
 6269TIP3    H118750   6.834   6.082   6.676  0.8305  0.2190  0.4466
 6269TIP3    H218751   6.684   6.069   6.691  0.7670 -2.0559 -1.6307
 6270TIP3   OH218752   0.854   2.477   2.595 -0.0702 -0.2135 -0.4746
 6270TIP3    H118753   0.779   2.431   2.632  0.7240 -0.9659  0.2656
 6270TIP3    H218754   0.895   2.413   2.537  1.1469 -0.5468  0.6974
 6271TIP3   OH218755   6.308   1.522   2.166  0.0211  0.1749 -0.2974
 6271TIP3    H118756   6.330   1.610   2.135  1.4189  0.1166  0.4440
 6271TIP3    H218757   6.218   1.531   2.199  1.1389  2.2401  2.7509
 6272TIP3   OH218758   6.245   0.074   0.461 -0.8026  0.2685 -0.2459
 6272TIP3    H118759   6.174   0.137   0.451 -0.5739  0.3787 -1.3235
 6272TIP3    H218760   6.201  -0.011   0.466 -1.0884  0.4685  0.7509
 6273TIP3   OH218761   6.896   4.456   4.067 -0.1837  0.0477  0.2413
 6273TIP3    H118762   6.950   4.387   4.027  0.2352  0.1031  0.7006
 6273TIP3    H218763   6.806   4.425   4.056  0.0064 -0.6404  0.5513
 6274TIP3   OH218764   7.503   6.061   1.271  0.2760  0.0921 -0.1123
 6274TIP3    H118765   7.511   5.972   1.237  2.5199  0.2682 -0.2009
 6274TIP3    H218766   7.440   6.103   1.213  1.0910 -0.7334 -1.6768
 6275TIP3   OH218767   0.054   2.754   5.404  0.1198  0.2575 -0.3274
 6275TIP3    H118768   0.130   2.723   5.454 -1.1027 -1.2657  0.6831
 6275TIP3    H218769   0.045   2.691   5.333 -0.3786  0.2760 -0.2798
 6276TIP3   OH218770   6.914   3.075   1.844  0.3471 -0.1646 -0.3992
 6276TIP3    H118771   6.833   3.101   1.889  1.1246 -1.2488  1.8146
 6276TIP3    H218772   6.891   2.994   1.799 -0.5578  1.1544 -2.4552
 6277TIP3   OH218773   6.116   4.762   5.381 -0.5201 -0.4090  0.2704
 6277TIP3    H118774   6.120   4.854   5.408 -1.7027  0.3326 -1.8485
 6277TIP3    H218775   6.208   4.738   5.365 -0.3488  1.4809 -2.2788
 6278TIP3   OH218776   6.794   0.831   6.249 -0.5871 -0.0445  0.5291
 6278TIP3    H118777   6.853   0.757   6.265 -1.1527 -0.5031  0.5560
 6278TIP3    H218778   6.750   0.809   6.167 -1.9165 -0.5388  1.3337
 6279TIP3   OH218779   2.483   4.676   2.089  0.0932 -0.0230 -0.0110
 6279TIP3    H118780   2.416   4.685   2.022  1.3860  0.5049 -1.2726
 6279TIP3    H218781   2.434   4.673   2.172 -1.3667  3.4806 -0.5751
 6280TIP3   OH218782   2.128   5.808   4.429  0.0338 -0.3044 -0.4968
 6280TIP3    H118783   2.099   5.837   4.342  0.9141 -0.8025 -0.9678
 6280TIP3    H218784   2.222   5.823   4.429  0.0387 -0.3163  0.3757
 6281TIP3   OH218785   6.073   4.289   0.608 -0.2513 -0.0550 -0.6162
 6281TIP3    H118786   6.034   4.359   0.556 -0.8709  0.4859  0.5575
 6281TIP3    H218787   6.154   4.267   0.561  0.6878  2.3935 -0.2940
 6282TIP3   OH218788   1.681   1.316   6.647 -0.6731 -0.3397  0.0259
 6282TIP3    H118789   1.695   1.408   6.626 -0.4906 -0.9528 -3.0524
 6282TIP3    H218790   1.749   1.270   6.597 -2.7287 -2.3018 -1.1684
 6283TIP3   OH218791   3.524   2.615   2.137 -0.0624 -0.5618  0.2058
 6283TIP3    H118792   3.457   2.659   2.086  1.5518  1.5578 -0.2349
 6283TIP3    H218793   3.486   2.602   2.223 -1.3993 -0.4195 -0.3498
 6284TIP3   OH218794   6.582   5.213   1.086  0.1724 -0.1043  0.1949
 6284TIP3    H118795   6.614   5.301   1.108  1.4765  0.3624 -3.0375
 6284TIP3    H218796   6.655   5.155   1.109  0.3484  0.0154 -0.0446
 6285TIP3   OH218797   4.258   1.773   1.251 -0.3631 -0.1579  0.2429
 6285TIP3    H118798   4.318   1.841   1.281  0.6111 -0.4497 -0.9521
 6285TIP3    H218799   4.268   1.702   1.314 -0.4685  0.3312  0.8094
 6286TIP3   OH218800   4.007   6.136   0.493 -0.0533 -0.1223 -0.0028
 6286TIP3    H118801   4.095   6.138   0.529 -0.7329  0.2979  1.7476
 6286TIP3    H218802   3.998   6.218   0.444  1.0756 -0.9572 -1.6770
 6287TIP3   OH218803   7.151   6.876   0.960 -0.4890 -0.1378  0.2554
 6287TIP3    H118804   7.228   6.820   0.955  0.3216  0.8105  1.4847
 6287TIP3    H218805   7.091   6.830   1.018 -0.0100  0.0401  0.9017
 6288TIP3   OH218806   3.367   4.436   4.357  0.3425  0.5448 -0.4416
 6288TIP3    H118807   3.396   4.350   4.388 -1.8796 -0.4496 -0.9688
 6288TIP3    H218808   3.439   4.467   4.302  1.7593 -0.3482  0.8379
 6289TIP3   OH218809   4.274   0.923   2.722  0.0620 -0.2615  0.5215
 6289TIP3    H118810   4.290   0.845   2.669 -0.9403 -0.9212  1.1580
 6289TIP3    H218811   4.206   0.897   2.784 -0.3177  1.1335  0.7335
 6290TIP3   OH218812   0.197   3.558   1.899  0.1354  0.1409  0.3136
 6290TIP3    H118813   0.234   3.630   1.848 -2.2871  1.2792  0.0066
 6290TIP3    H218814   0.145   3.508   1.835 -1.0664  0.2325  1.1781
 6291TIP3   OH218815   4.569   2.660   4.406  0.6049  0.0698  0.4518
 6291TIP3    H118816   4.488   2.696   4.368  0.5585  0.3890  0.8451
 6291TIP3    H218817   4.626   2.645   4.330  0.1751 -0.1673  0.1702
 6292TIP3   OH218818   0.099   5.569   0.972 -0.2294 -0.6597  0.2907
 6292TIP3    H118819   0.090   5.514   0.894 -1.3912 -0.3785  0.2083
 6292TIP3    H218820   0.123   5.507   1.041 -1.4615 -1.2917  0.1847
 6293TIP3   OH218821   3.582   6.333   0.005 -0.1096  0.5400 -0.5094
 6293TIP3    H118822   3.613   6.319   0.094  1.3166 -1.1053 -1.2079
 6293TIP3    H218823   3.492   6.300   0.006 -0.3503  1.2006  0.4774
 6294TIP3   OH218824   6.031   3.890   4.570 -0.7502  0.2583 -0.6630
 6294TIP3    H118825   5.948   3.877   4.526 -0.4572  0.5697 -1.3202
 6294TIP3    H218826   6.008   3.922   4.657 -1.3438 -0.8305 -0.4093
 6295TIP3   OH218827   4.416   1.027   4.370  0.4869 -0.1931  0.2701
 6295TIP3    H118828   4.499   0.981   4.358  0.2202 -0.6397  0.1167
 6295TIP3    H218829   4.353   0.977   4.319 -0.1299 -0.5646  1.3538
 6296TIP3   OH218830   7.391   1.944   5.232  0.5195  0.0809 -0.6767
 6296TIP3    H118831   7.392   1.850   5.218  2.5502 -0.0493  0.0173
 6296TIP3    H218832   7.328   1.977   5.167  0.7447 -1.6104 -1.8241
 6297TIP3   OH218833   7.051   6.806   3.690  0.0953 -0.3088 -0.0914
 6297TIP3    H118834   7.027   6.896   3.665  0.0977 -0.0484  0.7922
 6297TIP3    H218835   7.075   6.813   3.783  1.9851 -0.8695 -0.5132
 6298TIP3   OH218836   4.225   2.070   3.138  0.5811  0.5186 -0.2842
 6298TIP3    H118837   4.132   2.059   3.120  0.4732  0.5155  0.2515
 6298TIP3    H218838   4.269   2.026   3.065  0.1577 -1.4024  0.5434
 6299TIP3   OH218839   5.924   6.428   6.288  0.3473  0.1684 -0.3637
 6299TIP3    H118840   6.015   6.456   6.304  0.0411  0.8309  0.2843
 6299TIP3    H218841   5.871   6.498   6.326 -0.4469  0.4058 -1.8407
 6300TIP3   OH218842   5.058   1.979   0.662  0.4351  0.1830 -0.5395
 6300TIP3    H118843   5.146   1.954   0.691  0.3353  0.6030  0.1461
 6300TIP3    H218844   5.066   1.988   0.567  0.5750 -1.9832 -0.7665
 6301TIP3   OH218845   3.817   6.864   0.185 -0.1161  0.3682 -0.3175
 6301TIP3    H118846   3.730   6.901   0.197 -0.9696 -1.7459  0.4228
 6301TIP3    H218847   3.801   6.775   0.153  1.8153  0.2654 -1.1370
 6302TIP3   OH218848   7.454   3.318   2.089  0.1008 -0.2426 -0.0052
 6302TIP3    H118849   7.391   3.257   2.127 -0.4108 -0.9210 -1.8543
 6302TIP3    H218850   7.422   3.335   2.000 -0.5129  3.7675  0.7618
 6303TIP3   OH218851   7.136   6.061   3.613  0.0296 -1.0059 -0.1493
 6303TIP3    H118852   7.206   6.005   3.579  0.2627  1.0056 -3.3512
 6303TIP3    H218853   7.180   6.118   3.676  0.8606 -1.0728 -0.6582
 6304TIP3   OH218854   7.379   2.816   3.608 -0.1373 -0.6059 -0.1472
 6304TIP3    H118855   7.379   2.772   3.693  1.0778 -1.7643 -0.7093
 6304TIP3    H218856   7.444   2.769   3.557 -0.7939  0.1201 -1.7119
 6305TIP3   OH218857   7.951   5.639   0.723  0.2954 -0.5324  0.1629
 6305TIP3    H118858   7.969   5.730   0.745  0.3020 -0.1693 -1.2172
 6305TIP3    H218859   7.961   5.591   0.805  0.1121  0.7310  0.9444
 6306TIP3   OH218860   6.690   1.117   6.096  0.4230  0.0734 -0.6325
 6306TIP3    H118861   6.620   1.058   6.123  1.5870 -0.5321  1.2259
 6306TIP3    H218862   6.650   1.204   6.096 -0.2981 -0.2351  0.6495
 6307TIP3   OH218863   1.244   7.164   4.266  0.1187 -0.1965  0.6186
 6307TIP3    H118864   1.267   7.079   4.228 -1.7108 -0.0036 -1.1008
 6307TIP3    H218865   1.158   7.183   4.230 -0.4092  1.4682  2.5919
 6308TIP3   OH218866   5.537   1.220   3.816  0.3044 -0.6219  0.8768
 6308TIP3    H118867   5.561   1.140   3.769 -0.5671 -0.5936  0.3749
 6308TIP3    H218868   5.620   1.266   3.828  0.4025  0.2449 -2.2206
 6309TIP3   OH218869   1.136   5.315   4.275 -0.1309  0.1481  0.2830
 6309TIP3    H118870   1.102   5.325   4.186 -1.2927 -0.7067  0.6160
 6309TIP3    H218871   1.159   5.223   4.282  0.9556  0.4220  0.5391
 6310TIP3   OH218872   6.067   5.037   0.807 -0.0695  0.2527  0.0421
 6310TIP3    H118873   6.104   5.113   0.851  2.6604 -0.7533 -0.2797
 6310TIP3    H218874   6.044   4.977   0.878 -2.1799  1.2847  0.2923
 6311TIP3   OH218875   1.458   5.823   0.397 -0.0215 -0.3109 -0.2861
 6311TIP3    H118876   1.545   5.850   0.424  0.0078  0.5330 -1.1598
 6311TIP3    H218877   1.451   5.732   0.425  1.3996 -0.6051 -0.8138
 6312TIP3   OH218878   2.189   2.042   3.566  0.0855  0.3296  0.9722
 6312TIP3    H118879   2.224   1.994   3.641  1.0670 -1.2851 -0.4476
 6312TIP3    H218880   2.227   2.130   3.574  2.6665 -0.6724  0.7910
 6313TIP3   OH218881   2.043   6.154   4.981 -0.5224 -0.2572  0.3489
 6313TIP3    H118882   1.965   6.208   4.975 -1.3530 -1.4787 -0.4399
 6313TIP3    H218883   2.106   6.195   4.923 -1.2483 -0.2939 -0.4793
 6314TIP3   OH218884   1.163   6.639   2.684  0.3339 -0.4600 -0.0358
 6314TIP3    H118885   1.093   6.575   2.673 -0.6029  0.8469 -2.5059
 6314TIP3    H218886   1.222   6.623   2.611  0.2516  1.2393 -0.5220
 6315TIP3   OH218887   5.421   3.489   1.396 -0.4620 -0.6556 -0.7531
 6315TIP3    H118888   5.437   3.488   1.302  0.4526 -2.9512 -0.6222
 6315TIP3    H218889   5.489   3.433   1.433 -0.5515  0.5054  1.3421
 6316TIP3   OH218890   3.783   6.871   4.651 -0.7040 -0.0829 -0.8232
 6316TIP3    H118891   3.756   6.834   4.735 -0.2766  2.6981  0.6581
 6316TIP3    H218892   3.873   6.842   4.640 -0.9622 -0.9802 -0.6819
 6317TIP3   OH218893   4.458   1.667  -0.017 -0.0218 -0.2169  0.3119
 6317TIP3    H118894   4.540   1.701   0.019 -0.2738  0.3377  0.3758
 6317TIP3    H218895   4.442   1.586   0.031  0.9924 -0.8478 -0.3746
 6318TIP3   OH218896   7.767   3.159   1.535 -0.4667  0.0676 -0.1386
 6318TIP3    H118897   7.698   3.160   1.600  1.1718  0.8155  1.6908
 6318TIP3    H218898   7.726   3.123   1.456 -2.0321 -2.8903  1.8544
 6319TIP3   OH218899   7.924   4.221   4.363 -0.1313  0.1923 -0.3206
 6319TIP3    H118900   7.864   4.293   4.344  1.0621  1.5868  0.9869
 6319TIP3    H218901   7.981   4.217   4.286  1.4586  2.4503  0.6303
 6320TIP3   OH218902   7.658   7.603   0.303  0.2019  0.1440  0.2472
 6320TIP3    H118903   7.652   7.508   0.292  0.8266  0.2076 -0.7823
 6320TIP3    H218904   7.742   7.616   0.347  0.4446  0.2475 -0.2348
 6321TIP3   OH218905   5.050   0.053   0.321 -0.1343  0.0650  0.4657
 6321TIP3    H118906   4.971   0.097   0.289 -0.0218 -0.1412 -0.1141
 6321TIP3    H218907   5.019  -0.033   0.350  0.2061 -1.0096 -2.0721
 6322TIP3   OH218908   5.727   6.346   4.277 -0.3432 -0.5739  0.5242
 6322TIP3    H118909   5.682   6.422   4.315 -0.3146 -0.2291 -0.1134
 6322TIP3    H218910   5.745   6.372   4.186 -1.7114 -1.9250 -0.1790
 6323TIP3   OH218911   6.046   3.434   1.704 -0.1297  0.5943 -0.1786
 6323TIP3    H118912   6.071   3.362   1.763  1.5639  1.0493 -0.2883
 6323TIP3    H218913   6.128   3.461   1.663 -0.7961  2.3730 -0.4169
 6324TIP3   OH218914   3.173   5.494   3.543 -0.0276  0.4620 -0.1264
 6324TIP3    H118915   3.183   5.436   3.467  0.7490  0.2811  0.1056
 6324TIP3    H218916   3.189   5.437   3.618  0.5293  0.9232  0.1116
 6325TIP3   OH218917   4.455   5.663   0.939 -0.2515  0.4487  0.2310
 6325TIP3    H118918   4.476   5.648   1.031  1.3694 -0.9388 -0.3069
 6325TIP3    H218919   4.394   5.593   0.917  1.6527 -1.0791 -0.4424
 6326TIP3   OH218920   0.777   1.751   2.081  0.7235 -0.3374  0.2830
 6326TIP3    H118921   0.753   1.838   2.114  1.4780  0.5935 -1.4380
 6326TIP3    H218922   0.873   1.751   2.084  0.7693 -0.6413 -0.7840
 6327TIP3   OH218923   5.414   7.435   3.676  0.0654 -0.3766  0.8306
 6327TIP3    H118924   5.497   7.459   3.717  0.3735  0.6066 -0.3328
 6327TIP3    H218925   5.386   7.513   3.630 -0.8557 -1.1028  0.1194
 6328TIP3   OH218926   2.907   3.263   1.915 -0.1375  0.0386  0.0541
 6328TIP3    H118927   2.980   3.218   1.873 -1.5300 -2.1963 -0.1188
 6328TIP3    H218928   2.865   3.311   1.843  0.3422  0.2303 -0.1049
 6329TIP3   OH218929   0.782   5.787   5.104  0.2800 -0.1121  0.6753
 6329TIP3    H118930   0.853   5.841   5.137 -0.0946  0.5954  0.3377
 6329TIP3    H218931   0.820   5.738   5.031 -0.1997  2.2049 -1.2437
 6330TIP3   OH218932   2.709   0.361   2.778  0.0566  0.0064 -0.5494
 6330TIP3    H118933   2.788   0.413   2.763  0.1605 -0.2774 -1.0036
 6330TIP3    H218934   2.737   0.294   2.841  0.1178  0.0421 -0.5381
 6331TIP3   OH218935   6.156   1.015   3.263  0.1597 -0.6590  0.2229
 6331TIP3    H118936   6.080   1.049   3.311  0.0725 -2.2457  1.2792
 6331TIP3    H218937   6.120   0.945   3.209  0.8384 -1.3069  0.5987
 6332TIP3   OH218938   6.017   0.399   0.914 -0.0815  0.6003 -0.1739
 6332TIP3    H118939   6.003   0.490   0.940 -2.9537  0.5862 -1.3733
 6332TIP3    H218940   6.034   0.402   0.820  0.5303 -0.0793 -0.1030
 6333TIP3   OH218941   8.182   4.570   5.576 -0.4734  0.1714 -0.2062
 6333TIP3    H118942   8.115   4.568   5.645  0.6510 -0.5181  0.9099
 6333TIP3    H218943   8.254   4.619   5.614 -0.5417  1.4462 -1.6248
 6334TIP3   OH218944   2.654   2.437   0.803 -0.0260 -0.4690  0.0835
 6334TIP3    H118945   2.662   2.501   0.875 -1.6296  1.1228 -1.0677
 6334TIP3    H218946   2.738   2.391   0.803  0.8152  0.9470  1.6132
 6335TIP3   OH218947   8.083   6.350   4.560  0.3809 -0.5282 -0.0601
 6335TIP3    H118948   8.023   6.327   4.489  0.3841 -2.1201  0.4123
 6335TIP3    H218949   8.046   6.430   4.598 -1.2618 -1.2696 -0.0041
 6336TIP3   OH218950   3.802   5.941   0.453 -0.5326 -0.4858 -0.7741
 6336TIP3    H118951   3.869   6.009   0.455 -0.9737  0.0129 -2.0143
 6336TIP3    H218952   3.767   5.939   0.541 -0.3433  0.7241 -0.6565
 6337TIP3   OH218953   0.734   1.437   2.083  0.2623 -0.4959  0.2902
 6337TIP3    H118954   0.785   1.428   2.003  1.8753 -0.4486  1.2776
 6337TIP3    H218955   0.701   1.527   2.081  0.4015 -0.4595 -0.2554
 6338TIP3   OH218956   5.750   0.821   4.579 -0.1107  1.1577 -0.1842
 6338TIP3    H118957   5.800   0.826   4.660  0.1044 -0.1502 -0.2201
 6338TIP3    H218958   5.707   0.736   4.582 -2.7960  2.4280  0.0876
 6339TIP3   OH218959   7.817   5.477   3.590 -0.4315  0.2695  0.2597
 6339TIP3    H118960   7.795   5.385   3.574 -2.4204  0.9659 -1.3376
 6339TIP3    H218961   7.913   5.479   3.592 -0.2971 -2.1958  2.8722
 6340TIP3   OH218962   5.985   2.366   2.719  0.2296 -0.5349  0.3022
 6340TIP3    H118963   5.953   2.280   2.745  0.7779 -0.4160  1.4117
 6340TIP3    H218964   6.027   2.351   2.634 -0.9826 -1.0617 -0.2325
 6341TIP3   OH218965   2.564   5.127   1.394 -0.2294  0.8529  0.1869
 6341TIP3    H118966   2.532   5.039   1.375  1.2999  0.4932 -0.8762
 6341TIP3    H218967   2.532   5.180   1.321  1.5523  0.4689 -0.9451
 6342TIP3   OH218968   0.759   7.446   4.432  0.2781 -0.3288 -0.8486
 6342TIP3    H118969   0.840   7.486   4.399  0.8990 -1.4248 -0.7091
 6342TIP3    H218970   0.689   7.497   4.392  1.0275  0.6416 -0.9845
 6343TIP3   OH218971   2.557   2.763   5.389 -0.0221 -0.3370 -0.7958
 6343TIP3    H118972   2.581   2.832   5.326 -1.4990  0.8607 -0.1207
 6343TIP3    H218973   2.464   2.778   5.406  0.3781 -0.4004  1.9064
 6344TIP3   OH218974   0.685   5.493   0.333  0.2501  0.4245  0.0609
 6344TIP3    H118975   0.723   5.428   0.273 -0.6408 -0.4672  0.4375
 6344TIP3    H218976   0.728   5.475   0.417 -0.0436  0.2846  0.1809
 6345TIP3   OH218977   4.224   7.155   3.124 -0.0932  0.6492 -0.0333
 6345TIP3    H118978   4.302   7.118   3.083 -0.4701 -0.3835  0.1489
 6345TIP3    H218979   4.159   7.156   3.054 -0.7620 -1.1956  0.5172
 6346TIP3   OH218980   1.804   4.269   3.554 -0.1305 -0.9234 -0.3426
 6346TIP3    H118981   1.796   4.290   3.461  0.7809 -0.8551 -0.4155
 6346TIP3    H218982   1.810   4.174   3.557 -1.6806 -1.0369 -0.2198
 6347TIP3   OH218983   7.099   3.643   2.944 -0.2573 -0.1238  0.3227
 6347TIP3    H118984   7.090   3.704   3.017 -2.0360  0.3154 -0.2083
 6347TIP3    H218985   7.019   3.655   2.892  0.5926 -0.9743 -1.2786
 6348TIP3   OH218986   7.365   7.780   3.272 -0.1330 -0.0710  0.0923
 6348TIP3    H118987   7.346   7.692   3.305  0.5571 -0.5295 -0.6642
 6348TIP3    H218988   7.292   7.801   3.215 -0.6207  0.1236  0.7819
 6349TIP3   OH218989   7.013   1.154   4.130  0.4538 -0.1174 -0.1030
 6349TIP3    H118990   6.938   1.200   4.092  1.1138  1.2133  0.1584
 6349TIP3    H218991   7.081   1.221   4.139  1.1416 -0.9350  1.1352
 6350TIP3   OH218992   1.569   3.896   0.437  0.1329 -0.1853  0.4474
 6350TIP3    H118993   1.578   3.915   0.344 -1.8294 -0.4131  0.1691
 6350TIP3    H218994   1.656   3.914   0.474  1.0623 -0.4859 -1.4703
 6351TIP3   OH218995   5.591   0.590   3.797 -0.0793 -0.2145 -0.2066
 6351TIP3    H118996   5.613   0.560   3.709  0.7719 -3.6117  1.0116
 6351TIP3    H218997   5.666   0.644   3.824  1.3589 -2.0329 -0.3723
 6352TIP3   OH218998   7.021   7.812   4.610  0.2186  0.3540  0.1178
 6352TIP3    H118999   7.104   7.829   4.654  0.7859 -1.2865 -0.2570
 6352TIP3    H219000   6.995   7.724   4.639 -1.6303  0.9957  0.5811
 6353TIP3   OH219001   1.631   5.669   5.096 -0.0516 -0.4638  0.2246
 6353TIP3    H119002   1.623   5.648   5.003 -0.3459 -0.8504  0.3351
 6353TIP3    H219003   1.682   5.597   5.133  1.5210  0.5181  0.0673
 6354TIP3   OH219004   4.588   6.572   0.414  0.1106 -0.2862  0.1966
 6354TIP3    H119005   4.552   6.573   0.325  0.9313  0.7182 -0.1559
 6354TIP3    H219006   4.680   6.598   0.402 -0.0134  0.7951  1.4374
 6355TIP3   OH219007   2.864   6.522   4.157 -0.3866 -0.3509  0.7862
 6355TIP3    H119008   2.794   6.568   4.109  0.4364 -0.1538 -0.2753
 6355TIP3    H219009   2.846   6.539   4.249 -0.5791  1.4326  0.4488
 6356TIP3   OH219010   5.745   1.483   4.357 -0.5170  0.0557 -0.8707
 6356TIP3    H119011   5.756   1.536   4.436 -0.1526  0.9943 -1.5434
 6356TIP3    H219012   5.663   1.436   4.372  1.0733 -2.2716  1.4713
 6357TIP3   OH219013   4.752   7.396   1.637 -0.8749 -1.2625 -0.7400
 6357TIP3    H119014   4.735   7.487   1.659  2.5285 -0.6147 -0.3360
 6357TIP3    H219015   4.734   7.390   1.543  0.1136  0.1916 -1.0443
 6358TIP3   OH219016   7.667   5.057   0.949 -0.3747  0.1326  0.4838
 6358TIP3    H119017   7.606   5.093   1.014  1.1037 -0.7559  2.4641
 6358TIP3    H219018   7.750   5.050   0.996  0.5717 -1.2971 -1.2953
 6359TIP3   OH219019   0.841   1.521   1.761  0.2215  0.0559  0.5732
 6359TIP3    H119020   0.928   1.483   1.771  0.9185  0.9572 -1.5348
 6359TIP3    H219021   0.794   1.460   1.704  0.1327  0.5216  0.1399
 6360TIP3   OH219022   7.674   1.481   5.938 -0.0705  0.6378 -0.2675
 6360TIP3    H119023   7.635   1.434   6.011  0.5801  1.5009  0.6560
 6360TIP3    H219024   7.601   1.498   5.878 -0.3181 -1.5625 -0.6741
 6361TIP3   OH219025   4.105   1.880   6.381  0.2730  0.2993 -0.0661
 6361TIP3    H119026   4.033   1.943   6.374  0.6628  0.7429 -0.0877
 6361TIP3    H219027   4.177   1.930   6.419  0.5010 -0.2039  0.1684
 6362TIP3   OH219028   7.640   4.320   1.187  0.7671 -0.0549 -0.3604
 6362TIP3    H119029   7.548   4.307   1.208  0.5372  2.0535  0.2327
 6362TIP3    H219030   7.682   4.335   1.272  1.4636  0.0189 -0.7100
 6363TIP3   OH219031   3.214   7.427   4.716 -0.0558 -0.1932 -0.3717
 6363TIP3    H119032   3.267   7.505   4.732  1.6400 -1.0352 -1.5833
 6363TIP3    H219033   3.183   7.401   4.803  2.9581 -0.5926  0.6861
 6364TIP3   OH219034   5.018   7.323   3.894 -0.5022  0.3338 -0.5101
 6364TIP3    H119035   4.923   7.311   3.897 -0.6818  1.6425  2.4265
 6364TIP3    H219036   5.031   7.407   3.850 -0.6765  0.1075 -1.0003
 6365TIP3   OH219037   4.589   3.077   4.425  0.1473 -0.0758  0.4510
 6365TIP3    H119038   4.669   3.035   4.395  1.4802  0.6692  2.6987
 6365TIP3    H219039   4.618   3.161   4.462 -2.0847  1.6465 -1.4220
 6366TIP3   OH219040   2.628   1.689   3.693 -0.4331  0.5032 -0.1915
 6366TIP3    H119041   2.618   1.753   3.622  0.6403  2.1385  1.0664
 6366TIP3    H219042   2.541   1.685   3.734 -1.2668 -0.9780 -1.9283
 6367TIP3   OH219043   0.539   7.382   3.207 -0.2382  0.3503 -0.4446
 6367TIP3    H119044   0.528   7.287   3.211  2.7082 -0.0615  0.2672
 6367TIP3    H219045   0.505   7.407   3.121 -0.1968 -1.5121 -1.0403
 6368TIP3   OH219046   4.959   6.193   3.181 -0.3203  0.5383  0.0751
 6368TIP3    H119047   4.869   6.217   3.156  0.1225  1.3081 -0.8482
 6368TIP3    H219048   4.949   6.149   3.266 -1.7904 -1.1801 -0.8987
 6369TIP3   OH219049   1.459   7.600   2.741  0.2994 -0.3340  0.0825
 6369TIP3    H119050   1.526   7.539   2.712 -0.9169 -1.7922  0.1871
 6369TIP3    H219051   1.388   7.590   2.677  0.7318  2.2987 -0.9250
 6370TIP3   OH219052   2.980   7.697   4.424  0.3404  0.5535 -0.0970
 6370TIP3    H119053   2.938   7.783   4.414 -1.3870 -0.1192  0.9266
 6370TIP3    H219054   3.057   7.715   4.478  1.7586  1.8902 -2.4131
 6371TIP3   OH219055   8.219   2.674   1.902  0.0469  0.5640 -0.2715
 6371TIP3    H119056   8.214   2.669   1.997  2.3718  0.2173 -0.1202
 6371TIP3    H219057   8.131   2.649   1.872 -0.2849 -0.9208  1.7280
 6372TIP3   OH219058   4.835   3.454   4.669 -0.0639 -0.1092  0.1362
 6372TIP3    H119059   4.916   3.409   4.641  1.4045  2.9210 -0.8992
 6372TIP3    H219060   4.831   3.439   4.763  2.1450  0.2290  0.3391
 6373TIP3   OH219061   0.953   3.221   6.279  0.0973 -0.0842  0.4676
 6373TIP3    H119062   1.021   3.270   6.232 -1.8178  0.1971 -2.2499
 6373TIP3    H219063   0.977   3.129   6.267 -0.0532  0.0076 -0.6025
 6374TIP3   OH219064   5.628   6.985   4.729  0.2260 -0.1989 -0.0949
 6374TIP3    H119065   5.643   7.005   4.822 -3.7925  0.7089  0.5241
 6374TIP3    H219066   5.641   7.069   4.685 -1.4292  0.2812  0.2563
 6375TIP3   OH219067   6.953   5.015   6.325 -0.3495  0.0949 -0.5541
 6375TIP3    H119068   6.880   4.958   6.299 -1.1868  1.3484 -1.0223
 6375TIP3    H219069   7.006   5.023   6.246 -0.1216 -0.1827 -0.4316
 6376TIP3   OH219070   6.929   7.042   3.070  0.0397 -0.5500  0.5396
 6376TIP3    H119071   6.942   6.956   3.031 -2.2631 -0.2964 -0.9723
 6376TIP3    H219072   6.901   7.098   2.997 -0.6741  0.9133  1.8630
 6377TIP3   OH219073   4.104   7.631   5.844 -0.4101  0.1662  0.4049
 6377TIP3    H119074   4.076   7.656   5.756 -0.8190  0.4452  0.6122
 6377TIP3    H219075   4.109   7.713   5.892  1.0464  0.1613  0.3086
 6378TIP3   OH219076   0.723   7.093   2.608 -0.2401 -0.3760 -0.4773
 6378TIP3    H119077   0.662   7.121   2.677  1.2391  0.6985  0.4628
 6378TIP3    H219078   0.734   7.170   2.553  0.1090 -0.6288 -0.7635
 6379TIP3   OH219079   2.975   0.170   0.378 -0.0547 -0.3348  0.5118
 6379TIP3    H119080   2.994   0.130   0.293 -0.1577  2.5570 -0.9653
 6379TIP3    H219081   3.045   0.234   0.392 -1.6767  1.3950  1.1072
 6380TIP3   OH219082   5.370   2.578   5.797  0.1844  0.4715 -0.3073
 6380TIP3    H119083   5.301   2.525   5.837 -0.4216 -0.6474 -2.6575
 6380TIP3    H219084   5.451   2.533   5.820 -0.2609 -0.9985 -1.5300
 6381TIP3   OH219085   1.833   2.581   2.872  0.3517  0.1291 -0.2425
 6381TIP3    H119086   1.809   2.521   2.943  0.4978 -0.1018 -0.3883
 6381TIP3    H219087   1.866   2.524   2.803  0.0216  0.3344 -0.5746
 6382TIP3   OH219088   2.368   2.074   1.564 -0.5256  0.4824  0.3764
 6382TIP3    H119089   2.277   2.070   1.533 -0.0209 -1.5145 -1.0596
 6382TIP3    H219090   2.363   2.052   1.657 -1.4458 -0.4295  0.1284
 6383TIP3   OH219091  -0.004   0.333   1.377 -0.0714  0.1887 -0.5664
 6383TIP3    H119092   0.084   0.334   1.341 -0.3218  0.3449 -1.1900
 6383TIP3    H219093  -0.041   0.418   1.352  0.4559  1.2227  1.8815
 6384TIP3   OH219094   1.546   1.788   0.961  0.1142 -0.7283  0.1026
 6384TIP3    H119095   1.585   1.802   0.875 -1.0589 -0.9576 -0.4895
 6384TIP3    H219096   1.589   1.708   0.994  0.8092 -0.4531 -0.1110
 6385TIP3   OH219097   2.620   4.963   2.257 -0.5421 -0.2370  0.3024
 6385TIP3    H119098   2.653   4.966   2.167  0.5238  0.9027  0.7118
 6385TIP3    H219099   2.672   4.895   2.300 -1.2064 -0.9427  0.0238
 6386TIP3   OH219100   0.428   3.012   3.172 -0.5008  0.3004  0.2973
 6386TIP3    H119101   0.490   2.989   3.103 -0.2221  0.8929  0.3488
 6386TIP3    H219102   0.476   2.998   3.253 -0.5691  0.3753  0.3507
 6387TIP3   OH219103   3.542   1.304   1.960  0.6181  0.2096  0.0874
 6387TIP3    H119104   3.616   1.350   2.000  0.0257 -0.0375  1.5585
 6387TIP3    H219105   3.467   1.332   2.011 -0.1894 -0.1539 -0.8795
 6388TIP3   OH219106   6.774   1.765   3.676 -0.0206 -0.2512 -0.2156
 6388TIP3    H119107   6.691   1.754   3.723  0.3332 -0.5082  0.3553
 6388TIP3    H219108   6.841   1.756   3.743  0.4806 -0.2567 -0.7111
 6389TIP3   OH219109   5.187   2.206   0.937  0.4158 -0.0571  0.1180
 6389TIP3    H119110   5.130   2.246   0.872  1.4613  1.3771  0.0244
 6389TIP3    H219111   5.131   2.190   1.013 -0.7571 -1.5137 -0.9950
 6390TIP3   OH219112   1.652   2.089   2.248  0.3524  0.1707  0.2166
 6390TIP3    H119113   1.739   2.130   2.243  0.9739 -1.1919 -0.8602
 6390TIP3    H219114   1.620   2.090   2.158  0.1999 -1.2636  0.2350
 6391TIP3   OH219115   0.470   0.090   5.971 -0.1951  0.0212  0.0384
 6391TIP3    H119116   0.431   0.005   5.992  1.1363 -0.9587 -1.2065
 6391TIP3    H219117   0.418   0.124   5.898 -0.2141 -0.1292 -0.0172
 6392TIP3   OH219118   1.045   5.587   4.648  0.0545  0.0957 -0.0782
 6392TIP3    H119119   1.125   5.569   4.697  0.3711  2.0522  0.2045
 6392TIP3    H219120   1.069   5.568   4.557  0.2966 -0.9579  0.1893
 6393TIP3   OH219121   0.269   0.204   5.825  0.0253  0.0691 -0.8236
 6393TIP3    H119122   0.183   0.242   5.842  0.4150  0.2342  0.9718
 6393TIP3    H219123   0.315   0.269   5.772 -0.9689 -0.0774 -1.9043
 6394TIP3   OH219124   0.164   0.695   0.108 -0.3504  0.1596  0.0143
 6394TIP3    H119125   0.165   0.618   0.051  0.9610 -0.6251  1.0073
 6394TIP3    H219126   0.157   0.769   0.049  2.0305 -0.5538 -1.3249
 6395TIP3   OH219127   0.480   4.667   2.019 -0.5364 -0.0773  0.6259
 6395TIP3    H119128   0.411   4.600   2.013 -0.8447  0.2052  1.0040
 6395TIP3    H219129   0.518   4.669   1.931 -0.6654 -0.6036  0.5533
 6396TIP3   OH219130   6.179   3.971   6.491  0.5047 -0.0269  0.5246
 6396TIP3    H119131   6.107   3.968   6.428  1.4426  0.9727 -0.6440
 6396TIP3    H219132   6.198   4.064   6.501  1.5045 -0.2718  0.9479
 6397TIP3   OH219133   0.045   6.627   5.063 -0.0101  0.0894  0.2747
 6397TIP3    H119134  -0.009   6.570   5.009 -0.2656  0.9916 -0.4580
 6397TIP3    H219135   0.010   6.715   5.048  1.2028  0.6105  0.3365
 6398TIP3   OH219136   5.656   1.806   5.232 -0.0229  0.0649  0.1217
 6398TIP3    H119137   5.708   1.827   5.310  1.8186 -0.0962 -0.9849
 6398TIP3    H219138   5.712   1.747   5.182 -1.2829 -0.0601 -1.1982
 6399TIP3   OH219139   1.450   2.232   0.086 -0.2302 -0.7703  0.0994
 6399TIP3    H119140   1.475   2.291   0.156 -1.0406 -0.1905 -0.0906
 6399TIP3    H219141   1.529   2.180   0.069  0.5994  0.4573  0.0535
 6400TIP3   OH219142   0.829   4.243   2.447  0.4005 -0.3009  0.0649
 6400TIP3    H119143   0.917   4.234   2.410  0.3950 -2.8326  0.5193
 6400TIP3    H219144   0.843   4.291   2.528  1.3034 -0.3164 -0.0672
 6401TIP3   OH219145   6.744   0.889   3.485 -0.0615 -0.0832  0.5034
 6401TIP3    H119146   6.679   0.925   3.425  2.5096  1.0453 -1.8109
 6401TIP3    H219147   6.716   0.919   3.572 -3.0703 -0.4712 -0.2243
 6402TIP3   OH219148   3.091   6.449   0.106  0.4429 -0.0375  0.1749
 6402TIP3    H119149   3.029   6.442   0.179  0.8960 -1.6047  0.4481
 6402TIP3    H219150   3.038   6.436   0.028  0.0371  1.1444  0.2326
 6403TIP3   OH219151   7.754   6.206   6.695  0.4327 -0.3129  0.7337
 6403TIP3    H119152   7.801   6.212   6.611 -0.4794 -1.4047  0.1089
 6403TIP3    H219153   7.681   6.267   6.685 -0.2006 -1.1133  0.3501
 6404TIP3   OH219154   3.496   3.006   2.645 -0.0201 -0.1033  0.9762
 6404TIP3    H119155   3.469   2.953   2.570 -0.7601 -0.6264  1.5982
 6404TIP3    H219156   3.512   3.093   2.608 -0.1223 -0.4164  0.1700
 6405TIP3   OH219157   1.281   4.177   3.707 -0.8533  0.0959 -0.1551
 6405TIP3    H119158   1.215   4.231   3.665 -1.2582  0.1118  0.4945
 6405TIP3    H219159   1.363   4.224   3.691 -1.4412  2.2285  2.4372
 6406TIP3   OH219160   3.863   0.655   1.309  0.1543 -0.0674 -0.5288
 6406TIP3    H119161   3.848   0.566   1.278 -1.6987  0.0434 -0.0200
 6406TIP3    H219162   3.908   0.644   1.393  0.2515 -0.5129 -0.6380
 6407TIP3   OH219163   1.312   0.608   5.273  0.2973 -0.4130  0.4782
 6407TIP3    H119164   1.347   0.689   5.309 -1.4327 -0.0013  1.3348
 6407TIP3    H219165   1.253   0.636   5.203 -1.4623 -0.7790  1.7391
 6408TIP3   OH219166   3.265   3.819   0.164 -0.7205  0.2756 -0.0438
 6408TIP3    H119167   3.206   3.856   0.098 -0.5507  0.6535  0.0090
 6408TIP3    H219168   3.310   3.896   0.201 -0.2011 -0.0024 -0.0844
 6409TIP3   OH219169   7.755   1.121   6.030 -0.2663 -0.0385 -0.5632
 6409TIP3    H119170   7.670   1.124   5.985 -0.3245  1.4254 -0.4232
 6409TIP3    H219171   7.750   1.044   6.086 -1.0798 -0.5896 -1.3742
 6410TIP3   OH219172   0.571   0.312   4.862  0.1201  0.5414  0.9648
 6410TIP3    H119173   0.634   0.384   4.868 -0.2810  0.8713  1.2838
 6410TIP3    H219174   0.501   0.347   4.807 -0.2575  0.5345  1.4375
 6411TIP3   OH219175   5.381   1.111   2.089  0.0310 -0.2779 -0.0852
 6411TIP3    H119176   5.468   1.084   2.060  0.7971  0.3640  1.4617
 6411TIP3    H219177   5.354   1.177   2.025  1.1069  0.1853 -0.0960
 6412TIP3   OH219178   7.616   0.848   2.447 -0.2251 -0.0876 -0.1805
 6412TIP3    H119179   7.634   0.754   2.447  0.6388  0.0161  2.4525
 6412TIP3    H219180   7.701   0.888   2.427 -0.0721  0.1588  0.9175
 6413TIP3   OH219181   0.914   3.619   5.819 -0.2106  0.5837  0.1261
 6413TIP3    H119182   0.824   3.648   5.835 -1.1406 -1.6240 -0.7141
 6413TIP3    H219183   0.905   3.547   5.756  2.0765 -0.3617  0.7854
 6414TIP3   OH219184   1.240   7.068   5.755 -0.4488  0.0293  0.3493
 6414TIP3    H119185   1.284   6.993   5.793 -1.8177 -0.9175  0.1574
 6414TIP3    H219186   1.243   7.052   5.660 -1.6950 -0.3857  0.3564
 6415TIP3   OH219187   4.346   0.249   0.521  0.1898  0.2339 -0.1248
 6415TIP3    H119188   4.266   0.287   0.557  1.1350  1.8563  0.3167
 6415TIP3    H219189   4.397   0.222   0.597 -0.7828 -2.8401 -0.3917
 6416TIP3   OH219190   7.782   4.433   0.555  0.0424  0.0556 -0.7089
 6416TIP3    H119191   7.737   4.420   0.471 -0.1805 -0.5383 -0.5036
 6416TIP3    H219192   7.737   4.373   0.615  0.8128 -0.2106 -0.3893
 6417TIP3   OH219193   2.360   5.111   3.028  0.3029  0.2649 -0.4470
 6417TIP3    H119194   2.382   5.179   3.092  0.1248 -0.4290  0.3653
 6417TIP3    H219195   2.293   5.151   2.973 -0.6153  0.3761  0.7153
 6418TIP3   OH219196   3.655   2.376   6.063  0.6038  0.3843 -0.6603
 6418TIP3    H119197   3.563   2.359   6.044  0.7275 -0.0261 -0.9159
 6418TIP3    H219198   3.665   2.471   6.051 -0.1879  0.7307  1.2105
 6419TIP3   OH219199   1.080   6.698   5.439 -0.4133 -0.3002  0.7038
 6419TIP3    H119200   1.066   6.735   5.351 -0.4123  0.2387  0.9245
 6419TIP3    H219201   1.167   6.658   5.434 -0.2496  0.0620  0.5634
 6420TIP3   OH219202   0.514   5.514   3.995  0.6451  0.0832  0.7443
 6420TIP3    H119203   0.590   5.511   4.053  1.2806  1.2405 -0.0008
 6420TIP3    H219204   0.468   5.595   4.018 -0.4875 -0.6875  1.3103
 6421TIP3   OH219205   2.017   4.045   4.090  0.0827  0.7853  0.3372
 6421TIP3    H119206   1.994   3.960   4.126 -0.0216  0.9146  0.5788
 6421TIP3    H219207   2.099   4.030   4.043 -1.1504  0.0303 -1.6843
 6422TIP3   OH219208   5.305   6.017   4.219  0.9837 -0.9669  0.1037
 6422TIP3    H119209   5.217   6.050   4.235  1.7091 -0.0573  2.6940
 6422TIP3    H219210   5.292   5.936   4.170 -1.2637 -0.7947  0.3156
 6423TIP3   OH219211   7.482   2.847   1.297  0.1353 -0.3152 -0.3792
 6423TIP3    H119212   7.562   2.862   1.245 -0.0562  0.6481 -0.4071
 6423TIP3    H219213   7.422   2.915   1.268  0.4906  1.1465  2.0784
 6424TIP3   OH219214   4.778   1.072   6.050 -0.2067  0.2032  0.2683
 6424TIP3    H119215   4.705   1.077   6.113 -1.2724 -1.7741 -0.7163
 6424TIP3    H219216   4.783   0.979   6.027  1.0436  0.6811 -1.5662
 6425TIP3   OH219217   2.918   4.000   0.107  0.0848  0.0302  0.3307
 6425TIP3    H119218   2.935   4.092   0.126 -2.6428  1.2616 -2.3849
 6425TIP3    H219219   2.948   3.988   0.017 -2.0037 -0.9451 -0.2869
 6426TIP3   OH219220   6.034   4.295   3.393  0.7081  0.1676 -0.6514
 6426TIP3    H119221   5.958   4.244   3.420  0.4128  0.9938  0.1295
 6426TIP3    H219222   6.007   4.386   3.404  0.8156  0.5501 -3.1532
 6427TIP3   OH219223   5.641   3.425   0.101  0.2791 -0.4584 -0.4913
 6427TIP3    H119224   5.561   3.382   0.070 -0.4247 -0.4784  1.2706
 6427TIP3    H219225   5.650   3.503   0.046 -1.1497 -0.2683 -0.4810
 6428TIP3   OH219226   3.342   6.309   1.637  0.6833  0.5752 -0.1511
 6428TIP3    H119227   3.304   6.248   1.700 -0.4876 -0.2632 -1.6004
 6428TIP3    H219228   3.431   6.276   1.621  0.1892 -0.5472 -0.6382
 6429TIP3   OH219229   7.865   4.645   1.312  0.0123  0.2617  1.1025
 6429TIP3    H119230   7.844   4.618   1.223 -1.3533 -1.8972  2.0024
 6429TIP3    H219231   7.959   4.666   1.309 -0.2631  1.5206 -1.0798
 6430TIP3   OH219232   0.792   2.295   6.148  0.2626 -0.0984  0.3733
 6430TIP3    H119233   0.806   2.244   6.228  0.5043  1.1442  1.1400
 6430TIP3    H219234   0.851   2.255   6.084 -0.4521 -1.5619  0.5740
 6431TIP3   OH219235   4.859   1.823   5.062  0.5936 -0.6043  0.2124
 6431TIP3    H119236   4.932   1.763   5.042  2.0828  1.4023 -0.7214
 6431TIP3    H219237   4.855   1.881   4.987 -1.3300  0.0126  0.7447
 6432TIP3   OH219238   4.008   0.861   5.339 -0.1216  0.6224  0.0330
 6432TIP3    H119239   3.970   0.936   5.385  0.9791  0.9612  0.4272
 6432TIP3    H219240   4.103   0.877   5.342  0.0860 -0.4479 -0.4692
 6433TIP3   OH219241   5.254   3.477   4.268  0.2239 -0.2568 -0.0482
 6433TIP3    H119242   5.204   3.557   4.285  2.0863  1.4916 -2.0736
 6433TIP3    H219243   5.194   3.420   4.220 -0.6759  0.5768  0.0547
 6434TIP3   OH219244   5.289   1.805   0.211 -0.1139 -0.0819 -0.0516
 6434TIP3    H119245   5.215   1.847   0.168 -0.4090  0.4113  0.8996
 6434TIP3    H219246   5.275   1.823   0.304  0.6399 -0.8899  0.2263
 6435TIP3   OH219247   7.795   4.108   0.415  0.3543  0.4602  0.5253
 6435TIP3    H119248   7.837   4.095   0.499 -0.5839 -0.8773  0.8201
 6435TIP3    H219249   7.715   4.056   0.420  0.3528  0.2352 -1.2452
 6436TIP3   OH219250   2.240   0.008   4.240 -0.7564 -0.4406 -0.3568
 6436TIP3    H119251   2.277   0.094   4.258 -1.1811 -0.2543 -0.3653
 6436TIP3    H219252   2.155   0.026   4.199 -0.2358 -0.8505 -1.6660
 6437TIP3   OH219253   1.517   5.857   6.593 -0.0626 -0.5506  0.0822
 6437TIP3    H119254   1.539   5.835   6.684  1.2402 -0.9269 -0.3023
 6437TIP3    H219255   1.596   5.898   6.559 -1.0116  0.8904 -0.4899
 6438TIP3   OH219256   7.866   7.626   5.041  0.1970  0.2416  0.3170
 6438TIP3    H119257   7.789   7.670   5.004  0.8523  0.3722 -0.9368
 6438TIP3    H219258   7.884   7.554   4.981  1.2174  0.3744  0.4412
 6439TIP3   OH219259   7.505   6.718   5.490  0.2121  0.3864  0.0780
 6439TIP3    H119260   7.596   6.736   5.514  0.1532 -0.2626  0.8578
 6439TIP3    H219261   7.456   6.790   5.528  0.4877  1.2084 -1.1050
 6440TIP3   OH219262   6.918   7.211   1.171  0.2093 -0.5220 -0.4898
 6440TIP3    H119263   6.875   7.126   1.176 -0.8792 -0.0591 -1.4633
 6440TIP3    H219264   6.986   7.200   1.104 -2.4470  0.3274 -3.5569
 6441TIP3   OH219265   3.888   0.601   2.998  0.2987 -0.2747 -0.4399
 6441TIP3    H119266   3.822   0.642   2.942  0.5316  0.2816 -0.3150
 6441TIP3    H219267   3.840   0.533   3.045 -0.5494  1.0989  0.7807
 6442TIP3   OH219268   4.986   5.833   3.161  0.3685 -0.1105 -0.0165
 6442TIP3    H119269   4.949   5.791   3.083  0.3230 -1.0479  0.4973
 6442TIP3    H219270   5.018   5.917   3.129  0.5634 -0.5712 -1.1006
 6443TIP3   OH219271   4.564   1.578   4.564 -0.2606  0.9651  0.2161
 6443TIP3    H119272   4.589   1.669   4.581  1.0825  0.4777  0.9617
 6443TIP3    H219273   4.610   1.555   4.483 -0.1770  0.7905  0.3130
 6444TIP3   OH219274   7.055   1.872   3.390 -0.7187 -0.0603 -0.0836
 6444TIP3    H119275   7.068   1.862   3.296 -1.2085 -0.9440 -0.0760
 6444TIP3    H219276   6.969   1.913   3.398  0.6751  3.0812 -0.0699
 6445TIP3   OH219277   8.057   4.177   3.763 -0.4505  0.6428  0.4145
 6445TIP3    H119278   7.968   4.186   3.796 -0.4457  2.8372  0.0151
 6445TIP3    H219279   8.100   4.259   3.789  0.4911  1.0443 -2.1495
 6446TIP3   OH219280   4.734   1.216   2.436  0.2910  0.0041  0.1350
 6446TIP3    H119281   4.674   1.240   2.366  0.8100 -1.8282 -1.0110
 6446TIP3    H219282   4.801   1.163   2.393 -0.6575 -3.3205  2.3289
 6447TIP3   OH219283   0.296   6.249   5.800 -0.6309  0.5571 -0.3094
 6447TIP3    H119284   0.377   6.198   5.808 -0.7667  0.5621  1.4627
 6447TIP3    H219285   0.299   6.311   5.872 -2.3285  0.3851 -0.0377
 6448TIP3   OH219286   3.619   4.071   0.660 -0.1564  0.6750 -0.4562
 6448TIP3    H119287   3.636   4.024   0.578 -0.9635 -1.4522  0.5195
 6448TIP3    H219288   3.584   4.155   0.632 -1.0578 -0.2488 -2.3048
 6449TIP3   OH219289   1.687   0.260   1.343  0.1497 -0.5376 -0.9690
 6449TIP3    H119290   1.633   0.277   1.265  0.5522  0.5740 -1.0286
 6449TIP3    H219291   1.681   0.165   1.357 -0.2524 -0.6933 -2.1141
 6450TIP3   OH219292   6.471   6.668   6.326 -0.0294 -0.1490 -0.0457
 6450TIP3    H119293   6.454   6.633   6.239 -0.9630 -2.4062  0.9756
 6450TIP3    H219294   6.566   6.660   6.337 -0.0697 -1.1686 -0.3548
 6451TIP3   OH219295   2.989   5.418   6.509 -0.4958  0.1334 -0.3194
 6451TIP3    H119296   2.949   5.505   6.515  2.1618  1.3912  0.8805
 6451TIP3    H219297   3.083   5.435   6.510  0.1771 -2.8396  2.3684
 6452TIP3   OH219298   3.540   7.099   0.447  0.0725 -0.0611  0.4240
 6452TIP3    H119299   3.486   7.044   0.504  3.0199 -1.0503  2.4586
 6452TIP3    H219300   3.517   7.188   0.473  1.5280 -0.4606  3.5703
 6453TIP3   OH219301   6.782   5.673   0.916 -0.1641  0.1697  0.1012
 6453TIP3    H119302   6.779   5.769   0.910  0.6323  0.2577  0.9136
 6453TIP3    H219303   6.875   5.652   0.925 -0.3543 -0.6637  0.2243
 6454TIP3   OH219304   1.261   6.441   3.368 -0.0163 -0.1588 -0.3991
 6454TIP3    H119305   1.290   6.364   3.318 -1.4525 -1.6612  0.9723
 6454TIP3    H219306   1.338   6.468   3.417  0.4869 -0.7743 -0.8348
 6455TIP3   OH219307   3.476   6.731   3.040  0.1358 -0.0891  0.3295
 6455TIP3    H119308   3.435   6.644   3.044  0.7548 -0.4975 -1.3469
 6455TIP3    H219309   3.568   6.713   3.017  0.1882  1.0077 -0.4094
 6456TIP3   OH219310   5.068   1.935   2.830  0.6345  0.0807  0.6624
 6456TIP3    H119311   5.047   1.958   2.739 -1.7070 -1.9327  0.6015
 6456TIP3    H219312   5.158   1.902   2.825  1.0531  1.2791 -0.6354
 6457TIP3   OH219313   4.502   7.564   1.686  0.1187 -0.1514  0.0021
 6457TIP3    H119314   4.442   7.593   1.618 -1.5434 -0.3470  1.3118
 6457TIP3    H219315   4.480   7.472   1.701 -0.2605  0.1356  1.4420
 6458TIP3   OH219316   1.320   1.074   4.853  0.0128 -0.2279  0.2243
 6458TIP3    H119317   1.282   1.136   4.791 -0.3264 -1.1884 -0.5521
 6458TIP3    H219318   1.254   1.066   4.923  1.0574  2.0361  1.5542
 6459TIP3   OH219319   2.768   6.900   5.786  0.1927 -0.1736  0.5594
 6459TIP3    H119320   2.746   6.911   5.693  0.2268 -1.2639  0.4110
 6459TIP3    H219321   2.733   6.814   5.809  0.2050  0.0768  1.5592
 6460TIP3   OH219322   6.177   7.739   2.395  0.0230 -0.1180  0.2879
 6460TIP3    H119323   6.164   7.804   2.464 -1.3039 -1.0343  0.9546
 6460TIP3    H219324   6.118   7.767   2.325 -0.3237 -0.4399  0.4522
 6461TIP3   OH219325   1.639   5.106   2.135  0.2217 -0.4925  0.1322
 6461TIP3    H119326   1.645   5.201   2.133  0.5236 -0.4962  0.7344
 6461TIP3    H219327   1.729   5.077   2.151 -0.2431 -0.7972  2.4973
 6462TIP3   OH219328   8.167   4.230   6.776 -0.2428 -0.5679  0.0025
 6462TIP3    H119329   8.242   4.248   6.719  0.9854 -2.2346  1.0124
 6462TIP3    H219330   8.096   4.207   6.716 -0.3383  2.0698 -1.0320
 6463TIP3   OH219331   7.525   4.601   6.733  0.4225  0.4574 -0.2444
 6463TIP3    H119332   7.484   4.584   6.648  0.5195 -0.6560 -0.0844
 6463TIP3    H219333   7.557   4.516   6.762 -0.4434  0.6447  1.3566
 6464TIP3   OH219334   6.161   5.049   4.087 -0.1671  0.5386  0.8709
 6464TIP3    H119335   6.201   4.964   4.107 -2.1354 -0.5931  0.2587
 6464TIP3    H219336   6.211   5.081   4.012 -0.6238 -1.0456 -0.1755
 6465TIP3   OH219337   5.602   7.408   1.083  0.3323  0.1136 -0.2606
 6465TIP3    H119338   5.564   7.321   1.077 -0.7163  0.3322  1.9441
 6465TIP3    H219339   5.544   7.464   1.032  0.7653 -0.3910 -1.3210
 6466TIP3   OH219340   4.047   1.290   1.682 -0.2804  0.2461  0.4452
 6466TIP3    H119341   4.016   1.209   1.722 -0.6431  1.0921  1.9539
 6466TIP3    H219342   4.073   1.265   1.594 -0.7449 -1.4308  0.7547
 6467TIP3   OH219343   4.754   6.570   4.709 -0.2366 -0.1323 -0.4741
 6467TIP3    H119344   4.714   6.494   4.750 -0.0861 -0.1623 -0.3828
 6467TIP3    H219345   4.760   6.547   4.616 -1.8340  0.4770 -0.7576
 6468TIP3   OH219346   3.605   2.314   0.328 -0.6628 -0.2877 -0.1267
 6468TIP3    H119347   3.557   2.267   0.397 -0.5886  0.9914  0.8387
 6468TIP3    H219348   3.583   2.406   0.343 -0.5315  0.0248 -1.7606
 6469TIP3   OH219349   3.474   4.810   1.673  0.3932 -0.7749  0.4864
 6469TIP3    H119350   3.540   4.871   1.705 -0.5588  0.4144  0.2580
 6469TIP3    H219351   3.400   4.822   1.732  0.3504 -2.0691  0.7261
 6470TIP3   OH219352   8.068   1.106   3.628 -0.0576  0.7161 -0.0842
 6470TIP3    H119353   8.033   1.105   3.539 -2.0079  0.5381  0.6477
 6470TIP3    H219354   8.070   1.014   3.654 -2.1965  0.9421  1.0322
 6471TIP3   OH219355   4.191   5.368   6.705  0.1001  0.1102 -0.2234
 6471TIP3    H119356   4.170   5.276   6.721  0.9176 -0.3292 -1.5604
 6471TIP3    H219357   4.253   5.391   6.774  0.5952 -0.6188 -0.4156
 6472TIP3   OH219358   3.912   6.394   0.352  0.1889  1.0446 -0.1814
 6472TIP3    H119359   3.967   6.389   0.274  1.1989  1.5609  0.4615
 6472TIP3    H219360   3.825   6.370   0.322  1.2079 -2.6353 -0.7343
 6473TIP3   OH219361   1.404   4.151   5.177 -0.7425 -0.7554  0.5935
 6473TIP3    H119362   1.402   4.185   5.087 -0.1906  0.8160  1.1333
 6473TIP3    H219363   1.466   4.078   5.174  0.3757  0.1795 -0.0443
 6474TIP3   OH219364   2.554   3.651   3.189  0.6305 -0.6614  0.3481
 6474TIP3    H119365   2.471   3.663   3.141  0.8359 -0.2030  0.0965
 6474TIP3    H219366   2.566   3.733   3.237 -0.3263 -1.6594  2.4091
 6475TIP3   OH219367   2.506   4.328   0.737 -0.1358  0.7516 -0.2114
 6475TIP3    H119368   2.535   4.277   0.662 -1.9568 -0.8669  0.1218
 6475TIP3    H219369   2.564   4.301   0.809  0.0899  0.5255 -0.4785
 6476TIP3   OH219370   5.070   7.150   0.685  0.0687 -0.3020 -0.0321
 6476TIP3    H119371   5.111   7.177   0.767  1.8126 -0.7641 -0.7033
 6476TIP3    H219372   5.098   7.214   0.621  0.9439 -1.4202 -0.8053
 6477TIP3   OH219373   4.740   5.916   3.298  0.0294 -0.6599  0.3282
 6477TIP3    H119374   4.680   5.975   3.250 -1.3704 -1.6140  0.8428
 6477TIP3    H219375   4.788   5.871   3.229  1.6719  1.5425 -0.0864
 6478TIP3   OH219376   3.882   7.760   0.627 -0.4755 -0.1840 -0.3074
 6478TIP3    H119377   3.913   7.784   0.539 -2.4909 -0.2321 -1.0991
 6478TIP3    H219378   3.905   7.835   0.682 -1.4001  0.9853 -1.4535
 6479TIP3   OH219379   2.688   2.651   4.005 -0.3433  0.3099  0.2014
 6479TIP3    H119380   2.746   2.685   3.938  0.8343  0.8553  1.4466
 6479TIP3    H219381   2.640   2.728   4.036 -2.0408 -0.1758 -1.0328
 6480TIP3   OH219382   2.292   1.432   5.062  0.6476 -0.1138  0.1091
 6480TIP3    H119383   2.258   1.513   5.102 -0.2096 -0.6706  0.5289
 6480TIP3    H219384   2.301   1.453   4.969  1.1428  0.6933  0.3271
 6481TIP3   OH219385   2.409   0.100   5.972 -0.2680 -0.1115  0.1362
 6481TIP3    H119386   2.362   0.183   5.977  1.1366  0.7156  0.2345
 6481TIP3    H219387   2.441   0.095   5.882  0.8042  0.1289  0.4894
 6482TIP3   OH219388   1.215   2.083   6.598  0.1627  0.6468  0.0107
 6482TIP3    H119389   1.123   2.083   6.571 -0.5299  0.0592  2.1500
 6482TIP3    H219390   1.254   2.011   6.549 -0.2928  1.3899 -1.5089
 6483TIP3   OH219391   2.726   4.502   5.314 -0.4914 -0.7255 -0.4793
 6483TIP3    H119392   2.739   4.597   5.322  0.7552 -0.7080 -2.1919
 6483TIP3    H219393   2.653   4.483   5.373  0.5372  0.9626  1.4833
 6484TIP3   OH219394   7.852   0.944   2.411 -0.0768  0.1527  0.7381
 6484TIP3    H119395   7.889   1.027   2.381 -0.0988  0.9462  2.7672
 6484TIP3    H219396   7.924   0.881   2.400  0.3584  0.7041  0.3460
 6485TIP3   OH219397   7.745   5.279   2.133  0.0822 -0.0790  0.2795
 6485TIP3    H119398   7.650   5.280   2.118 -0.1797 -0.2359  1.7671
 6485TIP3    H219399   7.777   5.206   2.079 -1.0135 -1.6116  1.5792
 6486TIP3   OH219400   2.061   3.042   6.299 -0.1760 -0.3428 -0.1215
 6486TIP3    H119401   2.114   3.107   6.345 -0.8459 -0.0772  0.2910
 6486TIP3    H219402   2.125   2.987   6.254  0.4219  0.3053 -0.0851
 6487TIP3   OH219403   3.462   5.292   5.715 -0.0140  0.2457  0.3595
 6487TIP3    H119404   3.438   5.277   5.624 -1.8032  0.2711  0.7792
 6487TIP3    H219405   3.494   5.207   5.747  2.1304  0.6065 -0.6613
 6488TIP3   OH219406   2.434   0.137   6.247  0.0220 -0.5067 -0.5564
 6488TIP3    H119407   2.459   0.105   6.160  0.1058 -0.4876 -0.5386
 6488TIP3    H219408   2.430   0.232   6.237  0.2894 -0.4869 -0.4692
 6489TIP3   OH219409   4.038   2.928   0.822 -0.2125  0.0807 -0.4263
 6489TIP3    H119410   4.107   2.864   0.840 -0.7951  0.0844  2.4158
 6489TIP3    H219411   3.998   2.899   0.740  1.3660 -1.5222 -0.6890
 6490TIP3   OH219412   1.548   6.712   3.447  0.2361  0.2803  0.1307
 6490TIP3    H119413   1.565   6.762   3.367  2.3740 -0.3468  0.1065
 6490TIP3    H219414   1.522   6.777   3.512  0.6723  1.1115 -0.5109
 6491TIP3   OH219415   3.977   3.705   5.538  0.1571 -0.1544 -0.2278
 6491TIP3    H119416   4.036   3.758   5.484  0.5200 -0.1878  0.1346
 6491TIP3    H219417   3.957   3.761   5.613 -2.1810  0.8113 -1.4714
 6492TIP3   OH219418   2.882   3.408   1.400  0.6445  0.1467 -0.1785
 6492TIP3    H119419   2.862   3.460   1.478 -2.0581 -1.4971  0.3478
 6492TIP3    H219420   2.964   3.364   1.422  0.9046  1.1395  0.9561
 6493TIP3   OH219421   7.156   0.311   0.055  0.2722 -0.0462 -1.1720
 6493TIP3    H119422   7.121   0.400   0.057 -0.3055 -0.2658 -1.1483
 6493TIP3    H219423   7.244   0.319   0.092  0.0932  0.4582 -0.8400
 6494TIP3   OH219424   4.427   7.455   2.061 -0.3981  0.4100 -0.5227
 6494TIP3    H119425   4.441   7.477   2.153 -2.6052  3.2663 -0.7247
 6494TIP3    H219426   4.509   7.414   2.033  0.4149 -0.3479  2.6162
 6495TIP3   OH219427   2.786   2.524   5.890 -0.0714  0.4546 -0.4406
 6495TIP3    H119428   2.690   2.522   5.886 -0.1205  1.0878  0.2223
 6495TIP3    H219429   2.814   2.502   5.801 -0.8345  0.5366 -0.7096
 6496TIP3   OH219430   1.674   7.273   1.820  0.0877 -0.5661  0.8149
 6496TIP3    H119431   1.605   7.298   1.882 -0.4793 -2.4300  0.9941
 6496TIP3    H219432   1.732   7.217   1.871  0.3413 -1.0424  0.0143
 6497TIP3   OH219433   6.826   0.348   4.732  0.2793 -0.0190 -1.0845
 6497TIP3    H119434   6.916   0.344   4.700  1.0524  1.9160  0.6674
 6497TIP3    H219435   6.803   0.256   4.750  2.4954 -0.4323 -0.0375
 6498TIP3   OH219436   1.561   4.629   5.916 -0.3088  0.2236  0.4546
 6498TIP3    H119437   1.581   4.600   6.005  0.5035 -0.9019 -0.0663
 6498TIP3    H219438   1.484   4.684   5.926 -1.0571 -0.9672  1.7084
 6499TIP3   OH219439   4.101   7.760   3.237 -0.6114  0.9960  0.4614
 6499TIP3    H119440   4.027   7.779   3.294  0.5350  2.2342  1.6048
 6499TIP3    H219441   4.065   7.702   3.169 -2.1314 -0.1127  2.1301
 6500TIP3   OH219442   7.727   5.752   6.634  0.2654 -0.4306 -0.0685
 6500TIP3    H119443   7.676   5.808   6.694 -1.5649 -1.1525 -0.8833
 6500TIP3    H219444   7.751   5.810   6.562 -3.2856 -0.9400 -1.8894
 6501TIP3   OH219445   7.476   7.851   4.316  0.1895  0.1554  0.4856
 6501TIP3    H119446   7.440   7.766   4.341 -1.3604  0.5216 -0.3935
 6501TIP3    H219447   7.524   7.834   4.235 -1.1421  0.2946 -0.3666
 6502TIP3   OH219448   0.252   0.037   6.597  0.3414 -0.4216  0.2678
 6502TIP3    H119449   0.170   0.028   6.549  0.6248 -0.4917 -0.2074
 6502TIP3    H219450   0.305  -0.037   6.569  0.3095 -0.7692  1.1021
 6503TIP3   OH219451   5.410   3.681   3.947 -0.0196  0.2937 -0.5333
 6503TIP3    H119452   5.469   3.632   3.889 -1.5750 -2.9501  0.3948
 6503TIP3    H219453   5.441   3.661   4.035 -1.4101 -0.0172 -0.0952
 6504TIP3   OH219454   4.633   5.466   1.890  0.1044 -0.1428  0.0553
 6504TIP3    H119455   4.560   5.444   1.948 -0.6265  0.5297 -0.5957
 6504TIP3    H219456   4.702   5.496   1.949 -1.1555  2.0166  0.5132
 6505TIP3   OH219457   5.562   1.011   1.605 -0.1926 -0.3094 -0.0728
 6505TIP3    H119458   5.543   1.058   1.524  2.3418  0.8281 -0.0977
 6505TIP3    H219459   5.570   0.919   1.578 -1.2961 -0.2316 -0.7282
 6506TIP3   OH219460   4.617   5.244   5.902 -0.4091  0.2558  0.0062
 6506TIP3    H119461   4.524   5.266   5.904 -0.4119  0.2064  0.5618
 6506TIP3    H219462   4.641   5.235   5.994  0.2205  0.5706 -0.1269
 6507TIP3   OH219463   5.654   7.521   6.150  0.3776  0.2514  0.2803
 6507TIP3    H119464   5.603   7.441   6.166  0.1097  0.4488  0.4158
 6507TIP3    H219465   5.718   7.522   6.221  0.4949  0.0650  0.1781
 6508TIP3   OH219466   6.137   5.259   4.287 -0.0366 -0.3566 -0.2478
 6508TIP3    H119467   6.169   5.176   4.251  0.8524 -0.0166 -0.2839
 6508TIP3    H219468   6.154   5.252   4.381  0.9191  0.1313 -0.3622
 6509TIP3   OH219469   1.653   4.128   4.608  0.1655  0.2034  0.5031
 6509TIP3    H119470   1.728   4.186   4.626  0.7635 -0.2165 -0.6006
 6509TIP3    H219471   1.590   4.184   4.562  0.4179  0.1829  0.1299
 6510TIP3   OH219472   7.617   5.839   5.566  0.1443  0.6892  0.6304
 6510TIP3    H119473   7.633   5.793   5.484  0.1936  2.4821 -0.4279
 6510TIP3    H219474   7.631   5.773   5.634  3.7034 -0.0310 -0.5957
 6511TIP3   OH219475   7.125   0.436   6.340  0.8012 -0.1402  0.2808
 6511TIP3    H119476   7.092   0.351   6.312  0.2537  0.3536 -0.6255
 6511TIP3    H219477   7.208   0.416   6.383  1.7052 -0.9909 -1.6851
 6512TIP3   OH219478   2.610   7.063   2.293  0.0741 -0.0272 -0.3225
 6512TIP3    H119479   2.702   7.070   2.268  0.6460  0.5581  1.7607
 6512TIP3    H219480   2.593   7.142   2.344 -0.7808 -1.3923  1.6384
 6513TIP3   OH219481   5.710   7.593   1.799  0.0305 -0.1265  0.0190
 6513TIP3    H119482   5.745   7.650   1.731 -2.0217  1.1727 -0.0583
 6513TIP3    H219483   5.618   7.620   1.807 -0.4383 -1.9647  1.5425
 6514TIP3   OH219484   0.220   4.408   0.046  0.4928 -0.2731 -0.1997
 6514TIP3    H119485   0.197   4.465   0.120 -0.6886  2.1910 -2.3260
 6514TIP3    H219486   0.138   4.362   0.026  0.9293 -1.2807  0.2505
 6515TIP3   OH219487   0.465   1.494   4.808  0.2899  0.4588 -0.3820
 6515TIP3    H119488   0.555   1.525   4.822  0.4154  0.7956 -1.7683
 6515TIP3    H219489   0.411   1.572   4.819  0.0907  0.1574  0.9542
 6516TIP3   OH219490   1.783   6.659   2.517 -0.1687  0.1940  0.3999
 6516TIP3    H119491   1.814   6.664   2.608 -0.8054 -1.9148  0.7698
 6516TIP3    H219492   1.707   6.716   2.514  0.1638  0.6840  1.0442
 6517TIP3   OH219493   3.326   2.339   6.546 -0.5472  0.0365  0.2833
 6517TIP3    H119494   3.308   2.406   6.480  0.0514  1.1523  1.1944
 6517TIP3    H219495   3.278   2.368   6.623 -3.2908 -2.5597 -0.2876
 6518TIP3   OH219496   3.534   2.691   5.184  0.5817  0.4017  0.1077
 6518TIP3    H119497   3.541   2.641   5.265  0.3000  0.4889  0.1864
 6518TIP3    H219498   3.442   2.713   5.177  0.4649 -0.2946 -0.6555
 6519TIP3   OH219499   1.504   4.555   3.483  0.2260 -0.3094  0.3623
 6519TIP3    H119500   1.538   4.539   3.395 -0.4826  1.4111 -0.2618
 6519TIP3    H219501   1.452   4.478   3.503 -0.0614 -0.4709 -0.9647
 6520TIP3   OH219502   3.213   6.584   3.731 -0.1450  0.1734  0.5364
 6520TIP3    H119503   3.265   6.516   3.688  0.5248 -0.2708  1.9824
 6520TIP3    H219504   3.175   6.541   3.807  0.5029  1.4513  1.6384
 6521TIP3   OH219505   7.502   3.996   4.905  0.2237 -0.2569  0.0158
 6521TIP3    H119506   7.550   4.029   4.981  1.1665 -0.4518 -0.4730
 6521TIP3    H219507   7.414   4.031   4.915  0.5585  0.4100  0.7563
 6522TIP3   OH219508   3.181   4.417   2.492 -0.3184 -0.4310 -0.6666
 6522TIP3    H119509   3.198   4.396   2.400  0.1929 -1.2323 -0.4027
 6522TIP3    H219510   3.106   4.362   2.515 -0.5959 -0.0528 -0.6714
 6523TIP3   OH219511   7.058   2.961   6.655 -0.0482  0.2532  0.2795
 6523TIP3    H119512   7.137   2.908   6.658 -0.6357 -0.7092 -0.6652
 6523TIP3    H219513   7.038   2.981   6.747  1.7061  1.1867  0.4948
 6524TIP3   OH219514   0.111   7.089   5.112 -0.3620  0.0545  0.5400
 6524TIP3    H119515   0.160   7.105   5.032 -2.1971  0.2204 -0.6145
 6524TIP3    H219516   0.079   7.175   5.138  0.8877  0.1365  1.9605
 6525TIP3   OH219517   0.629   0.710   1.228 -0.3496 -0.3997  0.4525
 6525TIP3    H119518   0.603   0.623   1.256 -0.5938  0.0374  1.6571
 6525TIP3    H219519   0.593   0.719   1.140 -0.5237 -1.4160  0.4105
 6526TIP3   OH219520   3.355   0.281   3.278  0.0306 -0.0392  0.1808
 6526TIP3    H119521   3.362   0.187   3.263  0.0316 -0.0193  0.0492
 6526TIP3    H219522   3.439   0.306   3.316  0.2091 -0.0130 -0.2217
 6527TIP3   OH219523   4.231   1.364   5.369 -0.2694 -0.2286  0.2540
 6527TIP3    H119524   4.296   1.418   5.324  0.0435 -0.2499  0.6773
 6527TIP3    H219525   4.248   1.275   5.337 -0.1845 -0.2146  0.2606
 6528TIP3   OH219526   2.919   3.431   5.102 -0.4975 -0.2747 -0.3872
 6528TIP3    H119527   2.901   3.476   5.185 -0.5623  2.0244 -1.5700
 6528TIP3    H219528   2.836   3.438   5.053 -0.2713 -1.0530 -0.8958
 6529TIP3   OH219529   4.794   3.868   3.090  0.6433  0.0704 -0.1882
 6529TIP3    H119530   4.826   3.803   3.152  1.8090 -1.8928 -2.6572
 6529TIP3    H219531   4.707   3.837   3.065 -0.8135  2.0768  1.9730
 6530TIP3   OH219532   8.010   3.316   2.256  0.3858 -0.0473 -0.0450
 6530TIP3    H119533   7.974   3.349   2.339  0.5010  0.7063 -0.2869
 6530TIP3    H219534   7.932   3.293   2.205  0.3192 -0.7622  0.3620
 6531TIP3   OH219535   3.949   1.508   6.763 -0.1354 -0.0070  0.1426
 6531TIP3    H119536   3.994   1.505   6.847  1.1646 -1.5241 -0.5678
 6531TIP3    H219537   4.015   1.538   6.701  0.1984 -2.9379 -1.0385
 6532TIP3   OH219538   3.225   0.414   0.781 -0.2423 -0.3897  0.2778
 6532TIP3    H119539   3.320   0.427   0.771 -0.5148  0.7786 -0.8998
 6532TIP3    H219540   3.207   0.334   0.731  0.4209 -1.9265  2.3249
 6533TIP3   OH219541   7.847   7.217   6.071 -0.0922  0.3740  0.1447
 6533TIP3    H119542   7.830   7.287   6.008 -1.1347  0.1374  0.1401
 6533TIP3    H219543   7.776   7.224   6.135  0.4696  0.0717  0.8141
 6534TIP3   OH219544   3.415   4.919   3.415  0.5013  0.1991  0.0024
 6534TIP3    H119545   3.389   4.921   3.323  0.8383 -0.4523 -0.1102
 6534TIP3    H219546   3.510   4.912   3.412  0.6103  1.2571  0.4117
 6535TIP3   OH219547   1.904   3.792   2.066  0.1692 -0.0615  0.0461
 6535TIP3    H119548   1.956   3.717   2.037 -1.1592 -0.0703 -2.6812
 6535TIP3    H219549   1.866   3.827   1.985 -1.2968  2.0146  1.5244
 6536TIP3   OH219550   1.056   2.413   5.405 -0.3044  0.6753 -0.1715
 6536TIP3    H119551   0.997   2.356   5.454 -0.9816 -0.4219 -2.1650
 6536TIP3    H219552   1.074   2.486   5.465  0.2771 -1.3872  2.3337
 6537TIP3   OH219553   1.889   3.549   3.156  0.4646  0.4297  0.2448
 6537TIP3    H119554   1.937   3.628   3.179  3.0774 -0.9454 -0.1712
 6537TIP3    H219555   1.894   3.544   3.061 -0.5775  0.2509  0.1812
 6538TIP3   OH219556   6.367   0.040   1.272  0.0795 -0.0485  1.1390
 6538TIP3    H119557   6.299   0.037   1.340 -0.9224 -0.4890  0.1604
 6538TIP3    H219558   6.397  -0.050   1.264 -1.5487 -0.5051 -0.6366
 6539TIP3   OH219559   6.892   0.374   6.796 -0.6562 -0.2357 -0.1238
 6539TIP3    H119560   6.879   0.283   6.820  0.8775 -0.4568 -0.0658
 6539TIP3    H219561   6.890   0.375   6.700 -0.9521 -0.2693 -0.1204
 6540TIP3   OH219562   6.624   0.364   6.029  0.2546 -0.0437 -0.3655
 6540TIP3    H119563   6.613   0.448   5.985 -0.0966 -0.7620 -1.7123
 6540TIP3    H219564   6.709   0.332   6.000  0.6292  0.0730  0.5677
 6541TIP3   OH219565   0.393   0.287   2.702 -0.3071 -0.0266 -0.0362
 6541TIP3    H119566   0.381   0.259   2.793 -1.0231 -0.5581 -0.2877
 6541TIP3    H219567   0.395   0.383   2.706 -3.7076  0.1479  0.1955
 6542TIP3   OH219568   0.202   0.421   4.795  0.0749  0.0796  0.0287
 6542TIP3    H119569   0.119   0.373   4.792  0.4692 -1.0104  3.2744
 6542TIP3    H219570   0.191   0.484   4.866  1.3371  1.4263 -0.9050
 6543TIP3   OH219571   4.067   6.803   4.734 -0.5464 -0.2266 -0.0705
 6543TIP3    H119572   4.075   6.721   4.686 -1.0983 -0.4386  0.1957
 6543TIP3    H219573   4.056   6.777   4.825 -0.4824  0.1479  0.0454
 6544TIP3   OH219574   5.189   7.709   0.422 -0.0419  0.4371 -0.7412
 6544TIP3    H119575   5.211   7.746   0.337 -1.6027 -0.4133 -1.5543
 6544TIP3    H219576   5.271   7.669   0.453  0.2590 -0.3202 -2.4130
 6545TIP3   OH219577   7.233   5.865   0.390  0.2051 -0.2880 -0.3862
 6545TIP3    H119578   7.150   5.824   0.413  0.7277 -0.9012  0.5059
 6545TIP3    H219579   7.299   5.800   0.416  1.0806  1.2134  1.3546
 6546TIP3   OH219580   1.631   6.177   6.613 -0.2506 -0.0113 -0.3618
 6546TIP3    H119581   1.666   6.261   6.582  1.4306  0.2175  1.8938
 6546TIP3    H219582   1.680   6.112   6.563  0.9150  0.3560  0.2635
 6547TIP3   OH219583   4.269   4.047   6.008 -0.1615 -0.0767  0.3998
 6547TIP3    H119584   4.223   4.107   5.950  2.4690  0.1743 -1.6384
 6547TIP3    H219585   4.208   4.030   6.080 -2.6386  1.5511 -1.1910
 6548TIP3   OH219586   7.263   2.583   1.312  0.5411 -0.0448 -0.3049
 6548TIP3    H119587   7.235   2.625   1.393 -1.6306  2.1066 -2.0137
 6548TIP3    H219588   7.349   2.546   1.333  0.7982  1.8005  2.5203
 6549TIP3   OH219589   3.847   0.492   6.189  0.0575 -0.0529 -0.7767
 6549TIP3    H119590   3.769   0.446   6.219  0.7712 -0.1820  1.0199
 6549TIP3    H219591   3.832   0.583   6.213  0.9331 -0.2678  0.7247
 6550TIP3   OH219592   2.469   1.064   0.485  0.5377 -0.2722 -0.2956
 6550TIP3    H119593   2.374   1.078   0.494  0.2212 -2.4817  0.4945
 6550TIP3    H219594   2.496   1.124   0.415 -1.2780  0.9920  0.0170
 6551TIP3   OH219595   5.505   6.005   3.511  0.0280  0.6629 -0.4701
 6551TIP3    H119596   5.556   6.075   3.552 -3.0199  2.4086  0.6446
 6551TIP3    H219597   5.497   5.938   3.580 -1.5471  1.7043  0.4105
 6552TIP3   OH219598   3.922   6.212   5.800  0.3185 -0.6828  0.3915
 6552TIP3    H119599   3.872   6.176   5.726 -1.4863  0.5769  0.9220
 6552TIP3    H219600   3.903   6.152   5.872 -0.8741  0.0396  0.7094
 6553TIP3   OH219601   4.398   1.747   2.295  0.4361 -0.1836 -0.5220
 6553TIP3    H119602   4.476   1.706   2.257  0.4853 -0.6731  0.0868
 6553TIP3    H219603   4.330   1.736   2.228  0.3896 -1.4671 -0.2890
 6554TIP3   OH219604   1.703   1.245   5.660 -0.4061  0.0631 -0.2973
 6554TIP3    H119605   1.799   1.235   5.661 -0.3811  0.0571 -1.4553
 6554TIP3    H219606   1.678   1.240   5.752  0.5672 -1.3918 -0.0637
 6555TIP3   OH219607   6.906   2.029   5.324  0.2250  0.4281 -0.2147
 6555TIP3    H119608   6.870   2.090   5.260 -1.1246 -2.1577 -2.1331
 6555TIP3    H219609   6.921   1.948   5.274 -0.6322 -1.6902  2.6616
 6556TIP3   OH219610   2.621   5.532   1.234 -0.1866 -0.2673 -0.5531
 6556TIP3    H119611   2.665   5.539   1.318  0.2940 -0.2177 -0.8036
 6556TIP3    H219612   2.682   5.481   1.179 -0.6439 -0.5939 -0.7672
 6557TIP3   OH219613   5.495   6.096   0.810  0.6627  0.2925  0.0099
 6557TIP3    H119614   5.537   6.182   0.806 -0.3953  0.7949 -0.7746
 6557TIP3    H219615   5.405   6.111   0.780  0.2907 -0.9875  0.3942
 6558TIP3   OH219616   5.455   5.419   5.811 -0.4341 -0.2041 -0.0729
 6558TIP3    H119617   5.523   5.366   5.853 -2.1706 -0.4514  2.7179
 6558TIP3    H219618   5.499   5.500   5.787  1.4361 -1.4306 -0.9546
 6559TIP3   OH219619   4.443   0.381   4.537 -0.6985  0.3546 -0.4161
 6559TIP3    H119620   4.501   0.313   4.569 -0.9880  0.3131  0.0360
 6559TIP3    H219621   4.497   0.434   4.478 -0.3341  0.0481 -0.3560
 6560TIP3   OH219622   7.606   6.510   0.294 -0.1293 -0.0529  0.8912
 6560TIP3    H119623   7.602   6.457   0.374 -2.5914 -0.5400  0.5155
 6560TIP3    H219624   7.622   6.447   0.224 -1.7821 -0.1659  0.5908
 6561TIP3   OH219625   2.954   6.791   2.711 -0.3810  0.0270  0.7974
 6561TIP3    H119626   2.888   6.748   2.766 -1.2709  0.7105  0.2853
 6561TIP3    H219627   3.038   6.764   2.749 -0.8058 -3.2694 -0.2910
 6562TIP3   OH219628   3.810   4.062   5.928  0.3200 -0.0633 -0.0242
 6562TIP3    H119629   3.825   4.103   6.013  0.4373 -0.3646  0.1036
 6562TIP3    H219630   3.771   4.131   5.874  0.3166  0.1514  0.2501
 6563TIP3   OH219631   4.355   5.505   4.876 -0.1938 -0.5913  0.8971
 6563TIP3    H119632   4.326   5.418   4.850  0.5464 -1.2367  2.0998
 6563TIP3    H219633   4.381   5.495   4.968  0.2060  0.8222  0.9667
 6564TIP3   OH219634   3.515   2.759   3.267  0.7318  0.3164  0.0306
 6564TIP3    H119635   3.504   2.844   3.224  2.5517  0.8885  0.6224
 6564TIP3    H219636   3.428   2.738   3.300 -0.2510  0.9055 -1.9699
 6565TIP3   OH219637   1.326   2.369   5.817 -0.2136 -0.0314  0.0697
 6565TIP3    H119638   1.410   2.399   5.784 -0.5380  0.5336 -0.2487
 6565TIP3    H219639   1.348   2.320   5.896  0.5012 -0.8093 -0.6023
 6566TIP3   OH219640   5.969   5.553   5.844  0.2406  0.2532  0.2924
 6566TIP3    H119641   5.967   5.616   5.772 -0.8189 -1.1409 -0.9824
 6566TIP3    H219642   5.903   5.488   5.819  1.6991 -1.6645  1.2455
 6567TIP3   OH219643   7.269   3.153   2.195 -0.0436 -0.3198  0.4738
 6567TIP3    H119644   7.214   3.101   2.253 -1.4503 -0.7390 -1.1328
 6567TIP3    H219645   7.206   3.199   2.139  1.2394  0.2422 -0.5464
 6568TIP3   OH219646   6.520   0.157   4.592  0.3300 -0.6790  0.3438
 6568TIP3    H119647   6.498   0.180   4.682  0.3899  1.8934 -0.2037
 6568TIP3    H219648   6.615   0.165   4.587  0.4829 -2.1625  0.3375
 6569TIP3   OH219649   1.513   5.043   2.421 -0.1495  0.1304 -0.6217
 6569TIP3    H119650   1.572   5.066   2.349  0.1895  3.0798  0.4464
 6569TIP3    H219651   1.439   5.103   2.411 -0.8575 -0.5082  0.6015
 6570TIP3   OH219652   1.721   0.116   2.631 -0.0968  0.3886  0.1795
 6570TIP3    H119653   1.685   0.046   2.686 -0.5848  0.3164 -0.2292
 6570TIP3    H219654   1.732   0.075   2.545  1.5499  0.2222  0.4324
 6571TIP3   OH219655   8.262   1.919   5.360  0.1412  0.1859  1.1992
 6571TIP3    H119656   8.242   2.005   5.323 -0.5998 -0.9622 -1.3288
 6571TIP3    H219657   8.304   1.938   5.444 -0.5189  2.9753  1.0062
 6572TIP3   OH219658   7.686   7.307   6.272 -0.0318 -0.1702 -0.5936
 6572TIP3    H119659   7.630   7.263   6.336 -0.7893 -0.7310 -1.6019
 6572TIP3    H219660   7.758   7.343   6.323 -1.3690  0.6805  0.7653
 6573TIP3   OH219661   3.402   7.252   2.200 -0.1444 -0.0167  0.0543
 6573TIP3    H119662   3.458   7.328   2.211  1.2058 -0.9802  0.0998
 6573TIP3    H219663   3.453   7.179   2.235 -0.4915 -1.2911 -1.9276
 6574TIP3   OH219664   7.753   2.026   0.025 -0.1180  0.0130 -0.5729
 6574TIP3    H119665   7.744   2.113   0.064  0.4874 -0.1637 -0.0187
 6574TIP3    H219666   7.695   2.028  -0.051 -0.0763  0.9176 -0.5971
 6575TIP3   OH219667   2.632   1.860   1.235 -0.3360 -0.0992 -0.0125
 6575TIP3    H119668   2.558   1.804   1.259 -1.1252  1.5343  1.5744
 6575TIP3    H219669   2.632   1.930   1.300  0.2563  2.0937 -2.2324
 6576TIP3   OH219670   2.713   4.687   4.912  0.3486 -0.1426 -0.2275
 6576TIP3    H119671   2.721   4.647   4.825 -0.3246 -0.3469 -0.1967
 6576TIP3    H219672   2.620   4.702   4.923  0.4467  0.0216  0.4065
 6577TIP3   OH219673   5.503   5.994   2.276 -0.8515  0.2995  0.1365
 6577TIP3    H119674   5.552   6.016   2.196 -1.6700 -1.9684 -1.0834
 6577TIP3    H219675   5.509   6.072   2.330  2.5734  0.7847 -0.7065
 6578TIP3   OH219676   4.317   4.523   6.087  0.1850 -0.3179 -0.4804
 6578TIP3    H119677   4.256   4.450   6.095 -0.7125  0.2967 -1.5244
 6578TIP3    H219678   4.373   4.516   6.165 -0.7301 -1.3276  0.1120
 6579TIP3   OH219679   4.125   3.712   2.533  0.1289 -0.4765  0.1606
 6579TIP3    H119680   4.036   3.748   2.529  0.3525  0.0182 -0.8066
 6579TIP3    H219681   4.115   3.629   2.578 -0.9383 -0.7311 -0.4975
 6580TIP3   OH219682   3.914   4.874   3.268 -0.0425  0.0543 -0.4255
 6580TIP3    H119683   3.993   4.897   3.318 -1.1574  1.5122  0.7594
 6580TIP3    H219684   3.914   4.935   3.194 -1.1515  1.6139  0.7869
 6581TIP3   OH219685   6.723   4.861   6.206 -0.0930 -0.5818 -0.6823
 6581TIP3    H119686   6.699   4.846   6.114 -0.3216 -0.7736 -0.5932
 6581TIP3    H219687   6.704   4.778   6.249 -1.3800 -0.0506 -0.1790
 6582TIP3   OH219688   2.743   3.525   0.849 -0.4882  0.3847  0.4810
 6582TIP3    H119689   2.676   3.571   0.899 -2.3184 -0.9238 -0.6370
 6582TIP3    H219690   2.786   3.594   0.797 -0.5870  1.3084  1.5920
 6583TIP3   OH219691   6.087   1.246   2.120 -0.4666 -0.0778  0.1204
 6583TIP3    H119692   6.040   1.236   2.203  1.5774 -0.6456  1.2863
 6583TIP3    H219693   6.093   1.341   2.106 -2.4283  0.0094 -0.3961
 6584TIP3   OH219694   1.099   2.851   5.358  0.1318 -0.4572  0.0857
 6584TIP3    H119695   1.049   2.931   5.343  0.2034 -0.5462 -0.6660
 6584TIP3    H219696   1.081   2.797   5.281  0.7581 -0.8144  0.1851
 6585TIP3   OH219697   0.541   2.186   5.552  0.3529  0.2593 -0.1471
 6585TIP3    H119698   0.573   2.168   5.641 -2.2390  3.3602  1.6358
 6585TIP3    H219699   0.453   2.150   5.551  0.7635 -0.7923 -1.9768
 6586TIP3   OH219700   4.712   3.138   2.099  0.3745 -0.7341 -0.1219
 6586TIP3    H119701   4.678   3.224   2.076 -0.4648 -0.7015  1.1099
 6586TIP3    H219702   4.644   3.100   2.155  1.2296 -1.7427  0.2652
 6587TIP3   OH219703   5.027   4.698   2.879  0.4812  0.3425 -0.1258
 6587TIP3    H119704   5.093   4.763   2.854  0.4311  0.2750 -0.4432
 6587TIP3    H219705   5.074   4.614   2.875  0.1771  0.2045 -1.1481
 6588TIP3   OH219706   6.191   6.542   4.873  0.3135 -0.0170 -0.2414
 6588TIP3    H119707   6.156   6.624   4.907  0.1319 -1.1896  2.7127
 6588TIP3    H219708   6.286   6.557   4.867  0.0636  1.0795 -1.9256
 6589TIP3   OH219709   0.906   0.747   6.174 -0.3137  0.6723  0.1157
 6589TIP3    H119710   0.940   0.707   6.254 -1.3652  1.7363  1.1292
 6589TIP3    H219711   0.837   0.687   6.144 -0.3960  0.6331  0.3872
 6590TIP3   OH219712   2.932   3.052   4.152 -0.0566 -0.0588  0.5787
 6590TIP3    H119713   2.984   3.074   4.074 -2.6868  2.0547 -0.7325
 6590TIP3    H219714   2.996   3.018   4.215  2.9641  2.5789 -0.8085
 6591TIP3   OH219715   6.803   7.710   1.275 -0.5689  0.2342 -0.0702
 6591TIP3    H119716   6.770   7.725   1.186  1.0819  2.0009 -0.4503
 6591TIP3    H219717   6.758   7.775   1.329  0.9239  1.5332 -0.3000
 6592TIP3   OH219718   4.271   4.491   1.554 -0.1802 -0.1219  0.1261
 6592TIP3    H119719   4.212   4.549   1.506 -1.5400 -2.1835 -0.8312
 6592TIP3    H219720   4.328   4.455   1.486  0.3994 -0.2019  0.6513
 6593TIP3   OH219721   7.144   7.396   3.823  0.6543 -0.6230 -0.0062
 6593TIP3    H119722   7.055   7.369   3.803  0.6946 -0.4248 -0.4689
 6593TIP3    H219723   7.137   7.490   3.842  0.6727 -0.7342  0.5603
 6594TIP3   OH219724   4.061   4.562   4.566 -0.2937  0.7244  0.3173
 6594TIP3    H119725   3.980   4.613   4.570 -0.6037  0.5932 -2.4394
 6594TIP3    H219726   4.096   4.578   4.478  2.8214  0.9235  1.4611
 6595TIP3   OH219727   4.812   0.743   0.969  0.1891  0.0670 -0.8420
 6595TIP3    H119728   4.874   0.731   1.042  0.0478  2.3480 -0.2846
 6595TIP3    H219729   4.867   0.765   0.894  0.2303 -0.9103 -1.1166
 6596TIP3   OH219730   3.433   3.575   2.306  0.2257 -0.3009 -1.1428
 6596TIP3    H119731   3.425   3.651   2.364  0.2506 -0.3109 -1.1257
 6596TIP3    H219732   3.406   3.501   2.360 -1.7555 -0.0721 -1.7675
 6597TIP3   OH219733   0.794   5.945   6.708 -0.5437 -0.1976 -0.5845
 6597TIP3    H119734   0.798   6.025   6.656  0.8754 -0.2066 -0.5414
 6597TIP3    H219735   0.838   5.879   6.654 -0.8699 -0.7146 -0.2273
 6598TIP3   OH219736   7.514   0.224   2.043 -0.2929 -0.8534 -0.4254
 6598TIP3    H119737   7.521   0.258   1.954 -0.7131  0.9081  0.1762
 6598TIP3    H219738   7.439   0.271   2.080  0.4319 -0.8827  1.1277
 6599TIP3   OH219739   3.046   2.190   1.159  0.3157  0.7604 -0.2941
 6599TIP3    H119740   3.106   2.135   1.209  0.5070  0.4680 -0.8387
 6599TIP3    H219741   2.990   2.128   1.112 -0.5018  1.0298  0.3112
 6600TIP3   OH219742   6.105   0.703   4.473  0.2860 -0.4211  0.4361
 6600TIP3    H119743   6.195   0.718   4.446  0.1993  1.0097  0.8438
 6600TIP3    H219744   6.105   0.615   4.510  1.1209 -1.1239 -1.1159
 6601TIP3   OH219745   7.700   5.490   0.155 -0.3925 -0.0107 -0.1460
 6601TIP3    H119746   7.646   5.412   0.149  0.2937 -0.4054 -1.7709
 6601TIP3    H219747   7.639   5.560   0.179 -1.2328 -0.8085  0.1026
 6602TIP3   OH219748   8.265   2.363   4.569 -0.1721 -0.2865  0.4706
 6602TIP3    H119749   8.209   2.414   4.511  0.5143  1.3578  1.2033
 6602TIP3    H219750   8.328   2.426   4.604  0.1984 -1.4598  2.0443
 6603TIP3   OH219751   6.801   1.578   0.413  0.2198  0.0544 -0.0176
 6603TIP3    H119752   6.784   1.559   0.505  0.6234  1.6659  0.4077
 6603TIP3    H219753   6.744   1.517   0.366 -0.1655 -0.6383  1.2857
 6604TIP3   OH219754   6.503   3.485   3.952  0.1361  0.2447  0.0085
 6604TIP3    H119755   6.519   3.575   3.979  1.7129 -0.1883  0.6831
 6604TIP3    H219756   6.428   3.489   3.893 -1.0307  1.7488  1.5125
 6605TIP3   OH219757   3.168   4.286   4.983 -0.1897  0.1088 -0.0534
 6605TIP3    H119758   3.233   4.315   5.047 -1.6709  0.0833  1.5046
 6605TIP3    H219759   3.107   4.359   4.976 -0.9055 -0.4957 -0.2546
 6606TIP3   OH219760   3.891   0.953   1.114  0.1368  0.8723  0.1399
 6606TIP3    H119761   3.833   0.922   1.184  0.4120 -0.0916 -0.0440
 6606TIP3    H219762   3.866   1.045   1.101 -0.0179  1.0305  1.3959
 6607TIP3   OH219763   7.727   0.910   6.218  0.1302  0.5592 -0.2670
 6607TIP3    H119764   7.640   0.930   6.253 -0.2937  0.1375 -1.0614
 6607TIP3    H219765   7.740   0.817   6.236  0.6155  0.7090  0.2331
 6608TIP3   OH219766   0.100   4.935   2.830  0.2841  0.6913 -0.2329
 6608TIP3    H119767   0.155   4.930   2.909 -0.6132 -0.0104  0.3722
 6608TIP3    H219768   0.138   4.870   2.771  1.4016  1.7199 -0.6989
 6609TIP3   OH219769   0.652   1.379   1.629  0.4224  0.2528 -0.0456
 6609TIP3    H119770   0.623   1.435   1.557  0.4043  1.1112  0.6147
 6609TIP3    H219771   0.578   1.319   1.644  0.1062  0.5974 -0.2048
 6610TIP3   OH219772   6.529   3.253   4.508  0.3824  0.6434  0.0625
 6610TIP3    H119773   6.617   3.241   4.474  0.1817  2.6140 -1.2783
 6610TIP3    H219774   6.471   3.218   4.440  0.0590 -1.7947  1.4490
 6611TIP3   OH219775   8.019   1.592   0.253  0.1574  0.1768  0.5403
 6611TIP3    H119776   8.015   1.589   0.349  2.1914  0.2349  0.6867
 6611TIP3    H219777   8.068   1.672   0.234  0.6852 -0.3776 -0.4956
 6612TIP3   OH219778   7.068   4.155   4.604  0.1191 -0.0654  0.1413
 6612TIP3    H119779   7.162   4.141   4.587  0.5995  1.8292  0.9757
 6612TIP3    H219780   7.049   4.239   4.564 -1.5761 -0.9969 -1.1157
 6613TIP3   OH219781   0.602   7.227   6.192  0.0494  0.0910  0.0788
 6613TIP3    H119782   0.621   7.238   6.099 -2.4807  2.3098 -0.2967
 6613TIP3    H219783   0.655   7.294   6.235 -2.1523  2.2397 -0.3493
 6614TIP3   OH219784   6.762   6.277   1.444 -0.0068 -0.2063  0.1351
 6614TIP3    H119785   6.790   6.235   1.525 -1.3908 -2.3744 -0.4286
 6614TIP3    H219786   6.725   6.206   1.391 -0.9946  1.4759 -1.5810
 6615TIP3   OH219787   8.117   3.540   3.976 -0.7042  0.0123  0.5235
 6615TIP3    H119788   8.163   3.602   4.033 -0.9863  1.9421 -1.2151
 6615TIP3    H219789   8.084   3.473   4.036  1.1888  0.5390  2.2749
 6616TIP3   OH219790   5.482   7.043   0.658 -0.4220  0.0217 -0.2402
 6616TIP3    H119791   5.518   7.036   0.746  0.8501 -2.4332 -0.8716
 6616TIP3    H219792   5.415   6.975   0.654 -0.4671  0.1032 -1.1651
 6617TIP3   OH219793   8.079   1.913   4.691  0.0555  0.0609  0.3896
 6617TIP3    H119794   8.019   1.841   4.674 -0.2553  0.5038 -0.4504
 6617TIP3    H219795   8.056   1.979   4.625  1.0098  0.5117  0.4979
 6618TIP3   OH219796   6.269   1.651   3.578 -0.5133  0.4171 -0.1746
 6618TIP3    H119797   6.248   1.677   3.488 -1.7685  2.6283  0.6931
 6618TIP3    H219798   6.360   1.680   3.591  0.6757 -2.3338 -1.4997
 6619TIP3   OH219799   5.537   1.953   1.974  0.0078  0.1729  0.8648
 6619TIP3    H119800   5.536   2.041   1.936  1.0546  0.1535  0.7654
 6619TIP3    H219801   5.532   1.894   1.898  0.4453  0.1461  0.8533
 6620TIP3   OH219802   0.134   6.537   3.484  0.1830  0.3985  0.9952
 6620TIP3    H119803   0.132   6.593   3.406  1.3564 -0.3835  0.3672
 6620TIP3    H219804   0.042   6.518   3.502 -0.1105  0.5231 -0.2738
 6621TIP3   OH219805   5.693   2.151   5.424 -0.1230 -0.0352  0.5709
 6621TIP3    H119806   5.700   2.095   5.346 -0.4547 -1.1992  1.3551
 6621TIP3    H219807   5.625   2.110   5.477  0.2278  0.6455  1.5791
 6622TIP3   OH219808   4.506   7.706   0.864 -0.5475  0.0518  0.1796
 6622TIP3    H119809   4.539   7.779   0.811 -1.3796  1.0398  0.9798
 6622TIP3    H219810   4.417   7.691   0.833 -0.5447 -0.3171  0.3399
 6623TIP3   OH219811   0.618   3.412   1.505 -0.2926 -0.0735  0.1682
 6623TIP3    H119812   0.636   3.487   1.562  0.5078 -0.4821  0.4771
 6623TIP3    H219813   0.523   3.410   1.497 -0.3432  0.7471  0.4601
 6624TIP3   OH219814   7.400   1.094   6.052 -0.3175 -0.6131 -0.0647
 6624TIP3    H119815   7.323   1.049   6.018  0.6831 -2.8555  0.4254
 6624TIP3    H219816   7.432   1.038   6.123  1.5888  0.3750 -0.0562
 6625TIP3   OH219817   7.427   5.706   2.059  0.7928 -0.0783 -0.4163
 6625TIP3    H119818   7.419   5.800   2.046 -0.1773  0.0052  0.6295
 6625TIP3    H219819   7.358   5.668   2.005  2.7304 -0.4359 -2.8688
 6626TIP3   OH219820   2.040   0.450   4.419  0.4754  0.7730 -0.2728
 6626TIP3    H119821   1.976   0.466   4.350 -2.5481 -0.5960  2.0033
 6626TIP3    H219822   2.035   0.356   4.436  0.7207  1.1323  2.1384
 6627TIP3   OH219823   5.642   1.155   6.382  0.0471 -0.3268  0.4346
 6627TIP3    H119824   5.617   1.168   6.291 -0.6275  0.1450  0.6773
 6627TIP3    H219825   5.654   1.244   6.417 -0.6483 -0.4649  1.0515
 6628TIP3   OH219826   3.554   7.219   5.172 -0.0897  0.1053  0.3010
 6628TIP3    H119827   3.614   7.196   5.101  0.6966 -0.2099  1.0512
 6628TIP3    H219828   3.495   7.284   5.133  1.3594  1.1833 -0.1753
 6629TIP3   OH219829   1.938   5.139   1.910 -0.1195  0.3172  0.2259
 6629TIP3    H119830   1.914   5.054   1.945 -2.1175  1.0978  0.8942
 6629TIP3    H219831   1.866   5.163   1.852  0.4945  1.4699 -0.1015
 6630TIP3   OH219832   2.370   5.081   2.359  1.0865  0.7512 -0.1076
 6630TIP3    H119833   2.436   5.020   2.326 -1.1199 -1.3308 -0.9866
 6630TIP3    H219834   2.322   5.109   2.281 -1.0284 -0.3003  0.7262
 6631TIP3   OH219835   1.224   0.401   5.464  0.0194  0.7861  0.1438
 6631TIP3    H119836   1.148   0.451   5.494 -1.2108  0.1109 -1.6801
 6631TIP3    H219837   1.265   0.457   5.398  1.1623  1.1601  1.1394
 6632TIP3   OH219838   7.720   5.359   3.321 -0.6268  0.4789 -0.0574
 6632TIP3    H119839   7.647   5.347   3.260 -0.1336 -1.6039 -0.3233
 6632TIP3    H219840   7.689   5.324   3.404 -0.3444  0.7029  0.1450
 6633TIP3   OH219841   5.419   1.361   6.230  0.2754 -0.2363  0.1706
 6633TIP3    H119842   5.358   1.400   6.293 -0.1673 -2.6886  1.4002
 6633TIP3    H219843   5.374   1.367   6.146  0.4009  2.1190  0.1966
 6634TIP3   OH219844   6.283   0.209   6.252  0.1688  0.3028 -0.7528
 6634TIP3    H119845   6.363   0.164   6.225 -0.2551 -1.4472  0.7267
 6634TIP3    H219846   6.220   0.190   6.183  0.0089 -1.4199 -0.1731
 6635TIP3   OH219847   3.937   4.807   4.288 -0.0583  0.0317 -0.3382
 6635TIP3    H119848   3.872   4.827   4.221 -0.4162  0.8129  0.2296
 6635TIP3    H219849   3.904   4.848   4.367  0.7238 -0.2601  0.1572
 6636TIP3   OH219850   1.296   1.052   3.300  0.4723  0.4158 -0.2087
 6636TIP3    H119851   1.245   0.977   3.332  0.9236  0.1440 -0.1196
 6636TIP3    H219852   1.237   1.096   3.239 -0.0395  0.3725  0.2450
 6637TIP3   OH219853   3.880   2.967   3.545  0.2528 -0.1850  0.3927
 6637TIP3    H119854   3.898   2.988   3.636  0.6356 -0.1425  0.3098
 6637TIP3    H219855   3.789   2.992   3.532  0.6453  1.3114  0.3375
 6638TIP3   OH219856   3.311   6.066   4.288  0.5135 -0.1086  0.3332
 6638TIP3    H119857   3.226   6.022   4.293 -0.9588  2.5211  0.2928
 6638TIP3    H219858   3.330   6.090   4.379  1.2633 -0.7234  0.3465
 6639TIP3   OH219859   7.116   7.806   3.134 -0.0742 -0.1964  0.1898
 6639TIP3    H119860   7.047   7.744   3.160 -1.1573  0.4400 -1.0164
 6639TIP3    H219861   7.075   7.892   3.141 -0.2889  0.0792 -2.8047
 6640TIP3   OH219862   6.408   2.716   2.525 -0.1418  0.3122 -0.5444
 6640TIP3    H119863   6.330   2.733   2.473 -0.5595 -0.0841 -0.0628
 6640TIP3    H219864   6.390   2.758   2.609  1.3289  2.6535 -1.3120
 6641TIP3   OH219865   0.453   2.749   0.105  0.6561  0.3634 -0.7712
 6641TIP3    H119866   0.491   2.662   0.093  1.0309  0.4725 -0.4201
 6641TIP3    H219867   0.518   2.796   0.157 -0.8824 -0.1047  1.7246
 6642TIP3   OH219868   4.907   3.026   4.636  0.4562 -0.5196  0.4088
 6642TIP3    H119869   4.912   2.976   4.555 -1.1648  1.0569 -0.7328
 6642TIP3    H219870   4.996   3.058   4.650  0.5975 -0.0748 -1.2673
 6643TIP3   OH219871   2.798   7.781   1.451  0.0033 -0.1244  0.5405
 6643TIP3    H119872   2.781   7.864   1.407 -0.6086 -0.7585 -0.4674
 6643TIP3    H219873   2.861   7.802   1.520  1.1789  0.8802 -0.7793
 6644TIP3   OH219874   6.548   6.694   4.916 -0.3645 -0.6614 -0.1340
 6644TIP3    H119875   6.551   6.607   4.876 -1.2989 -0.7682 -0.0098
 6644TIP3    H219876   6.509   6.679   5.003 -2.0959  0.0700 -0.7348
 6645TIP3   OH219877   5.051   4.064   2.954 -0.5404  0.2466  0.6143
 6645TIP3    H119878   5.116   4.065   2.884  0.6129 -3.4497  1.3967
 6645TIP3    H219879   5.063   4.148   2.998  0.8311  1.3896 -1.7285
 6646TIP3   OH219880   6.760   0.161   1.180  0.1827  0.3104 -0.6555
 6646TIP3    H119881   6.680   0.195   1.141  1.1401  1.0067 -2.1528
 6646TIP3    H219882   6.818   0.238   1.185 -0.0453  0.3930  2.7651
 6647TIP3   OH219883   7.941   1.091   0.209  0.1173 -0.0435 -0.0488
 6647TIP3    H119884   7.916   1.042   0.287  1.6475 -0.1259  0.4254
 6647TIP3    H219885   7.908   1.180   0.225 -0.8369 -0.4023  0.0260
 6648TIP3   OH219886   6.417   2.794   2.138  0.4818  0.3270 -0.7621
 6648TIP3    H119887   6.475   2.726   2.173  0.6199 -0.2460 -2.0481
 6648TIP3    H219888   6.356   2.747   2.081  0.2972  1.2167 -1.3267
 6649TIP3   OH219889   7.800   5.834   0.476  0.2039  0.1425 -0.5507
 6649TIP3    H119890   7.714   5.793   0.465 -0.0530  0.4753  0.1517
 6649TIP3    H219891   7.854   5.765   0.515 -0.2630  0.4785  0.7537
 6650TIP3   OH219892   2.742   2.710   5.631  0.0257 -0.2286 -0.5042
 6650TIP3    H119893   2.697   2.757   5.561 -1.4457 -0.7743  0.0323
 6650TIP3    H219894   2.739   2.618   5.605  1.1057 -0.2619 -0.5836
 6651TIP3   OH219895   1.195   2.242   5.233 -0.4142  0.2769  0.4144
 6651TIP3    H119896   1.155   2.306   5.291  0.1876  0.7037  0.3679
 6651TIP3    H219897   1.170   2.157   5.269 -0.8324  0.5380  0.7418
 6652TIP3   OH219898   2.740   7.668   2.913 -0.2557 -0.1413 -0.3571
 6652TIP3    H119899   2.778   7.586   2.946  0.7196 -0.5479 -2.3207
 6652TIP3    H219900   2.656   7.642   2.876 -1.2096  0.2622  1.4313
 6653TIP3   OH219901   7.131   3.226   4.182  0.2660  0.1467  0.2765
 6653TIP3    H119902   7.092   3.271   4.106  0.5462 -1.2786 -0.7639
 6653TIP3    H219903   7.224   3.222   4.162 -0.0248 -3.3354 -1.1406
 6654TIP3   OH219904   2.575   6.240   3.302 -0.3367 -0.5131 -0.7787
 6654TIP3    H119905   2.482   6.254   3.321 -0.4748 -0.5380 -1.4213
 6654TIP3    H219906   2.578   6.153   3.262  0.3218 -1.7750  1.7874
 6655TIP3   OH219907   0.872   1.086   2.213  0.4902 -0.9727 -0.3045
 6655TIP3    H119908   0.966   1.086   2.230  0.8874 -0.7997 -2.2453
 6655TIP3    H219909   0.846   0.994   2.222 -0.0628 -0.5812  4.2388
 6656TIP3   OH219910   6.406   1.958   4.611  0.0587 -0.1261  0.1377
 6656TIP3    H119911   6.493   1.971   4.650 -0.5151 -1.5223  2.0147
 6656TIP3    H219912   6.352   2.027   4.649  0.3079  0.7996 -1.1004
 6657TIP3   OH219913   4.509   7.693   5.956 -0.1881 -0.2021  0.1285
 6657TIP3    H119914   4.440   7.702   6.022 -0.5479  0.9012 -0.3676
 6657TIP3    H219915   4.589   7.676   6.007 -0.4298  0.8045  0.8778
 6658TIP3   OH219916   3.649   5.677   6.106  0.6422 -0.3432  0.0022
 6658TIP3    H119917   3.601   5.753   6.072  0.2917 -0.5761 -0.0185
 6658TIP3    H219918   3.725   5.670   6.049  0.0013 -0.8063 -0.8156
 6659TIP3   OH219919   3.201   0.548   5.461  0.0185  0.3357 -0.2087
 6659TIP3    H119920   3.159   0.533   5.546  0.6806 -0.8016 -0.0635
 6659TIP3    H219921   3.179   0.638   5.439  0.4896  0.9152  1.5450
 6660TIP3   OH219922   0.153   1.403   0.625 -0.3358  0.6364  0.1595
 6660TIP3    H119923   0.183   1.478   0.573 -0.4113  0.0790 -0.7013
 6660TIP3    H219924   0.140   1.439   0.712  0.9301  1.3481  0.0911
 6661TIP3   OH219925   5.009   1.131   5.321 -0.4885  0.3755 -0.6491
 6661TIP3    H119926   4.980   1.134   5.230 -0.6927 -0.1282 -0.6053
 6661TIP3    H219927   4.938   1.172   5.370 -0.3123  0.7828 -0.7266
 6662TIP3   OH219928   2.808   2.683   3.753 -0.1766 -0.5633  0.4714
 6662TIP3    H119929   2.885   2.703   3.699  1.6220 -0.9024  2.7132
 6662TIP3    H219930   2.735   2.682   3.692  1.3348  1.4170 -1.5337
 6663TIP3   OH219931   4.209   3.943   5.567 -0.3153  0.2289  0.0213
 6663TIP3    H119932   4.267   3.913   5.636 -1.3013  0.1964  0.8634
 6663TIP3    H219933   4.180   4.030   5.595  0.7264  1.0366 -1.2794
 6664TIP3   OH219934   2.665   6.981   2.743  0.3143 -0.1424  0.0261
 6664TIP3    H119935   2.698   6.908   2.690 -1.0138 -0.5106 -0.3387
 6664TIP3    H219936   2.728   7.052   2.729 -0.1231 -0.1365 -2.2783
 6665TIP3   OH219937   5.235   0.189   3.441 -0.5663 -0.2846 -0.3026
 6665TIP3    H119938   5.307   0.202   3.380  0.9921  0.5506  1.6343
 6665TIP3    H219939   5.170   0.255   3.416  1.1851  1.8659  0.5163
 6666TIP3   OH219940   6.653   0.052   3.794 -0.5790  0.5136 -0.0493
 6666TIP3    H119941   6.612   0.105   3.725 -1.0952 -0.5651 -0.5890
 6666TIP3    H219942   6.582   0.030   3.854 -0.2035  1.1229  0.6412
 6667TIP3   OH219943   5.203   4.022   0.204  0.6768  0.2019  0.2764
 6667TIP3    H119944   5.166   4.006   0.117 -1.8289 -0.1203  1.3206
 6667TIP3    H219945   5.284   3.970   0.206  0.6686  0.0408 -1.7485
 6668TIP3   OH219946   1.476   6.705   2.159 -0.3381 -0.1657  0.0281
 6668TIP3    H119947   1.557   6.730   2.204 -0.0015  0.3506 -0.8556
 6668TIP3    H219948   1.492   6.725   2.067 -2.2819  2.2067  0.0828
 6669TIP3   OH219949   4.649   1.680   6.310 -0.1512 -0.3803 -0.1645
 6669TIP3    H119950   4.603   1.747   6.360 -1.0863 -0.4590 -0.8878
 6669TIP3    H219951   4.585   1.651   6.245  1.2615  0.2500 -1.9025
 6670TIP3   OH219952   4.987   7.485   2.783  0.0501  0.2321  0.0985
 6670TIP3    H119953   5.071   7.530   2.775 -0.0472  0.5410  0.7264
 6670TIP3    H219954   4.993   7.436   2.865  0.5790 -1.8485 -1.1313
 6671TIP3   OH219955   7.243   4.564   1.479 -0.5247 -0.4722  0.2097
 6671TIP3    H119956   7.152   4.534   1.482 -0.6181 -0.1255  0.9315
 6671TIP3    H219957   7.238   4.656   1.452 -0.3431 -0.6442 -0.4186
 6672TIP3   OH219958   7.335   7.775   3.611 -0.2317 -0.3086  0.2335
 6672TIP3    H119959   7.266   7.825   3.566 -0.4268 -0.5503  0.2666
 6672TIP3    H219960   7.385   7.735   3.540  0.6380  0.8684  0.1523
 6673TIP3   OH219961   0.173   1.799   4.059  0.5597 -0.4580 -0.2472
 6673TIP3    H119962   0.176   1.703   4.053  1.1493 -0.5151  0.6703
 6673TIP3    H219963   0.083   1.822   4.039 -0.2295 -1.4131  1.9286
 6674TIP3   OH219964   4.190   4.970   4.832 -0.0604 -0.1944 -0.2020
 6674TIP3    H119965   4.115   4.924   4.871  0.6533  0.1417  1.7004
 6674TIP3    H219966   4.182   4.954   4.738 -2.3166 -0.4485 -0.0225
 6675TIP3   OH219967   1.768   7.004   6.040 -0.5621  0.6270  0.3927
 6675TIP3    H119968   1.808   7.005   6.127 -1.0298 -0.2288  0.6268
 6675TIP3    H219969   1.674   7.012   6.056 -0.8165 -1.3727  0.0992
 6676TIP3   OH219970   8.326   3.572   6.391 -0.2132 -0.2040  0.6144
 6676TIP3    H119971   8.317   3.660   6.429  1.4751  0.9519 -1.4056
 6676TIP3    H219972   8.247   3.561   6.338 -0.0795  0.4330  0.2718
 6677TIP3   OH219973   4.420   5.244   2.780  0.2454  0.4235 -0.1739
 6677TIP3    H119974   4.487   5.180   2.806 -0.1061  0.2594  0.3453
 6677TIP3    H219975   4.389   5.281   2.863  0.1065  0.9225 -0.4461
 6678TIP3   OH219976   2.086   4.223   6.283 -0.1869  0.0521  0.1055
 6678TIP3    H119977   1.993   4.223   6.303 -0.4348 -2.6654 -0.6918
 6678TIP3    H219978   2.091   4.245   6.190 -0.4468 -3.5853 -0.8841
 6679TIP3   OH219979   0.263   7.639   3.472 -0.8215 -0.1379  0.3271
 6679TIP3    H119980   0.313   7.560   3.492  2.3772  0.9943 -2.2265
 6679TIP3    H219981   0.210   7.615   3.396  3.3296  0.9062 -3.3173
 6680TIP3   OH219982   6.702   6.669   6.656  0.5866  0.0855  0.3743
 6680TIP3    H119983   6.758   6.629   6.723  0.2014  0.5894  1.0114
 6680TIP3    H219984   6.659   6.741   6.701  2.0687  1.9515 -1.0096
 6681TIP3   OH219985   4.969   1.840   4.696  0.1940  0.2425 -0.2046
 6681TIP3    H119986   4.983   1.749   4.667 -0.0373  0.4678 -1.0594
 6681TIP3    H219987   5.048   1.886   4.667  0.2036  0.3685  0.0195
 6682TIP3   OH219988   1.862   0.099   0.658 -0.3066  0.4555 -1.0186
 6682TIP3    H119989   1.779   0.146   0.667 -1.9223 -2.1773 -1.3005
 6682TIP3    H219990   1.876   0.060   0.744 -0.3103 -0.5801 -1.4807
 6683TIP3   OH219991   8.298   4.947   5.909 -0.0127 -0.3753  0.3191
 6683TIP3    H119992   8.210   4.970   5.880 -0.8889 -1.6033  1.8726
 6683TIP3    H219993   8.333   5.028   5.945  0.6173  0.8634 -2.7258
 6684TIP3   OH219994   7.306   3.741   4.187 -0.1143  0.3833  0.0623
 6684TIP3    H119995   7.266   3.657   4.164 -0.5707  0.6625 -0.1896
 6684TIP3    H219996   7.337   3.777   4.104 -1.6335  1.3301 -0.1299
 6685TIP3   OH219997   2.416   6.409   6.016  0.1149  0.1700 -0.5031
 6685TIP3    H119998   2.381   6.489   5.975 -1.1453 -0.3207 -0.4126
 6685TIP3    H219999   2.418   6.429   6.109  0.0723  0.1943 -0.5073
 6686TIP3   OH220000   6.546   4.548   3.189  0.1311 -0.2600  0.4686
 6686TIP3    H120001   6.571   4.616   3.251 -0.6243 -0.8378  1.4288
 6686TIP3    H220002   6.471   4.505   3.229  1.2231 -2.3631  0.4082
 6687TIP3   OH220003   4.867   7.006   5.469  0.1082  0.0978 -0.2299
 6687TIP3    H120004   4.934   7.042   5.412  0.8306 -1.2897 -0.3018
 6687TIP3    H220005   4.879   6.911   5.464 -2.7502 -0.3239 -1.3468
 6688TIP3   OH220006   1.069   7.024   3.964  0.0959  0.0720  0.1747
 6688TIP3    H120007   1.133   6.973   4.014  0.0416 -0.5675 -0.3944
 6688TIP3    H220008   1.120   7.095   3.926  0.9250 -1.5334 -1.9100
 6689TIP3   OH220009   3.830   7.095   0.421  0.8269  0.3293  0.8581
 6689TIP3    H120010   3.888   7.022   0.399  1.3881  1.0313 -0.0678
 6689TIP3    H220011   3.742   7.061   0.406  1.0325 -0.4357  1.3209
 6690TIP3   OH220012   0.267   5.787   5.439  0.3243 -0.1845  0.1234
 6690TIP3    H120013   0.303   5.743   5.362  0.5950 -0.4870  0.4199
 6690TIP3    H220014   0.330   5.858   5.458  0.3987 -0.2775  0.2251
 6691TIP3   OH220015   0.866   5.185   2.430  0.7383  0.0543  0.2148
 6691TIP3    H120016   0.895   5.149   2.346  0.5497  0.7218 -0.1401
 6691TIP3    H220017   0.809   5.258   2.407  1.5468  0.9409  0.9236
 6692TIP3   OH220018   1.000   7.364   5.844 -0.3388  0.0573  0.4388
 6692TIP3    H120019   1.027   7.272   5.854  0.7276  0.3282  0.1156
 6692TIP3    H220020   1.006   7.380   5.750  1.1551  0.9484  0.6630
 6693TIP3   OH220021   7.531   6.804   3.594  0.2727 -0.3568 -0.4355
 6693TIP3    H120022   7.621   6.771   3.595  0.5114  0.2511 -1.0820
 6693TIP3    H220023   7.540   6.899   3.606 -0.0877  0.0655 -2.9627
 6694TIP3   OH220024   4.046   5.470   4.800  0.1705 -0.0859 -0.3712
 6694TIP3    H120025   4.074   5.380   4.813  0.8659  0.2425  0.5027
 6694TIP3    H220026   4.067   5.514   4.882 -1.1485  0.6328 -0.3917
 6695TIP3   OH220027   7.692   3.591   4.336 -0.3547  0.1618 -0.4399
 6695TIP3    H120028   7.654   3.646   4.404 -1.3436 -0.6103 -0.3386
 6695TIP3    H220029   7.622   3.528   4.315  0.6514 -0.8974 -0.7052
 6696TIP3   OH220030   5.878   1.024   6.375 -0.1887 -0.4956  0.3140
 6696TIP3    H120031   5.798   1.076   6.384 -1.9293 -3.1223  0.9817
 6696TIP3    H220032   5.857   0.956   6.312  2.1993 -0.1812 -0.9483
 6697TIP3   OH220033   2.234   2.844   4.171 -0.0513 -0.2644 -0.1341
 6697TIP3    H120034   2.208   2.763   4.214  0.8747 -0.9125 -0.7523
 6697TIP3    H220035   2.155   2.898   4.171 -1.2895 -1.9576 -1.5364
 6698TIP3   OH220036   2.461   2.330   1.093 -0.3356  0.0909 -0.8727
 6698TIP3    H120037   2.546   2.368   1.073  0.6696 -1.4949  0.1715
 6698TIP3    H220038   2.457   2.251   1.038 -0.0685 -1.1129  0.7662
 6699TIP3   OH220039   3.648   6.782   6.467  0.4552  0.4677 -0.2942
 6699TIP3    H120040   3.552   6.775   6.459  0.4160  2.0533 -1.8158
 6699TIP3    H220041   3.663   6.821   6.553 -0.0294 -2.7228  1.4004
 6700TIP3   OH220042   1.069   5.237   5.376  0.6689 -0.4569 -0.0459
 6700TIP3    H120043   0.992   5.245   5.432  0.2414  0.1602 -0.7067
 6700TIP3    H220044   1.061   5.150   5.337  1.0080 -0.9214  0.8879
 6701TIP3   OH220045   0.172   1.556   0.257  0.2550  0.2071 -0.5015
 6701TIP3    H120046   0.200   1.465   0.268  2.7685  0.8025 -1.1810
 6701TIP3    H220047   0.154   1.564   0.163 -0.0799  0.3684 -0.4226
 6702TIP3   OH220048   7.089   7.328   2.487 -0.0247  0.3839 -0.4492
 6702TIP3    H120049   7.182   7.329   2.467 -0.0841 -0.1865 -0.7741
 6702TIP3    H220050   7.084   7.348   2.581  0.4089  0.6109 -0.4763
 6703TIP3   OH220051   1.724   3.990   6.163  0.1272  0.0885  0.3231
 6703TIP3    H120052   1.635   3.996   6.197 -0.7282  0.0233 -1.7790
 6703TIP3    H220053   1.746   4.080   6.138 -0.4129 -0.2662 -1.5976
 6704TIP3   OH220054   3.337   4.100   2.881  0.1644 -0.4456  0.1213
 6704TIP3    H120055   3.247   4.102   2.851  0.5645  1.4631 -1.1392
 6704TIP3    H220056   3.366   4.010   2.867 -1.5532 -1.1174  0.6898
 6705TIP3   OH220057   2.540   4.001   3.931 -0.1167  0.2975  0.3004
 6705TIP3    H120058   2.562   3.936   3.864 -0.0851  1.6455 -1.0500
 6705TIP3    H220059   2.600   3.983   4.003 -1.0249 -2.0328  0.5687
 6706TIP3   OH220060   0.173   7.485   0.502 -0.2637 -0.3417 -0.1382
 6706TIP3    H120061   0.160   7.497   0.596 -1.0846  2.7838 -0.5163
 6706TIP3    H220062   0.086   7.466   0.468 -0.2561  0.1105 -0.4220
 6707TIP3   OH220063   4.618   2.548   3.312  0.1208  0.1044 -0.1943
 6707TIP3    H120064   4.654   2.578   3.395 -0.2392  0.1231 -0.0450
 6707TIP3    H220065   4.535   2.595   3.303  0.3334  0.3818 -0.7409
 6708TIP3   OH220066   2.793   2.497   2.399 -0.2802 -0.2081 -0.1500
 6708TIP3    H120067   2.816   2.583   2.435 -2.1572  0.2170  0.1512
 6708TIP3    H220068   2.775   2.443   2.477 -0.8686 -0.3328 -0.3679
 6709TIP3   OH220069   1.760   5.873   3.506  0.7839 -0.1700  0.0918
 6709TIP3    H120070   1.784   5.941   3.442 -0.0436 -0.9099 -1.0538
 6709TIP3    H220071   1.800   5.793   3.472 -0.3560 -0.7325  0.0262
 6710TIP3   OH220072   5.467   5.075   0.255 -0.4391  0.2127  0.1956
 6710TIP3    H120073   5.536   5.080   0.322  2.0097 -0.3633 -2.1092
 6710TIP3    H220074   5.475   5.157   0.207 -3.1088  1.2383  1.3386
 6711TIP3   OH220075   3.902   3.505   3.471  0.6591  0.6905  0.0819
 6711TIP3    H120076   3.846   3.559   3.416 -0.5238 -0.9776 -0.4292
 6711TIP3    H220077   3.883   3.534   3.560  0.4237  1.4308 -0.1986
 6712TIP3   OH220078   0.050   6.707   2.156  0.3829  0.1790 -0.0369
 6712TIP3    H120079  -0.017   6.769   2.127 -0.6235 -0.6999  0.3485
 6712TIP3    H220080   0.056   6.643   2.085  1.5569  0.7851 -0.5205
 6713TIP3   OH220081   5.466   2.589   3.234 -0.1507 -0.3850 -0.1850
 6713TIP3    H120082   5.485   2.534   3.311 -0.6075  1.1747  1.0970
 6713TIP3    H220083   5.543   2.579   3.178 -0.8331 -3.4586 -0.7439
 6714TIP3   OH220084   2.263   2.592   5.534  0.0452 -0.6461 -0.3311
 6714TIP3    H120085   2.258   2.662   5.468  0.6506 -0.9025 -0.6543
 6714TIP3    H220086   2.293   2.515   5.486  0.7868 -0.7596  0.2930
 6715TIP3   OH220087   5.094   6.972   1.553 -0.1248 -0.2682  0.3531
 6715TIP3    H120088   5.045   6.895   1.523 -1.3489 -0.1375  1.9207
 6715TIP3    H220089   5.084   7.036   1.482 -0.9579 -0.7696 -0.0033
 6716TIP3   OH220090   0.332   2.723   4.422 -0.2849 -0.3829  0.5363
 6716TIP3    H120091   0.391   2.649   4.436 -0.1662 -0.1361  1.4170
 6716TIP3    H220092   0.352   2.753   4.333  1.4108  0.1109  1.0335
 6717TIP3   OH220093   5.160   0.772   0.433  0.0168  0.1058  0.3090
 6717TIP3    H120094   5.108   0.821   0.369 -0.4128 -0.1754  0.4356
 6717TIP3    H220095   5.152   0.680   0.404  2.1400  0.2415 -0.8826
 6718TIP3   OH220096   6.385   4.944   6.112 -0.0882 -0.2875 -0.0777
 6718TIP3    H120097   6.291   4.959   6.123  0.0654  1.0956 -0.4757
 6718TIP3    H220098   6.391   4.859   6.068 -1.3007  0.7973 -2.5101
 6719TIP3   OH220099   4.230   2.409   5.793 -0.2193  0.3737  0.2219
 6719TIP3    H120100   4.219   2.445   5.705 -0.3933  0.7040  0.3763
 6719TIP3    H220101   4.307   2.453   5.828 -1.3849  1.8678  1.0319
 6720TIP3   OH220102   0.211   5.229   1.488  0.0977 -0.3226  0.3423
 6720TIP3    H120103   0.196   5.302   1.427  0.4160  1.0548  1.8333
 6720TIP3    H220104   0.297   5.195   1.464  1.4422  1.9349  1.6133
 6721TIP3   OH220105   1.415   4.918   2.122 -0.0844  0.2173 -0.3403
 6721TIP3    H120106   1.493   4.974   2.132  0.2360 -0.5705  2.5440
 6721TIP3    H220107   1.347   4.964   2.171 -0.8334 -0.2045 -0.9706
 6722TIP3   OH220108   1.762   5.449   6.338 -0.0892 -0.0934 -0.4483
 6722TIP3    H120109   1.796   5.427   6.252  1.6262 -2.2399  0.6606
 6722TIP3    H220110   1.788   5.540   6.352 -0.3782  0.2778 -2.1519
 6723TIP3   OH220111   3.458   6.575   1.207 -0.2377 -0.2434  0.6580
 6723TIP3    H120112   3.435   6.517   1.280  0.8032 -2.4767 -0.7055
 6723TIP3    H220113   3.377   6.624   1.189 -0.9099 -0.6687  2.3642
 6724TIP3   OH220114   4.572   4.411   3.698 -0.4910 -0.1478 -0.0311
 6724TIP3    H120115   4.538   4.324   3.676  3.0083 -1.7320  0.2383
 6724TIP3    H220116   4.618   4.440   3.619  0.2700  0.4668  0.6281
 6725TIP3   OH220117   6.359   0.854   3.327 -0.2164 -0.5538 -0.3623
 6725TIP3    H120118   6.272   0.891   3.316 -2.1250 -3.9115  1.8411
 6725TIP3    H220119   6.386   0.881   3.415  0.1014 -1.1642 -0.2699
 6726TIP3   OH220120   6.619   5.310   0.662  0.1781 -0.4412  0.3849
 6726TIP3    H120121   6.530   5.342   0.673 -0.4926 -1.7719 -0.8416
 6726TIP3    H220122   6.673   5.389   0.660 -0.9368  0.3765  1.3046
 6727TIP3   OH220123   6.992   0.948   1.749  0.1847  0.2810 -0.5254
 6727TIP3    H120124   7.054   0.940   1.822 -0.0283 -0.8330 -0.4375
 6727TIP3    H220125   6.984   1.042   1.734  0.2913  0.5309  0.8388
 6728TIP3   OH220126   7.240   6.809   5.127 -0.0196 -0.2261 -0.0594
 6728TIP3    H120127   7.295   6.739   5.091 -0.9220 -0.8628 -0.2218
 6728TIP3    H220128   7.302   6.880   5.146  0.7723 -0.6871 -0.8212
 6729TIP3   OH220129   6.576   0.313   0.154  0.1672  0.0536 -0.2891
 6729TIP3    H120130   6.631   0.290   0.079 -0.2273 -1.7399 -0.0652
 6729TIP3    H220131   6.520   0.236   0.168  1.6059 -0.5769  3.0533
 6730TIP3   OH220132   7.318   1.310   3.760  0.6246 -0.4440  0.1930
 6730TIP3    H120133   7.242   1.367   3.774  0.8528 -0.1100  0.0666
 6730TIP3    H220134   7.391   1.357   3.800  0.9561 -0.2888 -0.5886
 6731TIP3   OH220135   1.306   2.735   3.300 -0.2897 -0.0543  0.1519
 6731TIP3    H120136   1.240   2.804   3.307  0.9616  1.2221 -0.1087
 6731TIP3    H220137   1.349   2.751   3.216 -0.3816 -1.5646 -0.2186
 6732TIP3   OH220138   7.338   1.177   1.920 -0.0468  0.2926 -0.0006
 6732TIP3    H120139   7.266   1.115   1.913 -1.0148  1.5229 -2.0576
 6732TIP3    H220140   7.415   1.128   1.890 -0.7024 -0.0877 -1.1414
 6733TIP3   OH220141   1.436   5.563   0.476  0.7168 -0.6529 -0.5716
 6733TIP3    H120142   1.355   5.534   0.517  0.2607  1.4371  0.1151
 6733TIP3    H220143   1.505   5.527   0.531  0.1477  0.6319  1.0409
 6734TIP3   OH220144   5.187   6.803   6.406 -0.5817 -0.1596 -0.7171
 6734TIP3    H120145   5.179   6.721   6.454  0.1077  0.4221  0.4432
 6734TIP3    H220146   5.164   6.871   6.469  2.3670  0.7777 -0.4841
 6735TIP3   OH220147   5.279   6.447   0.117  0.4604 -0.0796  0.5844
 6735TIP3    H120148   5.271   6.393   0.196 -1.0337 -0.5023  0.1775
 6735TIP3    H220149   5.259   6.536   0.146  1.1886 -0.0122  0.9130
 6736TIP3   OH220150   7.053   2.024   1.498  0.2263 -0.5947 -0.1088
 6736TIP3    H120151   7.128   2.054   1.448 -0.5451 -0.1847 -1.0427
 6736TIP3    H220152   7.084   2.022   1.589  0.8508  1.2934 -0.2367
 6737TIP3   OH220153   7.567   0.728   3.417 -0.0448  0.0679  0.0443
 6737TIP3    H120154   7.642   0.751   3.471  0.1619 -1.3470  0.3898
 6737TIP3    H220155   7.588   0.642   3.380 -0.8485  0.3152 -1.0593
 6738TIP3   OH220156   5.679   1.206   4.232  0.2630 -0.0630  0.0194
 6738TIP3    H120157   5.615   1.267   4.268  0.1752  0.0363 -0.3043
 6738TIP3    H220158   5.637   1.120   4.242  0.7041 -0.1682  1.1801
 6739TIP3   OH220159   7.838   3.659   0.492 -0.4348  0.7605 -0.1034
 6739TIP3    H120160   7.931   3.638   0.504 -0.7510  0.7698  3.3241
 6739TIP3    H220161   7.809   3.600   0.422  2.0775  0.6911 -1.1911
 6740TIP3   OH220162   6.388   0.555   3.252  0.3170 -0.4452  0.1348
 6740TIP3    H120163   6.444   0.557   3.330 -1.2643  1.2065  1.3328
 6740TIP3    H220164   6.301   0.581   3.285 -0.5171 -0.1885 -2.1066
 6741TIP3   OH220165   6.724   5.840   4.995  0.2958  0.3844 -0.1826
 6741TIP3    H120166   6.670   5.841   5.075  0.1921  0.2717 -0.2516
 6741TIP3    H220167   6.684   5.774   4.940  0.8596 -0.1317  0.0132
 6742TIP3   OH220168   1.319   2.819   3.029  0.7545 -0.2264  0.3963
 6742TIP3    H120169   1.357   2.815   2.941  0.4335 -2.4766  0.2946
 6742TIP3    H220170   1.224   2.821   3.014  0.6972  2.3122  0.6983
 6743TIP3   OH220171   7.140   6.203   0.641  0.7211  0.1092 -0.3991
 6743TIP3    H120172   7.068   6.157   0.685  0.9914 -0.3665 -0.4508
 6743TIP3    H220173   7.148   6.160   0.556  0.4766  0.7557 -0.7608
 6744TIP3   OH220174   4.882   2.967   1.214 -0.8979 -0.2359  0.7560
 6744TIP3    H120175   4.875   2.884   1.167  1.5998 -0.1139  0.0297
 6744TIP3    H220176   4.846   3.031   1.154 -0.6662 -0.5028  0.3240
 6745TIP3   OH220177   5.991   5.484   3.970  0.5103  0.1814  0.2057
 6745TIP3    H120178   5.975   5.392   3.989 -1.8703  0.1945 -1.2556
 6745TIP3    H220179   5.913   5.529   4.004  1.4748  1.6232  0.5881
 6746TIP3   OH220180   7.065   7.715   3.517  0.0135 -0.2350  0.6252
 6746TIP3    H120181   7.105   7.791   3.476 -0.1513 -1.0879 -1.1933
 6746TIP3    H220182   6.977   7.743   3.541  0.7363  0.8496  2.2530
 6747TIP3   OH220183   2.584   7.249   0.678  0.1282  0.0245  0.0674
 6747TIP3    H120184   2.494   7.253   0.710  0.1071  0.4660 -0.0413
 6747TIP3    H220185   2.610   7.341   0.668  0.5723 -0.1014  0.0476
 6748TIP3   OH220186   7.385   0.553   2.075  0.1917  0.0726  0.1956
 6748TIP3    H120187   7.328   0.574   2.149  1.0188  0.6912  0.6706
 6748TIP3    H220188   7.327   0.508   2.012 -0.5945 -0.1507  1.0588
 6749TIP3   OH220189   5.778   1.809   3.465 -0.3741  0.0146 -0.6214
 6749TIP3    H120190   5.731   1.888   3.492  1.7046  1.3755 -0.7670
 6749TIP3    H220191   5.733   1.738   3.509 -1.7213  1.3878  0.2972
 6750TIP3   OH220192   1.365   1.914   3.546 -0.1823 -0.3594 -0.0987
 6750TIP3    H120193   1.314   1.972   3.489 -0.1004 -1.2668 -1.1248
 6750TIP3    H220194   1.339   1.939   3.635 -2.9201 -1.2128 -0.5707
 6751TIP3   OH220195   6.459   4.563   2.787 -0.0034 -0.0077 -0.1627
 6751TIP3    H120196   6.508   4.552   2.706  0.4660 -1.3766  0.2922
 6751TIP3    H220197   6.514   4.619   2.842  0.4939 -0.5416 -0.1160
 6752TIP3   OH220198   3.444   5.148   1.224  0.2816 -0.1176 -0.2196
 6752TIP3    H120199   3.528   5.158   1.180  1.0573 -0.1737  1.1860
 6752TIP3    H220200   3.449   5.062   1.266 -0.4507 -0.0959 -0.0831
 6753TIP3   OH220201   6.252   3.577   4.221  0.0009 -0.0918  0.5643
 6753TIP3    H120202   6.305   3.500   4.244 -0.1949  0.0364  1.4690
 6753TIP3    H220203   6.225   3.613   4.305 -1.4717 -0.1083  0.1150
 6754TIP3   OH220204   4.811   3.377   2.155 -0.3729 -0.8147 -0.1648
 6754TIP3    H120205   4.860   3.358   2.075 -0.8225 -1.1665 -0.3604
 6754TIP3    H220206   4.873   3.425   2.210  0.4341 -1.8565 -0.1245
 6755TIP3   OH220207   1.104   3.561   3.824  0.0505 -0.1555 -0.3345
 6755TIP3    H120208   1.195   3.572   3.853  0.7352 -0.4327 -2.2433
 6755TIP3    H220209   1.058   3.530   3.902  2.1306 -2.5433  0.0631
 6756TIP3   OH220210   3.010   2.262   1.718  0.2741  0.2322 -0.2118
 6756TIP3    H120211   3.040   2.335   1.663  0.3519  0.5615  0.2636
 6756TIP3    H220212   3.038   2.285   1.806  1.1952 -0.8524 -0.1921
 6757TIP3   OH220213   7.362   7.734   0.432 -0.4027 -0.9352 -0.6954
 6757TIP3    H120214   7.270   7.754   0.414 -1.2634 -1.9603  2.0562
 6757TIP3    H220215   7.384   7.787   0.508  1.8212  0.4029 -2.1606
 6758TIP3   OH220216   5.294   0.210   4.591 -0.6358 -0.3406  0.1816
 6758TIP3    H120217   5.302   0.218   4.686  0.4634 -2.2251  0.2977
 6758TIP3    H220218   5.203   0.184   4.576 -1.1668  1.1737  0.5775
 6759TIP3   OH220219   0.317   7.660   1.967 -0.7476  0.3904  0.2218
 6759TIP3    H120220   0.242   7.615   1.929  0.3014 -1.6446  0.4315
 6759TIP3    H220221   0.298   7.753   1.955 -1.4929 -0.0921 -3.2213
 6760TIP3   OH220222   3.310   2.410   3.222  0.2171  0.8428 -0.0914
 6760TIP3    H120223   3.383   2.375   3.172  0.7016 -1.2121  1.8523
 6760TIP3    H220224   3.252   2.335   3.234 -0.6125  1.6401  1.0994
 6761TIP3   OH220225   2.928   7.740   0.003 -0.1644  0.0578  0.0552
 6761TIP3    H120226   2.845   7.780  -0.025 -0.0126  1.3903  1.4030
 6761TIP3    H220227   2.922   7.735   0.098  0.6654 -1.3451  0.0704
 6762TIP3   OH220228   6.786   7.362   3.406 -0.1875  0.6734 -0.8100
 6762TIP3    H120229   6.703   7.399   3.436  0.0099  1.3349 -1.0418
 6762TIP3    H220230   6.768   7.269   3.391 -1.0383  0.9241 -1.4037
 6763TIP3   OH220231   5.737   1.158   2.531  0.2558 -0.3227  0.1947
 6763TIP3    H120232   5.667   1.213   2.565  1.3175  1.1661  0.0556
 6763TIP3    H220233   5.752   1.093   2.600 -0.4172  0.1140  0.7612
 6764TIP3   OH220234   2.688   3.409   2.613 -0.1115  0.0267 -0.5033
 6764TIP3    H120235   2.694   3.318   2.585  0.1397 -0.1712  0.1766
 6764TIP3    H220236   2.596   3.421   2.637  0.2570 -0.6802  1.4379
 6765TIP3   OH220237   5.215   2.905   2.792 -0.1630 -0.2781 -0.1655
 6765TIP3    H120238   5.220   2.810   2.781 -1.2294 -0.2737 -0.8328
 6765TIP3    H220239   5.141   2.932   2.737  2.0831  1.3692 -2.6477
 6766TIP3   OH220240   4.037   6.542   4.612 -0.3304 -0.1770 -0.7069
 6766TIP3    H120241   4.089   6.473   4.571 -0.4895 -1.6912  1.4483
 6766TIP3    H220242   3.951   6.535   4.572  0.0841 -0.1446 -1.6294
 6767TIP3   OH220243   7.765   2.343   2.765  0.5133  0.3693  0.0254
 6767TIP3    H120244   7.857   2.369   2.755  0.2360  2.0382  1.3965
 6767TIP3    H220245   7.720   2.423   2.790 -1.2422 -0.5369 -0.1027
 6768TIP3   OH220246   1.866   1.596   5.330  0.5805  0.0492  0.4877
 6768TIP3    H120247   1.805   1.592   5.403 -0.5543 -0.8419 -0.4657
 6768TIP3    H220248   1.921   1.671   5.349 -1.5808  1.6522  0.8016
 6769TIP3   OH220249   5.413   3.492   0.736 -0.6215  0.0205  0.1446
 6769TIP3    H120250   5.503   3.522   0.733 -0.5461 -0.2386 -0.2571
 6769TIP3    H220251   5.396   3.456   0.649 -1.1762  0.2532  0.1477
 6770TIP3   OH220252   1.420   2.575   1.233  0.2644 -0.3391 -0.5700
 6770TIP3    H120253   1.379   2.659   1.216  0.1750 -0.0260  1.0490
 6770TIP3    H220254   1.498   2.596   1.283 -0.1932 -1.2508  0.5764
 6771TIP3   OH220255   2.639   4.172   0.523  0.3927  0.1387 -0.0739
 6771TIP3    H120256   2.695   4.250   0.522 -0.1465  0.5713 -2.6352
 6771TIP3    H220257   2.686   4.107   0.471  0.4602 -1.0082  1.3633
 6772TIP3   OH220258   7.924   6.205   1.501  0.5278 -0.5700  0.3835
 6772TIP3    H120259   7.829   6.204   1.484  0.6654  3.8259 -1.8532
 6772TIP3    H220260   7.961   6.148   1.434 -0.3889 -0.1126 -0.5342
 6773TIP3   OH220261   5.433   2.793   4.308 -0.1198  0.1911 -0.0165
 6773TIP3    H120262   5.501   2.739   4.349  1.7114  1.3650 -1.3336
 6773TIP3    H220263   5.456   2.793   4.215 -2.2685  0.2318 -0.5893
 6774TIP3   OH220264   2.125   6.318   1.417  0.0385  0.1293 -0.8000
 6774TIP3    H120265   2.116   6.358   1.504  0.7806  1.5310 -1.3342
 6774TIP3    H220266   2.043   6.339   1.373 -0.2250 -0.3415 -0.5422
 6775TIP3   OH220267   3.133   3.747   2.812  0.0994 -0.2631  0.6225
 6775TIP3    H120268   3.212   3.797   2.790  0.4728 -1.3681 -0.6761
 6775TIP3    H220269   3.116   3.695   2.734 -2.0129  0.0455  0.8277
 6776TIP3   OH220270   7.063   6.468   1.150 -0.5429 -0.5603 -0.1087
 6776TIP3    H120271   7.102   6.495   1.232 -0.9436 -0.8799  0.1924
 6776TIP3    H220272   7.137   6.457   1.090 -0.2115 -0.7388  0.3300
 6777TIP3   OH220273   7.285   5.326   3.125 -0.1392 -0.0030 -0.5598
 6777TIP3    H120274   7.194   5.353   3.135 -0.7492 -0.8274 -3.1368
 6777TIP3    H220275   7.334   5.385   3.182 -2.0108  2.3075 -1.1798
 6778TIP3   OH220276   3.939   3.798   2.801 -0.1823 -0.1472  0.3327
 6778TIP3    H120277   3.884   3.719   2.801  2.3864 -2.0957 -1.1371
 6778TIP3    H220278   3.962   3.811   2.709  3.0523 -0.4457  0.9746
 6779TIP3   OH220279   3.882   4.650   0.870 -0.0376 -0.1010 -0.6775
 6779TIP3    H120280   3.926   4.682   0.791  0.8908  0.3977  0.0218
 6779TIP3    H220281   3.860   4.559   0.850 -1.4882  0.5432 -2.1933
 6780TIP3   OH220282   0.626   2.042   5.832  0.0104  0.2537 -0.4513
 6780TIP3    H120283   0.600   2.129   5.862 -0.5297  0.4901 -1.5663
 6780TIP3    H220284   0.721   2.045   5.829  0.0100  0.6692 -0.0860
 6781TIP3   OH220285   3.515   5.937   1.145 -0.1468  0.0664  0.3362
 6781TIP3    H120286   3.429   5.903   1.121  0.5302 -0.8511 -0.8416
 6781TIP3    H220287   3.501   6.032   1.154 -1.4210 -0.1514  0.8544
 6782TIP3   OH220288   1.198   3.259   0.132 -0.2034 -0.4566 -0.2293
 6782TIP3    H120289   1.200   3.352   0.109 -1.1954 -0.7461 -1.6851
 6782TIP3    H220290   1.289   3.237   0.152 -0.1636  1.1330  1.6140
 6783TIP3   OH220291   5.856   7.300   2.053  0.0683 -0.0913 -0.6021
 6783TIP3    H120292   5.920   7.259   2.112  1.7919  0.8473 -1.7430
 6783TIP3    H220293   5.793   7.342   2.112  0.6915 -0.7540  0.5679
 6784TIP3   OH220294   1.895   0.988   5.843  0.2378  0.1475 -0.2964
 6784TIP3    H120295   1.800   0.993   5.829  0.5147  0.8088 -2.2966
 6784TIP3    H220296   1.904   0.955   5.932 -1.8726 -0.2942 -0.1799
 6785TIP3   OH220297   7.960   6.714   5.944  0.4778  0.2598 -0.1561
 6785TIP3    H120298   7.976   6.809   5.938  1.0550  0.1200 -1.2528
 6785TIP3    H220299   7.967   6.684   5.853 -0.7774 -0.6813  0.0438
 6786TIP3   OH220300   4.873   4.055   5.145 -0.1791 -0.0405 -0.6122
 6786TIP3    H120301   4.819   3.978   5.160 -0.9595  0.5364 -0.3756
 6786TIP3    H220302   4.822   4.108   5.083  0.6579 -0.0197 -1.3095
 6787TIP3   OH220303   5.584   3.734   1.472 -0.1003  0.3362  0.1640
 6787TIP3    H120304   5.491   3.719   1.490  0.0679  1.6395  2.6518
 6787TIP3    H220305   5.591   3.829   1.462  0.9813  0.2736  0.1969
 6788TIP3   OH220306   0.975   1.910   2.247  0.0003  0.1923  0.2091
 6788TIP3    H120307   1.018   1.872   2.170 -0.9569  0.2816 -0.3851
 6788TIP3    H220308   1.038   1.899   2.318  0.5257 -0.7393 -0.3864
 6789TIP3   OH220309   3.206   5.830   3.945 -0.0503  0.1324  0.4274
 6789TIP3    H120310   3.298   5.835   3.974  0.5231 -0.1973 -1.2427
 6789TIP3    H220311   3.156   5.824   4.027  1.4708 -0.6152  1.3487
 6790TIP3   OH220312   6.365   5.972   1.531 -0.1727 -0.0132 -0.0250
 6790TIP3    H120313   6.315   5.929   1.601  0.6383 -0.4897  0.2731
 6790TIP3    H220314   6.355   5.914   1.456  0.4781 -0.4584  0.2254
 6791TIP3   OH220315   2.419   3.336   0.964 -0.3110  0.4299 -0.0274
 6791TIP3    H120316   2.497   3.283   0.980 -0.2938  0.3238 -0.4502
 6791TIP3    H220317   2.422   3.404   1.031  0.4382  0.7522 -0.3758
 6792TIP3   OH220318   2.767   0.238   1.055 -0.4183  0.0392  0.2583
 6792TIP3    H120319   2.837   0.222   1.119  2.2348  0.0545 -2.4357
 6792TIP3    H220320   2.797   0.314   1.005 -3.2120  1.0982  0.0027
 6793TIP3   OH220321   6.406   4.270   0.345  0.3470  0.1564  0.3095
 6793TIP3    H120322   6.364   4.355   0.335 -0.1763 -0.1176  0.1188
 6793TIP3    H220323   6.465   4.263   0.270  0.3805  0.3495  0.3187
 6794TIP3   OH220324   4.215   7.229   3.581 -0.2451 -0.4337 -0.2212
 6794TIP3    H120325   4.213   7.135   3.565  0.1412 -0.3658 -0.7208
 6794TIP3    H220326   4.306   7.254   3.563 -0.5448  0.1752 -0.9479
 6795TIP3   OH220327   4.405   5.983   4.720  0.3126  0.1053  0.0731
 6795TIP3    H120328   4.376   5.895   4.744 -0.0736  0.3617  0.5889
 6795TIP3    H220329   4.456   6.013   4.795  2.0387 -0.3690 -0.8656
 6796TIP3   OH220330   5.894   0.458   1.597  0.0675 -0.0783  0.2536
 6796TIP3    H120331   5.824   0.407   1.638  0.7710 -0.4734  0.9952
 6796TIP3    H220332   5.909   0.530   1.658 -0.0270  0.2884 -0.1526
 6797TIP3   OH220333   7.148   5.309   2.099 -0.0888 -0.2073  0.1848
 6797TIP3    H120334   7.206   5.324   2.024 -0.1538 -0.3267  0.1107
 6797TIP3    H220335   7.060   5.305   2.061 -0.1508  0.0274  0.3035
 6798TIP3   OH220336   4.335   2.205   0.296 -0.0507 -0.2457 -0.1135
 6798TIP3    H120337   4.241   2.208   0.280 -0.2529 -1.4523  0.7158
 6798TIP3    H220338   4.348   2.254   0.377  0.0001 -0.3149 -0.0794
 6799TIP3   OH220339   4.733   6.045   2.869  0.4845 -0.0926 -0.5290
 6799TIP3    H120340   4.760   5.954   2.882 -0.5221 -0.6443 -1.9723
 6799TIP3    H220341   4.693   6.071   2.952  0.8176 -0.9537 -0.0883
 6800TIP3   OH220342   7.479   7.378   1.781  0.5117 -0.1514 -0.3245
 6800TIP3    H120343   7.490   7.373   1.876  0.2006  1.1888 -0.1938
 6800TIP3    H220344   7.417   7.308   1.760  1.4785 -1.2268  0.2807
 6801TIP3   OH220345   6.730   0.157   0.843  0.0031 -0.8148  0.3530
 6801TIP3    H120346   6.709   0.074   0.886  1.1243 -1.7894 -0.8790
 6801TIP3    H220347   6.822   0.173   0.866 -0.7818  1.2777  2.3788
 6802TIP3   OH220348   7.160   2.780   5.644  0.1990 -0.1286  0.3544
 6802TIP3    H120349   7.104   2.803   5.718  1.3744  2.2070  0.5928
 6802TIP3    H220350   7.249   2.786   5.678  0.7042 -0.8421 -0.7853
 6803TIP3   OH220351   2.297   0.454   2.338  0.1787 -0.1386 -0.7262
 6803TIP3    H120352   2.387   0.435   2.311  0.7412  0.0671  0.8835
 6803TIP3    H220353   2.280   0.390   2.407 -1.1806 -0.6275 -1.4849
 6804TIP3   OH220354   2.502   6.568   4.204  0.3166 -0.2484  0.1494
 6804TIP3    H120355   2.552   6.620   4.141 -1.6175  0.4043 -0.9324
 6804TIP3    H220356   2.569   6.519   4.252  1.9609  0.0607 -1.6558
 6805TIP3   OH220357   3.694   1.955   2.834  0.0943 -0.7204 -0.4426
 6805TIP3    H120358   3.682   2.047   2.812 -0.8377 -0.3303  1.4916
 6805TIP3    H220359   3.687   1.909   2.750 -1.4588  0.8037 -1.2129
 6806TIP3   OH220360   7.400   1.387   1.026  0.3944 -0.3829  0.4294
 6806TIP3    H120361   7.441   1.415   0.944  1.1383 -3.3748 -0.3696
 6806TIP3    H220362   7.315   1.352   0.999  1.0921 -2.4204  0.6533
 6807TIP3   OH220363   2.179   1.667   4.126  0.1389  0.3218  0.7131
 6807TIP3    H120364   2.213   1.636   4.210  0.8436 -0.8696  0.0161
 6807TIP3    H220365   2.204   1.599   4.063 -1.2886  0.6735 -0.2873
 6808TIP3   OH220366   5.389   4.904   3.942 -0.4456  0.2693 -0.5372
 6808TIP3    H120367   5.437   4.871   3.865 -0.0907 -0.2734 -0.0941
 6808TIP3    H220368   5.447   4.970   3.979  0.5427 -1.1918  0.6652
 6809TIP3   OH220369   1.090   7.456   2.342  0.3369  0.4278 -0.1720
 6809TIP3    H120370   1.135   7.517   2.284 -1.5502  1.5957 -0.4952
 6809TIP3    H220371   1.043   7.397   2.284  0.6684 -0.1970  0.1725
 6810TIP3   OH220372   6.869   4.707   3.050 -0.0790  0.0912 -0.5839
 6810TIP3    H120373   6.951   4.659   3.062 -1.6569 -2.1483  2.8130
 6810TIP3    H220374   6.885   4.793   3.090  0.9867  0.2384 -1.2828
 6811TIP3   OH220375   2.820   4.567   0.020 -0.4719 -0.0261  0.5980
 6811TIP3    H120376   2.819   4.645  -0.035 -0.7456  0.8367  1.7986
 6811TIP3    H220377   2.732   4.562   0.057 -0.4446 -0.8915  0.5638
 6812TIP3   OH220378   6.661   2.122   6.452  0.3267 -0.4233  0.2832
 6812TIP3    H120379   6.620   2.100   6.536  0.3942 -0.5691  0.2784
 6812TIP3    H220380   6.673   2.038   6.408 -1.0864 -0.2493 -0.5230
 6813TIP3   OH220381   5.651   7.224   5.452  0.0556 -0.4074 -0.6437
 6813TIP3    H120382   5.598   7.288   5.499  1.7970  0.3281  0.4361
 6813TIP3    H220383   5.661   7.151   5.515  0.3839 -0.4910 -0.7889
 6814TIP3   OH220384   5.996   7.302   1.144  0.1593 -0.2163 -0.1030
 6814TIP3    H120385   6.036   7.219   1.118 -0.0595  0.1783 -1.8678
 6814TIP3    H220386   6.065   7.367   1.129  0.1990 -0.0308  0.8777
 6815TIP3   OH220387   6.961   6.927   5.702  0.4431  0.4129 -0.1080
 6815TIP3    H120388   6.940   7.009   5.659 -0.3429  0.3607  0.1600
 6815TIP3    H220389   6.905   6.862   5.658  1.2067 -0.0180 -0.4586
 6816TIP3   OH220390   3.462   7.502   5.940  0.6930 -0.8270 -0.0581
 6816TIP3    H120391   3.367   7.508   5.944  0.6010 -1.8652 -0.3836
 6816TIP3    H220392   3.491   7.590   5.916 -0.1534 -0.4052  0.4262
 6817TIP3   OH220393   5.966   6.353   0.220 -0.0252 -0.2942  0.1643
 6817TIP3    H120394   5.963   6.384   0.130 -0.7044 -1.1954 -0.1269
 6817TIP3    H220395   5.880   6.315   0.237 -0.0276  0.1561  1.3075
 6818TIP3   OH220396   8.089   0.677   6.203 -0.1614  0.2244  0.2096
 6818TIP3    H120397   8.064   0.699   6.292 -1.9834 -0.2878 -0.1367
 6818TIP3    H220398   8.154   0.607   6.212 -0.6239 -0.0978  1.1328
 6819TIP3   OH220399   7.935   6.651   1.856  0.3113  0.4053 -0.3213
 6819TIP3    H120400   7.917   6.557   1.845 -1.5789  0.8916 -1.8716
 6819TIP3    H220401   7.953   6.661   1.950  2.3947 -1.7558 -0.4050
 6820TIP3   OH220402   0.964   0.337   3.406  0.6840 -0.0633 -0.6431
 6820TIP3    H120403   1.051   0.340   3.446  0.0886 -3.1120  1.3160
 6820TIP3    H220404   0.914   0.404   3.453  1.4148  0.1718 -0.1781
 6821TIP3   OH220405   5.645   4.259   5.813 -0.3836  0.4930  0.4957
 6821TIP3    H120406   5.681   4.170   5.818 -1.8709 -0.1638 -0.1128
 6821TIP3    H220407   5.623   4.281   5.904 -1.0334 -0.2050  0.5147
 6822TIP3   OH220408   4.221   1.181   5.179 -0.6410 -0.0040 -0.3105
 6822TIP3    H120409   4.132   1.214   5.188  0.0966  2.5871 -1.5943
 6822TIP3    H220410   4.213   1.104   5.122 -2.1305 -0.4573  0.4644
 6823TIP3   OH220411   2.293   2.793   2.733 -0.0513  0.6480  0.1212
 6823TIP3    H120412   2.334   2.726   2.787  0.6745  3.1812  2.9666
 6823TIP3    H220413   2.202   2.764   2.724  0.4385 -1.1046  0.4982
 6824TIP3   OH220414   2.836   7.285   4.535  0.6078  0.6494 -0.1087
 6824TIP3    H120415   2.888   7.363   4.557  0.6252  0.0845  2.0738
 6824TIP3    H220416   2.896   7.212   4.544 -0.0745  0.1518  0.5613
 6825TIP3   OH220417   2.261   3.081   0.127 -0.0304  0.8331 -0.4486
 6825TIP3    H120418   2.237   3.007   0.184  4.3519  0.1269  0.8779
 6825TIP3    H220419   2.254   3.158   0.183 -1.0776  0.9627 -0.7319
 6826TIP3   OH220420   0.559   1.481   5.526  0.7676  0.6477  0.6578
 6826TIP3    H120421   0.557   1.577   5.524 -0.8978  0.6975 -2.0440
 6826TIP3    H220422   0.480   1.455   5.477  1.2076 -2.1040  1.2421
 6827TIP3   OH220423   6.015   2.970   5.650  0.4835  0.7516 -0.0901
 6827TIP3    H120424   6.005   3.064   5.668  1.2580  0.4859  2.1036
 6827TIP3    H220425   5.945   2.928   5.700 -0.6611  0.1773 -2.0747
 6828TIP3   OH220426   2.538   2.303   0.131  0.3010 -0.2379 -0.1038
 6828TIP3    H120427   2.475   2.372   0.109 -0.6004 -0.7421  0.8058
 6828TIP3    H220428   2.565   2.268   0.046  0.6506  1.0969 -0.5749
 6829TIP3   OH220429   4.546   1.687   6.015 -0.2802  0.4214  0.3380
 6829TIP3    H120430   4.551   1.697   5.920  0.7509 -0.4986  0.2621
 6829TIP3    H220431   4.524   1.774   6.048  2.1135  1.4792 -0.5793
 6830TIP3   OH220432   5.189   4.905   6.595  0.4551  0.6687  0.0176
 6830TIP3    H120433   5.208   4.833   6.535  0.1394  1.4639 -1.0789
 6830TIP3    H220434   5.274   4.950   6.605  0.5132  0.5217  0.1909
 6831TIP3   OH220435   0.593   0.795   5.943  0.0219 -0.3180 -0.0253
 6831TIP3    H120436   0.609   0.719   5.999 -1.1013 -0.9247 -0.4860
 6831TIP3    H220437   0.525   0.844   5.989  0.3639  0.1380  0.0043
 6832TIP3   OH220438   4.136   3.159   2.444  0.3784  0.1191 -0.0599
 6832TIP3    H120439   4.220   3.191   2.477  0.3488 -0.5409  0.6783
 6832TIP3    H220440   4.157   3.076   2.402 -0.1817 -1.0994  1.9553
 6833TIP3   OH220441   7.257   5.094   0.729 -0.4238 -0.3354  0.0555
 6833TIP3    H120442   7.266   5.015   0.676  1.1519 -0.7077  0.8140
 6833TIP3    H220443   7.347   5.118   0.751 -0.9116  1.3469  0.3248
 6834TIP3   OH220444   7.847   7.142   3.837 -0.2714 -0.0803 -0.2597
 6834TIP3    H120445   7.891   7.078   3.781 -0.4148  0.0437 -0.5149
 6834TIP3    H220446   7.785   7.186   3.779  0.5286  0.9818 -0.3244
 6835TIP3   OH220447   1.204   1.277   0.940  0.2250  0.4236  0.2634
 6835TIP3    H120448   1.297   1.298   0.945 -0.0829  1.6422  1.1153
 6835TIP3    H220449   1.164   1.354   0.900 -0.3850 -0.2403 -0.4406
 6836TIP3   OH220450   0.872   3.929   3.271 -0.5689 -0.0996 -0.1737
 6836TIP3    H120451   0.947   3.874   3.251 -1.0304 -0.6939 -0.3108
 6836TIP3    H220452   0.891   3.966   3.357  0.6675  1.1496 -0.9354
 6837TIP3   OH220453   7.845   2.284   5.692 -0.2285 -0.2900  0.1636
 6837TIP3    H120454   7.893   2.287   5.775  2.9342 -0.0788 -1.5437
 6837TIP3    H220455   7.839   2.375   5.665 -1.3282 -0.3507  0.1516
 6838TIP3   OH220456   4.851   2.329   3.683  0.7089  0.5150  0.3965
 6838TIP3    H120457   4.793   2.383   3.737 -0.6898 -0.0891 -0.4429
 6838TIP3    H220458   4.939   2.365   3.699  0.0121  2.0359  1.0278
 6839TIP3   OH220459   5.600   3.057   2.574  0.7974  0.2706  0.1790
 6839TIP3    H120460   5.511   3.070   2.543  0.9967 -0.7418 -0.9003
 6839TIP3    H220461   5.655   3.078   2.499  1.4948  1.0712  0.8935
 6840TIP3   OH220462   5.595   4.060   0.505 -0.1093 -0.0185  0.3067
 6840TIP3    H120463   5.598   4.122   0.577  2.0816  1.5709 -1.0304
 6840TIP3    H220464   5.521   4.088   0.451 -0.2170  0.3306  0.6335
 6841TIP3   OH220465   0.830   6.923   6.222  0.4423  0.6028 -0.0089
 6841TIP3    H120466   0.806   6.930   6.314  1.3017 -0.3661  0.3040
 6841TIP3    H220467   0.748   6.935   6.175 -0.4848 -1.4572  0.9703
 6842TIP3   OH220468   1.656   5.908   2.011 -0.2320 -0.5924  0.4676
 6842TIP3    H120469   1.713   5.926   2.086 -1.0938 -0.0168  1.0109
 6842TIP3    H220470   1.682   5.972   1.945 -1.0170  0.4799  1.1558
 6843TIP3   OH220471   8.001   5.831   0.260  0.1711 -0.4521  0.3567
 6843TIP3    H120472   7.948   5.764   0.304 -2.7269  2.7001  2.1677
 6843TIP3    H220473   8.076   5.844   0.318  0.2945 -1.4389  0.4438
 6844TIP3   OH220474   0.052   1.748   1.500  0.5919  0.2718  0.1299
 6844TIP3    H120475   0.068   1.830   1.453 -0.7491  0.4883 -0.0066
 6844TIP3    H220476   0.135   1.728   1.543  1.1056  1.4078 -0.2929
 6845TIP3   OH220477   2.048   0.437   1.828 -0.5478 -0.0475 -0.1710
 6845TIP3    H120478   1.984   0.433   1.900 -2.6809 -1.0588 -1.9929
 6845TIP3    H220479   2.110   0.367   1.848  0.0064  0.8609  1.5699
 6846TIP3   OH220480   5.369   3.124   1.399 -0.6188 -0.3760  0.1153
 6846TIP3    H120481   5.377   3.165   1.485 -1.6123 -0.7975  0.4147
 6846TIP3    H220482   5.441   3.161   1.348  0.4447 -0.6855  1.3509
 6847TIP3   OH220483   2.629   1.598   5.010 -0.2552 -0.5178 -0.0513
 6847TIP3    H120484   2.624   1.502   5.013 -1.0812 -0.4647  2.4623
 6847TIP3    H220485   2.624   1.625   5.101  2.3701  1.8778 -0.4863
 6848TIP3   OH220486   2.938   4.809   1.359 -0.1450  0.3592  0.2697
 6848TIP3    H120487   3.004   4.797   1.290 -1.5870  0.3728 -1.1846
 6848TIP3    H220488   2.935   4.724   1.404 -0.6318 -0.3469 -1.0485
 6849TIP3   OH220489   3.347   4.861   5.556  0.1520  0.2341 -0.4078
 6849TIP3    H120490   3.401   4.868   5.477  0.3032 -0.6079 -0.3863
 6849TIP3    H220491   3.355   4.947   5.598 -0.6988  1.0324 -1.7967
 6850TIP3   OH220492   5.921   5.514   0.996 -0.5567  0.4749  0.8686
 6850TIP3    H120493   5.940   5.497   1.088  2.7396  0.3066  0.2690
 6850TIP3    H220494   5.978   5.588   0.973  0.3148 -0.8505 -1.5362
 6851TIP3   OH220495   4.269   4.451   5.662 -0.1217 -0.1591 -0.3423
 6851TIP3    H120496   4.325   4.470   5.588  0.9219 -1.7220  0.0025
 6851TIP3    H220497   4.202   4.393   5.627 -0.6168  0.4257 -0.3956
 6852TIP3   OH220498   3.898   1.582   6.069  0.0590 -0.4467  0.0937
 6852TIP3    H120499   3.967   1.572   6.004  0.4452 -1.0355  0.5839
 6852TIP3    H220500   3.935   1.642   6.134 -0.5935  0.7262 -0.5747
 6853TIP3   OH220501   0.735   5.281   1.875 -0.4856  0.1993 -0.4263
 6853TIP3    H120502   0.751   5.243   1.961  0.8120  0.0732 -0.7082
 6853TIP3    H220503   0.821   5.308   1.843 -0.8538 -0.3216 -1.9528
 6854TIP3   OH220504   4.291   4.045   2.727 -0.2294 -0.4551  0.4029
 6854TIP3    H120505   4.203   4.029   2.692 -0.8862  0.6987  1.4272
 6854TIP3    H220506   4.288   4.136   2.757  0.9561 -0.7531  1.4974
 6855TIP3   OH220507   4.157   1.576   3.034 -0.2029  0.0090 -0.3976
 6855TIP3    H120508   4.107   1.654   3.007  0.0164  0.1507 -0.3934
 6855TIP3    H220509   4.106   1.539   3.106 -0.7764 -0.3513 -0.9767
 6856TIP3   OH220510   1.143   6.321   5.802  0.7891 -0.0096 -0.0517
 6856TIP3    H120511   1.180   6.393   5.852  0.1334  0.0343  0.3911
 6856TIP3    H220512   1.076   6.362   5.747  0.7539 -0.2106 -0.1594
 6857TIP3   OH220513   0.751   3.770   1.204 -0.7436  0.0955 -0.3138
 6857TIP3    H120514   0.684   3.704   1.186 -1.1060  1.0422 -2.8896
 6857TIP3    H220515   0.820   3.753   1.140  0.0895  0.9673  0.3188
 6858TIP3   OH220516   2.658   1.521   4.159  0.3254  0.0986 -0.0862
 6858TIP3    H120517   2.732   1.514   4.218  0.9859 -0.7782 -0.9694
 6858TIP3    H220518   2.696   1.512   4.071 -1.0206 -2.5571 -0.4956
 6859TIP3   OH220519   3.171   3.623   1.282 -0.7328  0.2527 -0.0100
 6859TIP3    H120520   3.240   3.634   1.347  1.0685 -1.7000 -1.4727
 6859TIP3    H220521   3.163   3.709   1.241  1.1647  0.4218 -0.1078
 6860TIP3   OH220522   0.268   2.520   6.596 -0.1220  0.0642 -0.2090
 6860TIP3    H120523   0.202   2.467   6.551 -0.3457  0.4378 -0.3327
 6860TIP3    H220524   0.346   2.513   6.541 -0.3800  0.4772 -0.6344
 6861TIP3   OH220525   7.407   6.961   6.214 -0.1281 -0.0295 -0.0219
 6861TIP3    H120526   7.487   6.909   6.212  0.4631  0.7514  1.5988
 6861TIP3    H220527   7.395   6.991   6.123  0.6757 -1.2116 -0.5399
 6862TIP3   OH220528   0.603   5.661   0.077  0.0436  0.4559 -0.3172
 6862TIP3    H120529   0.640   5.618   0.155  0.2565  0.2438 -0.5310
 6862TIP3    H220530   0.537   5.599   0.045 -0.4892  0.8240  0.0495
 6863TIP3   OH220531   0.628   2.666   0.773 -0.2917 -0.0414 -0.0119
 6863TIP3    H120532   0.672   2.604   0.715  0.9703  0.8258 -0.0383
 6863TIP3    H220533   0.583   2.611   0.837  1.4706 -1.0082  0.4561
 6864TIP3   OH220534   5.130   6.066   4.648 -0.5212 -0.4235  0.0974
 6864TIP3    H120535   5.126   6.033   4.559  1.7588 -1.1240  0.1944
 6864TIP3    H220536   5.183   6.145   4.642  0.5690 -1.0593  0.9470
 6865TIP3   OH220537   6.847   7.598   3.988  0.9724  0.1067  0.6883
 6865TIP3    H120538   6.892   7.682   3.988  0.2401  0.5648  2.9052
 6865TIP3    H220539   6.800   7.596   3.904  0.5917  2.1620  0.7926
 6866TIP3   OH220540   2.664   3.561   6.327 -0.4239  0.2596  0.5206
 6866TIP3    H120541   2.744   3.588   6.281 -0.0174  1.9445  2.1199
 6866TIP3    H220542   2.599   3.551   6.257  1.1707 -1.3569 -0.8485
 6867TIP3   OH220543   7.162   2.680   1.534 -0.0115 -0.0983 -0.2209
 6867TIP3    H120544   7.147   2.719   1.621  0.6734 -0.0782 -0.1081
 6867TIP3    H220545   7.079   2.692   1.488 -0.4166 -0.2164  0.4760
 6868TIP3   OH220546   4.853   3.178   5.804 -0.0642 -0.1905 -0.4779
 6868TIP3    H120547   4.817   3.208   5.887  0.6312  1.4934 -0.7419
 6868TIP3    H220548   4.938   3.139   5.827 -0.8937 -1.8930 -0.1543
 6869TIP3   OH220549   1.301   1.732   2.698 -0.1026  0.2270  0.2845
 6869TIP3    H120550   1.235   1.787   2.656  0.4240  1.0764  0.5545
 6869TIP3    H220551   1.345   1.688   2.625 -1.3374 -0.8008  0.1297
 6870TIP3   OH220552   4.680   1.022   4.619  0.1260  0.2694  0.0112
 6870TIP3    H120553   4.715   0.969   4.548  1.3917  1.0844 -0.0179
 6870TIP3    H220554   4.734   1.101   4.618  0.2649  0.2475  1.9414
 6871TIP3   OH220555   5.775   2.608   5.608 -0.1345  0.1789 -0.3609
 6871TIP3    H120556   5.709   2.540   5.595  0.3064  0.0075 -1.9359
 6871TIP3    H220557   5.817   2.585   5.692 -1.7603  0.0577  0.4511
 6872TIP3   OH220558   1.617   4.185   1.294  0.4266  0.3097 -0.4231
 6872TIP3    H120559   1.541   4.161   1.241  0.8303 -0.9048 -0.4867
 6872TIP3    H220560   1.689   4.134   1.257  1.4146  1.8657 -0.7327
 6873TIP3   OH220561   6.547   6.408   6.546 -0.1763 -0.7090 -0.2304
 6873TIP3    H120562   6.552   6.469   6.619 -0.5068 -0.2566 -0.5761
 6873TIP3    H220563   6.459   6.421   6.510 -0.3471 -1.5742 -0.1483
 6874TIP3   OH220564   5.948   4.196   0.871  0.6378 -0.0835 -0.1098
 6874TIP3    H120565   5.988   4.254   0.806  0.9807 -0.7250 -0.4848
 6874TIP3    H220566   5.921   4.254   0.942  1.7434  0.4342 -0.0931
 6875TIP3   OH220567   5.937   1.241   2.377 -0.3825  0.1990  0.0764
 6875TIP3    H120568   5.898   1.309   2.322 -0.2848 -1.4841 -2.2268
 6875TIP3    H220569   5.872   1.226   2.446 -1.0405  1.5978 -0.2045
 6876TIP3   OH220570   0.478   5.075   0.324  0.2829 -0.2434  0.3185
 6876TIP3    H120571   0.551   5.016   0.301 -0.1618 -0.3115 -0.9973
 6876TIP3    H220572   0.483   5.145   0.260 -0.9011 -0.3231  0.1238
 6877TIP3   OH220573   6.287   3.234   1.840  0.0141 -0.7379 -0.2123
 6877TIP3    H120574   6.266   3.209   1.930  0.6166  0.3053  0.2391
 6877TIP3    H220575   6.378   3.206   1.827  1.3599  2.5825  0.9225
 6878TIP3   OH220576   5.209   7.719   4.728 -0.4102 -0.2755 -0.1273
 6878TIP3    H120577   5.301   7.743   4.739  0.4421 -3.1385 -0.0627
 6878TIP3    H220578   5.189   7.740   4.637  0.4071  0.0828 -0.2352
 6879TIP3   OH220579   3.314   4.994   1.426  0.7741 -0.0049 -0.5793
 6879TIP3    H120580   3.345   4.920   1.374  1.7690 -0.2341  0.3002
 6879TIP3    H220581   3.245   4.956   1.482  1.8756 -0.4900  0.4840
 6880TIP3   OH220582   3.004   4.876   4.342 -0.6972  0.2198  0.3066
 6880TIP3    H120583   3.015   4.923   4.425  2.0200  3.1482 -1.4626
 6880TIP3    H220584   3.036   4.788   4.360 -1.0507  0.4855  2.5511
 6881TIP3   OH220585   1.414   1.785   4.695  0.1345 -0.2784 -0.0986
 6881TIP3    H120586   1.400   1.755   4.605 -0.1532 -0.1656 -0.0925
 6881TIP3    H220587   1.460   1.868   4.686 -2.9276  1.5574 -0.2968
 6882TIP3   OH220588   3.448   1.109   2.806 -0.0540  0.5765 -0.8856
 6882TIP3    H120589   3.420   1.190   2.849  0.4120  1.0040 -1.3842
 6882TIP3    H220590   3.510   1.070   2.868 -1.5435 -0.2725  0.1366
 6883TIP3   OH220591   0.024   6.886   1.259  0.1655  0.0153  0.1652
 6883TIP3    H120592  -0.004   6.977   1.257  1.9770  0.6445  1.0016
 6883TIP3    H220593   0.024   6.863   1.352  0.9926 -0.3840  0.0814
 6884TIP3   OH220594   5.589   1.638   6.117  0.3346 -0.2447  0.3495
 6884TIP3    H120595   5.627   1.725   6.099 -0.3370 -0.2230 -1.1875
 6884TIP3    H220596   5.503   1.657   6.154  0.2562 -0.2509  0.1713
 6885TIP3   OH220597   8.178   2.191   5.945 -0.0686  0.2479 -1.1954
 6885TIP3    H120598   8.264   2.148   5.949 -0.8626 -1.4522 -1.3011
 6885TIP3    H220599   8.187   2.268   6.001  1.4304 -0.0576 -0.9586
 6886TIP3   OH220600   7.316   2.906   4.022  0.0672  0.5606  0.5126
 6886TIP3    H120601   7.386   2.894   3.958 -0.9967  0.7042 -0.7454
 6886TIP3    H220602   7.317   2.999   4.042 -0.9376  0.9416 -0.9930
 6887TIP3   OH220603   5.148   5.587   6.638 -0.2368  0.0214  0.1615
 6887TIP3    H120604   5.233   5.630   6.628 -0.6224  0.8717  0.4170
 6887TIP3    H220605   5.140   5.532   6.560  0.7369 -0.4200  0.3533
 6888TIP3   OH220606   5.062   5.516   0.601 -0.6744 -0.2566  0.0705
 6888TIP3    H120607   5.094   5.439   0.648 -0.1554 -0.8656 -1.2293
 6888TIP3    H220608   5.099   5.590   0.648 -0.3639 -0.8387  0.7588
 6889TIP3   OH220609   4.830   3.189   3.519 -0.2151 -0.5105 -0.8687
 6889TIP3    H120610   4.902   3.252   3.515 -1.1605  0.6189 -0.7077
 6889TIP3    H220611   4.823   3.155   3.430  0.7616 -0.9397 -0.8016
 6890TIP3   OH220612   5.472   4.818   1.981  0.2581 -0.1030  0.0563
 6890TIP3    H120613   5.522   4.894   2.011  0.3746  0.5326 -1.6186
 6890TIP3    H220614   5.469   4.760   2.057  2.3081  0.4756  0.6569
 6891TIP3   OH220615   0.853   5.262   5.520 -0.1611 -0.0119 -0.5754
 6891TIP3    H120616   0.788   5.230   5.582 -1.4605  0.7665 -1.4926
 6891TIP3    H220617   0.847   5.358   5.526  2.2818  0.1583  0.7087
 6892TIP3   OH220618   7.374   2.668   3.839 -0.5361  0.6038  0.0568
 6892TIP3    H120619   7.302   2.644   3.898 -0.4800  1.3917  0.4644
 6892TIP3    H220620   7.433   2.594   3.842 -1.2900 -0.0244 -0.2201
 6893TIP3   OH220621   7.925   4.364   2.419  0.3748 -0.1235  0.5304
 6893TIP3    H120622   7.839   4.338   2.451  0.5355 -0.2744  0.8453
 6893TIP3    H220623   7.951   4.295   2.359  0.6136 -0.4851  1.0356
 6894TIP3   OH220624   8.180   0.086   2.967  0.4732  0.7198 -0.5182
 6894TIP3    H120625   8.142   0.080   2.879  0.5257  1.7974 -0.6172
 6894TIP3    H220626   8.176   0.179   2.989 -2.0735  0.2109  1.7248
 6895TIP3   OH220627   2.183   3.055   2.881 -0.5982 -0.0699 -0.1963
 6895TIP3    H120628   2.261   3.096   2.844 -1.2663  0.7806 -0.7194
 6895TIP3    H220629   2.128   3.036   2.805 -0.4534 -1.6720  0.0621
 6896TIP3   OH220630   6.260   2.875   0.259 -0.2407  0.5468 -0.2460
 6896TIP3    H120631   6.216   2.791   0.248  0.3712  0.2267 -0.2594
 6896TIP3    H220632   6.202   2.925   0.317  0.7785 -0.9219  2.1918
 6897TIP3   OH220633   6.338   7.411   0.848 -0.1415  0.3214 -0.4920
 6897TIP3    H120634   6.340   7.470   0.772  0.3152 -0.4363 -1.0806
 6897TIP3    H220635   6.342   7.323   0.810  0.1441 -0.0650  0.4173
 6898TIP3   OH220636   6.811   2.545   6.479 -0.4786 -0.0323 -0.8903
 6898TIP3    H120637   6.793   2.589   6.396 -0.2984 -0.8980 -1.3935
 6898TIP3    H220638   6.743   2.479   6.488  0.2111 -0.7645 -0.9533
 6899TIP3   OH220639   6.935   0.029   2.797 -0.2620  0.1274  0.7376
 6899TIP3    H120640   6.964   0.065   2.714 -1.4650 -1.1322 -0.2698
 6899TIP3    H220641   7.016  -0.001   2.839  0.2705 -0.1935 -0.4658
 6900TIP3   OH220642   4.005   1.331   5.499 -0.0544 -0.6063  0.6407
 6900TIP3    H120643   4.033   1.334   5.590 -0.1087  2.3119  0.6517
 6900TIP3    H220644   4.079   1.366   5.450 -0.6772 -0.4992 -0.2478
 6901TIP3   OH220645   4.105   5.531   0.762 -0.5593  0.0909 -0.3072
 6901TIP3    H120646   4.114   5.571   0.675 -2.1384 -0.2936 -0.6800
 6901TIP3    H220647   4.158   5.451   0.757 -1.0444 -0.1952 -1.1030
 6902TIP3   OH220648   0.041   5.308   2.692 -0.5691 -0.3631 -0.4731
 6902TIP3    H120649  -0.052   5.326   2.697 -0.2258  1.2505  0.8412
 6902TIP3    H220650   0.063   5.269   2.776  0.0438 -0.2056 -0.5513
 6903TIP3   OH220651   3.240   6.782   2.336 -0.0948  0.2734  0.2326
 6903TIP3    H120652   3.250   6.822   2.422 -2.2798  0.3963  0.5033
 6903TIP3    H220653   3.147   6.760   2.331  0.5501 -2.6614 -0.8487
 6904TIP3   OH220654   5.879   1.712   6.563  0.1644 -0.1458  0.0485
 6904TIP3    H120655   5.959   1.689   6.609 -0.1078  1.1730  1.2682
 6904TIP3    H220656   5.821   1.637   6.575  0.5013 -0.2765  0.9363
 6905TIP3   OH220657   5.491   4.455   0.455 -0.1238  0.0130 -0.8388
 6905TIP3    H120658   5.399   4.445   0.479  0.1481  0.9857  0.7711
 6905TIP3    H220659   5.490   4.474   0.361 -1.7601  2.0579 -0.4768
 6906TIP3   OH220660   0.385   0.241   2.964  0.1645  0.2623  0.4280
 6906TIP3    H120661   0.329   0.230   3.041  0.8072  1.5769  1.1101
 6906TIP3    H220662   0.471   0.260   3.000  1.0476 -1.4993 -0.6014
 6907TIP3   OH220663   1.337   6.423   6.360  0.1571  0.1758  0.4304
 6907TIP3    H120664   1.249   6.394   6.383 -0.1459  0.3245 -0.4879
 6907TIP3    H220665   1.323   6.490   6.293  1.0233 -1.4703 -1.5206
 6908TIP3   OH220666   1.224   5.890   0.517 -0.0995  0.2486 -0.2875
 6908TIP3    H120667   1.264   5.852   0.439 -0.5615 -1.7893  0.3963
 6908TIP3    H220668   1.270   5.974   0.529  0.7146  0.1182 -2.1087
 6909TIP3   OH220669   7.902   4.573   1.586  0.1533  0.1893 -0.1500
 6909TIP3    H120670   7.897   4.610   1.498  0.0435 -0.3552 -0.3801
 6909TIP3    H220671   7.984   4.523   1.586  0.5398  0.8090  0.3091
 6910TIP3   OH220672   5.363   5.305   3.331  0.4567  0.0566  0.1235
 6910TIP3    H120673   5.301   5.323   3.402  0.9674  1.2875  0.2994
 6910TIP3    H220674   5.364   5.210   3.322 -0.7287 -0.0284  0.7600
 6911TIP3   OH220675   6.993   2.220   0.096 -0.2164  0.0953  0.5602
 6911TIP3    H120676   6.953   2.307   0.094 -2.6336 -0.9274  0.0087
 6911TIP3    H220677   7.046   2.216   0.016 -0.8582  0.7443  0.0878
 6912TIP3   OH220678   4.197   2.943   2.861  0.7981  0.4502  0.9008
 6912TIP3    H120679   4.194   2.944   2.956 -0.1895 -2.6108  1.0092
 6912TIP3    H220680   4.105   2.940   2.834  1.0574  1.3705 -0.1767
 6913TIP3   OH220681   3.965   2.505   0.276 -0.3475  0.0733  0.0416
 6913TIP3    H120682   3.990   2.438   0.340  0.0247  1.2071  1.1315
 6913TIP3    H220683   4.000   2.473   0.193  1.6876 -0.0968  0.9023
 6914TIP3   OH220684   3.008   0.932   6.398 -0.1531 -0.0134  0.1395
 6914TIP3    H120685   2.992   0.850   6.446 -0.2071  0.7851  1.5319
 6914TIP3    H220686   3.096   0.958   6.424 -0.6077  1.0098  0.7108
 6915TIP3   OH220687   4.694   6.452   3.644  0.4168 -0.1932  0.4956
 6915TIP3    H120688   4.618   6.441   3.701 -0.6249  2.3782 -0.2602
 6915TIP3    H220689   4.741   6.527   3.681  0.7973  0.2652 -0.8473
 6916TIP3   OH220690   6.509   2.634   1.688  0.1186  0.2423  0.2619
 6916TIP3    H120691   6.500   2.670   1.600 -0.5632  2.2067  1.0809
 6916TIP3    H220692   6.517   2.710   1.745 -2.1078 -0.8372  2.2175
 6917TIP3   OH220693   7.270   3.187   2.640 -0.0788  0.1529 -0.3071
 6917TIP3    H120694   7.192   3.186   2.695  0.7414 -0.1792  0.8976
 6917TIP3    H220695   7.256   3.115   2.578 -1.6069  1.3583 -1.4528
 6918TIP3   OH220696   1.953   2.686   6.696  0.5531  0.1269 -0.1742
 6918TIP3    H120697   1.990   2.744   6.629  1.6431 -0.1963  0.1156
 6918TIP3    H220698   2.026   2.671   6.757  0.4610 -1.9840 -0.5249
 6919TIP3   OH220699   6.786   3.576   5.292 -0.6672 -0.3623  0.0523
 6919TIP3    H120700   6.852   3.527   5.341  0.6270  0.2380 -1.0275
 6919TIP3    H220701   6.799   3.551   5.201 -0.6645  1.1679 -0.4034
 6920TIP3   OH220702   0.681   7.460   0.516  0.3234  0.0752 -0.2991
 6920TIP3    H120703   0.760   7.479   0.465  2.1279 -0.3954  2.1352
 6920TIP3    H220704   0.703   7.487   0.605 -2.3790  0.1055  0.4520
 6921TIP3   OH220705   1.255   3.921   2.373  0.0164 -0.1719  0.5037
 6921TIP3    H120706   1.242   3.884   2.286 -3.0350  2.4020 -0.3442
 6921TIP3    H220707   1.344   3.957   2.370  0.2392 -0.7499 -1.3290
 6922TIP3   OH220708   1.930   1.341   3.160 -0.0990  0.3657  0.6302
 6922TIP3    H120709   1.853   1.362   3.214 -1.9382  0.6180 -1.9327
 6922TIP3    H220710   1.977   1.424   3.152  0.3501  0.2777  1.9455
 6923TIP3   OH220711   2.464   4.275   2.266 -0.1186  0.1330  0.6663
 6923TIP3    H120712   2.498   4.350   2.315  1.3993  0.5831 -0.9563
 6923TIP3    H220713   2.376   4.263   2.299 -0.6161  2.9541  0.6739
 6924TIP3   OH220714   1.146   0.184   2.406  0.3078 -0.1748  0.1815
 6924TIP3    H120715   1.229   0.137   2.404 -0.1922 -1.0768 -0.0148
 6924TIP3    H220716   1.160   0.256   2.467  1.1573 -0.4544  0.3252
 6925TIP3   OH220717   8.163   4.537   2.852  0.0733  0.3219  0.1375
 6925TIP3    H120718   8.163   4.472   2.781 -0.3386  0.4949 -0.0258
 6925TIP3    H220719   8.190   4.487   2.929  1.3913  0.3290 -0.3044
 6926TIP3   OH220720   4.264   0.263   2.133  0.3266  0.1127  0.1294
 6926TIP3    H120721   4.190   0.201   2.140 -0.0316  0.5615  0.3593
 6926TIP3    H220722   4.335   0.210   2.097  0.0647 -0.4732  0.4430
 6927TIP3   OH220723   5.069   7.285   6.660 -0.6627  0.4347 -0.4406
 6927TIP3    H120724   4.994   7.306   6.716  1.4220 -0.6318  3.0343
 6927TIP3    H220725   5.037   7.216   6.602 -2.4807  0.3412  0.6034
 6928TIP3   OH220726   5.590   2.222   3.570 -0.0170  0.0719 -0.1550
 6928TIP3    H120727   5.638   2.199   3.489 -2.6923 -0.8354 -1.6085
 6928TIP3    H220728   5.538   2.144   3.589 -2.2577  1.5946  0.2750
 6929TIP3   OH220729   4.176   3.774   2.182  0.3707  0.6278 -0.5214
 6929TIP3    H120730   4.185   3.679   2.186  1.3949  0.7452  0.1117
 6929TIP3    H220731   4.182   3.803   2.273 -0.9848  1.2284 -0.5827
 6930TIP3   OH220732   3.215   1.432   5.805 -0.0913  0.5992  0.7682
 6930TIP3    H120733   3.307   1.457   5.792 -0.4355  0.8522 -1.5406
 6930TIP3    H220734   3.165   1.502   5.763 -1.3265  0.1715  1.4958
 6931TIP3   OH220735   7.914   5.440   4.556  0.2690 -0.2251  0.1406
 6931TIP3    H120736   7.893   5.346   4.559 -0.0109 -0.1457  1.6986
 6931TIP3    H220737   7.858   5.479   4.623 -0.2872  1.2211 -1.1270
 6932TIP3   OH220738   1.519   7.083   2.183  0.6680  0.1850 -0.1976
 6932TIP3    H120739   1.612   7.066   2.167  0.4382  0.2968 -1.7950
 6932TIP3    H220740   1.476   7.066   2.099 -0.7812  0.0579  0.5273
 6933TIP3   OH220741   7.569   0.615   4.049  0.1104 -0.2310 -0.2256
 6933TIP3    H120742   7.610   0.701   4.053 -0.6632  0.1467 -0.0882
 6933TIP3    H220743   7.568   0.583   4.139 -0.5297  0.0769 -0.1173
 6934TIP3   OH220744   6.142   0.827   0.283 -0.2161  0.6375 -0.0706
 6934TIP3    H120745   6.176   0.742   0.255  1.0699  1.2608 -0.4447
 6934TIP3    H220746   6.047   0.820   0.271 -0.3940 -1.4556  1.8287
 6935TIP3   OH220747   3.045   5.251   2.335  0.4102  0.2908 -0.4332
 6935TIP3    H120748   3.010   5.307   2.265  1.0612 -0.0268 -1.0230
 6935TIP3    H220749   2.968   5.217   2.379 -0.0309 -0.2297 -1.5764
 6936TIP3   OH220750   4.647   6.954   3.822 -0.1063 -0.2778  0.1744
 6936TIP3    H120751   4.618   6.905   3.746 -2.6678 -0.5687  1.2400
 6936TIP3    H220752   4.650   6.890   3.894  2.6837 -0.1141  0.3510
 6937TIP3   OH220753   5.581   6.843   1.370  0.0519 -0.5074 -0.1441
 6937TIP3    H120754   5.651   6.871   1.429 -1.4950 -0.4244  1.7282
 6937TIP3    H220755   5.556   6.756   1.401  0.9011 -1.6153 -2.3250
 6938TIP3   OH220756   2.207   1.384   6.048 -0.1394 -0.0507  0.6033
 6938TIP3    H120757   2.184   1.293   6.065  0.2597 -0.2604  0.0564
 6938TIP3    H220758   2.132   1.435   6.079 -0.5780 -0.6004  0.4489
 6939TIP3   OH220759   3.906   7.195   5.936 -0.1505  0.4047 -0.4375
 6939TIP3    H120760   3.930   7.114   5.891 -2.2402  0.0855 -1.0923
 6939TIP3    H220761   3.984   7.220   5.985  1.3847 -0.5813 -2.2923
 6940TIP3   OH220762   0.470   2.277   2.986 -0.3525  0.2948  0.3620
 6940TIP3    H120763   0.501   2.367   2.974  2.2856 -0.6329 -0.5075
 6940TIP3    H220764   0.545   2.230   3.024 -1.4222 -1.6942  0.1795
 6941TIP3   OH220765   0.530   0.574   3.271 -0.1133  0.7014 -0.2435
 6941TIP3    H120766   0.497   0.525   3.346 -0.6511  0.0254 -0.9149
 6941TIP3    H220767   0.456   0.578   3.210  1.0265 -0.9725 -1.8529
 6942TIP3   OH220768   3.703   6.586   6.738  0.6895 -0.4126  0.3668
 6942TIP3    H120769   3.660   6.672   6.737  1.6867  0.0986 -0.3485
 6942TIP3    H220770   3.639   6.528   6.779 -1.0510  0.1313 -1.3695
 6943TIP3   OH220771   6.284   2.309   6.124  0.4853  0.2438  0.0675
 6943TIP3    H120772   6.263   2.353   6.041 -0.2853 -1.1441 -0.5178
 6943TIP3    H220773   6.246   2.221   6.114  1.7026 -0.4565  1.2966
 6944TIP3   OH220774   3.018   0.300   2.901  0.0311  0.4505 -0.0905
 6944TIP3    H120775   3.006   0.384   2.858  1.4474  1.8918  2.1467
 6944TIP3    H220776   3.062   0.321   2.983 -2.0222 -2.1780  1.8486
 6945TIP3   OH220777   2.335   4.654   2.519 -0.5611  0.5032  1.0556
 6945TIP3    H120778   2.277   4.703   2.578 -0.8063  2.0594 -0.4220
 6945TIP3    H220779   2.319   4.691   2.433  1.7671  0.1598  0.4071
 6946TIP3   OH220780   3.943   7.600   4.795 -0.0800  0.9297  0.1751
 6946TIP3    H120781   3.994   7.604   4.876 -0.3718  2.2844  0.3127
 6946TIP3    H220782   4.002   7.632   4.727 -0.3258  1.2603  0.1139
 6947TIP3   OH220783   5.995   0.052   5.621  0.3560 -0.1539  0.1012
 6947TIP3    H120784   6.015   0.141   5.592  1.5766  0.2255  1.9414
 6947TIP3    H220785   6.081   0.012   5.634 -0.1702 -1.0671  0.8447
 6948TIP3   OH220786   5.577   5.290   2.156 -0.2582  0.2434  0.6551
 6948TIP3    H120787   5.571   5.195   2.161  2.1252 -0.1311 -1.4495
 6948TIP3    H220788   5.650   5.313   2.213  0.3115  0.5659 -0.1822
 6949TIP3   OH220789   1.563   3.585   1.905  0.0504  0.5985  0.3406
 6949TIP3    H120790   1.638   3.536   1.871 -0.1834 -0.2472  1.0092
 6949TIP3    H220791   1.524   3.626   1.828  0.9148  0.6410 -0.0770
 6950TIP3   OH220792   5.846   2.563   5.147  0.5061  0.0590  0.0756
 6950TIP3    H120793   5.885   2.476   5.156  0.9649  0.1062 -1.2580
 6950TIP3    H220794   5.788   2.556   5.072  1.7817  1.3020 -1.0761
 6951TIP3   OH220795   3.052   6.373   1.688 -0.1684 -0.2733 -0.1054
 6951TIP3    H120796   3.139   6.362   1.649  0.6114 -2.0372  1.9310
 6951TIP3    H220797   3.013   6.286   1.685 -0.4605 -0.2829  2.0147
 6952TIP3   OH220798   1.714   7.766   2.818 -0.1173 -0.4594  0.5425
 6952TIP3    H120799   1.681   7.686   2.778  1.3276 -1.3685  1.0724
 6952TIP3    H220800   1.753   7.738   2.901  2.1215  0.4345 -0.1068
 6953TIP3   OH220801   1.139   4.014   5.166 -0.2379 -0.3120 -0.4109
 6953TIP3    H120802   1.173   4.009   5.255  0.0274 -1.8842 -0.5734
 6953TIP3    H220803   1.197   4.077   5.122 -0.4033  0.5225  0.5124
 6954TIP3   OH220804   3.579   5.214   4.464 -0.3513 -0.1660  0.6245
 6954TIP3    H120805   3.556   5.139   4.519  0.4234 -2.0227 -1.4684
 6954TIP3    H220806   3.573   5.182   4.375  2.2141  1.5770 -0.2992
 6955TIP3   OH220807   4.084   4.621   0.384 -0.4961  0.3165 -0.7293
 6955TIP3    H120808   4.091   4.712   0.412 -0.9782  0.5612 -1.4018
 6955TIP3    H220809   4.070   4.625   0.290  0.7660 -0.4988 -0.9687
 6956TIP3   OH220810   0.264   2.477   5.406  0.0878  0.2771 -0.6761
 6956TIP3    H120811   0.283   2.383   5.400  0.8368  0.2405  1.4517
 6956TIP3    H220812   0.181   2.482   5.454 -0.4034  0.7069 -1.5404
 6957TIP3   OH220813   6.211   5.417   2.366  0.1257  0.1832  0.0672
 6957TIP3    H120814   6.197   5.379   2.453 -0.0922  1.1999  0.4983
 6957TIP3    H220815   6.305   5.434   2.363 -0.2279  2.9374  1.3673
 6958TIP3   OH220816   5.942   1.898   4.145 -0.1568 -0.5296 -0.0499
 6958TIP3    H120817   5.981   1.834   4.086  0.0280 -0.6116  0.1578
 6958TIP3    H220818   6.014   1.957   4.168 -0.2769 -0.3704 -0.0748
 6959TIP3   OH220819   5.970   5.802   2.983  1.1017  0.1043 -0.2141
 6959TIP3    H120820   6.014   5.867   2.929 -0.5330  0.2288 -1.4996
 6959TIP3    H220821   5.908   5.759   2.923 -0.5623  0.0173  1.4661
 6960TIP3   OH220822   6.917   2.768   1.440  0.5022  0.6767  0.4931
 6960TIP3    H120823   6.869   2.691   1.411  0.8043 -0.0575  1.8510
 6960TIP3    H220824   6.919   2.826   1.363 -3.2912  1.1646  0.5463
 6961TIP3   OH220825   5.421   7.806   1.915  0.1017  0.0925  0.6254
 6961TIP3    H120826   5.348   7.773   1.967 -0.2572  1.3862  0.9586
 6961TIP3    H220827   5.383   7.827   1.830  0.0749  0.8100  0.8135
 6962TIP3   OH220828   5.266   1.192   5.629  0.6776  0.0518  0.3861
 6962TIP3    H120829   5.241   1.181   5.720 -0.7908  1.3923  0.1701
 6962TIP3    H220830   5.253   1.105   5.590  0.4014 -0.2931  1.2345
 6963TIP3   OH220831   4.887   2.438   0.537 -0.0662  0.3852 -0.2007
 6963TIP3    H120832   4.955   2.403   0.480 -0.9833 -0.3562 -0.8576
 6963TIP3    H220833   4.886   2.532   0.519  1.1859  0.4967  0.2613
 6964TIP3   OH220834   3.408   0.115   1.927  0.0402 -0.5637  0.5068
 6964TIP3    H120835   3.491   0.083   1.894 -0.5905 -0.7203 -0.9884
 6964TIP3    H220836   3.368   0.039   1.970 -1.1093 -1.7144 -2.3551
 6965TIP3   OH220837   7.034   6.364   1.480 -0.4674  0.3479 -0.0747
 6965TIP3    H120838   6.955   6.310   1.466 -1.6619  1.5859  1.5338
 6965TIP3    H220839   7.010   6.450   1.446  1.1058  0.1922 -1.7660
 6966TIP3   OH220840   2.984   6.617   5.720 -0.4734  0.0070 -0.2024
 6966TIP3    H120841   2.994   6.623   5.625 -0.4371  0.9925 -0.1396
 6966TIP3    H220842   3.073   6.625   5.754 -0.3319 -1.5687 -0.1260
 6967TIP3   OH220843   1.646   1.577   6.593  0.1178  0.5175 -0.3624
 6967TIP3    H120844   1.642   1.607   6.503  1.2192  0.3624 -0.4755
 6967TIP3    H220845   1.681   1.651   6.642 -1.3879  0.9403  0.1182
 6968TIP3   OH220846   3.864   5.558   0.430 -0.5863 -0.2310  0.4086
 6968TIP3    H120847   3.953   5.579   0.456  0.4664 -2.8484 -0.7880
 6968TIP3    H220848   3.841   5.624   0.366  1.3419 -0.7311 -0.8699
 6969TIP3   OH220849   3.481   2.621   5.980 -0.1471  0.0238  0.1315
 6969TIP3    H120850   3.442   2.538   5.952 -0.0396 -0.3822  1.1505
 6969TIP3    H220851   3.566   2.623   5.935  0.2355 -0.8544  0.7844
 6970TIP3   OH220852   4.492   1.924   6.429  0.3527 -0.1678 -0.1990
 6970TIP3    H120853   4.566   1.983   6.421  0.5272  0.0222  2.2180
 6970TIP3    H220854   4.421   1.977   6.465 -0.9428 -0.4193 -2.1652
 6971TIP3   OH220855   7.593   5.485   4.435  0.4485 -0.0646 -0.2754
 6971TIP3    H120856   7.624   5.421   4.499  0.2136 -0.3463 -0.4363
 6971TIP3    H220857   7.498   5.474   4.435  0.3444  0.7707  0.1962
 6972TIP3   OH220858   3.066   0.652   1.610  0.3022  0.2181 -0.6345
 6972TIP3    H120859   3.025   0.613   1.532  1.4690  0.4133 -1.3616
 6972TIP3    H220860   3.031   0.741   1.612 -1.4712 -0.4525  0.3721
 6973TIP3   OH220861   0.320   2.163   5.235  0.2661  0.0066  0.2701
 6973TIP3    H120862   0.394   2.215   5.202  0.0582  1.6868  2.2605
 6973TIP3    H220863   0.246   2.190   5.180  0.2687  1.5620  0.9610
 6974TIP3   OH220864   1.460   0.198   3.275 -0.3261 -0.2255 -0.2481
 6974TIP3    H120865   1.495   0.272   3.226 -0.2525 -0.3778 -0.4282
 6974TIP3    H220866   1.366   0.217   3.284 -0.4046 -0.3524 -0.7362
 6975TIP3   OH220867   7.153   6.651   2.838 -0.1222  0.0167  0.1441
 6975TIP3    H120868   7.200   6.629   2.757  0.1192 -0.2162  0.3448
 6975TIP3    H220869   7.061   6.631   2.819 -0.0876  0.1220 -0.1300
 6976TIP3   OH220870   2.838   2.292   5.347  0.1154 -0.1374  0.2234
 6976TIP3    H120871   2.761   2.304   5.292  0.7857  0.5204 -0.5924
 6976TIP3    H220872   2.869   2.204   5.327 -0.4151 -0.4008  0.5495
 6977TIP3   OH220873   3.254   2.918   4.587 -0.0557  0.8206 -0.0712
 6977TIP3    H120874   3.263   2.878   4.500 -0.0500  0.8881 -0.1016
 6977TIP3    H220875   3.221   2.847   4.643  1.7773  0.2120  0.3224
 6978TIP3   OH220876   8.241   6.077   6.333 -0.2336  0.0733 -0.1352
 6978TIP3    H120877   8.250   5.983   6.348  1.1307  0.1047 -0.5998
 6978TIP3    H220878   8.299   6.117   6.397 -0.5014  0.5863 -0.2118
 6979TIP3   OH220879   0.079   1.938   5.638 -0.0429 -0.3375  0.2892
 6979TIP3    H120880   0.129   1.879   5.694  0.1463 -0.0421  0.4312
 6979TIP3    H220881   0.144   1.997   5.601 -0.3797  0.6089  1.1506
 6980TIP3   OH220882   7.436   7.436   1.117 -0.3908 -0.3394 -0.7885
 6980TIP3    H120883   7.502   7.436   1.048 -0.0823 -0.5171 -0.4994
 6980TIP3    H220884   7.355   7.409   1.074 -0.0191 -1.2967 -0.9062
 6981TIP3   OH220885   3.370   6.210   2.612  0.0539 -0.7280  0.5405
 6981TIP3    H120886   3.442   6.250   2.661  0.3234 -1.6173  0.8974
 6981TIP3    H220887   3.357   6.125   2.654 -0.3283 -1.1252 -0.3540
 6982TIP3   OH220888   4.319   4.362   6.599  0.2790 -0.0910 -0.2088
 6982TIP3    H120889   4.260   4.438   6.593  0.5960  0.0521 -1.7100
 6982TIP3    H220890   4.312   4.335   6.691 -2.2775 -0.2057 -0.3516
 6983TIP3   OH220891   4.609   4.384   1.124 -0.0672 -0.2242  0.2893
 6983TIP3    H120892   4.666   4.378   1.201  0.7420  0.3855 -0.2464
 6983TIP3    H220893   4.622   4.302   1.078 -0.4682 -0.5445  0.7343
 6984TIP3   OH220894   6.766   1.567   2.730  0.6555  0.2647 -0.0641
 6984TIP3    H120895   6.680   1.580   2.771 -0.6101 -1.6251 -1.8972
 6984TIP3    H220896   6.796   1.483   2.762  1.7993  0.8530  0.4571
 6985TIP3   OH220897   6.375   0.150   0.224 -0.0877  0.2410  0.0710
 6985TIP3    H120898   6.368   0.116   0.313  1.6775  0.7309  0.4316
 6985TIP3    H220899   6.293   0.198   0.210 -1.4071 -1.7616  0.5406
 6986TIP3   OH220900   8.259   1.846   6.022  0.2090 -0.4571 -0.0977
 6986TIP3    H120901   8.177   1.878   5.984  0.6124  0.8514  0.0955
 6986TIP3    H220902   8.255   1.751   6.011 -0.6703 -0.2888 -1.4348
 6987TIP3   OH220903   0.861   4.150   2.757 -0.1759  0.1251  0.1476
 6987TIP3    H120904   0.792   4.191   2.809 -0.4572  0.1721 -0.2656
 6987TIP3    H220905   0.909   4.223   2.718 -1.5503  0.0774 -1.7481
 6988TIP3   OH220906   4.008   2.421   5.983 -0.1383  0.0103  0.1483
 6988TIP3    H120907   4.066   2.392   6.053  0.1246 -0.0210 -0.0820
 6988TIP3    H220908   4.066   2.444   5.911 -0.4538 -1.4327 -0.6135
 6989TIP3   OH220909   2.447   3.177   4.317  0.0208 -0.1801  0.0649
 6989TIP3    H120910   2.354   3.198   4.329  0.2534  0.7382  0.2595
 6989TIP3    H220911   2.459   3.178   4.222 -0.1626 -0.2957  0.0383
 6990TIP3   OH220912   0.079   4.772   0.013  0.4479  0.2183 -0.6364
 6990TIP3    H120913   0.102   4.709   0.082 -0.4314 -0.5471 -1.0309
 6990TIP3    H220914   0.155   4.773  -0.045  1.0066  0.5257  0.0797
 6991TIP3   OH220915   4.905   2.468   2.871 -0.6893 -0.0963  0.4117
 6991TIP3    H120916   4.824   2.453   2.921 -0.2481 -1.5193  0.7621
 6991TIP3    H220917   4.965   2.506   2.934 -0.4249 -1.0399  0.7514
 6992TIP3   OH220918   6.856   6.389   6.761  0.0193 -0.2705 -0.0330
 6992TIP3    H120919   6.894   6.419   6.679 -1.6259  1.4282 -0.2629
 6992TIP3    H220920   6.838   6.296   6.747  0.8929 -0.2901 -1.1283
 6993TIP3   OH220921   4.714   5.551   0.163 -0.0771 -0.7390 -0.2538
 6993TIP3    H120922   4.805   5.546   0.191 -0.0965 -0.0191 -0.0636
 6993TIP3    H220923   4.697   5.644   0.149 -0.9808 -0.7930  0.3845
 6994TIP3   OH220924   8.249   5.328   5.821 -0.6989 -0.4943 -0.4612
 6994TIP3    H120925   8.340   5.354   5.829 -0.3285 -0.3103 -3.9306
 6994TIP3    H220926   8.205   5.405   5.785 -2.2389 -0.6734  0.8997
 6995TIP3   OH220927   5.612   6.578   4.425 -0.1411  0.0888 -0.3086
 6995TIP3    H120928   5.577   6.629   4.498 -2.9684 -1.8862 -0.0944
 6995TIP3    H220929   5.569   6.614   4.348 -0.9255 -0.8996 -0.3488
 6996TIP3   OH220930   7.655   1.778   3.697  0.1753 -0.4273  0.4225
 6996TIP3    H120931   7.619   1.863   3.722  1.0152  0.6162 -1.6802
 6996TIP3    H220932   7.715   1.756   3.768 -0.7581  0.2387  1.4689
 6997TIP3   OH220933   6.754   1.192   4.391  0.3666  0.3398 -0.2615
 6997TIP3    H120934   6.699   1.214   4.315  0.4446 -0.2741 -0.5040
 6997TIP3    H220935   6.820   1.261   4.393  0.0922  0.6143 -0.4768
 6998TIP3   OH220936   7.860   1.231   2.558 -0.0535 -0.0837  0.2285
 6998TIP3    H120937   7.944   1.221   2.603  1.3109 -1.8274 -2.4500
 6998TIP3    H220938   7.802   1.167   2.600  1.0904 -1.4539 -0.1917
 6999TIP3   OH220939   5.487   0.502   4.865 -0.6252  0.0743 -0.2798
 6999TIP3    H120940   5.531   0.525   4.946 -1.7960  2.1855 -0.1699
 6999TIP3    H220941   5.453   0.414   4.880  2.8962 -1.4110 -0.1693
 7000TIP3   OH220942   7.705   1.571   1.649 -0.5379 -0.5953 -0.1045
 7000TIP3    H120943   7.615   1.537   1.651 -0.5058 -0.7853 -1.2242
 7000TIP3    H220944   7.740   1.541   1.565 -0.5755  2.3709 -1.2979
 7001TIP3   OH220945   2.124   1.134   2.626  0.4578 -0.4425  0.1066
 7001TIP3    H120946   2.187   1.135   2.698  1.3498 -0.7068 -0.6508
 7001TIP3    H220947   2.168   1.085   2.556  0.0426  0.6813 -0.9879
 7002TIP3   OH220948   2.370   1.913   4.555  0.1166  0.0415 -0.1422
 7002TIP3    H120949   2.343   1.854   4.485  0.5467  2.6379 -2.7192
 7002TIP3    H220950   2.462   1.891   4.571 -0.1773 -1.0286  0.1697
 7003TIP3   OH220951   0.106   4.940   1.514 -0.8924 -0.1485 -0.3345
 7003TIP3    H120952   0.081   4.936   1.422  1.8007  0.3057 -1.1809
 7003TIP3    H220953   0.165   5.015   1.519  0.9703 -1.6052  1.2047
 7004TIP3   OH220954   4.003   0.388   5.624 -0.0837  0.3649  0.4432
 7004TIP3    H120955   3.908   0.404   5.623 -0.2375 -0.5071  0.2286
 7004TIP3    H220956   4.025   0.370   5.532  0.4941  1.6232  0.3108
 7005TIP3   OH220957   5.285   1.633   0.827 -0.4281  0.4870 -0.4362
 7005TIP3    H120958   5.196   1.628   0.864  0.1417 -0.0650  0.9154
 7005TIP3    H220959   5.285   1.571   0.755 -1.4643  1.3256 -1.1976
 7006TIP3   OH220960   4.981   2.179   4.995  0.1403 -0.4483  0.2283
 7006TIP3    H120961   4.960   2.192   5.087  0.9530 -0.4611  0.4204
 7006TIP3    H220962   4.896   2.180   4.951 -0.2621 -0.5502  0.9850
 7007TIP3   OH220963   7.291   6.227   5.752 -0.1645  0.2471  0.1202
 7007TIP3    H120964   7.373   6.237   5.703 -0.2384 -1.8632 -0.5533
 7007TIP3    H220965   7.222   6.239   5.686 -0.3000 -0.9785  0.0186
 7008TIP3   OH220966   6.366   1.461   4.893 -0.4945  0.6261 -0.7168
 7008TIP3    H120967   6.332   1.528   4.833 -0.2728  1.0069 -0.4198
 7008TIP3    H220968   6.289   1.412   4.921 -0.8563  1.7014  0.2192
 7009TIP3   OH220969   1.595   4.908   1.009 -0.4908  0.4808 -0.5206
 7009TIP3    H120970   1.505   4.902   0.976 -0.9403 -1.4579  0.9014
 7009TIP3    H220971   1.637   4.828   0.978  0.2847  0.6065  0.1780
 7010TIP3   OH220972   3.113   0.409   4.722  0.4441  0.0905 -0.5178
 7010TIP3    H120973   3.036   0.351   4.718 -0.9767  1.2762  4.0766
 7010TIP3    H220974   3.076   0.496   4.739  2.7625  0.8427  1.0512
 7011TIP3   OH220975   3.856   6.825   3.215 -0.1806 -0.2262  0.0275
 7011TIP3    H120976   3.838   6.754   3.277  0.6998  0.0923  0.6740
 7011TIP3    H220977   3.951   6.835   3.217 -0.2989  1.1370  0.1520
 7012TIP3   OH220978   0.347   5.005   6.110 -0.2222  0.2357  0.0493
 7012TIP3    H120979   0.336   4.989   6.203 -1.3918 -0.7772 -0.2446
 7012TIP3    H220980   0.388   4.926   6.076  0.3275  0.6535 -0.2942
 7013TIP3   OH220981   0.411   4.112   0.609 -0.0886  0.2577  0.1399
 7013TIP3    H120982   0.436   4.097   0.517  1.2132  0.5205  0.4319
 7013TIP3    H220983   0.448   4.038   0.656 -1.1428 -0.1138  0.4097
 7014TIP3   OH220984   5.979   0.300   3.953 -0.0600  0.3851 -0.3637
 7014TIP3    H120985   5.888   0.327   3.942 -0.2726  0.2346  0.8221
 7014TIP3    H220986   5.974   0.223   4.011  0.8691  0.9495  0.4955
 7015TIP3   OH220987   0.674   4.930   3.286  0.1627  0.3228 -0.0751
 7015TIP3    H120988   0.655   4.941   3.379 -1.5997 -1.7030 -0.1246
 7015TIP3    H220989   0.590   4.945   3.242  1.1453  2.1616 -1.4867
 7016TIP3   OH220990   6.951   7.230   2.261  0.5072 -0.4332  0.4254
 7016TIP3    H120991   6.985   7.256   2.347 -3.1564  3.0450  1.1404
 7016TIP3    H220992   6.978   7.300   2.202 -2.7583  1.0713  0.4885
 7017TIP3   OH220993   6.127   5.394   2.917  0.4308 -0.3804 -0.0162
 7017TIP3    H120994   6.039   5.365   2.940  0.7535 -1.5940 -0.2319
 7017TIP3    H220995   6.115   5.481   2.878 -0.8515 -1.2291 -1.6099
 7018TIP3   OH220996   6.671   7.071   5.821 -0.0715 -0.2947 -0.0169
 7018TIP3    H120997   6.631   7.147   5.780 -2.2577 -2.4869 -2.3114
 7018TIP3    H220998   6.749   7.106   5.865 -0.3579  3.0590 -1.8230
 7019TIP3   OH220999   0.502   6.613   1.358  0.2461  0.3481  0.0991
 7019TIP3    H121000   0.407   6.627   1.359  0.5945  3.6895  2.5401
 7019TIP3    H221001   0.527   6.620   1.266 -1.7178  0.4376 -0.4733
 7020TIP3   OH221002   6.719   3.256   6.527 -0.0238  0.5826 -0.0130
 7020TIP3    H121003   6.710   3.207   6.445 -0.5342 -0.8004  0.8422
 7020TIP3    H221004   6.647   3.319   6.526 -0.0005  0.6088 -0.6349
 7021TIP3   OH221005   2.474   1.274   3.614  0.1648  0.3464  0.3283
 7021TIP3    H121006   2.537   1.253   3.683 -0.1051 -1.2875  0.1142
 7021TIP3    H221007   2.396   1.303   3.661  0.6466  1.1871  0.6314
 7022TIP3   OH221008   6.824   5.419   6.493  0.4356 -0.4939 -0.1631
 7022TIP3    H121009   6.866   5.383   6.416  1.1206 -2.0606  0.8931
 7022TIP3    H221010   6.841   5.355   6.562  1.2160  1.5674  1.6904
 7023TIP3   OH221011   2.634   6.669   2.060  0.1485 -0.4555  0.0913
 7023TIP3    H121012   2.639   6.667   2.156 -0.0542  1.4223  0.1726
 7023TIP3    H221013   2.714   6.714   2.033  0.0075 -0.6170 -0.6021
 7024TIP3   OH221014   6.701   6.219   0.689 -0.2210 -0.1738  0.2135
 7024TIP3    H121015   6.658   6.304   0.682 -1.3273 -0.2471  4.0069
 7024TIP3    H221016   6.663   6.166   0.619 -0.8939  1.8515 -1.0320
 7025TIP3   OH221017   1.403   2.385   4.192  0.5031 -0.3040  0.1473
 7025TIP3    H121018   1.329   2.445   4.200  0.9244  0.0301  2.0328
 7025TIP3    H221019   1.477   2.441   4.169  0.6668 -0.2273  0.8151
 7026TIP3   OH221020   0.351   6.780   4.220  0.0658 -0.2122  0.1080
 7026TIP3    H121021   0.385   6.695   4.193 -0.7039 -0.4684 -0.0813
 7026TIP3    H221022   0.256   6.771   4.216 -0.0429  0.4218  0.8159
 7027TIP3   OH221023   4.622   4.313   1.905 -0.0027  0.1380  0.1287
 7027TIP3    H121024   4.566   4.389   1.892 -0.0967  0.0143 -0.2041
 7027TIP3    H221025   4.643   4.283   1.817 -0.2227 -0.4075  0.2565
 7028TIP3   OH221026   6.303   4.310   2.935  0.2364  0.3171  0.1790
 7028TIP3    H121027   6.264   4.283   3.018 -0.6853  0.6545 -0.1298
 7028TIP3    H221028   6.395   4.287   2.943 -0.2034 -1.4700  0.5404
 7029TIP3   OH221029   1.088   7.394   0.051 -0.0122  0.6873  0.5181
 7029TIP3    H121030   1.017   7.395  -0.014  1.0357  0.6897 -0.6716
 7029TIP3    H221031   1.076   7.475   0.101 -3.2275 -1.1531  3.1009
 7030TIP3   OH221032   1.792   5.895   1.244 -0.0047  0.2709  0.1712
 7030TIP3    H121033   1.874   5.926   1.281  1.4226 -0.7071 -1.9652
 7030TIP3    H221034   1.740   5.868   1.320  2.2441 -0.5083  1.5270
 7031TIP3   OH221035   1.850   6.663   6.601 -0.2353 -0.5700  0.0044
 7031TIP3    H121036   1.759   6.667   6.632 -1.1805 -0.3310 -2.5617
 7031TIP3    H221037   1.854   6.727   6.530  1.7517 -1.0787 -0.4005
 7032TIP3   OH221038   5.355   5.305   6.797  0.0420  0.1511 -0.3183
 7032TIP3    H121039   5.379   5.327   6.707  1.8565 -1.1721 -0.2274
 7032TIP3    H221040   5.290   5.370   6.822  1.2049  1.9933 -1.8104
 7033TIP3   OH221041   6.725   1.969   3.903 -0.1330  0.4427  0.2059
 7033TIP3    H121042   6.669   1.972   3.826 -0.9714  2.3387  0.8477
 7033TIP3    H221043   6.693   1.893   3.953  1.6127 -2.0092 -2.0711
 7034TIP3   OH221044   2.770   0.069   5.257 -0.4209  0.3949  0.4990
 7034TIP3    H121045   2.808   0.135   5.316 -1.1190 -0.1664  1.5969
 7034TIP3    H221046   2.805   0.092   5.171 -0.9781  2.4714  0.7640
 7035TIP3   OH221047   4.556   0.830   1.422  0.0537  0.4399 -0.0147
 7035TIP3    H121048   4.463   0.854   1.426 -0.0634 -0.0617  0.2940
 7035TIP3    H221049   4.598   0.905   1.379 -0.2956  1.2367  0.9997
 7036TIP3   OH221050   1.805   1.867   6.182 -0.1090  0.6341 -0.1219
 7036TIP3    H121051   1.849   1.881   6.266 -1.2578 -2.8613  1.2943
 7036TIP3    H221052   1.876   1.858   6.118  0.8711  1.6508  0.7909
 7037TIP3   OH221053   2.085   6.150   3.394  0.0651  0.6076  0.3083
 7037TIP3    H121054   2.070   6.081   3.329  0.1380  0.9255 -0.0516
 7037TIP3    H221055   2.180   6.166   3.391  0.1033  0.4668  0.6580
 7038TIP3   OH221056   5.133   0.830   4.481  0.0212  0.2356  0.2191
 7038TIP3    H121057   5.122   0.835   4.386  0.7133 -0.0224  0.1188
 7038TIP3    H221058   5.226   0.848   4.495  0.0937 -0.5357  0.7837
 7039TIP3   OH221059   1.015   2.218   1.212  0.0715 -0.6202 -0.3026
 7039TIP3    H121060   1.043   2.229   1.302  0.8797 -0.4564 -0.5649
 7039TIP3    H221061   1.096   2.206   1.163 -0.2012  1.1434 -1.2722
 7040TIP3   OH221062   0.979   2.354   3.113  0.1101 -0.2412  0.2514
 7040TIP3    H121063   0.998   2.404   3.034 -0.6298 -1.2739 -0.6184
 7040TIP3    H221064   1.026   2.399   3.183  0.3550  0.9988 -0.6855
 7041TIP3   OH221065   6.024   3.632   6.109 -0.3766  0.1421  0.5477
 7041TIP3    H121066   5.964   3.695   6.150 -0.1903  0.4784  0.3135
 7041TIP3    H221067   5.989   3.620   6.020 -0.7220 -0.5067  0.7643
 7042TIP3   OH221068   0.350   4.530   0.702  0.5164 -0.5591 -0.1682
 7042TIP3    H121069   0.334   4.440   0.731  2.4378 -0.8826 -0.0110
 7042TIP3    H221070   0.404   4.568   0.771  0.2545  0.5159 -0.5505
 7043TIP3   OH221071   1.143   3.017   4.431  0.4267 -0.2726 -0.2596
 7043TIP3    H121072   1.145   3.106   4.466 -3.1993 -1.2803  3.2667
 7043TIP3    H221073   1.058   3.011   4.387  1.2606 -1.6490 -1.7870
 7044TIP3   OH221074   5.022   3.164   5.403  0.1367  0.1714  0.7135
 7044TIP3    H121075   4.929   3.170   5.425  0.0740  0.1884  0.4523
 7044TIP3    H221076   5.064   3.233   5.454 -0.0908  0.6103  0.3186
 7045TIP3   OH221077   2.813   6.023   1.493 -0.0164  0.4796  0.0468
 7045TIP3    H121078   2.845   6.011   1.404 -0.6788 -0.3309 -0.0901
 7045TIP3    H221079   2.812   5.935   1.530 -0.9405  0.6477  0.4399
 7046TIP3   OH221080   2.945   4.656   4.681 -0.0216 -0.0638  0.0435
 7046TIP3    H121081   2.974   4.568   4.658  0.7795 -0.2075  1.4449
 7046TIP3    H221082   3.026   4.708   4.683 -0.0719  0.0147  1.9925
 7047TIP3   OH221083   4.690   7.515   3.345 -0.3882  0.2013  0.3703
 7047TIP3    H121084   4.757   7.453   3.317 -0.5359  0.2615 -0.1177
 7047TIP3    H221085   4.736   7.598   3.357  0.1151 -0.3312  2.5194
 7048TIP3   OH221086   4.340   1.497   5.045 -0.1818 -0.2766  0.3679
 7048TIP3    H121087   4.330   1.443   4.967 -0.7410 -1.0989  0.9841
 7048TIP3    H221088   4.343   1.587   5.013  1.9295 -0.7069 -0.7880
 7049TIP3   OH221089   6.770   3.135   1.205 -0.6934 -0.0804 -0.3453
 7049TIP3    H121090   6.726   3.141   1.290  2.5421  0.4964  1.4361
 7049TIP3    H221091   6.729   3.203   1.152 -1.1264  1.2278  1.5790
 7050TIP3   OH221092   7.464   1.954   4.435 -0.1693  0.5210  0.6554
 7050TIP3    H121093   7.479   1.962   4.341  0.1622  0.3042  0.6880
 7050TIP3    H221094   7.531   2.009   4.475 -0.2581  0.5479  0.7695
 7051TIP3   OH221095   0.460   4.205   4.428 -0.2841  0.3745  0.3552
 7051TIP3    H121096   0.486   4.280   4.481  2.0158  0.7360 -1.1300
 7051TIP3    H221097   0.535   4.146   4.432 -0.1215  0.2883 -2.1976
 7052TIP3   OH221098   2.300   5.843   2.461  0.1209 -0.2544  0.3323
 7052TIP3    H121099   2.320   5.775   2.525 -0.9564  0.8669  1.9519
 7052TIP3    H221100   2.210   5.869   2.482  1.1484  3.1128  1.2324
 7053TIP3   OH221101   3.735   6.609   5.322  0.3256 -0.0437 -0.6259
 7053TIP3    H121102   3.669   6.659   5.274 -0.1880 -0.5262 -0.4263
 7053TIP3    H221103   3.816   6.657   5.307 -0.1774  0.9377 -0.3191
 7054TIP3   OH221104   5.209   7.751   2.107 -0.0680  0.1336  0.2876
 7054TIP3    H121105   5.251   7.794   2.182  0.7313 -3.0939  1.8493
 7054TIP3    H221106   5.116   7.750   2.130  0.1414 -0.6109  1.1768
 7055TIP3   OH221107   8.074   3.476   6.283  0.3633  0.2498 -0.2480
 7055TIP3    H121108   8.030   3.536   6.343  1.9793 -0.2842  1.5729
 7055TIP3    H221109   8.048   3.389   6.312  1.6406 -0.0343  0.1242
 7056TIP3   OH221110   7.273   0.743   3.589 -0.1955  0.0186  0.2923
 7056TIP3    H121111   7.292   0.820   3.535 -0.0565  0.6236  1.1692
 7056TIP3    H221112   7.296   0.668   3.534 -0.2339  0.6069 -0.5432
 7057TIP3   OH221113   4.961   6.457   0.846 -0.2808  0.0363 -0.2171
 7057TIP3    H121114   5.007   6.447   0.929  0.0343  0.9573 -0.2681
 7057TIP3    H221115   5.009   6.400   0.785  0.9187  1.0834 -0.3060
 7058TIP3   OH221116   5.344   6.491   5.883 -0.2103  0.2988  0.0742
 7058TIP3    H121117   5.439   6.485   5.881 -0.1316  1.3752  0.1381
 7058TIP3    H221118   5.315   6.403   5.907  0.8379  0.3521  1.7321
 7059TIP3   OH221119   3.814   0.829   6.581 -0.6029  0.3301  0.0133
 7059TIP3    H121120   3.754   0.833   6.656  1.2825  0.1342  1.6061
 7059TIP3    H221121   3.826   0.736   6.565  0.5196  0.3184  0.7964
 7060TIP3   OH221122   3.694   1.924   5.626  0.2758 -0.4743  0.0922
 7060TIP3    H121123   3.694   1.984   5.701  1.8052 -0.7034  0.3144
 7060TIP3    H221124   3.680   1.981   5.550 -0.7196 -0.1632  0.4942
 7061TIP3   OH221125   2.990   2.229   5.616 -0.2926  0.2036 -0.7461
 7061TIP3    H121126   2.910   2.197   5.658  0.8703 -0.8101  0.8106
 7061TIP3    H221127   2.974   2.217   5.523 -1.5247 -1.0049 -0.4117
 7062TIP3   OH221128   4.073   4.930   0.112 -0.2661 -0.6939 -0.2744
 7062TIP3    H121129   4.097   4.989   0.184  1.5249 -0.3885 -1.0697
 7062TIP3    H221130   3.987   4.961   0.084  0.3967  1.2307 -0.3247
 7063TIP3   OH221131   3.469   4.239   1.896 -0.0787 -0.0289  0.0435
 7063TIP3    H121132   3.436   4.307   1.954  1.9568  0.0270  1.2453
 7063TIP3    H221133   3.549   4.275   1.859  1.0228 -1.6776  0.6626
 7064TIP3   OH221134   4.255   1.119   3.548 -0.2397  0.0426 -0.1228
 7064TIP3    H121135   4.319   1.190   3.556 -0.4378  0.3858 -1.3645
 7064TIP3    H221136   4.292   1.047   3.600  0.3485  0.7792  0.5007
 7065TIP3   OH221137   0.748   3.037   6.505  0.1678  0.0324 -0.5978
 7065TIP3    H121138   0.711   3.124   6.489 -0.6977  0.4512  2.8854
 7065TIP3    H221139   0.686   2.977   6.463 -0.5170  1.0030 -1.0212
 7066TIP3   OH221140   4.629   0.716   5.722  0.2241  0.5303  0.1433
 7066TIP3    H121141   4.649   0.678   5.808 -1.9037 -1.4212 -0.0914
 7066TIP3    H221142   4.609   0.807   5.740  1.2302  0.5196  1.4840
 7067TIP3   OH221143   5.279   1.880   5.400  0.2624 -0.6659 -0.0597
 7067TIP3    H121144   5.274   1.951   5.464  2.2251  0.5061 -1.1101
 7067TIP3    H221145   5.193   1.880   5.358 -0.6228 -0.6069  1.6365
 7068TIP3   OH221146   7.029   2.282   4.854 -0.0500  0.0213  0.3438
 7068TIP3    H121147   7.075   2.201   4.833 -3.3852 -1.9049 -0.1947
 7068TIP3    H221148   7.009   2.321   4.768 -3.0979 -1.5075  0.2440
 7069TIP3   OH221149   4.401   4.143   1.174  0.0705  0.2043 -0.2338
 7069TIP3    H121150   4.448   4.095   1.106  0.2574 -1.7501  1.1930
 7069TIP3    H221151   4.325   4.089   1.193 -1.1315  1.7742 -0.3044
 7070TIP3   OH221152   4.088   3.253   3.673  0.3164 -0.5789  0.2865
 7070TIP3    H121153   4.116   3.212   3.755 -3.7380 -2.4148  0.9975
 7070TIP3    H221154   3.994   3.267   3.683  0.1255  1.8714 -3.0157
 7071TIP3   OH221155   0.219   2.314   0.602  0.1707 -0.0156 -0.9971
 7071TIP3    H121156   0.239   2.225   0.575 -0.7446 -0.6081  0.2118
 7071TIP3    H221157   0.304   2.351   0.628  0.4591 -0.7582 -0.8690
 7072TIP3   OH221158   5.895   2.629   0.325 -0.0027 -0.6942  0.1756
 7072TIP3    H121159   5.852   2.682   0.393  0.3935 -1.0001  0.6709
 7072TIP3    H221160   5.870   2.671   0.243 -0.8084 -0.5507  0.4863
 7073TIP3   OH221161   7.007   1.364   3.115 -0.3234 -0.3858 -0.0992
 7073TIP3    H121162   6.982   1.453   3.140 -0.0367 -0.7860  1.7833
 7073TIP3    H221163   7.099   1.371   3.091 -0.4562 -0.0719 -0.5242
 7074TIP3   OH221164   7.890   1.532   5.323  0.0468 -0.3730 -0.3078
 7074TIP3    H121165   7.858   1.566   5.239 -0.5328 -1.3272 -0.4925
 7074TIP3    H221166   7.908   1.439   5.306  2.8780  0.0656 -0.1763
 7075TIP3   OH221167   1.576   3.940   5.199 -0.0935  0.2107 -0.4813
 7075TIP3    H121168   1.601   3.854   5.167  0.6079  0.3224 -0.2459
 7075TIP3    H221169   1.540   3.923   5.287 -0.5190  0.0946 -0.6737
 7076TIP3   OH221170   6.206   4.103  -0.002 -0.4738 -0.4740 -0.1483
 7076TIP3    H121171   6.142   4.047  -0.046 -0.6461  0.3461 -0.9610
 7076TIP3    H221172   6.155   4.150   0.064 -0.8933  0.6894 -1.2485
 7077TIP3   OH221173   2.555   7.185   4.525 -0.3368  0.6190 -0.3583
 7077TIP3    H121174   2.650   7.194   4.534 -0.4844  1.2035  0.7749
 7077TIP3    H221175   2.541   7.177   4.431  0.7633  1.4806 -0.6192
 7078TIP3   OH221176   3.595   6.208   0.600  0.0560 -0.3422  0.0075
 7078TIP3    H121177   3.521   6.197   0.540 -0.5386  1.0093  0.4644
 7078TIP3    H221178   3.618   6.118   0.626  1.5698 -1.1595 -3.6405
 7079TIP3   OH221179   5.690   0.981   0.751 -0.0767  0.4920  0.1058
 7079TIP3    H121180   5.629   1.033   0.697 -1.0278  0.0651  0.7449
 7079TIP3    H221181   5.736   1.046   0.804 -0.8063  0.7453  0.4455
 7080TIP3   OH221182   6.234   0.101   4.479 -0.4290 -0.3181 -0.1804
 7080TIP3    H121183   6.318   0.145   4.468 -0.2504 -0.9100 -1.3167
 7080TIP3    H221184   6.255   0.023   4.531 -0.3413 -0.2435 -0.1044
 7081TIP3   OH221185   6.316   6.476   5.151  0.4745  0.2712  0.0597
 7081TIP3    H121186   6.333   6.536   5.223 -0.7279 -1.0060  1.4856
 7081TIP3    H221187   6.224   6.451   5.163  0.3519 -0.2390 -1.7318
 7082TIP3   OH221188   0.945   0.277   2.242  0.0845  0.5539 -0.4794
 7082TIP3    H121189   1.017   0.244   2.296  0.6019  0.2180 -1.3461
 7082TIP3    H221190   0.966   0.369   2.228 -1.1672  1.2329  1.6314
 7083TIP3   OH221191   5.586   6.164   2.471 -0.1076  0.1366 -0.3467
 7083TIP3    H121192   5.654   6.230   2.486  2.0363 -1.4187 -2.5397
 7083TIP3    H221193   5.594   6.105   2.546  1.4889 -0.3967 -0.9026
 7084TIP3   OH221194   2.032   6.249   3.898 -0.2123  0.2215  0.4400
 7084TIP3    H121195   2.073   6.308   3.961  0.0207 -0.0009  0.4991
 7084TIP3    H221196   1.983   6.187   3.952  0.6191 -0.4402  0.4396
 7085TIP3   OH221197   0.707   1.531   3.732 -0.0777 -0.2591 -0.3926
 7085TIP3    H121198   0.640   1.559   3.795  0.5084 -1.0162  0.5990
 7085TIP3    H221199   0.698   1.436   3.728  2.7882 -0.7659  2.0313
 7086TIP3   OH221200   4.171   2.467   1.692  0.2497 -0.0835  0.0451
 7086TIP3    H121201   4.256   2.498   1.662 -0.0439  0.0168 -0.7014
 7086TIP3    H221202   4.111   2.488   1.620 -0.4986  0.3178  0.7755
 7087TIP3   OH221203   1.761   6.035   5.519 -0.0147 -0.3163 -0.2326
 7087TIP3    H121204   1.828   6.097   5.492  0.2203 -1.0123 -1.3253
 7087TIP3    H221205   1.681   6.066   5.476  0.3249 -1.3339 -1.6677
 7088TIP3   OH221206   3.526   7.255   5.745  0.0465  0.1982 -0.4981
 7088TIP3    H121207   3.521   7.238   5.839  1.8502  0.6735 -0.2851
 7088TIP3    H221208   3.537   7.350   5.738  2.4176 -0.0385 -1.0037
 7089TIP3   OH221209   7.571   5.763   4.073 -0.0829 -0.2691 -0.2966
 7089TIP3    H121210   7.477   5.746   4.069  0.3279 -2.8107 -0.6091
 7089TIP3    H221211   7.582   5.844   4.024 -2.0092 -0.2812 -0.8525
 7090TIP3   OH221212   7.248   1.609   0.857 -0.2390 -0.1607 -0.3931
 7090TIP3    H121213   7.306   1.557   0.802  1.7512  2.9046 -1.4702
 7090TIP3    H221214   7.292   1.612   0.942 -1.4704 -1.9233  0.3523
 7091TIP3   OH221215   4.895   0.557   2.186 -0.1859 -0.2567 -0.0642
 7091TIP3    H121216   4.833   0.521   2.250 -0.1788  1.3901  0.9362
 7091TIP3    H221217   4.966   0.492   2.183 -0.4359 -0.6217  1.2122
 7092TIP3   OH221218   7.191   1.044   6.381  0.1407  0.0055 -0.8442
 7092TIP3    H121219   7.164   1.083   6.464 -0.5093  0.4460 -1.2516
 7092TIP3    H221220   7.162   1.107   6.315  3.3043  1.1989 -1.2723
 7093TIP3   OH221221   1.901   5.587   0.535  0.2004  0.1121 -0.4303
 7093TIP3    H121222   1.925   5.666   0.584  3.3456 -0.6258 -0.5452
 7093TIP3    H221223   1.812   5.566   0.564 -0.3857  3.1558  0.2541
 7094TIP3   OH221224   5.655   6.290   6.565  0.3470  0.1030 -0.1851
 7094TIP3    H121225   5.631   6.362   6.507  1.1574  0.5342  0.0019
 7094TIP3    H221226   5.712   6.234   6.512 -0.1568 -0.3239 -0.2819
 7095TIP3   OH221227   2.606   2.005   1.917  0.0449 -0.1673 -0.2477
 7095TIP3    H121228   2.642   1.926   1.957  1.5784 -0.6134 -2.3665
 7095TIP3    H221229   2.657   2.077   1.954  0.4291 -0.4239 -0.2767
 7096TIP3   OH221230   0.654   2.852   6.298 -0.8353  0.3936 -0.2789
 7096TIP3    H121231   0.710   2.783   6.260 -1.2642 -0.3256  0.3596
 7096TIP3    H221232   0.670   2.929   6.243  0.9601  0.2801  0.0139
 7097TIP3   OH221233   8.041   7.261   5.778  0.3486  1.1434  1.0119
 7097TIP3    H121234   8.000   7.337   5.738 -0.0802  0.5680  0.3316
 7097TIP3    H221235   8.080   7.213   5.705  0.1986  0.4643  1.3654
 7098TIP3   OH221236   4.120   7.798   1.657 -0.2527 -0.4670 -0.2315
 7098TIP3    H121237   4.061   7.799   1.581 -1.1833  0.4751  0.4802
 7098TIP3    H221238   4.187   7.863   1.637 -1.4776  1.0768  0.4643
 7099TIP3   OH221239   4.138   7.565   1.809  0.1175  0.3085  0.6631
 7099TIP3    H121240   4.146   7.659   1.792 -2.8801  0.3993 -0.8836
 7099TIP3    H221241   4.044   7.550   1.816  0.5170 -2.5793  1.1778
 7100TIP3   OH221242   4.405   7.152   3.933 -0.1296  0.3823 -0.0792
 7100TIP3    H121243   4.399   7.238   3.891 -2.2164  0.8690  1.0944
 7100TIP3    H221244   4.481   7.111   3.891 -0.8928  1.5660 -2.9174
 7101TIP3   OH221245   3.776   5.898   3.072 -0.0753 -0.2469  0.3377
 7101TIP3    H121246   3.818   5.979   3.043  0.3841 -0.9653 -1.1137
 7101TIP3    H221247   3.784   5.900   3.167  2.9505 -0.1292  0.1880
 7102TIP3   OH221248   2.664   5.362   0.905 -0.2646 -0.0225  0.0858
 7102TIP3    H121249   2.574   5.367   0.871 -0.6695  2.6353  1.3178
 7102TIP3    H221250   2.654   5.351   0.999  0.7013  0.5435  0.2666
 7103TIP3   OH221251   2.071   1.669   3.435  0.3130  0.2120 -0.8683
 7103TIP3    H121252   2.014   1.658   3.511  2.3421  0.4068  0.7704
 7103TIP3    H221253   2.050   1.756   3.401  0.5420  0.8398  0.5357
 7104TIP3   OH221254   5.305   2.133   0.349 -0.2517 -0.1259 -0.2550
 7104TIP3    H121255   5.231   2.073   0.354  0.0828 -0.4566  1.1463
 7104TIP3    H221256   5.274   2.205   0.294 -1.6083 -0.2454  0.3136
 7105TIP3   OH221257   2.444   1.403   2.251 -0.0201 -0.2573  0.2674
 7105TIP3    H121258   2.405   1.366   2.330  2.0236  0.1381  1.5029
 7105TIP3    H221259   2.506   1.469   2.282 -0.2611  0.9939 -1.7345
 7106TIP3   OH221260   2.082   6.073   3.654  0.1469  0.0360 -0.2182
 7106TIP3    H121261   2.077   6.147   3.714 -0.3663 -0.4075  0.3007
 7106TIP3    H221262   2.085   6.112   3.567 -0.6096  0.6539  0.0263
 7107TIP3   OH221263   7.416   3.991   1.074  0.3491  0.2249 -0.0129
 7107TIP3    H121264   7.483   3.982   1.006  1.4244 -1.9803  1.2530
 7107TIP3    H221265   7.463   3.981   1.156 -1.3781 -0.3552  0.9620
 7108TIP3   OH221266   8.058   5.857   6.704  0.0440 -0.3405  0.8088
 7108TIP3    H121267   8.032   5.936   6.657  0.1404  0.7329  2.4464
 7108TIP3    H221268   8.041   5.785   6.643 -1.4824  0.7992 -0.1855
 7109TIP3   OH221269   2.618   3.801   3.742 -0.0605  0.7479  0.1658
 7109TIP3    H121270   2.659   3.822   3.658 -1.1838 -1.6835 -1.0959
 7109TIP3    H221271   2.676   3.736   3.782 -0.3999  0.6260  0.4691
 7110TIP3   OH221272   2.675   6.744   1.377 -0.0797  0.1280 -0.4488
 7110TIP3    H121273   2.652   6.653   1.397  2.1335 -0.4380 -0.1343
 7110TIP3    H221274   2.699   6.743   1.285 -1.6657  0.8018 -0.9020
 7111TIP3   OH221275   2.925   4.172   1.202  0.7821 -0.0015  0.3703
 7111TIP3    H121276   2.918   4.114   1.277  0.0400 -3.0169 -1.8326
 7111TIP3    H221277   3.007   4.148   1.159  1.5890  2.2067  0.5775
 7112TIP3   OH221278   3.965   6.881   6.267  0.6092  0.3953  0.5378
 7112TIP3    H121279   4.001   6.910   6.183  2.2792 -2.5345  0.1135
 7112TIP3    H221280   3.892   6.824   6.244 -0.7883  1.8316  1.2399
 7113TIP3   OH221281   0.428   7.352   4.165  0.3124 -0.3072 -0.4981
 7113TIP3    H121282   0.508   7.301   4.179 -0.8522 -2.0522  0.1683
 7113TIP3    H221283   0.405   7.335   4.073 -0.1263 -1.0967 -0.2497
 7114TIP3   OH221284   4.100   6.354   6.703  0.4744  0.2551  0.3098
 7114TIP3    H121285   4.010   6.367   6.732  0.3767 -0.4618  0.3380
 7114TIP3    H221286   4.133   6.282   6.756  1.0945  0.5584  0.3517
 7115TIP3   OH221287   4.055   7.006   4.089 -0.0644 -0.0039  0.2291
 7115TIP3    H121288   4.045   6.979   4.180 -2.7573  1.5055  0.4869
 7115TIP3    H221289   4.064   7.102   4.092 -1.3437  0.2047 -1.0970
 7116TIP3   OH221290   1.272   5.359   0.103 -0.0161 -0.4128 -0.2741
 7116TIP3    H121291   1.227   5.281   0.136  0.9828 -0.6793  0.5088
 7116TIP3    H221292   1.265   5.351   0.008  0.6248 -1.8328 -0.2437
 7117TIP3   OH221293   7.597   5.637   6.292 -0.2034 -0.1022 -0.0817
 7117TIP3    H121294   7.553   5.634   6.378  0.2215  0.0032  0.1383
 7117TIP3    H221295   7.690   5.636   6.313 -0.0326 -2.8983 -0.6034
 7118TIP3   OH221296   7.975   7.088   1.955 -0.4394  0.3251 -0.1775
 7118TIP3    H121297   7.919   7.143   2.009  0.3966 -0.3942  1.5163
 7118TIP3    H221298   7.921   7.013   1.932 -0.7293  0.5133 -0.1071
 7119TIP3   OH221299   5.469   0.515   6.556 -0.6126 -0.0725  0.1538
 7119TIP3    H121300   5.509   0.492   6.472 -0.1125  0.2484  0.3026
 7119TIP3    H221301   5.376   0.498   6.543 -0.5334 -0.0705 -0.4519
 7120TIP3   OH221302   5.104   0.586   6.773  0.9715  0.3282  0.0885
 7120TIP3    H121303   5.187   0.621   6.804  1.1747  0.8966 -1.0456
 7120TIP3    H221304   5.121   0.562   6.682 -0.1404  0.5893 -0.2033
 7121TIP3   OH221305   4.937   2.290   2.360 -0.5221  1.0941 -0.1755
 7121TIP3    H121306   4.917   2.357   2.426 -0.2906  1.4829 -0.4888
 7121TIP3    H221307   5.013   2.326   2.313  1.2368 -0.5122  1.2761
 7122TIP3   OH221308   6.211   2.729   5.809  0.1934 -0.0181 -0.3165
 7122TIP3    H121309   6.151   2.774   5.869 -2.8840 -2.2753 -1.4538
 7122TIP3    H221310   6.216   2.786   5.733 -0.6462  0.1416 -0.2635
 7123TIP3   OH221311   5.774   6.552   2.314 -0.8637  0.1781  0.1331
 7123TIP3    H121312   5.751   6.476   2.367 -1.3728 -0.0790 -0.4469
 7123TIP3    H221313   5.725   6.624   2.353 -1.2902 -0.0245 -0.0228
 7124TIP3   OH221314   5.392   1.407   6.729 -0.0757  0.2129 -0.0070
 7124TIP3    H121315   5.302   1.437   6.715 -0.4100 -0.4930  0.5456
 7124TIP3    H221316   5.382   1.328   6.782  0.7624 -0.8158 -1.3154
 7125TIP3   OH221317   5.568   6.531   6.453  0.1306 -0.2962  0.2180
 7125TIP3    H121318   5.488   6.494   6.417  1.3704 -1.5944 -1.3194
 7125TIP3    H221319   5.541   6.571   6.536 -2.6379  1.8549 -1.5463
 7126TIP3   OH221320   6.948   0.579   3.237  0.3662 -0.3793  0.6298
 7126TIP3    H121321   6.982   0.566   3.326  0.8340  1.3139  0.7320
 7126TIP3    H221322   6.854   0.592   3.249  0.5434  0.6910  1.0043
 7127TIP3   OH221323   3.677   4.983   1.740 -0.0567  0.2908 -0.6743
 7127TIP3    H121324   3.646   5.026   1.819  0.0971 -0.5886 -0.1225
 7127TIP3    H221325   3.725   5.051   1.693  2.6924  0.0772  1.5510
 7128TIP3   OH221326   3.004   1.483   3.317 -0.1954  0.2008  0.4211
 7128TIP3    H121327   2.965   1.480   3.230  2.0474  0.7562 -0.6640
 7128TIP3    H221328   2.942   1.534   3.369 -0.8971  1.1212 -1.2372
 7129TIP3   OH221329   3.460   5.391   4.159 -0.3694  0.0135  0.0367
 7129TIP3    H121330   3.544   5.426   4.188 -1.1569  1.3370  0.7922
 7129TIP3    H221331   3.396   5.455   4.189 -1.4908  0.0441 -2.1904
 7130TIP3   OH221332   3.865   1.173   0.542  0.3344 -0.0573 -0.3063
 7130TIP3    H121333   3.856   1.178   0.637  0.6575 -2.2724 -0.1119
 7130TIP3    H221334   3.790   1.223   0.509 -0.5342 -0.3315  1.1279
 7131TIP3   OH221335   5.179   1.401   4.684  0.0966  0.3701  0.4856
 7131TIP3    H121336   5.222   1.318   4.663  0.0010  0.7108 -1.2058
 7131TIP3    H221337   5.237   1.443   4.747 -0.0375 -1.1277  1.6607
 7132TIP3   OH221338   2.198   7.576   1.373 -0.2179  0.6192 -0.2708
 7132TIP3    H121339   2.207   7.496   1.322 -0.0194  0.2820  0.2823
 7132TIP3    H221340   2.234   7.554   1.459 -2.2455  0.6199  0.6214
 7133TIP3   OH221341   4.686   2.547   2.357 -0.0483 -0.6221  0.5359
 7133TIP3    H121342   4.727   2.580   2.436 -1.8663  0.8449  0.9351
 7133TIP3    H221343   4.701   2.615   2.291  1.4130 -1.8072 -0.4224
 7134TIP3   OH221344   7.776   0.715   0.159 -0.1166 -0.3304  0.4057
 7134TIP3    H121345   7.735   0.744   0.078 -0.4958 -0.5054  0.5358
 7134TIP3    H221346   7.738   0.771   0.227 -0.3106 -0.6440  0.5571
 7135TIP3   OH221347   3.467   2.047   2.644  0.3050  0.3983  0.3480
 7135TIP3    H121348   3.432   2.046   2.555 -1.2492  0.5376  0.9283
 7135TIP3    H221349   3.526   1.972   2.647 -1.7718 -1.3589 -0.0058
 7136TIP3   OH221350   1.023   4.583   3.154 -0.6778  0.0001 -0.1879
 7136TIP3    H121351   0.929   4.568   3.168 -0.8825  1.4818  0.1529
 7136TIP3    H221352   1.027   4.666   3.106  0.3867 -1.0739 -2.1080
 7137TIP3   OH221353   7.550   0.887   3.886  0.2858 -0.3423  0.2640
 7137TIP3    H121354   7.492   0.930   3.824 -1.0249 -2.1118  0.1731
 7137TIP3    H221355   7.512   0.904   3.971  0.2973 -0.5079  0.3040
 7138TIP3   OH221356   7.490   4.928   2.609  0.7910 -0.1834 -0.0797
 7138TIP3    H121357   7.561   4.864   2.612 -1.6703 -3.0871  1.1736
 7138TIP3    H221358   7.491   4.970   2.694 -0.0346 -1.5653  0.6503
 7139TIP3   OH221359   3.441   7.360   0.866 -0.0526  0.0268 -0.0505
 7139TIP3    H121360   3.427   7.455   0.873 -0.3387  0.0431 -0.7920
 7139TIP3    H221361   3.356   7.321   0.885  0.4415 -0.1733  1.9232
 7140TIP3   OH221362   7.525   0.777   5.986  0.0588  0.2746 -0.3526
 7140TIP3    H121363   7.501   0.840   6.054  2.6424  0.4225  0.5120
 7140TIP3    H221364   7.524   0.692   6.031  1.1877  0.2983 -0.2648
 7141TIP3   OH221365   4.434   0.598   1.120  0.0155 -0.3482 -0.3318
 7141TIP3    H121366   4.521   0.592   1.160  1.3559 -0.8249 -3.0924
 7141TIP3    H221367   4.381   0.536   1.169  0.9065  0.5889  2.0018
 7142TIP3   OH221368   0.231   0.993   4.079 -0.2936 -0.0107  0.4678
 7142TIP3    H121369   0.217   0.988   4.173 -0.6244 -1.2996  0.3736
 7142TIP3    H221370   0.324   0.974   4.066  0.1585  1.8447  0.6176
 7143TIP3   OH221371   1.274   7.652   4.323  0.2857  0.4744 -0.1449
 7143TIP3    H121372   1.284   7.738   4.364 -0.3030 -0.1068  1.2904
 7143TIP3    H221373   1.353   7.641   4.270  0.3005  1.9439 -0.4496
 7144TIP3   OH221374   0.042   3.707   3.347 -0.1437 -0.0064 -0.1161
 7144TIP3    H121375  -0.032   3.646   3.343  0.4143 -0.7476  0.4340
 7144TIP3    H221376   0.017   3.779   3.290 -1.2070 -0.3369 -0.0942
 7145TIP3   OH221377   4.868   3.362   5.216 -0.2796 -0.1351 -0.4382
 7145TIP3    H121378   4.851   3.272   5.246 -1.9051 -0.6419 -2.6410
 7145TIP3    H221379   4.789   3.410   5.241  1.4292  1.3626  2.7140
 7146TIP3   OH221380   0.906   6.314   1.698 -0.4485  0.3482 -0.1348
 7146TIP3    H121381   0.923   6.378   1.767  0.1951 -0.6793  0.6986
 7146TIP3    H221382   0.956   6.237   1.725 -2.0842 -0.8991 -0.5348
 7147TIP3   OH221383   6.272   7.486   6.559  0.1699  0.4106 -0.6695
 7147TIP3    H121384   6.275   7.392   6.577  2.7895  0.3054 -1.2460
 7147TIP3    H221385   6.265   7.526   6.645  0.9027 -0.3033 -0.2591
 7148TIP3   OH221386   6.548   3.728   4.681  0.3800  0.5817 -0.4423
 7148TIP3    H121387   6.592   3.643   4.684 -0.3381  0.2215  1.5535
 7148TIP3    H221388   6.457   3.709   4.705 -0.0866  1.7569 -1.1755
 7149TIP3   OH221389   7.517   6.066   5.855  0.1509 -0.5077  0.1205
 7149TIP3    H121390   7.449   6.105   5.910  2.1428  2.7623  0.4722
 7149TIP3    H221391   7.506   6.107   5.769 -0.4030 -2.5800 -0.8705
 7150TIP3   OH221392   8.045   3.616   1.136 -0.2632 -0.4332  0.0779
 7150TIP3    H121393   7.974   3.593   1.076  0.0259 -1.0684 -0.0233
 7150TIP3    H221394   8.124   3.613   1.082 -0.1062 -0.1041  0.2814
 7151TIP3   OH221395   7.265   0.787   2.447 -0.5225 -0.4616 -0.2369
 7151TIP3    H121396   7.192   0.768   2.387  0.5562 -2.3705 -1.0470
 7151TIP3    H221397   7.296   0.701   2.475  1.3044  0.2958  0.2285
 7152TIP3   OH221398   4.144   0.608   5.431  0.0550  0.4558  0.3024
 7152TIP3    H121399   4.166   0.692   5.392  1.9941  0.3104  0.9330
 7152TIP3    H221400   4.226   0.579   5.472 -0.1561 -2.3506 -1.0091
 7153TIP3   OH221401   2.881   2.811   2.232 -0.2884 -0.0599  0.1387
 7153TIP3    H121402   2.852   2.826   2.142  1.6428  0.5147 -0.4256
 7153TIP3    H221403   2.876   2.716   2.243 -1.5561 -0.0489 -0.1909
 7154TIP3   OH221404   6.242   2.778   4.146 -0.0332 -0.3996  0.3176
 7154TIP3    H121405   6.305   2.821   4.089  0.4644 -0.1803  1.0252
 7154TIP3    H221406   6.207   2.848   4.200 -0.7037 -0.5627  0.1084
 7155TIP3   OH221407   6.429   1.738   5.288  0.5343 -0.6909  0.1284
 7155TIP3    H121408   6.446   1.773   5.376 -1.0376 -1.4037  0.7500
 7155TIP3    H221409   6.359   1.675   5.301 -0.6218  0.1234 -1.8390
 7156TIP3   OH221410   0.344   2.943   1.928 -0.3787 -0.4436 -0.3095
 7156TIP3    H121411   0.298   3.012   1.882 -0.9070  0.0540  0.9307
 7156TIP3    H221412   0.371   2.982   2.011  1.0372 -1.1494 -0.3958
 7157TIP3   OH221413   5.233   2.702   3.266 -0.5133 -0.8770  0.2509
 7157TIP3    H121414   5.242   2.779   3.209 -0.5280 -0.0896  1.2782
 7157TIP3    H221415   5.323   2.675   3.283 -0.5044 -1.0205 -0.0205
 7158TIP3   OH221416   5.619   1.310   1.545 -0.2546  0.0666 -0.0200
 7158TIP3    H121417   5.698   1.257   1.533  0.0989  0.2997  1.1171
 7158TIP3    H221418   5.574   1.305   1.461  1.7942  1.2875 -1.2602
 7159TIP3   OH221419   5.035   0.988   0.237 -0.6020 -0.5535 -0.0986
 7159TIP3    H121420   5.017   0.940   0.156 -1.9725 -1.1435  0.5286
 7159TIP3    H221421   5.109   1.044   0.215 -2.3483  1.0209 -2.4928
 7160TIP3   OH221422   4.256   7.418   5.657  0.7827  0.1205  0.0930
 7160TIP3    H121423   4.314   7.342   5.667  0.5879 -0.2459 -1.3062
 7160TIP3    H221424   4.169   7.380   5.643  0.3518  0.6530  1.1938
 7161TIP3   OH221425   7.585   3.421   1.305  0.1779 -0.6391 -0.2527
 7161TIP3    H121426   7.672   3.434   1.342 -0.3217  2.7289 -0.0193
 7161TIP3    H221427   7.583   3.475   1.226 -1.7071 -0.6476 -0.2619
 7162TIP3   OH221428   5.739   0.677   1.217  0.3875 -0.2924 -0.1252
 7162TIP3    H121429   5.810   0.739   1.202  0.8826 -0.7357  0.3307
 7162TIP3    H221430   5.679   0.691   1.144 -0.3976  1.9173  0.8787
 7163TIP3   OH221431   5.501   6.269   1.159  0.5455 -0.0323 -0.3257
 7163TIP3    H121432   5.498   6.202   1.228  1.0319 -1.0174 -1.2353
 7163TIP3    H221433   5.534   6.223   1.082  0.0676  1.0621 -1.2140
 7164TIP3   OH221434   7.263   1.400   5.579 -0.1187 -0.6975 -0.0722
 7164TIP3    H121435   7.299   1.450   5.652  0.4687 -1.9645  0.5327
 7164TIP3    H221436   7.305   1.315   5.585  0.3861 -0.6540 -2.2663
 7165TIP3   OH221437   3.818   7.818   2.767  0.0730  0.2366 -0.6456
 7165TIP3    H121438   3.781   7.754   2.706  0.8515 -1.0651  0.2045
 7165TIP3    H221439   3.785   7.792   2.852 -0.2243  1.4646 -0.3648
 7166TIP3   OH221440   5.129   6.019   1.822 -0.3311  0.0627 -0.0007
 7166TIP3    H121441   5.063   6.087   1.835  0.1805  0.5697 -0.0345
 7166TIP3    H221442   5.094   5.943   1.870 -0.2308  0.7827  1.2700
 7167TIP3   OH221443   7.817   6.682   0.951  0.2902  0.0168 -0.1855
 7167TIP3    H121444   7.856   6.601   0.917  0.2588 -1.1129  2.2976
 7167TIP3    H221445   7.863   6.697   1.034 -1.7004  0.9450  0.8008
 7168TIP3   OH221446   0.271   4.047   2.105  0.2121 -0.1775  0.3272
 7168TIP3    H121447   0.281   3.976   2.168 -0.7487 -0.8432 -0.2486
 7168TIP3    H221448   0.278   4.127   2.158  1.1389 -0.6794  1.0058
 7169TIP3   OH221449   4.010   1.043   1.797  0.0432 -0.2281 -0.1109
 7169TIP3    H121450   4.033   0.970   1.740 -1.0142 -1.4304  0.9402
 7169TIP3    H221451   3.954   1.004   1.865  1.4169  1.0628  1.8875
 7170TIP3   OH221452   5.250   3.699   0.474 -0.0299  0.0817  0.5840
 7170TIP3    H121453   5.185   3.690   0.543 -3.1749  1.6089 -1.9472
 7170TIP3    H221454   5.234   3.624   0.416  0.6965  0.3006  0.0863
 7171TIP3   OH221455   4.848   5.752   4.351 -0.3226  0.1138  0.4639
 7171TIP3    H121456   4.783   5.716   4.411 -0.7544 -0.4140 -0.3042
 7171TIP3    H221457   4.895   5.675   4.317 -0.5362  0.3374 -0.3737
 7172TIP3   OH221458   0.085   1.069   3.230  0.0883 -0.2224 -0.2824
 7172TIP3    H121459   0.047   1.127   3.295  0.2490 -0.2761 -0.1399
 7172TIP3    H221460   0.039   1.090   3.148  0.7330  0.6950 -0.4219
 7173TIP3   OH221461   3.203   7.784   2.473 -0.3022  0.2239  0.7764
 7173TIP3    H121462   3.164   7.697   2.480 -1.4491  0.5559 -0.8443
 7173TIP3    H221463   3.295   7.768   2.454 -0.8701 -0.7473 -1.5386
 7174TIP3   OH221464   4.095   5.646   1.007 -0.1328 -0.4061 -0.1730
 7174TIP3    H121465   4.119   5.615   0.920  0.5837  1.2688 -0.6228
 7174TIP3    H221466   4.005   5.615   1.020  0.6713 -2.9834 -0.3453
 7175TIP3   OH221467   1.242   4.544   2.782  0.5209 -0.2251 -0.4551
 7175TIP3    H121468   1.231   4.620   2.725  2.6067  0.0475 -0.5816
 7175TIP3    H221469   1.249   4.470   2.722 -0.4927 -0.3992 -0.3761
 7176TIP3   OH221470   2.126   5.386   2.310  0.1675  0.0293  0.6926
 7176TIP3    H121471   2.040   5.392   2.267 -0.9398 -1.2454  2.5865
 7176TIP3    H221472   2.111   5.415   2.399  2.0774  1.1430  0.7063
 7177TIP3   OH221473   3.561   3.793   0.901 -0.4223  0.1288 -0.7104
 7177TIP3    H121474   3.610   3.875   0.903  2.0864 -1.2921  0.5049
 7177TIP3    H221475   3.599   3.743   0.828 -1.2639 -0.3499 -0.8413
 7178TIP3   OH221476   7.535   7.772   2.689 -0.1453  0.2327 -0.0696
 7178TIP3    H121477   7.590   7.824   2.631  0.0638  0.9304  0.7309
 7178TIP3    H221478   7.474   7.835   2.727 -0.2974 -0.2149  0.4428
 7179TIP3   OH221479   0.630   6.620   1.622 -0.2545  0.1477  0.5076
 7179TIP3    H121480   0.596   6.652   1.538 -0.8419  2.0414  1.4032
 7179TIP3    H221481   0.715   6.583   1.600  0.8456  3.0280 -0.6113
 7180TIP3   OH221482   5.665   6.222   3.600 -0.2797  0.7266  0.4352
 7180TIP3    H121483   5.707   6.307   3.585 -2.1086  2.0131  2.0411
 7180TIP3    H221484   5.702   6.192   3.683  0.9459 -0.4796 -0.5166
 7181TIP3   OH221485   0.228   1.928   1.347  0.3350 -0.1053 -0.4586
 7181TIP3    H121486   0.312   1.884   1.336  0.0342 -0.6513 -0.6520
 7181TIP3    H221487   0.214   1.975   1.265  1.1946  1.3200  0.1852
 7182TIP3   OH221488   1.669   2.106   1.582 -0.2541 -0.3805 -0.0022
 7182TIP3    H121489   1.706   2.137   1.499  0.2644 -1.2803 -0.1180
 7182TIP3    H221490   1.741   2.111   1.645 -0.4957 -0.2160  0.2632
 7183TIP3   OH221491   6.124   3.144   1.175  0.1270 -0.0078 -0.3768
 7183TIP3    H121492   6.087   3.206   1.111  0.3405  0.2885 -0.2177
 7183TIP3    H221493   6.133   3.196   1.255  1.1644  0.0091 -0.4913
 7184TIP3   OH221494   6.175   2.531   1.729  0.0346  0.1822 -0.2987
 7184TIP3    H121495   6.187   2.436   1.727  0.3335  0.2067  0.0970
 7184TIP3    H221496   6.207   2.561   1.643  0.0580 -0.0622 -0.3763
 7185TIP3   OH221497   8.148   5.072   1.810  0.6510  0.5250 -0.1536
 7185TIP3    H121498   8.055   5.092   1.794  0.9280  0.8701 -1.4599
 7185TIP3    H221499   8.183   5.152   1.849  1.0854  1.6565 -2.6318
 7186TIP3   OH221500   1.668   3.068   1.955  0.6085 -0.8338 -0.0180
 7186TIP3    H121501   1.676   3.148   1.903 -0.3568 -0.7345 -0.0379
 7186TIP3    H221502   1.640   3.098   2.041  2.6781 -0.9529  0.7523
 7187TIP3   OH221503   1.717   6.804   4.896 -0.0316 -0.2032 -0.2297
 7187TIP3    H121504   1.691   6.894   4.916  0.7980  0.0524 -0.2560
 7187TIP3    H221505   1.812   6.806   4.899 -0.0089 -1.0840 -0.2430
 7188TIP3   OH221506   2.653   7.025   0.852  0.1211 -0.2459 -0.1361
 7188TIP3    H121507   2.603   7.102   0.823  1.2190  0.1204 -1.1075
 7188TIP3    H221508   2.690   6.989   0.772  0.1693 -1.4087  0.4003
 7189TIP3   OH221509   4.753   0.172   2.543  0.5437 -0.2397  0.0995
 7189TIP3    H121510   4.657   0.165   2.544  0.3416  1.8610  0.1767
 7189TIP3    H221511   4.774   0.207   2.630  1.1355  1.5671 -0.7397
 7190TIP3   OH221512   3.717   6.197   6.276 -0.3510 -0.0977 -0.3777
 7190TIP3    H121513   3.776   6.128   6.307  0.4215  0.4987 -0.4968
 7190TIP3    H221514   3.631   6.171   6.308  0.2970  0.1109  1.6997
 7191TIP3   OH221515   4.944   1.922   3.064 -0.0555  0.4832  0.7121
 7191TIP3    H121516   4.978   1.942   2.977 -0.8946  0.1261  0.2905
 7191TIP3    H221517   4.905   1.835   3.055 -0.8877  0.7948  1.2260
 7192TIP3   OH221518   1.845   7.647   1.284  0.9735  0.2914  0.6770
 7192TIP3    H121519   1.858   7.656   1.189  0.2905 -0.4303  0.5071
 7192TIP3    H221520   1.888   7.565   1.307  1.9396  0.9110  1.1708
 7193TIP3   OH221521   1.085   2.204   4.911 -0.5274 -0.0958 -0.1535
 7193TIP3    H121522   1.122   2.143   4.847 -2.6415 -1.0718 -0.5237
 7193TIP3    H221523   1.022   2.151   4.960  0.1801  0.9303  1.9706
 7194TIP3   OH221524   4.455   7.271   1.775  0.2882  0.2015 -0.2196
 7194TIP3    H121525   4.521   7.243   1.838  0.7529 -1.1952 -1.2909
 7194TIP3    H221526   4.376   7.284   1.828  0.8782 -0.1668  0.7727
 7195TIP3   OH221527   7.461   6.229   4.973  0.1836  0.5236 -0.3816
 7195TIP3    H121528   7.419   6.201   5.055 -0.3576  0.2595 -0.7452
 7195TIP3    H221529   7.393   6.219   4.907  1.7452 -3.4055 -1.6882
 7196TIP3   OH221530   4.421   1.165   6.082  0.1501  0.6174 -0.0039
 7196TIP3    H121531   4.471   1.155   6.163 -1.6748  1.5983  1.3276
 7196TIP3    H221532   4.392   1.076   6.061  0.2237  0.4180  0.7092
 7197TIP3   OH221533   6.590   4.909   0.524 -0.2392  0.3447 -0.0489
 7197TIP3    H121534   6.531   4.968   0.478  0.2083  1.3733  0.6646
 7197TIP3    H221535   6.546   4.824   0.521 -0.4151  0.4770 -1.9567
 7198TIP3   OH221536   8.027   5.957   0.802 -0.3905 -0.1012 -0.2224
 7198TIP3    H121537   8.045   5.994   0.888  0.0296 -1.1941  0.1799
 7198TIP3    H221538   8.110   5.917   0.776 -0.6797 -0.2840 -0.8721
 7199TIP3   OH221539   4.606   5.836   5.810 -0.0671  0.4217 -0.1126
 7199TIP3    H121540   4.523   5.860   5.852  0.5547  2.8534 -0.1180
 7199TIP3    H221541   4.673   5.854   5.877  0.4353 -4.2950  1.0083
 7200TIP3   OH221542   7.519   2.682   6.555 -0.9162 -0.4761  0.2975
 7200TIP3    H121543   7.459   2.700   6.483 -0.5294 -2.5816 -0.6487
 7200TIP3    H221544   7.601   2.725   6.530 -0.3960 -2.2242 -1.2292
 7201TIP3   OH221545   4.938   6.492   3.843  0.3887 -0.0280 -0.2302
 7201TIP3    H121546   4.909   6.434   3.914  0.8516  0.1567  0.1161
 7201TIP3    H221547   4.943   6.579   3.883  1.8359 -0.1201 -0.1424
 7202TIP3   OH221548   4.141   4.135   3.510  0.0700 -0.3686  0.0263
 7202TIP3    H121549   4.223   4.090   3.490  0.7621  0.7314  0.3074
 7202TIP3    H221550   4.163   4.228   3.506 -0.8886 -0.0687  1.2846
 7203TIP3   OH221551   6.548   6.756   0.457  0.6671  0.4275 -0.3547
 7203TIP3    H121552   6.584   6.798   0.535 -1.0225  1.4415 -0.0526
 7203TIP3    H221553   6.580   6.809   0.384  0.6687  0.6706 -0.1790
 7204TIP3   OH221554   6.475   2.824   4.467 -0.5898  0.0607 -0.4658
 7204TIP3    H121555   6.434   2.743   4.497 -1.4456 -0.0270 -1.8096
 7204TIP3    H221556   6.530   2.851   4.540 -0.6047 -1.5113  0.1652
 7205TIP3   OH221557   6.826   2.738   6.268  0.4156  0.8147  0.1790
 7205TIP3    H121558   6.910   2.762   6.307 -0.4647  1.0265  2.0182
 7205TIP3    H221559   6.801   2.815   6.216  0.0398  1.9290  1.9260
 7206TIP3   OH221560   6.984   5.362   4.796 -0.3176 -0.0781  0.0466
 7206TIP3    H121561   6.918   5.316   4.744 -0.4354 -0.1988  0.2964
 7206TIP3    H221562   6.957   5.453   4.794 -1.9928 -0.4134  2.2364
 7207TIP3   OH221563   6.966   2.281   0.698  0.1845  0.5829 -0.4813
 7207TIP3    H121564   6.993   2.190   0.687  1.3481  0.9394 -0.8098
 7207TIP3    H221565   6.876   2.277   0.729  0.0830 -0.6674 -0.9026
 7208TIP3   OH221566   3.682   5.761   2.810  0.0013 -0.1447 -0.2075
 7208TIP3    H121567   3.734   5.760   2.890 -0.5596  1.5225  0.2094
 7208TIP3    H221568   3.743   5.786   2.741  0.0494  0.4700  0.0544
 7209TIP3   OH221569   7.539   1.429   2.911 -0.5510  0.1643  0.8595
 7209TIP3    H121570   7.587   1.412   2.830 -1.2593 -0.0845  0.4826
 7209TIP3    H221571   7.601   1.409   2.981  0.3932  1.3235  0.3883
 7210TIP3   OH221572   1.172   4.512   6.678  0.8609 -0.3357  0.4649
 7210TIP3    H121573   1.127   4.550   6.602  3.1540  0.3097 -0.6582
 7210TIP3    H221574   1.241   4.575   6.699  2.3139 -2.0437  1.0463
 7211TIP3   OH221575   0.071   2.105   4.668  0.0565  0.1345 -0.0763
 7211TIP3    H121576   0.023   2.187   4.656 -1.3222 -0.7992 -1.2580
 7211TIP3    H221577   0.025   2.062   4.740  0.4336  0.1492  0.1721
 7212TIP3   OH221578   4.386   3.124   1.080 -0.0762 -0.2455  0.3338
 7212TIP3    H121579   4.378   3.092   0.990 -0.9473  2.2154 -0.5391
 7212TIP3    H221580   4.429   3.052   1.127  0.5174 -1.5649 -2.0520
 7213TIP3   OH221581   0.855   7.525   0.020 -0.0751 -0.0645  0.0441
 7213TIP3    H121582   0.803   7.567  -0.047 -0.1636 -1.0444 -0.5253
 7213TIP3    H221583   0.792   7.501   0.088 -0.2971 -0.7480 -0.3894
 7214TIP3   OH221584   2.806   6.250   4.029  0.5351  0.1012 -0.4667
 7214TIP3    H121585   2.838   6.337   4.054  1.9664 -0.8342  1.1040
 7214TIP3    H221586   2.868   6.189   4.067 -0.6800 -1.6695 -1.1731
 7215TIP3   OH221587   1.881   4.581   1.614  0.4601  0.2328  0.1162
 7215TIP3    H121588   1.897   4.554   1.524 -0.2137  0.4247 -0.0654
 7215TIP3    H221589   1.969   4.594   1.651  0.7559 -0.3975 -0.3387
 7216TIP3   OH221590   5.425   3.388   1.102  0.8343  0.4344 -0.3938
 7216TIP3    H121591   5.362   3.459   1.094  0.4805  0.1659  0.0151
 7216TIP3    H221592   5.457   3.374   1.012 -0.6792 -0.3341 -0.8404
 7217TIP3   OH221593   5.646   2.614   1.449 -0.0381 -0.1508 -0.0061
 7217TIP3    H121594   5.703   2.540   1.467  0.5412 -0.4121 -2.6015
 7217TIP3    H221595   5.702   2.677   1.404 -1.0392  0.9733  0.2682
 7218TIP3   OH221596   3.802   6.955   4.388 -0.0204 -0.4504 -0.1896
 7218TIP3    H121597   3.781   6.931   4.478  0.0467 -0.6187 -0.2195
 7218TIP3    H221598   3.897   6.946   4.381  0.0196 -0.0876 -0.1754
 7219TIP3   OH221599   1.252   1.862   6.160  1.0228 -0.5866  0.2419
 7219TIP3    H121600   1.172   1.814   6.138  2.1709 -2.3131 -0.3140
 7219TIP3    H221601   1.257   1.857   6.256  2.0982 -3.3157  0.1163
 7220TIP3   OH221602   6.005   3.657   3.697 -0.4700 -0.3820 -0.2765
 7220TIP3    H121603   5.938   3.644   3.764  0.7911 -1.5865  0.8220
 7220TIP3    H221604   6.015   3.570   3.657  0.6952 -0.3310 -0.1323
 7221TIP3   OH221605   0.833   1.935   3.497 -0.4742  0.0587 -0.3045
 7221TIP3    H121606   0.865   1.849   3.524 -1.9178 -0.4186  0.0215
 7221TIP3    H221607   0.767   1.957   3.563 -1.4916  0.5300 -1.4367
 7222TIP3   OH221608   3.845   4.830   6.076 -0.4541 -0.7014  0.0811
 7222TIP3    H121609   3.871   4.757   6.020  0.3184 -0.7982  0.5463
 7222TIP3    H221610   3.889   4.813   6.159  2.0128  1.6721 -0.6039
 7223TIP3   OH221611   4.957   5.180   0.558 -0.2370 -0.2415 -0.1619
 7223TIP3    H121612   5.009   5.233   0.498 -0.2321 -0.1159 -0.0459
 7223TIP3    H221613   5.008   5.099   0.569  0.7152  0.5047  1.1775
 7224TIP3   OH221614   3.710   6.247   3.664  0.1843  0.7339 -0.0839
 7224TIP3    H121615   3.704   6.257   3.569 -0.3546  1.4842  0.0196
 7224TIP3    H221616   3.734   6.155   3.677  0.4935  0.6829 -0.9491
 7225TIP3   OH221617   2.147   4.957   2.132 -1.0783  0.1043  0.1201
 7225TIP3    H121618   2.175   5.045   2.157 -1.8501  0.6825 -0.9592
 7225TIP3    H221619   2.145   4.959   2.036 -0.5058 -1.2952  0.0492
 7226TIP3   OH221620   5.378   1.018   1.097  0.1247 -0.1036  0.5007
 7226TIP3    H121621   5.391   1.098   1.147  1.6372 -2.0994  3.6736
 7226TIP3    H221622   5.286   0.996   1.110 -0.3986  1.2067 -0.7046
 7227TIP3   OH221623   3.942   2.837   6.728 -0.2112 -0.4892  0.0186
 7227TIP3    H121624   3.890   2.757   6.738 -0.9976 -0.2742 -1.7962
 7227TIP3    H221625   4.033   2.807   6.727 -0.4412 -1.2133  0.5742
 7228TIP3   OH221626   3.195   2.762   0.984 -0.0185 -0.1030 -0.3434
 7228TIP3    H121627   3.188   2.733   0.893  1.0471  1.0373 -0.8310
 7228TIP3    H221628   3.165   2.853   0.982  2.0507  0.6518 -0.0292
 7229TIP3   OH221629   5.891   2.005   1.498  0.0246 -0.3550  0.1041
 7229TIP3    H121630   5.860   2.080   1.548 -0.8595 -0.6425  0.0066
 7229TIP3    H221631   5.823   1.938   1.510  0.0695 -0.6213 -1.0293
 7230TIP3   OH221632   1.911   2.436   1.211 -0.2127 -0.7399  0.1167
 7230TIP3    H121633   1.926   2.508   1.149 -0.3436 -0.9084 -0.1123
 7230TIP3    H221634   1.968   2.366   1.179  1.2289 -0.1603  1.3339
 7231TIP3   OH221635   7.720   2.590   3.883 -0.1333  0.2255 -0.3999
 7231TIP3    H121636   7.736   2.665   3.826  0.7513 -0.7578 -1.5038
 7231TIP3    H221637   7.640   2.551   3.849 -0.6621  0.7229  0.2521
 7232TIP3   OH221638   4.247   0.244   3.102  0.0605 -0.6547 -0.7708
 7232TIP3    H121639   4.241   0.331   3.062  0.3597 -0.4895 -0.4482
 7232TIP3    H221640   4.329   0.244   3.151 -0.4892 -0.7314  0.1676
 7233TIP3   OH221641   2.275   2.761   5.294  0.1103  0.6797  0.0857
 7233TIP3    H121642   2.248   2.851   5.273  0.7143  0.6305 -0.9989
 7233TIP3    H221643   2.301   2.724   5.209  0.1929 -0.4117  0.5731
 7234TIP3   OH221644   5.004   6.928   6.590 -0.0217  0.2785  0.0203
 7234TIP3    H121645   4.927   6.981   6.571 -0.6391 -0.4340  0.4885
 7234TIP3    H221646   5.029   6.954   6.679  0.2570  0.4761 -0.1140
 7235TIP3   OH221647   6.890   5.302   1.996 -0.0108 -0.0993 -0.1648
 7235TIP3    H121648   6.835   5.235   2.037 -0.3822  0.2168 -0.1387
 7235TIP3    H221649   6.830   5.353   1.942  0.4788 -0.5211 -1.1348
 7236TIP3   OH221650   1.485   7.522   3.254 -0.3643 -0.4464  0.3977
 7236TIP3    H121651   1.442   7.602   3.224  1.1352 -0.2844 -1.4880
 7236TIP3    H221652   1.428   7.451   3.223 -0.6532 -0.1704  0.2937
 7237TIP3   OH221653   7.823   3.407   2.476  0.3038  0.0718 -0.0071
 7237TIP3    H121654   7.750   3.360   2.437  0.4991  0.5869 -1.0239
 7237TIP3    H221655   7.828   3.375   2.566 -1.4890  0.3892  0.2331
 7238TIP3   OH221656   6.165   1.688   5.798 -0.1790  0.4970 -0.2494
 7238TIP3    H121657   6.070   1.689   5.809 -0.4182 -1.7348 -1.3922
 7238TIP3    H221658   6.177   1.700   5.704  0.7869  2.1844  0.0619
 7239TIP3   OH221659   0.430   1.731   5.145 -0.5895 -0.3779  0.3312
 7239TIP3    H121660   0.406   1.654   5.092 -0.2099 -0.1861 -0.1196
 7239TIP3    H221661   0.498   1.775   5.094 -1.6291  0.9130  0.0174
 7240TIP3   OH221662   2.360   5.794   4.798  0.3648 -0.0983 -0.1215
 7240TIP3    H121663   2.362   5.699   4.804  0.9767 -0.0234  1.2610
 7240TIP3    H221664   2.367   5.812   4.704 -0.2956 -1.4077 -0.4463
 7241TIP3   OH221665   5.812   6.585   5.995  0.5042 -0.0667 -0.2578
 7241TIP3    H121666   5.838   6.668   6.035 -3.2275  0.4397  1.5908
 7241TIP3    H221667   5.789   6.529   6.069 -0.2436 -1.5409 -1.5326
 7242TIP3   OH221668   4.241   1.787   6.707 -0.1538 -0.4471  0.0246
 7242TIP3    H121669   4.230   1.840   6.628 -2.1122  0.4296  0.7899
 7242TIP3    H221670   4.195   1.837   6.775 -1.7997 -2.9319  0.8811
 7243TIP3   OH221671   6.050   0.300   6.603 -1.0542  0.5037 -0.2010
 7243TIP3    H121672   6.028   0.392   6.618 -0.2597  0.6917 -0.1320
 7243TIP3    H221673   6.007   0.253   6.674 -2.2074  0.7043 -0.7352
 7244TIP3   OH221674   4.417   3.041   6.148 -0.0395 -0.1541  0.0663
 7244TIP3    H121675   4.395   3.133   6.161 -0.7583 -0.5144  1.5705
 7244TIP3    H221676   4.490   3.026   6.208  0.0132 -0.5900 -0.1077
 7245TIP3   OH221677   4.475   2.268   4.361  0.4764 -0.2687  0.5326
 7245TIP3    H121678   4.478   2.229   4.448 -1.5406  0.1133  0.8198
 7245TIP3    H221679   4.390   2.241   4.325  1.6856 -1.3380 -1.7867
 7246TIP3   OH221680   6.773   4.657   0.076 -0.5134 -0.0100  0.3356
 7246TIP3    H121681   6.829   4.591   0.036  0.6404 -0.2209  2.1576
 7246TIP3    H221682   6.787   4.736   0.024 -1.0403 -0.8690 -1.1701
 7247TIP3   OH221683   2.062   7.543   0.822 -0.1938  0.6133 -0.6153
 7247TIP3    H121684   2.064   7.459   0.776 -0.8444  0.5041 -0.4513
 7247TIP3    H221685   2.113   7.527   0.902 -1.5646 -0.0799  0.1505
 7248TIP3   OH221686   5.369   3.000   0.091  0.0833 -0.2446  0.7484
 7248TIP3    H121687   5.429   2.970   0.022  1.7298  1.8750  1.1629
 7248TIP3    H221688   5.306   3.056   0.046 -0.7045 -1.2647  0.5469
 7249TIP3   OH221689   0.114   3.480   3.046 -0.3177  0.4810  0.4183
 7249TIP3    H121690   0.098   3.432   3.126  1.8168 -0.1705  0.5283
 7249TIP3    H221691   0.179   3.546   3.070 -1.3717  1.8142 -0.2798
 7250TIP3   OH221692   7.352   2.995   6.323  0.3962  0.4381 -0.0854
 7250TIP3    H121693   7.272   3.010   6.373 -1.0818 -1.2172 -1.7867
 7250TIP3    H221694   7.376   3.081   6.290 -0.0980  1.1270  1.2664
 7251TIP3   OH221695   2.611   1.809   4.546  0.3623 -0.2605  0.0652
 7251TIP3    H121696   2.697   1.850   4.559  0.6774 -0.8930  0.0274
 7251TIP3    H221697   2.611   1.781   4.455  0.8881 -1.9663  0.5548
 7252TIP3   OH221698   3.390   0.160   3.834  0.0010 -0.0863 -0.0210
 7252TIP3    H121699   3.324   0.128   3.897  0.6762 -1.7373 -0.0999
 7252TIP3    H221700   3.459   0.094   3.837 -0.7573 -1.3013 -3.8763
 7253TIP3   OH221701   3.512   5.909   6.042 -0.0609 -0.1036 -0.2400
 7253TIP3    H121702   3.504   5.880   5.951  1.6275 -0.6989 -0.2466
 7253TIP3    H221703   3.529   6.003   6.036 -0.6779 -0.0054 -0.4956
 7254TIP3   OH221704   4.476   1.087   5.506  0.3552  0.0536  0.4689
 7254TIP3    H121705   4.528   1.038   5.441  2.2015  1.2834  0.9489
 7254TIP3    H221706   4.441   1.162   5.457 -1.1324 -0.8327  0.1188
 7255TIP3   OH221707   1.548   6.818   5.166  0.0572  0.2729 -0.0737
 7255TIP3    H121708   1.536   6.890   5.228 -1.5430 -0.0681  0.0464
 7255TIP3    H221709   1.493   6.842   5.091 -0.2892 -0.6914 -0.1390
 7256TIP3   OH221710   5.336   7.171   4.913 -0.1584  0.0285 -0.0809
 7256TIP3    H121711   5.303   7.258   4.932 -0.6036 -0.0659 -0.4199
 7256TIP3    H221712   5.310   7.154   4.822 -0.0925 -0.4622 -0.0134
 7257TIP3   OH221713   7.376   4.774   5.247 -0.0512  0.2417  0.1652
 7257TIP3    H121714   7.416   4.823   5.319  1.7639 -0.8877 -0.0333
 7257TIP3    H221715   7.434   4.788   5.173 -1.0924  0.1491 -0.6903
 7258TIP3   OH221716   2.851   6.407   1.194  0.3491  0.1925 -0.3732
 7258TIP3    H121717   2.853   6.312   1.198  0.5898  0.2102 -0.0287
 7258TIP3    H221718   2.807   6.434   1.275  3.1984  0.4774  1.1868
 7259TIP3   OH221719   1.317   7.392   4.431 -0.5115  0.4767  0.1912
 7259TIP3    H121720   1.271   7.472   4.405 -1.0569  0.7960  1.9964
 7259TIP3    H221721   1.267   7.321   4.389  0.4541  1.0590 -2.1034
 7260TIP3   OH221722   1.842   2.509   5.470 -0.2178  0.4049 -0.1256
 7260TIP3    H121723   1.860   2.424   5.430 -0.0334  0.0306  0.7480
 7260TIP3    H221724   1.912   2.520   5.535 -1.4457  0.2465  1.2710
 7261TIP3   OH221725   1.912   5.669   0.251  0.1164  0.1093 -0.0213
 7261TIP3    H121726   1.909   5.764   0.263 -0.7744 -0.0756  1.3991
 7261TIP3    H221727   1.898   5.633   0.338 -1.9992 -1.3647 -0.8987
 7262TIP3   OH221728   2.815   4.010   0.750  0.0342  0.1638 -0.6907
 7262TIP3    H121729   2.784   4.019   0.840 -1.0970 -1.2333 -0.9123
 7262TIP3    H221730   2.844   4.098   0.726 -1.4020  0.9787  0.4040
 7263TIP3   OH221731   5.506   6.687   4.643  0.4705 -0.0868  0.1408
 7263TIP3    H121732   5.447   6.754   4.677 -0.4245 -0.0041 -1.4901
 7263TIP3    H221733   5.549   6.651   4.721 -0.2131  1.2663  1.1761
 7264TIP3   OH221734   6.399   1.402   4.495  0.6568  0.5150 -0.0890
 7264TIP3    H121735   6.356   1.350   4.427  0.4061 -0.5141  0.8432
 7264TIP3    H221736   6.468   1.450   4.448  0.3299  0.0221 -1.1074
 7265TIP3   OH221737   2.319   5.399   2.839  0.2013  0.0530  0.3927
 7265TIP3    H121738   2.412   5.407   2.820 -0.2416  1.0431 -1.8192
 7265TIP3    H221739   2.296   5.310   2.812  0.3485  0.0985  0.1161
 7266TIP3   OH221740   0.693   7.109   4.130 -0.0684  0.1072 -0.2678
 7266TIP3    H121741   0.761   7.060   4.175 -2.1074 -3.5860 -0.8328
 7266TIP3    H221742   0.702   7.084   4.038 -1.4344  0.4440 -0.5236
 7267TIP3   OH221743   7.643   6.723   5.231 -0.0542 -0.3614  0.1780
 7267TIP3    H121744   7.665   6.647   5.178  2.0484  0.2498  0.0948
 7267TIP3    H221745   7.564   6.697   5.279 -1.8459 -1.0869 -2.8873
 7268TIP3   OH221746   2.475   1.159   2.734 -0.3736 -0.0616  0.1422
 7268TIP3    H121747   2.402   1.130   2.789 -1.1983  2.6770  0.6118
 7268TIP3    H221748   2.533   1.083   2.731 -1.7519 -1.3266  2.2867
 7269TIP3   OH221749   7.461   5.468   3.704  0.9784  0.1823  0.3626
 7269TIP3    H121750   7.524   5.539   3.691 -3.1070  3.7547 -3.3452
 7269TIP3    H221751   7.453   5.427   3.618 -2.4639  0.8462  0.2166
 7270TIP3   OH221752   6.336   1.534   5.945  0.2840 -0.5786  0.7577
 7270TIP3    H121753   6.289   1.451   5.952  1.0048 -1.0099  0.5539
 7270TIP3    H221754   6.277   1.591   5.895  0.7732 -1.7302 -1.2445
 7271TIP3   OH221755   6.614   1.149   2.020  0.2234 -0.3728 -0.1067
 7271TIP3    H121756   6.560   1.223   2.050  1.1556 -0.0645  0.8923
 7271TIP3    H221757   6.551   1.088   1.980 -0.7929  0.1947  0.5675
 7272TIP3   OH221758   6.126   2.114   4.513 -0.4621 -0.0746  0.4985
 7272TIP3    H121759   6.044   2.097   4.559 -0.0490 -0.1695  1.2248
 7272TIP3    H221760   6.177   2.166   4.575 -0.5189  1.2253 -0.4992
 7273TIP3   OH221761   8.100   3.655   0.602  0.0568 -0.3604  0.1111
 7273TIP3    H121762   8.096   3.579   0.660 -0.5140 -1.3456 -1.1648
 7273TIP3    H221763   8.190   3.686   0.608 -0.5269  1.1614  3.4302
 7274TIP3   OH221764   2.579   2.794   1.610  0.3801  0.2759 -0.5473
 7274TIP3    H121765   2.488   2.772   1.594  0.1386  0.7431  0.1572
 7274TIP3    H221766   2.626   2.710   1.601  0.0204  0.1920 -1.7951
 7275TIP3   OH221767   4.593   2.228   5.706 -0.1094 -0.6380  0.2864
 7275TIP3    H121768   4.648   2.161   5.665  0.1659  0.7995 -1.8789
 7275TIP3    H221769   4.512   2.227   5.655 -0.8488 -0.5813  1.4359
 7276TIP3   OH221770   2.056   0.025   2.217  0.2848  0.0513  0.3087
 7276TIP3    H121771   2.045  -0.062   2.177  0.0660 -0.6537  1.8503
 7276TIP3    H221772   1.975   0.071   2.196 -0.6653 -0.9984  1.5794
 7277TIP3   OH221773   1.123   6.929   4.797 -0.8672 -0.1015 -0.2179
 7277TIP3    H121774   1.092   6.930   4.706  0.0234  1.2688 -0.5400
 7277TIP3    H221775   1.059   6.980   4.846 -1.5586 -1.1680  0.0256
 7278TIP3   OH221776   2.392   4.068   1.980  0.5622  0.6045  0.4607
 7278TIP3    H121777   2.320   4.032   1.928  0.3152  2.2679 -0.4443
 7278TIP3    H221778   2.355   4.081   2.067  0.1492  0.2729  0.3375
 7279TIP3   OH221779   0.995   2.584   0.267  0.1282 -0.4343 -0.4078
 7279TIP3    H121780   1.018   2.557   0.178  0.8263 -1.1611 -0.0176
 7279TIP3    H221781   0.940   2.661   0.255  1.4214  0.3694 -1.4225
 7280TIP3   OH221782   2.451   0.912   4.037  0.2894  0.4447  0.0192
 7280TIP3    H121783   2.415   0.917   3.948 -0.1973 -0.4420  0.1535
 7280TIP3    H221784   2.387   0.957   4.092 -0.4136 -0.7316  0.1922
 7281TIP3   OH221785   0.895   3.077   5.380 -0.2381  0.4658 -0.5154
 7281TIP3    H121786   0.931   3.148   5.432 -0.0155  0.6139 -0.8676
 7281TIP3    H221787   0.824   3.118   5.330 -2.0909 -0.1736  1.4473
 7282TIP3   OH221788   1.228   7.224   3.864 -0.1059  0.2236  0.0796
 7282TIP3    H121789   1.314   7.183   3.863  0.1314  0.6110  1.9206
 7282TIP3    H221790   1.194   7.211   3.775  2.7630  2.0052 -1.4379
 7283TIP3   OH221791   3.647   6.230   4.834  0.2470 -0.3596  0.0961
 7283TIP3    H121792   3.736   6.199   4.849  0.9211  1.0245 -0.7480
 7283TIP3    H221793   3.645   6.255   4.742 -0.5988  0.8414  0.3979
 7284TIP3   OH221794   6.951   2.008   0.657 -0.5353  0.1719 -0.0291
 7284TIP3    H121795   6.901   1.938   0.700  1.2138  0.4578  2.7651
 7284TIP3    H221796   7.037   1.969   0.641 -0.3673  0.8914 -0.9491
 7285TIP3   OH221797   0.102   4.167   5.268  0.1609 -0.0486  0.4777
 7285TIP3    H121798   0.056   4.236   5.220 -0.6376 -0.9967 -0.1545
 7285TIP3    H221799   0.194   4.195   5.267 -0.0467  0.6622 -0.3709
 7286TIP3   OH221800   2.669   1.251   6.040  0.4465  0.0509  0.2764
 7286TIP3    H121801   2.745   1.195   6.023 -0.3203 -0.9220 -0.0576
 7286TIP3    H221802   2.631   1.216   6.120  0.0816  0.2433  0.1873
 7287TIP3   OH221803   0.636   4.064   5.294 -0.5688 -0.0237 -0.0403
 7287TIP3    H121804   0.721   4.077   5.252 -0.6220  1.6091  0.2876
 7287TIP3    H221805   0.574   4.106   5.234 -1.2184 -1.5617 -0.4853
 7288TIP3   OH221806   1.534   3.199   2.164  0.4750  0.2271 -0.5537
 7288TIP3    H121807   1.551   3.293   2.176 -0.1363  0.2333  0.4152
 7288TIP3    H221808   1.562   3.159   2.247  1.7660 -0.6140 -1.3517
 7289TIP3   OH221809   4.343   0.830   0.926 -0.3353 -0.0064 -0.2911
 7289TIP3    H121810   4.369   0.745   0.961 -1.4241 -0.9655 -1.6980
 7289TIP3    H221811   4.417   0.857   0.871  0.3233  0.3428  0.7296
 7290TIP3   OH221812   5.769   3.077   4.508 -0.3499 -0.0838  0.3963
 7290TIP3    H121813   5.857   3.072   4.545  1.0671  1.3337 -2.4344
 7290TIP3    H221814   5.743   3.169   4.518 -1.5707 -0.4872  1.2267
 7291TIP3   OH221815   2.355   5.177   4.011  0.2789 -0.0523 -0.4168
 7291TIP3    H121816   2.305   5.141   3.938  1.2720  0.8100 -1.5693
 7291TIP3    H221817   2.330   5.269   4.014 -0.7935 -0.3662  1.2561
 7292TIP3   OH221818   2.153   3.008   3.660 -0.0535 -0.1112 -0.3653
 7292TIP3    H121819   2.114   2.999   3.573 -0.0583  4.1653 -1.0271
 7292TIP3    H221820   2.244   2.980   3.649 -0.5129 -1.3026 -1.2516
 7293TIP3   OH221821   5.663   1.114   3.094 -0.7455 -0.1347  0.2015
 7293TIP3    H121822   5.598   1.173   3.056 -0.8532 -0.2715  0.1691
 7293TIP3    H221823   5.617   1.030   3.102 -1.3887  0.3931  2.5532
 7294TIP3   OH221824   5.680   5.077   0.429  0.4786 -0.2000 -0.1919
 7294TIP3    H121825   5.618   5.019   0.472  1.0840 -0.3788  0.4606
 7294TIP3    H221826   5.725   5.022   0.365  0.6217 -0.2954 -0.0075
 7295TIP3   OH221827   3.935   5.496   6.641  0.1895  0.1890  0.1901
 7295TIP3    H121828   4.026   5.475   6.664  0.6512  2.0130  0.2366
 7295TIP3    H221829   3.898   5.414   6.609  2.2170 -0.3334 -0.9746
 7296TIP3   OH221830   5.795   7.687   4.573  0.2250  0.0216  0.1978
 7296TIP3    H121831   5.768   7.767   4.616  0.9672 -0.5131  1.7606
 7296TIP3    H221832   5.874   7.660   4.621 -1.1856 -2.7543  1.1557
 7297TIP3   OH221833   4.830   1.526   6.440  0.1816  0.3645 -0.7005
 7297TIP3    H121834   4.909   1.570   6.410 -0.4131  1.6366 -0.4906
 7297TIP3    H221835   4.759   1.567   6.390 -0.5513  0.7299  0.5725
 7298TIP3   OH221836   6.300   1.729   3.308 -0.1849 -0.2233 -0.1801
 7298TIP3    H121837   6.360   1.663   3.274 -0.3633 -0.5425  0.1083
 7298TIP3    H221838   6.345   1.812   3.296  1.8510 -0.6540  3.0579
 7299TIP3   OH221839   5.376   5.467   0.958 -0.2198 -0.0822  0.0513
 7299TIP3    H121840   5.375   5.561   0.942 -0.4386 -0.1585 -0.3921
 7299TIP3    H221841   5.388   5.428   0.872 -0.8914 -0.4817  0.1262
 7300TIP3   OH221842   6.919   7.018   5.328  0.3404  0.0295 -0.3543
 7300TIP3    H121843   6.881   7.024   5.240 -2.2198  1.5239  0.7411
 7300TIP3    H221844   6.968   7.100   5.338 -1.5848  1.1444  0.4785
 7301TIP3   OH221845   4.389   1.999   1.328  0.3129 -0.2242 -0.7756
 7301TIP3    H121846   4.308   2.039   1.360 -0.3063 -1.6466 -0.4356
 7301TIP3    H221847   4.430   2.066   1.274 -0.3525  1.0444  0.2348
 7302TIP3   OH221848   0.861   4.332   0.973  0.0617 -0.2362  0.7103
 7302TIP3    H121849   0.852   4.237   0.987  0.0200 -0.2530  0.5701
 7302TIP3    H221850   0.777   4.368   1.001 -0.8688 -0.4962 -1.5304
 7303TIP3   OH221851   6.704   6.986   2.514 -0.1028 -0.4194  0.4709
 7303TIP3    H121852   6.751   6.911   2.477 -0.1908 -0.2955  0.1069
 7303TIP3    H221853   6.732   7.060   2.461  1.2524  0.1100  1.8303
 7304TIP3   OH221854   5.763   5.297   4.710 -0.1978  0.2347 -0.3489
 7304TIP3    H121855   5.845   5.250   4.692  0.3664 -0.0006  2.4674
 7304TIP3    H221856   5.696   5.245   4.666  1.0142 -0.1028 -1.9058
 7305TIP3   OH221857   7.270   6.459   4.123 -0.9327  0.1015 -0.3940
 7305TIP3    H121858   7.226   6.374   4.112  0.7174 -0.8192 -0.1733
 7305TIP3    H221859   7.216   6.505   4.188 -0.0103 -2.1920  2.2003
 7306TIP3   OH221860   4.626   0.878   0.130  0.1630  0.3927  0.3675
 7306TIP3    H121861   4.668   0.826   0.061 -2.0925 -2.4692  0.9418
 7306TIP3    H221862   4.533   0.859   0.120 -0.2449 -0.8584  4.6355
 7307TIP3   OH221863   3.532   6.585   0.922 -0.1950 -0.4483 -0.1288
 7307TIP3    H121864   3.626   6.586   0.901 -0.4454  1.2266 -1.3959
 7307TIP3    H221865   3.528   6.557   1.013  1.3720 -2.6278 -0.6535
 7308TIP3   OH221866   4.150   7.796   5.468 -0.2141 -0.2640 -1.0644
 7308TIP3    H121867   4.189   7.866   5.521 -1.4185 -0.1790 -0.2728
 7308TIP3    H221868   4.218   7.728   5.466  0.0928 -0.0158  0.0782
 7309TIP3   OH221869   0.954   0.390   6.003 -0.8466  0.3004 -0.2626
 7309TIP3    H121870   0.920   0.360   6.087  0.3869  1.8316  0.8232
 7309TIP3    H221871   1.022   0.325   5.981  0.2388  0.9640  0.9603
 7310TIP3   OH221872   0.208   7.772   2.364  0.2404 -0.0537  0.3715
 7310TIP3    H121873   0.233   7.864   2.367 -0.5774  0.2059 -0.3580
 7310TIP3    H221874   0.202   7.746   2.456 -1.3817  1.1603  0.6453
 7311TIP3   OH221875   0.074   7.681   4.987 -0.2261  0.0147 -0.1173
 7311TIP3    H121876   0.128   7.760   4.983  0.5299 -0.5182 -0.5656
 7311TIP3    H221877   0.136   7.609   4.998 -0.7949 -0.6521 -1.1269
 7312TIP3   OH221878   2.622   4.632   1.301  0.5520  0.4291  0.1584
 7312TIP3    H121879   2.705   4.607   1.343  1.5978  1.0707 -1.4116
 7312TIP3    H221880   2.633   4.603   1.210 -1.5249 -0.6894  0.2151
 7313TIP3   OH221881   2.131   6.425   6.141  0.1932  0.3220 -0.1430
 7313TIP3    H121882   2.044   6.436   6.179  0.6171  0.1265  0.9265
 7313TIP3    H221883   2.123   6.459   6.052 -0.7051  1.2912  0.2895
 7314TIP3   OH221884   0.102   5.469   3.692 -1.0626 -0.3877  0.0127
 7314TIP3    H121885   0.088   5.456   3.786 -1.1933 -1.6587 -0.1696
 7314TIP3    H221886   0.095   5.564   3.680 -0.2712 -0.1309  1.4017
 7315TIP3   OH221887   4.139   2.678   3.453  0.9609  0.0445 -0.0640
 7315TIP3    H121888   4.194   2.725   3.516  2.6008 -0.5746 -0.9809
 7315TIP3    H221889   4.099   2.748   3.401  1.1727  0.4992  0.3658
 7316TIP3   OH221890   7.446   6.682   0.127 -0.1119  0.6887  0.1391
 7316TIP3    H121891   7.498   6.630   0.188  0.3912 -0.2063 -1.0041
 7316TIP3    H221892   7.510   6.726   0.072 -0.4438 -1.3687 -2.0795
 7317TIP3   OH221893   6.745   0.363   4.455 -0.0419 -0.0451  0.0337
 7317TIP3    H121894   6.795   0.293   4.496 -2.8111 -1.4006  1.3401
 7317TIP3    H221895   6.728   0.425   4.526  1.6499  1.6105 -0.9192
 7318TIP3   OH221896   1.091   6.024   6.204 -0.0826  0.1676 -0.0728
 7318TIP3    H121897   1.028   6.082   6.162 -0.6628  0.1887  0.8088
 7318TIP3    H221898   1.176   6.054   6.172 -0.4785  0.4889 -0.8426
 7319TIP3   OH221899   0.795   4.733   1.014 -0.2769  0.0771  0.6451
 7319TIP3    H121900   0.775   4.644   1.041 -0.7573  0.8772  3.1556
 7319TIP3    H221901   0.711   4.769   0.987 -0.1430 -0.1012 -0.0290
 7320TIP3   OH221902   5.021   1.622   4.970 -0.2712 -0.5009  0.4669
 7320TIP3    H121903   5.066   1.667   4.899 -1.4045  0.9742  0.6434
 7320TIP3    H221904   5.091   1.587   5.025  0.6186 -0.8491 -0.8438
 7321TIP3   OH221905   3.880   1.613   1.204 -0.6079  1.2976  0.1729
 7321TIP3    H121906   3.817   1.633   1.273  0.3080  0.6501  1.2299
 7321TIP3    H221907   3.834   1.636   1.122 -1.8768  1.6507  0.9540
 7322TIP3   OH221908   1.488   1.841   2.889 -0.6009  0.2828  0.0572
 7322TIP3    H121909   1.443   1.816   2.969 -1.0639 -0.3917 -0.3931
 7322TIP3    H221910   1.430   1.810   2.819  0.8617 -1.2205 -0.5505
 7323TIP3   OH221911   2.998   0.759   4.265 -0.3639  0.0325 -0.1149
 7323TIP3    H121912   3.074   0.722   4.220 -1.4618 -3.4290  0.5478
 7323TIP3    H221913   2.932   0.767   4.196 -1.2843 -3.0273  0.2397
 7324TIP3   OH221914   6.943   1.400   2.452  0.5266 -0.5294 -0.4231
 7324TIP3    H121915   6.882   1.375   2.521  0.9554  0.6768  0.4424
 7324TIP3    H221916   6.968   1.318   2.411 -2.0614 -1.0346 -1.1849
 7325TIP3   OH221917   1.509   1.603   1.378 -0.3640  0.1128 -0.5224
 7325TIP3    H121918   1.482   1.695   1.378 -0.3826  0.1119 -0.9139
 7325TIP3    H221919   1.527   1.583   1.469  0.5785  0.7809 -0.5468
 7326TIP3   OH221920   1.195   0.204   5.839  0.1589  0.0152 -0.3336
 7326TIP3    H121921   1.205   0.111   5.820  0.9794 -0.1980  1.0195
 7326TIP3    H221922   1.285   0.236   5.846 -0.1104  0.5965  0.6408
 7327TIP3   OH221923   2.099   6.670   2.732 -0.1915  0.6937 -0.0376
 7327TIP3    H121924   2.181   6.709   2.764  0.0043  0.8716 -0.7269
 7327TIP3    H221925   2.127   6.593   2.682 -0.5590 -0.1763  1.0617
 7328TIP3   OH221926   6.044   2.552   5.437  0.4344 -0.5925 -0.2672
 7328TIP3    H121927   6.031   2.461   5.407  1.2740 -1.8986  2.9559
 7328TIP3    H221928   5.959   2.577   5.473  0.8429 -1.0362  1.0403
 7329TIP3   OH221929   1.096   2.527   2.287  0.9401 -0.2752  0.5036
 7329TIP3    H121930   1.040   2.560   2.357  0.4688  0.8258 -0.3483
 7329TIP3    H221931   1.036   2.511   2.214  1.5324 -0.5839  0.0760
 7330TIP3   OH221932   3.711   1.245   4.255 -0.0051 -0.5451 -0.0066
 7330TIP3    H121933   3.729   1.153   4.236 -1.3071 -0.6073 -1.0210
 7330TIP3    H221934   3.620   1.247   4.285  0.2749  0.3094  0.8496
 7331TIP3   OH221935   1.478  -0.007   3.964 -0.2983 -0.2526 -0.2927
 7331TIP3    H121936   1.463   0.078   3.922 -2.0557 -0.3342  0.0961
 7331TIP3    H221937   1.567  -0.032   3.937  0.2060  1.6395 -0.5095
 7332TIP3   OH221938   1.130   4.672   1.497  0.0623 -0.0148 -0.1810
 7332TIP3    H121939   1.041   4.642   1.476 -0.4389  0.6401  0.9287
 7332TIP3    H221940   1.176   4.593   1.525 -0.1969 -0.3412 -0.6674
 7333TIP3   OH221941   2.961   2.926   6.022  0.6141  0.2582 -0.0489
 7333TIP3    H121942   2.903   2.866   6.070  1.2374  0.6454  1.2252
 7333TIP3    H221943   3.013   2.869   5.966  0.0011 -0.2242 -0.1424
 7334TIP3   OH221944   4.659   2.428   0.868 -0.1980  0.2322 -0.2103
 7334TIP3    H121945   4.621   2.472   0.792 -0.0070 -0.5108 -0.7472
 7334TIP3    H221946   4.749   2.408   0.842  0.1395  0.7184  0.5303
 7335TIP3   OH221947   8.078   2.020   4.064  0.4202 -0.1221  0.3375
 7335TIP3    H121948   8.011   2.039   4.129  1.7648 -0.0013  1.7605
 7335TIP3    H221949   8.113   2.106   4.039 -0.7082 -0.0944 -1.2934
 7336TIP3   OH221950   6.323   6.499   0.028 -0.0038  0.4029  0.2732
 7336TIP3    H121951   6.369   6.452   0.097 -2.1026 -0.8857  0.8699
 7336TIP3    H221952   6.355   6.460  -0.053 -0.3600 -0.7805  0.6940
 7337TIP3   OH221953   0.425   7.129   5.847  0.1245  0.2195 -0.0002
 7337TIP3    H121954   0.454   7.186   5.775  2.0388  1.1822  1.4313
 7337TIP3    H221955   0.364   7.183   5.897  0.0391  0.1350 -0.0142
 7338TIP3   OH221956   6.013   5.634   1.989 -0.8372 -0.1795  0.2886
 7338TIP3    H121957   6.074   5.654   2.061 -1.0526 -1.0935  0.7432
 7338TIP3    H221958   5.961   5.714   1.978  0.2587  0.5238  0.0693
 7339TIP3   OH221959   6.682   2.539   2.683 -0.2722  0.3400  0.3846
 7339TIP3    H121960   6.729   2.620   2.701 -0.3458  0.6021 -0.5332
 7339TIP3    H221961   6.728   2.500   2.609 -0.7601 -0.0034  0.2539
 7340TIP3   OH221962   3.495   1.942   5.896 -0.3384 -0.0415  0.1128
 7340TIP3    H121963   3.497   1.909   5.986  0.9420  1.6118  0.7444
 7340TIP3    H221964   3.419   1.900   5.857 -1.5809  0.0005  2.3041
 7341TIP3   OH221965   2.635   2.054   4.892  0.1696 -0.1253 -0.2996
 7341TIP3    H121966   2.649   1.969   4.932 -0.0326  0.7498  1.7135
 7341TIP3    H221967   2.719   2.099   4.900 -0.2155  0.5086  0.3008
 7342TIP3   OH221968   8.137   6.110   0.127 -0.1882 -0.5134 -0.0767
 7342TIP3    H121969   8.134   6.089   0.033  0.4067  1.5950 -0.6236
 7342TIP3    H221970   8.189   6.191   0.132 -1.0134 -0.0437  1.9721
 7343TIP3   OH221971   4.840   3.618   1.003 -0.2620 -0.3237 -0.2571
 7343TIP3    H121972   4.911   3.567   0.963  0.6213  0.5847  0.1028
 7343TIP3    H221973   4.809   3.563   1.075 -0.5805 -1.1428 -1.0010
 7344TIP3   OH221974   5.856   1.229   6.101 -0.2166 -0.0611  0.2108
 7344TIP3    H121975   5.776   1.195   6.140 -1.3359  0.4327 -1.5149
 7344TIP3    H221976   5.876   1.168   6.030  0.4342  0.2871  0.0869
 7345TIP3   OH221977   5.767   7.342   0.746 -0.0511 -0.1628 -0.3502
 7345TIP3    H121978   5.685   7.331   0.697  0.2261  0.0801 -0.8773
 7345TIP3    H221979   5.755   7.423   0.796 -0.9021 -1.1686  1.1448
 7346TIP3   OH221980   6.403   1.318   0.349 -1.4883  0.1996 -0.0026
 7346TIP3    H121981   6.345   1.294   0.421 -1.0735 -0.2922  0.1740
 7346TIP3    H221982   6.369   1.402   0.318 -2.0938  0.0744  0.3068
 7347TIP3   OH221983   4.149   1.200   2.705  0.0369 -0.1847 -0.1090
 7347TIP3    H121984   4.160   1.113   2.668 -0.0039 -0.4008  0.3820
 7347TIP3    H221985   4.145   1.258   2.629  2.5085 -0.3097 -0.4068
 7348TIP3   OH221986   1.593   4.615   1.674  0.0999  0.5098 -0.1781
 7348TIP3    H121987   1.686   4.593   1.680 -0.1594 -1.3329 -1.7964
 7348TIP3    H221988   1.547   4.533   1.696 -1.1528  1.3476  0.4707
 7349TIP3   OH221989   4.801   6.397   4.065  0.1585  0.0834  0.2235
 7349TIP3    H121990   4.799   6.321   4.124 -0.0682 -1.1773 -1.3142
 7349TIP3    H221991   4.710   6.420   4.053  0.2064  0.3566  0.3826
 7350TIP3   OH221992   1.099   3.138   0.748  0.1584  0.3811  0.2812
 7350TIP3    H121993   1.167   3.141   0.815 -0.1140  1.9348  0.5284
 7350TIP3    H221994   1.144   3.106   0.670  1.0181  0.7675  0.6025
 7351TIP3   OH221995   7.415   0.275   5.505  0.1241  0.3213  0.1188
 7351TIP3    H121996   7.492   0.269   5.449  0.0500  0.5896 -0.0130
 7351TIP3    H221997   7.421   0.199   5.563 -0.6871 -0.9146 -1.3637
 7352TIP3   OH221998   6.196   0.877   2.262 -0.4152 -0.2220 -0.7951
 7352TIP3    H121999   6.132   0.918   2.321 -0.3352 -0.3756 -0.5980
 7352TIP3    H222000   6.243   0.950   2.223  0.6504 -0.1382  0.5746
 7353TIP3   OH222001   7.285   5.064   6.339 -0.3799 -0.6700  0.6942
 7353TIP3    H122002   7.359   5.032   6.391  0.7144  1.5553  0.6376
 7353TIP3    H222003   7.276   4.999   6.269  1.8890 -0.7642  0.3986
 7354TIP3   OH222004   1.751   6.147   5.207  0.4605  0.4710 -0.1949
 7354TIP3    H122005   1.684   6.093   5.250  0.4188  1.7954  1.5103
 7354TIP3    H222006   1.733   6.137   5.114 -0.7661 -0.9009  0.1481
 7355TIP3   OH222007   1.191   1.237   0.564 -0.0440  0.3763  0.4322
 7355TIP3    H122008   1.227   1.295   0.632 -0.7254 -0.7984  1.8427
 7355TIP3    H222009   1.143   1.170   0.612 -1.1324 -0.1242 -1.2597
 7356TIP3   OH222010   7.898   7.451   4.805 -0.0470 -0.1043 -0.2120
 7356TIP3    H122011   7.878   7.533   4.758  1.8600  0.1939 -0.5918
 7356TIP3    H222012   7.985   7.427   4.775 -0.9326 -2.8845 -0.9043
 7357TIP3   OH222013   4.635   3.760   4.192 -0.1071 -0.0477  0.0144
 7357TIP3    H122014   4.653   3.666   4.201  1.2718  0.2069  0.1077
 7357TIP3    H222015   4.574   3.779   4.263  1.6727 -0.3676  1.7075
 7358TIP3   OH222016   4.867   1.273   0.761  0.7992 -0.1953 -1.0433
 7358TIP3    H122017   4.938   1.279   0.825  0.2775 -0.1449 -0.4689
 7358TIP3    H222018   4.852   1.179   0.751 -0.7350 -0.1856  0.7241
 7359TIP3   OH222019   6.355   3.983   6.232  0.3912 -0.2850 -0.0968
 7359TIP3    H122020   6.341   4.070   6.269  0.2732 -1.1904  2.1271
 7359TIP3    H222021   6.315   3.923   6.295  1.4827 -2.0341 -0.9894
 7360TIP3   OH222022   6.587   2.952   0.518  0.2585 -0.0075  0.1418
 7360TIP3    H122023   6.521   2.986   0.458  2.0252  0.7493 -1.5034
 7360TIP3    H222024   6.573   3.000   0.600 -0.5894  0.8628 -0.4993
 7361TIP3   OH222025   5.731   0.252   0.714 -0.3288 -0.1648  0.1549
 7361TIP3    H122026   5.666   0.193   0.676 -0.3718  0.0351 -0.0881
 7361TIP3    H222027   5.781   0.197   0.774  0.1173 -0.6307 -0.6206
 7362TIP3   OH222028   7.287   7.210   4.363  0.0806 -0.2382 -0.0504
 7362TIP3    H122029   7.286   7.225   4.457 -1.7269  0.3796 -0.1316
 7362TIP3    H222030   7.293   7.115   4.353  1.8627 -0.2302  0.6323
 7363TIP3   OH222031   7.959   1.463   3.798  0.2581  0.5592 -0.0403
 7363TIP3    H122032   8.032   1.438   3.855  1.4090  0.5845 -1.4652
 7363TIP3    H222033   8.000   1.508   3.725 -1.1475  0.1177 -1.1358
 7364TIP3   OH222034   2.266   6.128   5.509  0.7468  0.4891 -0.4883
 7364TIP3    H122035   2.214   6.152   5.432  1.0635 -1.6660 -1.4433
 7364TIP3    H222036   2.204   6.082   5.566  1.0638 -0.0410 -0.5667
 7365TIP3   OH222037   0.770   2.521   4.528  0.6828 -0.2289  0.5819
 7365TIP3    H122038   0.677   2.499   4.520  0.7786 -1.5438  2.4350
 7365TIP3    H222039   0.776   2.611   4.497 -1.1024 -0.3240 -0.1444
 7366TIP3   OH222040   4.127   4.870   0.468 -0.0707 -0.2373 -0.2362
 7366TIP3    H122041   4.151   4.875   0.561 -1.2444  1.3270  0.0276
 7366TIP3    H222042   4.210   4.882   0.422  0.2149  1.6889  0.6449
 7367TIP3   OH222043   8.141   1.094   6.145 -0.4477 -0.2529  0.5019
 7367TIP3    H122044   8.170   1.158   6.080 -0.3618 -1.3517 -0.5738
 7367TIP3    H222045   8.221   1.070   6.192 -0.3511 -0.1314  0.4028
 7368TIP3   OH222046   4.184   5.022   4.341 -0.1531  0.1214 -0.3449
 7368TIP3    H122047   4.187   5.010   4.436 -0.9362  1.1255 -0.1816
 7368TIP3    H222048   4.111   4.966   4.312 -0.6515  0.6813 -0.1983
 7369TIP3   OH222049   8.309   2.474   5.488 -0.0159  0.6595  0.2487
 7369TIP3    H122050   8.234   2.518   5.448  0.5514  1.0248 -0.4663
 7369TIP3    H222051   8.272   2.418   5.555 -1.0849 -0.3849 -1.1394
 7370TIP3   OH222052   6.111   0.849   4.231 -0.2266 -0.7278 -0.3613
 7370TIP3    H122053   6.104   0.805   4.316 -0.1442 -0.0084  0.0257
 7370TIP3    H222054   6.105   0.942   4.252  3.8763 -0.2038 -0.6050
 7371TIP3   OH222055   3.733   6.719   2.971 -0.1157 -0.3735 -0.3111
 7371TIP3    H122056   3.692   6.782   2.912 -0.3805 -1.3228 -1.1728
 7371TIP3    H222057   3.805   6.767   3.011  0.0884  0.3012 -1.4326
 7372TIP3   OH222058   5.080   0.661   3.856 -0.0149  0.5272 -0.5198
 7372TIP3    H122059   5.065   0.568   3.840 -0.0223  0.4775 -0.2333
 7372TIP3    H222060   5.010   0.686   3.917  0.7934  0.3956  0.4945
 7373TIP3   OH222061   5.518   1.802   1.323  0.4116  0.3523  0.3711
 7373TIP3    H122062   5.542   1.895   1.323 -1.6695  0.9273  0.7705
 7373TIP3    H222063   5.484   1.787   1.235 -1.2615  0.5516  0.9602
 7374TIP3   OH222064   7.061   5.096   3.003  0.1184  0.3367 -1.0023
 7374TIP3    H122065   7.055   5.154   3.080  0.4623  0.1279 -0.8174
 7374TIP3    H222066   7.056   5.155   2.928  1.4099  0.7164 -0.8140
 7375TIP3   OH222067   3.804   6.388   2.408 -0.5612  0.1495 -0.3618
 7375TIP3    H122068   3.801   6.325   2.337  0.6508 -0.1988 -0.1136
 7375TIP3    H222069   3.723   6.373   2.457 -0.3385 -1.1311 -0.3700
 7376TIP3   OH222070   5.742   7.559   5.552  0.0835 -0.1915 -0.1480
 7376TIP3    H122071   5.783   7.564   5.465 -1.8376  2.5351 -1.0265
 7376TIP3    H222072   5.775   7.637   5.598  1.5017 -1.8751  1.8729
 7377TIP3   OH222073   3.313   4.146   3.142 -0.1261  0.1845  0.3356
 7377TIP3    H122074   3.359   4.112   3.066  0.0798  0.5515  0.2912
 7377TIP3    H222075   3.375   4.207   3.183 -0.3292  0.1873  0.6482
 7378TIP3   OH222076   4.531   3.580   0.442 -0.9046 -0.7422  0.1792
 7378TIP3    H122077   4.443   3.607   0.419 -1.1269 -2.2372 -0.9040
 7378TIP3    H222078   4.576   3.571   0.358  0.5061  0.6587  0.7413
 7379TIP3   OH222079   8.028   7.104   6.278  0.3650 -0.1666  0.3302
 7379TIP3    H122080   8.018   7.012   6.303 -0.0923 -0.3161 -0.3764
 7379TIP3    H222081   7.975   7.113   6.199  0.7946  0.5926  0.1238
 7380TIP3   OH222082   5.326   2.333   6.640 -0.4221 -0.4696  0.2363
 7380TIP3    H122083   5.296   2.320   6.550  0.8436 -1.2181 -0.0973
 7380TIP3    H222084   5.408   2.381   6.631  0.4612 -1.8106  0.9012
 7381TIP3   OH222085   7.534   1.178   6.397  0.1126 -0.1536  0.4057
 7381TIP3    H122086   7.446   1.202   6.367  0.4481 -0.5830 -1.0081
 7381TIP3    H222087   7.523   1.092   6.437  0.1829 -1.1584 -1.6107
 7382TIP3   OH222088   2.330   6.480   3.188 -0.0617  0.6508 -0.1239
 7382TIP3    H122089   2.329   6.532   3.269  0.2531  0.5945 -0.0813
 7382TIP3    H222090   2.384   6.532   3.128 -0.2581  0.6705 -0.2825
 7383TIP3   OH222091   0.732   7.594   6.148 -0.2120 -0.6863  0.1114
 7383TIP3    H122092   0.729   7.549   6.232  0.3732 -1.1395 -0.0985
 7383TIP3    H222093   0.792   7.541   6.095  1.6014  1.0587  0.2870
 7384TIP3   OH222094   5.733   7.379   2.308  0.3282 -0.0633 -0.4449
 7384TIP3    H122095   5.824   7.355   2.296 -0.1413 -2.3726  0.1226
 7384TIP3    H222096   5.698   7.313   2.368 -1.5797  1.0769 -0.2011
 7385TIP3   OH222097   4.184   5.160   3.723  0.5483 -0.2249 -0.1493
 7385TIP3    H122098   4.278   5.161   3.701  0.6917  0.9648  0.4319
 7385TIP3    H222099   4.164   5.251   3.743 -0.9887 -0.2926 -1.2470
 7386TIP3   OH222100   0.997   3.804   0.236  0.2715 -0.0726  0.5469
 7386TIP3    H122101   0.925   3.758   0.192  0.5439 -0.9981  1.0328
 7386TIP3    H222102   1.010   3.883   0.185  1.5279 -1.7563 -1.9266
 7387TIP3   OH222103   8.029   3.664   6.690  0.6142 -0.2057 -0.2875
 7387TIP3    H122104   8.011   3.744   6.739  0.7330  1.1190 -2.2600
 7387TIP3    H222105   8.074   3.606   6.752 -0.4996  0.7848  1.5200
 7388TIP3   OH222106   0.937   7.030   1.220 -0.1288 -0.0072  0.2463
 7388TIP3    H122107   0.936   7.039   1.125 -2.0918  1.2932  0.3219
 7388TIP3    H222108   1.029   7.034   1.244  0.3423  0.5763 -1.5267
 7389TIP3   OH222109   0.433   0.857   5.599  0.0380 -0.0513 -0.0184
 7389TIP3    H122110   0.444   0.952   5.611  2.3190 -0.4712  2.0300
 7389TIP3    H222111   0.369   0.831   5.665  0.7635 -0.1356  0.6779
 7390TIP3   OH222112   7.985   6.159   6.205  0.4739 -0.5099  0.3516
 7390TIP3    H122113   8.000   6.240   6.155  1.4505 -1.3823 -0.8429
 7390TIP3    H222114   8.071   6.139   6.243 -0.2290  0.0823  2.3731
 7391TIP3   OH222115   2.282   4.012   5.827  0.1702 -0.5200  0.6369
 7391TIP3    H122116   2.310   3.967   5.747 -1.2093  0.3725 -0.3769
 7391TIP3    H222117   2.333   3.970   5.896  0.3804 -2.2741 -0.5155
 7392TIP3   OH222118   5.672   4.406   4.525 -0.0635 -0.2263 -0.5759
 7392TIP3    H122119   5.596   4.444   4.567 -0.6649 -1.0658 -0.8734
 7392TIP3    H222120   5.645   4.317   4.501  0.2910  0.1550 -2.5888
 7393TIP3   OH222121   0.976   3.456   4.931  0.0888  0.4385 -0.6841
 7393TIP3    H122122   1.029   3.473   5.008 -0.4878 -0.8554  0.0360
 7393TIP3    H222123   0.886   3.470   4.960 -0.3127 -2.1211 -0.4379
 7394TIP3   OH222124   2.553   6.759   0.735 -0.5480 -0.4585  0.4348
 7394TIP3    H122125   2.596   6.721   0.658 -0.1501  0.5499  0.1480
 7394TIP3    H222126   2.625   6.789   0.790 -0.8616  0.0065  0.5929
 7395TIP3   OH222127   6.284   4.536   0.114  0.1227  0.0285  0.4402
 7395TIP3    H122128   6.219   4.587   0.163 -0.2884 -0.0088 -0.0557
 7395TIP3    H222129   6.231   4.478   0.059  0.5747  0.1861 -0.1632
 7396TIP3   OH222130   3.095   0.801   5.376  0.2966 -0.1954 -0.4318
 7396TIP3    H122131   3.117   0.885   5.336 -0.3127 -0.7677 -2.0168
 7396TIP3    H222132   2.999   0.797   5.374  0.3220 -0.9526 -0.4121
 7397TIP3   OH222133   7.547   5.112   3.928  0.3414  0.4495  0.2282
 7397TIP3    H122134   7.457   5.106   3.961 -0.4118  0.7577 -1.6477
 7397TIP3    H222135   7.596   5.051   3.982 -1.6370 -2.1613 -0.7147
 7398TIP3   OH222136   6.983   0.860   4.127 -0.0097 -0.0310 -0.1333
 7398TIP3    H122137   7.019   0.909   4.201 -1.2063  1.6546 -0.6099
 7398TIP3    H222138   7.032   0.892   4.051 -0.2084 -0.2366 -0.3498
 7399TIP3   OH222139   3.180   1.216   0.089 -0.9460  0.5134 -0.5336
 7399TIP3    H122140   3.174   1.297   0.038 -0.9216  0.2956 -0.8849
 7399TIP3    H222141   3.104   1.164   0.062 -1.2090  0.6024  0.0206
 7400TIP3   OH222142   7.050   0.643   4.603  0.1153  0.7338  0.2459
 7400TIP3    H122143   6.997   0.639   4.524  1.2718 -0.3668 -0.5036
 7400TIP3    H222144   7.044   0.734   4.631  0.2113  1.3030 -1.4698
 7401TIP3   OH222145   5.857   4.622   6.664  0.1272 -0.1780 -0.4548
 7401TIP3    H122146   5.909   4.567   6.606 -0.0400 -1.8154  0.8830
 7401TIP3    H222147   5.922   4.674   6.712  0.3958 -0.4203 -0.5530
 7402TIP3   OH222148   4.076   5.200   4.158 -0.3280  0.4008 -0.0025
 7402TIP3    H122149   4.120   5.147   4.225  0.0250  1.6284  0.7501
 7402TIP3    H222150   4.050   5.136   4.092  0.6049 -0.6571  0.6049
 7403TIP3   OH222151   5.446   6.916   2.202 -0.1071  0.0576 -0.1654
 7403TIP3    H122152   5.529   6.957   2.178 -0.1876 -0.1776 -0.8757
 7403TIP3    H222153   5.379   6.973   2.163 -0.2206 -0.6804 -1.0785
 7404TIP3   OH222154   7.262   0.053  -0.027 -0.2236 -0.3857  0.0692
 7404TIP3    H122155   7.240   0.003   0.051  2.3317  1.3404  2.0888
 7404TIP3    H222156   7.225   0.139  -0.012  1.0901  0.2399 -0.1370
 7405TIP3   OH222157   3.063   7.806   3.645 -0.5173  0.2348 -0.0616
 7405TIP3    H122158   3.138   7.854   3.609 -1.9805  1.3914 -1.7580
 7405TIP3    H222159   3.061   7.725   3.594 -0.6698  0.3935 -0.3081
 7406TIP3   OH222160   5.697   7.729   3.226 -0.2624 -0.1215  0.7616
 7406TIP3    H122161   5.692   7.781   3.307 -0.3287  0.0944  0.6194
 7406TIP3    H222162   5.643   7.652   3.244  0.0006 -0.2429  1.0480
 7407TIP3   OH222163   5.094   2.298   2.742  0.2130 -0.2716  0.3131
 7407TIP3    H122164   5.063   2.357   2.812  1.9191  1.6554 -0.4462
 7407TIP3    H222165   5.016   2.281   2.689 -0.7019 -0.1733  1.5721
 7408TIP3   OH222166   4.829   1.484   2.279  0.2763 -0.0474  0.1222
 7408TIP3    H122167   4.924   1.474   2.278  0.1080 -2.1028 -1.4513
 7408TIP3    H222168   4.810   1.516   2.367  2.3253 -0.8776  0.9456
 7409TIP3   OH222169   1.888   0.341   6.554  0.0888 -0.0379  0.4747
 7409TIP3    H122170   1.861   0.349   6.645 -0.3015  0.8279  0.2933
 7409TIP3    H222171   1.981   0.317   6.558  0.2613  0.7173  1.0983
 7410TIP3   OH222172   2.999   0.742   6.604  0.5147 -0.1254 -0.3872
 7410TIP3    H122173   3.076   0.691   6.578 -0.5355 -0.9411 -1.9918
 7410TIP3    H222174   2.941   0.679   6.646 -0.2188 -0.0003 -1.1803
 7411TIP3   OH222175   7.081   1.995   1.799  0.0517  0.2114  0.5456
 7411TIP3    H122176   7.008   1.938   1.775  0.2409  0.5212 -0.8104
 7411TIP3    H222177   7.086   1.988   1.894 -2.6509  1.3014  0.8401
 7412TIP3   OH222178   6.844   6.782   1.489  0.1439 -0.1810 -0.3719
 7412TIP3    H122179   6.932   6.782   1.526  0.5307 -1.3760 -1.2065
 7412TIP3    H222180   6.794   6.722   1.545 -0.0787  0.2986 -0.0502
 7413TIP3   OH222181   7.535   0.496   4.324  0.2473  0.5176 -0.0535
 7413TIP3    H122182   7.473   0.556   4.365 -1.8613 -1.0791 -0.7592
 7413TIP3    H222183   7.587   0.461   4.396  0.6240  2.1286  0.5044
 7414TIP3   OH222184   7.294   6.100   2.940  0.2103 -0.1928 -0.0325
 7414TIP3    H122185   7.353   6.043   2.989  0.4195 -0.7836 -0.9574
 7414TIP3    H222186   7.301   6.185   2.984 -2.0503 -1.3928  3.0493
 7415TIP3   OH222187   8.098   5.198   4.623  0.7011  0.3214  0.2077
 7415TIP3    H122188   8.086   5.226   4.714  1.3023  0.4014  0.2679
 7415TIP3    H222189   8.145   5.271   4.582 -0.4428  0.7142 -0.4292
 7416TIP3   OH222190   7.505   1.262   0.344  0.4273  0.0498  0.4628
 7416TIP3    H122191   7.425   1.313   0.332 -0.5887 -1.8024 -1.2532
 7416TIP3    H222192   7.557   1.313   0.407 -1.0898  2.4439 -0.0912
 7417TIP3   OH222193   6.230   4.589   0.430 -0.6955 -0.4587  0.3639
 7417TIP3    H122194   6.211   4.683   0.434 -0.9594 -0.4185 -1.0932
 7417TIP3    H222195   6.144   4.547   0.432 -0.6601 -0.5835 -0.3548
 7418TIP3   OH222196   0.351   2.923   4.611  0.6696 -0.0014 -0.6622
 7418TIP3    H122197   0.444   2.930   4.629  0.5401 -0.9498  0.4608
 7418TIP3    H222198   0.340   2.837   4.572  0.1588 -0.2442 -0.0057
 7419TIP3   OH222199   0.492   0.899   0.064 -0.0943 -0.0543 -0.2549
 7419TIP3    H122200   0.445   0.983   0.059 -0.6946 -0.2494  1.4966
 7419TIP3    H222201   0.473   0.856  -0.020 -0.7251  1.0654 -0.7097
 7420TIP3   OH222202   1.537   3.303   5.369 -0.2173 -0.1864 -0.5006
 7420TIP3    H122203   1.513   3.333   5.281 -0.4982 -0.6542 -0.5860
 7420TIP3    H222204   1.533   3.208   5.364 -1.9927 -0.2022  0.4876
 7421TIP3   OH222205   0.006   6.019   6.027 -0.8308 -0.2428  0.7400
 7421TIP3    H122206  -0.050   5.974   6.090 -0.2405 -1.7058  0.2598
 7421TIP3    H222207   0.058   5.949   5.986  1.0013  0.9893  0.8191
 7422TIP3   OH222208   6.045   5.760   0.855 -0.4886 -0.0219  0.0063
 7422TIP3    H122209   6.019   5.796   0.770 -1.0373 -1.8820 -0.6647
 7422TIP3    H222210   6.140   5.748   0.848 -0.2817  1.2446  0.2651
 7423TIP3   OH222211   5.259   7.269   0.152  0.1539 -0.1743  0.5944
 7423TIP3    H122212   5.260   7.270   0.248 -0.9689 -1.2093  0.6376
 7423TIP3    H222213   5.169   7.289   0.129  0.4342  0.1495 -0.2619
 7424TIP3   OH222214   1.097   4.676   0.907 -0.6903 -0.2387 -0.2263
 7424TIP3    H122215   1.121   4.589   0.940  2.1375  1.0459  1.4935
 7424TIP3    H222216   1.003   4.682   0.921 -0.4643 -1.8304  2.7724
 7425TIP3   OH222217   4.715   2.585   1.092  0.1644  0.6360  0.3760
 7425TIP3    H122218   4.797   2.627   1.065  0.2625  0.5681  0.5750
 7425TIP3    H222219   4.697   2.522   1.022  0.2456  0.6989  0.2976
 7426TIP3   OH222220   4.117   7.183   6.088 -0.0045  0.0626  0.1177
 7426TIP3    H122221   4.158   7.154   6.170 -0.1973  0.6966  0.4493
 7426TIP3    H222222   4.156   7.269   6.072  2.1973 -1.1891 -1.9925
 7427TIP3   OH222223   3.209   5.431   0.592 -0.1740  0.2598 -0.1671
 7427TIP3    H122224   3.120   5.396   0.595 -0.0430 -0.1775 -0.9683
 7427TIP3    H222225   3.199   5.525   0.609 -0.5332 -0.1163  2.0012
 7428TIP3   OH222226   7.878   4.771   3.383 -0.6826 -0.1814  0.3786
 7428TIP3    H122227   7.946   4.731   3.329 -0.0970 -1.3572  1.9039
 7428TIP3    H222228   7.916   4.773   3.471 -2.2043  0.1711  1.0549
 7429TIP3   OH222229   2.393   0.809   0.504 -0.2484 -0.7274 -0.2356
 7429TIP3    H122230   2.429   0.895   0.483 -3.1204  1.0084  1.1783
 7429TIP3    H222231   2.341   0.785   0.428  0.8392 -1.4269 -0.7752
 7430TIP3   OH222232   7.183   3.136   5.887  0.5214 -0.1138  0.2072
 7430TIP3    H122233   7.172   3.217   5.837  2.6194  0.4378  0.5397
 7430TIP3    H222234   7.145   3.156   5.973  0.0351  0.1285 -0.0617
 7431TIP3   OH222235   4.169   7.236   1.245 -0.0433 -0.2761  0.0600
 7431TIP3    H122236   4.103   7.280   1.192  0.4811  0.3575 -0.0692
 7431TIP3    H222237   4.133   7.237   1.334 -0.3879 -0.2951 -0.0784
 7432TIP3   OH222238   4.450   0.076   2.088 -0.0466  0.0861 -0.2208
 7432TIP3    H122239   4.495   0.029   2.158  0.9931 -1.6504 -1.9478
 7432TIP3    H222240   4.449   0.014   2.015 -1.1188  1.7981 -1.7377
 7433TIP3   OH222241   7.367   5.304   2.855 -0.1096 -0.8063 -0.3874
 7433TIP3    H122242   7.338   5.304   2.946 -1.9148 -0.2482 -0.9104
 7433TIP3    H222243   7.356   5.395   2.826 -0.8321 -1.2283 -1.5109
 7434TIP3   OH222244   4.533   1.771   0.580  0.9232  0.3409 -0.0121
 7434TIP3    H122245   4.575   1.846   0.540 -0.3056  2.2299  1.9880
 7434TIP3    H222246   4.452   1.806   0.619 -0.3276 -2.2524 -0.0122
 7435TIP3   OH222247   5.371   3.499   5.261 -0.1327 -0.1903  0.2315
 7435TIP3    H122248   5.283   3.492   5.226 -0.4797  2.4206  0.3713
 7435TIP3    H222249   5.394   3.410   5.288 -2.0569 -1.2153 -1.2932
 7436TIP3   OH222250   3.993   7.590   3.522 -0.1090  0.6313  0.4563
 7436TIP3    H122251   3.913   7.612   3.570 -0.8649  1.2652 -1.0126
 7436TIP3    H222252   3.974   7.616   3.432  1.4864  0.0759 -0.0699
 7437TIP3   OH222253   4.542   7.766   5.217 -0.8168 -0.0108  0.1536
 7437TIP3    H122254   4.625   7.800   5.184 -0.4978  0.0447  0.9959
 7437TIP3    H222255   4.475   7.813   5.166 -0.3615  0.9951  0.4455
 7438TIP3   OH222256   7.897   6.766   3.112 -0.3260 -0.3036  0.2462
 7438TIP3    H122257   7.917   6.674   3.128  0.1320 -0.1112  0.8329
 7438TIP3    H222258   7.851   6.767   3.028  0.7387 -0.9382 -0.3601
 7439TIP3   OH222259   8.318   1.618   6.582  0.0730  0.2000 -0.1107
 7439TIP3    H122260   8.246   1.559   6.606 -1.2439  1.5908 -0.5011
 7439TIP3    H222261   8.300   1.643   6.491  0.5724  1.2333  0.0567
 7440TIP3   OH222262   5.237   7.172   5.469 -0.0837  0.2658 -0.4589
 7440TIP3    H122263   5.271   7.205   5.552 -1.7493 -0.2978  0.4901
 7440TIP3    H222264   5.233   7.077   5.480 -2.4958  0.3277 -0.2459
 7441TIP3   OH222265   1.051   2.825   1.413  0.6215  0.0856 -0.1627
 7441TIP3    H122266   1.124   2.811   1.473  0.3251  0.0055  0.1819
 7441TIP3    H222267   1.078   2.900   1.359  1.1122 -0.1729 -0.2859
 7442TIP3   OH222268   0.239   0.134   2.465  0.3882  0.6061  0.4358
 7442TIP3    H122269   0.324   0.146   2.508  0.4797  0.2458  0.3637
 7442TIP3    H222270   0.252   0.166   2.376  0.4589  0.5215  0.4156
 7443TIP3   OH222271   4.187   6.741   0.279  0.1044  1.1532  0.2698
 7443TIP3    H122272   4.152   6.774   0.196 -0.0214  2.1374  0.6970
 7443TIP3    H222273   4.199   6.647   0.264  1.8341  1.5819 -1.4724
 7444TIP3   OH222274   4.124   6.017   1.874  0.1634  0.1117 -0.0738
 7444TIP3    H122275   4.060   6.012   1.802 -0.1494  0.4209  0.1784
 7444TIP3    H222276   4.073   6.047   1.949  0.9613  2.1931 -0.3064
 7445TIP3   OH222277   3.328   3.867   3.491  0.4142 -0.2614 -0.7461
 7445TIP3    H122278   3.278   3.922   3.429 -0.6718  0.0903  0.4048
 7445TIP3    H222279   3.340   3.923   3.568 -0.7121 -1.6141  0.4598
 7446TIP3   OH222280   5.377   3.542   0.162  0.0450 -0.2176  0.0468
 7446TIP3    H122281   5.301   3.588   0.128  1.3957  1.6178 -0.6688
 7446TIP3    H222282   5.402   3.482   0.092  1.1978  1.6095 -1.1992
 7447TIP3   OH222283   4.371   5.661   2.649 -0.5239 -0.4348 -0.3326
 7447TIP3    H122284   4.315   5.610   2.707 -0.1337  0.3283  0.7352
 7447TIP3    H222285   4.310   5.715   2.599 -0.8552 -1.0547 -0.6155
 7448TIP3   OH222286   5.469   5.789   2.520  0.0378 -0.6177  0.3230
 7448TIP3    H122287   5.510   5.834   2.446  1.4852 -1.5016  0.5419
 7448TIP3    H222288   5.440   5.705   2.484  1.9820 -1.6547  0.9635
 7449TIP3   OH222289   5.148   7.460   1.610  0.1468 -0.1307 -0.1625
 7449TIP3    H122290   5.202   7.418   1.677 -0.1452 -0.5976 -0.2143
 7449TIP3    H222291   5.058   7.442   1.636 -0.0848  2.2401  0.9755
 7450TIP3   OH222292   6.130   2.219   0.329 -0.3435  0.1804 -0.7110
 7450TIP3    H122293   6.081   2.286   0.376 -0.3233  0.1513 -0.6484
 7450TIP3    H222294   6.145   2.256   0.242 -0.5697  0.1450 -0.7641
 7451TIP3   OH222295   7.909   1.756   1.619 -0.3887 -0.2503  0.0542
 7451TIP3    H122296   7.887   1.808   1.542 -0.3692 -0.9643 -0.4415
 7451TIP3    H222297   7.837   1.695   1.628 -0.4262 -0.1201  0.6532
 7452TIP3   OH222298   3.096   4.228   0.148 -0.9382 -0.8151  0.0943
 7452TIP3    H122299   3.029   4.257   0.086 -1.0163 -0.8657  0.1541
 7452TIP3    H222300   3.150   4.166   0.099  2.1476  2.7991 -1.5770
 7453TIP3   OH222301   2.356   6.197   0.334 -0.0526  0.0679  0.0247
 7453TIP3    H122302   2.339   6.264   0.267 -1.1049  0.6977  0.8783
 7453TIP3    H222303   2.271   6.154   0.345  0.0574  0.1117  1.0912
 7454TIP3   OH222304   6.680   6.919   4.576  0.4149  0.0069 -0.5851
 7454TIP3    H122305   6.589   6.909   4.550  0.4269  0.6296 -0.9009
 7454TIP3    H222306   6.694   7.014   4.577  0.9074 -0.0616 -0.0116
 7455TIP3   OH222307   4.205   4.916   1.660 -0.0827  0.4540  0.3551
 7455TIP3    H122308   4.204   4.989   1.721  0.1986  2.3513 -1.7951
 7455TIP3    H222309   4.124   4.925   1.609  1.0446  0.7351 -1.4942
 7456TIP3   OH222310   0.385   3.220   6.665  0.6492 -0.0637  0.2814
 7456TIP3    H122311   0.364   3.127   6.673  2.1030 -0.3268  1.5371
 7456TIP3    H222312   0.407   3.233   6.573  0.1012 -0.8709  0.0275
 7457TIP3   OH222313   8.113   1.680   6.350 -0.2626 -0.0742 -0.1130
 7457TIP3    H122314   8.074   1.749   6.296 -1.9247 -0.5568  0.4081
 7457TIP3    H222315   8.189   1.650   6.299 -0.5898  0.8703 -1.2028
 7458TIP3   OH222316   5.572   3.095   6.667  0.3699  0.6289  0.1689
 7458TIP3    H122317   5.618   3.012   6.655 -2.3077 -0.8340 -1.1036
 7458TIP3    H222318   5.579   3.138   6.582 -0.5312  0.3881 -0.0391
 7459TIP3   OH222319   2.712   0.700   0.772  0.1590 -0.0654 -0.2205
 7459TIP3    H122320   2.618   0.712   0.783  0.0694  2.3724 -2.7246
 7459TIP3    H222321   2.720   0.638   0.699  0.5598 -1.5671  1.0536
 7460TIP3   OH222322   3.823   1.433   4.445 -0.0219  0.0528 -0.4685
 7460TIP3    H122323   3.914   1.402   4.443 -0.1412 -0.2938 -0.6793
 7460TIP3    H222324   3.773   1.360   4.409 -0.4662 -0.0350  0.3017
 7461TIP3   OH222325   2.925   5.395   2.898  0.5479  0.3679  0.0005
 7461TIP3    H122326   2.866   5.348   2.838 -1.0180  0.0013  1.7361
 7461TIP3    H222327   3.012   5.380   2.862 -0.2559 -0.4871 -1.7411
 7462TIP3   OH222328   2.631   3.178   3.823  0.0661 -0.1562  0.5168
 7462TIP3    H122329   2.653   3.191   3.730 -1.3691  0.6661  0.2622
 7462TIP3    H222330   2.639   3.084   3.837  1.1495 -0.1913 -0.2005
 7463TIP3   OH222331   2.420   5.215   0.516 -0.1508  0.3696 -0.6329
 7463TIP3    H122332   2.389   5.127   0.533  0.1151  0.4773  0.5268
 7463TIP3    H222333   2.441   5.216   0.422  0.2413 -0.9194 -0.5787
 7464TIP3   OH222334   5.904   7.129   0.847  0.3705 -0.2838  0.5666
 7464TIP3    H122335   5.864   7.213   0.824 -2.2501 -1.2736  1.1832
 7464TIP3    H222336   5.963   7.149   0.919 -0.5456  0.9633  1.0005
 7465TIP3   OH222337   0.612   2.866   4.676 -0.1452 -0.0676 -0.0833
 7465TIP3    H122338   0.691   2.914   4.701  0.6847 -0.2552 -2.1920
 7465TIP3    H222339   0.628   2.777   4.706 -0.6146  0.3807  1.6014
 7466TIP3   OH222340   5.915   2.248   1.082  0.3236 -0.3403  0.2119
 7466TIP3    H122341   5.990   2.299   1.052 -1.0947  2.3063  0.8424
 7466TIP3    H222342   5.881   2.297   1.157 -2.0357 -1.4125 -0.0649
 7467TIP3   OH222343   5.386   2.441   5.009  0.4842 -0.7399 -0.2118
 7467TIP3    H122344   5.317   2.501   5.039  1.8440  0.6706  0.2161
 7467TIP3    H222345   5.343   2.386   4.943 -1.1678 -0.2480  0.4105
 7468TIP3   OH222346   7.263   2.391   3.758  0.0751  0.5664 -0.0314
 7468TIP3    H122347   7.235   2.449   3.828  2.6677 -0.0020  1.6281
 7468TIP3    H222348   7.285   2.450   3.686  3.7357  2.0028  1.9800
 7469TIP3   OH222349   3.165   0.378   3.109 -0.0643 -0.0883 -0.7737
 7469TIP3    H122350   3.174   0.470   3.084 -1.7211  0.1232 -0.6837
 7469TIP3    H222351   3.247   0.359   3.156  0.6502  1.0952 -1.4631
 7470TIP3   OH222352   4.290   6.486   5.162 -0.2782  0.1597  0.0035
 7470TIP3    H122353   4.198   6.465   5.146 -0.4362  0.0020  1.0067
 7470TIP3    H222354   4.338   6.432   5.099 -0.8885  0.7460 -0.9880
 7471TIP3   OH222355   4.694   6.418   1.104  0.2732  0.6085  0.3338
 7471TIP3    H122356   4.678   6.410   1.010  1.5567  0.8692  0.0753
 7471TIP3    H222357   4.748   6.342   1.126 -2.9104 -1.4676  1.6126
 7472TIP3   OH222358   1.262   7.572   0.861 -0.2474  0.3010 -0.0166
 7472TIP3    H122359   1.337   7.623   0.830  0.1022 -0.1914  0.0128
 7472TIP3    H222360   1.208   7.559   0.783 -0.4227  0.8554  0.0087
 7473TIP3   OH222361   3.183   0.514   3.418 -0.5270 -0.1408 -0.0317
 7473TIP3    H122362   3.100   0.529   3.373 -1.1316  0.2607  1.1610
 7473TIP3    H222363   3.206   0.424   3.395 -1.8232 -0.6121  0.4079
 7474TIP3   OH222364   1.982   5.002   4.291  0.2286 -0.2982 -0.5160
 7474TIP3    H122365   1.943   5.046   4.367 -0.4130 -0.6234 -0.6601
 7474TIP3    H222366   2.069   4.975   4.322 -0.5493 -1.6772  0.5612
 7475TIP3   OH222367   7.202   5.580   1.922  0.2595  0.5413 -0.2804
 7475TIP3    H122368   7.125   5.634   1.943 -0.6654 -0.6614 -0.4384
 7475TIP3    H222369   7.166   5.506   1.874  1.3484 -0.7640  0.8516
 7476TIP3   OH222370   3.640   5.355   0.197 -0.3289  0.3743  0.0122
 7476TIP3    H122371   3.553   5.373   0.161 -0.8423  1.4843  1.6406
 7476TIP3    H222372   3.696   5.344   0.121 -1.7617  0.3066 -1.0885
 7477TIP3   OH222373   2.951   6.572   3.509 -0.3939  0.0242  0.3710
 7477TIP3    H122374   2.938   6.546   3.601  1.0520 -1.1871  0.2768
 7477TIP3    H222375   2.865   6.561   3.469 -0.9402  0.1226  1.4779
 7478TIP3   OH222376   0.413   0.433   4.636 -0.3312 -0.0854 -0.1568
 7478TIP3    H122377   0.410   0.388   4.552 -0.7855  0.7607 -0.6065
 7478TIP3    H222378   0.329   0.412   4.678 -0.1895 -0.3412  0.0024
 7479TIP3   OH222379   5.155   0.251   2.582 -0.7192  0.3723 -0.2780
 7479TIP3    H122380   5.248   0.253   2.559 -0.3872  1.4010  0.9878
 7479TIP3    H222381   5.116   0.185   2.525  0.6919  0.3123 -1.1940
 7480TIP3   OH222382   6.397   1.041   4.899 -0.3025 -0.5118  0.2589
 7480TIP3    H122383   6.332   0.985   4.856  1.9580 -2.1670 -1.2495
 7480TIP3    H222384   6.434   1.094   4.827  1.4631 -1.1638  0.6299
 7481TIP3   OH222385   6.438   5.367   3.865  0.1675 -0.2130  0.1411
 7481TIP3    H122386   6.436   5.365   3.960  1.3592  0.0994  0.1985
 7481TIP3    H222387   6.359   5.320   3.837 -1.0055  1.0492  1.2633
 7482TIP3   OH222388   3.536   1.229   0.898  0.5884  0.0237  0.5725
 7482TIP3    H122389   3.524   1.324   0.894  1.7155  0.2519  1.9166
 7482TIP3    H222390   3.481   1.201   0.971  0.2414 -0.3714  0.1646
 7483TIP3   OH222391   1.863   4.367   2.322  0.1462  0.3502  0.5284
 7483TIP3    H122392   1.883   4.432   2.390 -0.7191  0.8763  0.2976
 7483TIP3    H222393   1.794   4.408   2.269  1.0142  0.0696 -0.8570
 7484TIP3   OH222394   2.509   2.488   5.381  0.5968  0.1846 -0.2962
 7484TIP3    H122395   2.578   2.478   5.315  1.4263 -0.5959  0.6523
 7484TIP3    H222396   2.534   2.567   5.429  0.2318  0.5064 -0.6296
 7485TIP3   OH222397   0.974   2.008   1.575  0.1232 -0.3594  0.1401
 7485TIP3    H122398   1.004   2.029   1.663 -2.2781 -0.6799  1.0861
 7485TIP3    H222399   0.930   1.923   1.584 -1.8197  0.4693 -0.9320
 7486TIP3   OH222400   7.634   3.171   0.774  1.0703  0.2564  0.2437
 7486TIP3    H122401   7.621   3.118   0.853  0.3028  0.4363  0.2474
 7486TIP3    H222402   7.646   3.106   0.704  2.4195  0.0969  0.5974
 7487TIP3   OH222403   7.380   2.275   0.919  0.4621 -0.3743 -0.1454
 7487TIP3    H122404   7.328   2.354   0.906 -0.5800 -1.0229 -0.0430
 7487TIP3    H222405   7.471   2.303   0.907  0.2839  1.2772  1.9526
 7488TIP3   OH222406   6.298   5.327   6.685  0.0996  0.0030 -0.7130
 7488TIP3    H122407   6.391   5.332   6.707  0.0228 -2.9478  0.7884
 7488TIP3    H222408   6.294   5.264   6.613 -0.7060  0.5927 -1.2015
 7489TIP3   OH222409   1.714   2.621   0.822 -0.5892  0.0745  0.3603
 7489TIP3    H122410   1.695   2.591   0.911  0.1378  2.0826  1.2667
 7489TIP3    H222411   1.767   2.552   0.783  1.0011  0.1427  2.2988
 7490TIP3   OH222412   0.698   3.076   3.397  0.5961 -0.2770  0.7044
 7490TIP3    H122413   0.648   3.120   3.466  0.7048 -0.1088  0.6764
 7490TIP3    H222414   0.773   3.133   3.382  0.9323 -0.6516  0.9247
 7491TIP3   OH222415   0.425   3.643   3.124 -0.0568  0.5424 -0.2044
 7491TIP3    H122416   0.422   3.556   3.165  1.4486  1.3791  1.8797
 7491TIP3    H222417   0.442   3.626   3.032 -1.4482 -1.4050 -0.1571
 7492TIP3   OH222418   0.478   7.038   2.856 -0.0434  0.3402 -0.0923
 7492TIP3    H122419   0.442   7.022   2.768  1.3548 -0.6449 -0.5153
 7492TIP3    H222420   0.515   7.126   2.850  1.2106 -0.2114 -0.9375
 7493TIP3   OH222421   6.779   6.841   6.130 -0.4481 -0.2950 -0.2790
 7493TIP3    H122422   6.748   6.931   6.120  0.3241  0.0183  0.0778
 7493TIP3    H222423   6.742   6.812   6.213 -0.7994 -0.3632 -0.4528
 7494TIP3   OH222424   7.508   4.938   0.390 -0.2474 -0.6088  0.0731
 7494TIP3    H122425   7.595   4.972   0.369 -0.6748 -0.0978 -0.9167
 7494TIP3    H222426   7.490   4.874   0.320 -1.1858  0.2189 -0.4598
 7495TIP3   OH222427   2.505   3.150   2.503  0.0036 -0.3382  0.7352
 7495TIP3    H122428   2.469   3.237   2.517  1.9472  0.6413  0.0082
 7495TIP3    H222429   2.460   3.117   2.426 -1.1917 -0.2560  1.3850
 7496TIP3   OH222430   0.556   5.405   3.012 -0.0392  0.4608  0.2594
 7496TIP3    H122431   0.472   5.402   3.058 -0.5829  0.7408 -0.6772
 7496TIP3    H222432   0.566   5.498   2.989  0.7719  0.5151  0.7721
 7497TIP3   OH222433   3.367   6.228   2.305 -0.5742  0.1837 -0.2514
 7497TIP3    H122434   3.352   6.318   2.278 -0.9491  0.1527 -0.1479
 7497TIP3    H222435   3.363   6.230   2.400  0.2295  0.1997 -0.2113
 7498TIP3   OH222436   4.544   0.189   5.333  0.3557  0.3869  0.0152
 7498TIP3    H122437   4.497   0.272   5.336  0.1008  0.2386  0.0860
 7498TIP3    H222438   4.558   0.165   5.424  0.1128  0.1701 -0.0052
 7499TIP3   OH222439   4.139   2.740   3.074 -0.2051  0.8917 -0.2636
 7499TIP3    H122440   4.092   2.766   3.153  0.4866  0.7314  0.2108
 7499TIP3    H222441   4.089   2.667   3.039  0.7141 -0.5840  1.3072
 7500TIP3   OH222442   5.394   3.376   4.821  0.8228  0.1219 -0.4775
 7500TIP3    H122443   5.369   3.467   4.804  0.3395 -0.0510 -0.6873
 7500TIP3    H222444   5.334   3.347   4.890  1.6273  0.2681  0.3103
 7501TIP3   OH222445   1.242   0.685   3.760  0.0457  0.0932 -0.4625
 7501TIP3    H122446   1.267   0.731   3.840 -0.9630  0.3781 -0.2968
 7501TIP3    H222447   1.226   0.595   3.789  1.1043 -0.1517 -0.6166
 7502TIP3   OH222448   2.033   5.124   0.582  0.1302 -0.8996  0.0231
 7502TIP3    H122449   1.999   5.207   0.551 -1.2091 -1.2883  0.3594
 7502TIP3    H222450   2.050   5.138   0.675 -0.0553 -0.9703  0.0703
 7503TIP3   OH222451   5.348   7.507   5.293  0.4835  0.2854 -0.9290
 7503TIP3    H122452   5.332   7.421   5.254  0.1253 -0.5825  0.9789
 7503TIP3    H222453   5.382   7.560   5.222  1.5379 -1.6897 -1.9899
 7504TIP3   OH222454   7.852   0.797   1.960 -0.6273  0.1182  0.5143
 7504TIP3    H122455   7.816   0.886   1.956 -0.9657  0.0585  1.8380
 7504TIP3    H222456   7.786   0.746   2.007 -1.1351 -1.2250 -1.5108
 7505TIP3   OH222457   5.210   1.491   0.029  0.3794  0.4883 -0.6504
 7505TIP3    H122458   5.242   1.571  -0.014 -2.0069  1.3933 -0.9064
 7505TIP3    H222459   5.187   1.520   0.117  0.1074 -0.0748 -0.5368
 7506TIP3   OH222460   2.787   3.275   2.162  0.3767  0.4416  0.4866
 7506TIP3    H122461   2.880   3.266   2.141  0.1228  0.4469 -0.6869
 7506TIP3    H222462   2.746   3.298   2.079 -0.7472 -0.0929  0.8759
 7507TIP3   OH222463   1.785   5.368   0.352  0.6582  0.4205  0.2168
 7507TIP3    H122464   1.861   5.367   0.294  0.8499 -1.7050  0.4288
 7507TIP3    H222465   1.710   5.377   0.293  0.9609  0.3279 -0.1862
 7508TIP3   OH222466   4.127   4.506   5.219  0.0504  0.0586  0.3766
 7508TIP3    H122467   4.204   4.476   5.171  0.8483 -0.7063  2.0346
 7508TIP3    H222468   4.053   4.460   5.179  0.2499  1.5280 -1.8669
 7509TIP3   OH222469   0.027   5.206   3.617  0.9475 -0.1737 -0.0966
 7509TIP3    H122470  -0.037   5.175   3.682  1.8122 -0.4174  0.6690
 7509TIP3    H222471   0.048   5.295   3.644  0.5499  0.0951 -0.6556
 7510TIP3   OH222472   7.285   6.133   6.455  0.3757 -0.0772  0.4471
 7510TIP3    H122473   7.373   6.170   6.444  0.0583  0.6480  0.3233
 7510TIP3    H222474   7.231   6.180   6.392 -0.1455 -0.3985  0.6460
 7511TIP3   OH222475   0.397   5.260   3.903  0.3140 -0.3457  0.9998
 7511TIP3    H122476   0.445   5.335   3.937 -1.8636  1.7504 -0.2705
 7511TIP3    H222477   0.307   5.274   3.931 -0.3604 -1.9233 -0.2136
 7512TIP3   OH222478   0.124   5.675   4.018 -0.3993 -0.4567  0.0095
 7512TIP3    H122479   0.106   5.592   3.976 -2.2496 -0.4069  0.6103
 7512TIP3    H222480   0.052   5.732   3.992 -0.5107  0.1860  1.5816
 7513TIP3   OH222481   3.055   0.934   0.436 -0.2445  0.1823  0.1062
 7513TIP3    H122482   3.118   1.004   0.420  1.1604 -1.2034 -0.8246
 7513TIP3    H222483   2.971   0.968   0.405  0.4492  1.3670 -0.5153
 7514TIP3   OH222484   3.310   2.759   0.347 -0.0975 -0.4133  0.3301
 7514TIP3    H122485   3.315   2.743   0.253 -0.9973  1.8537 -0.1807
 7514TIP3    H222486   3.296   2.853   0.354 -1.8402 -0.7605  2.6743
 7515TIP3   OH222487   4.183   6.454   3.038  0.1223  0.1632 -0.3271
 7515TIP3    H122488   4.189   6.361   3.016 -1.0705  0.0814 -0.4094
 7515TIP3    H222489   4.130   6.491   2.968 -2.1719  0.2543  1.3303
 7516TIP3   OH222490   6.227   3.062   6.474  0.3111 -0.3143  0.0431
 7516TIP3    H122491   6.292   2.992   6.469  3.4216  2.3218  0.2934
 7516TIP3    H222492   6.193   3.058   6.563  0.4530 -1.4175  0.0636
 7517TIP3   OH222493   3.584   4.306   3.273 -0.5107  0.4382 -0.0440
 7517TIP3    H122494   3.576   4.212   3.287  0.0208  0.3392 -0.3790
 7517TIP3    H222495   3.599   4.315   3.179 -1.3141  0.9109 -0.1354
 7518TIP3   OH222496   7.044   5.369   2.502  0.8180 -0.1988  0.1888
 7518TIP3    H122497   7.061   5.378   2.595 -0.3772  0.3674  0.3688
 7518TIP3    H222498   7.044   5.459   2.469  0.7519 -0.3627 -0.2633
 7519TIP3   OH222499   2.260   6.064   1.421 -0.9063  0.4177  0.2079
 7519TIP3    H122500   2.351   6.080   1.397 -0.4902  0.9267  1.9972
 7519TIP3    H222501   2.218   6.150   1.417 -1.5731  0.0542 -1.4923
 7520TIP3   OH222502   6.963   4.177   3.693  0.2916  0.3909 -0.2582
 7520TIP3    H122503   7.035   4.142   3.746  2.5682  1.2893 -2.5851
 7520TIP3    H222504   7.005   4.217   3.617 -2.7114  0.5630 -2.0056
 7521TIP3   OH222505   6.147   4.466   5.565  0.4309  0.3504 -0.3494
 7521TIP3    H122506   6.093   4.412   5.507 -0.3637 -0.3358  0.9871
 7521TIP3    H222507   6.162   4.411   5.642 -0.6584  2.1376  1.2003
 7522TIP3   OH222508   7.641   0.612   3.005  0.2889  0.0867 -0.1291
 7522TIP3    H122509   7.633   0.707   3.008  0.1155  0.0776 -0.3181
 7522TIP3    H222510   7.723   0.593   3.052  0.4400  0.3440 -0.2893
 7523TIP3   OH222511   0.336   3.974   1.833  0.3849 -0.2835  0.1692
 7523TIP3    H122512   0.358   4.063   1.805 -0.1265  0.1442  1.0909
 7523TIP3    H222513   0.298   3.984   1.920 -3.4886 -0.9526 -1.2409
 7524TIP3   OH222514   2.867   0.530   2.462 -0.6630  0.4399  0.0671
 7524TIP3    H122515   2.831   0.612   2.431  2.5626  1.8576 -0.3521
 7524TIP3    H222516   2.922   0.499   2.390 -0.3366 -1.1033  0.9285
 7525TIP3   OH222517   1.615   0.985   1.962  0.1602  0.2850 -0.2926
 7525TIP3    H122518   1.710   0.983   1.974  0.6121  0.7948 -3.0310
 7525TIP3    H222519   1.602   1.037   1.883 -2.1900 -2.0484 -1.6348
 7526TIP3   OH222520   2.829   1.360   0.127 -0.7744  0.0945 -0.6463
 7526TIP3    H122521   2.870   1.281   0.092 -1.1133 -0.4985  0.2594
 7526TIP3    H222522   2.737   1.353   0.102 -1.1778 -0.7014  0.9126
 7527TIP3   OH222523   7.659   4.254   2.443 -0.4589 -0.2024  0.0757
 7527TIP3    H122524   7.664   4.246   2.348  1.3365 -0.3204  0.1452
 7527TIP3    H222525   7.617   4.173   2.472 -1.2930 -0.0401 -0.6046
 7528TIP3   OH222526   5.879   4.882   5.632  0.6201 -0.5082 -0.1329
 7528TIP3    H122527   5.848   4.831   5.706  1.1137 -0.1408  0.3322
 7528TIP3    H222528   5.886   4.818   5.560 -2.7919 -0.3398 -0.7936
 7529TIP3   OH222529   3.934   0.050   5.550  0.6975  0.0632 -0.0924
 7529TIP3    H122530   3.856   0.097   5.580 -0.6294 -2.1069  0.0122
 7529TIP3    H222531   3.952   0.088   5.464  0.4021  1.5624  0.4704
 7530TIP3   OH222532   6.508   7.016   1.414  0.1157 -0.4399 -0.1374
 7530TIP3    H122533   6.465   7.060   1.487 -1.9764  2.9832 -3.0611
 7530TIP3    H222534   6.599   7.044   1.419  0.1590 -0.7802  1.4372
 7531TIP3   OH222535   2.061   5.848   1.740  0.8253 -0.3743  0.4424
 7531TIP3    H122536   2.048   5.841   1.835  0.7559  1.2082  0.5875
 7531TIP3    H222537   2.136   5.793   1.721 -1.6616 -4.2121  0.6982
 7532TIP3   OH222538   4.392   1.267   0.477  0.2749 -0.5814 -0.2343
 7532TIP3    H122539   4.433   1.199   0.424  0.9382 -0.7949  0.5303
 7532TIP3    H222540   4.464   1.326   0.501 -0.1133 -0.1769 -0.0345
 7533TIP3   OH222541   6.578   5.749   1.567 -0.3664  0.3163 -0.8075
 7533TIP3    H122542   6.560   5.663   1.530 -2.2150  0.2494  0.1276
 7533TIP3    H222543   6.674   5.757   1.565 -0.2579 -0.1039 -4.5337
 7534TIP3   OH222544   1.863   6.264   5.404  0.0573 -0.8297 -0.3616
 7534TIP3    H122545   1.798   6.249   5.336 -2.3609 -0.1866  1.6357
 7534TIP3    H222546   1.890   6.355   5.391  1.0784 -1.2812 -1.5714
 7535TIP3   OH222547   8.139   7.302  -0.010 -0.1433  0.1894  0.0406
 7535TIP3    H122548   8.222   7.331  -0.048  0.8110 -1.6713  0.6363
 7535TIP3    H222549   8.154   7.299   0.084 -0.8026 -0.4407  0.1345
 7536TIP3   OH222550   3.630   5.808   5.711  0.4433  0.0170 -0.3695
 7536TIP3    H122551   3.725   5.807   5.721  0.3754  0.7210  0.5557
 7536TIP3    H222552   3.604   5.717   5.722  0.9568 -0.0833  0.1136
 7537TIP3   OH222553   6.914   1.169   0.836  0.2728 -0.0611 -0.2871
 7537TIP3    H122554   6.865   1.154   0.756  0.0938 -0.8838 -0.0391
 7537TIP3    H222555   6.883   1.101   0.896 -0.3551  1.1972  0.8366
 7538TIP3   OH222556   0.741   7.178   3.257  0.3935  0.0434  0.1138
 7538TIP3    H122557   0.759   7.268   3.284  2.1176 -0.4660  0.7883
 7538TIP3    H222558   0.822   7.131   3.274 -0.1011 -1.4140 -1.2826
 7539TIP3   OH222559   2.053   6.046   4.610  0.3582 -0.1526  0.0718
 7539TIP3    H122560   2.058   5.952   4.595  0.7869 -0.0002 -0.8177
 7539TIP3    H222561   1.989   6.056   4.680 -0.3606 -1.0474 -0.4363
 7540TIP3   OH222562   3.926   5.441   4.316  0.4922  0.0022 -0.6107
 7540TIP3    H122563   3.929   5.347   4.298  0.4508  0.1995 -1.7544
 7540TIP3    H222564   3.979   5.452   4.395 -0.3692 -1.1046  0.1518
 7541TIP3   OH222565   3.169   5.739   5.281 -0.0091 -0.3963 -0.2063
 7541TIP3    H122566   3.121   5.819   5.307  0.2243 -0.6894  1.2011
 7541TIP3    H222567   3.100   5.679   5.251 -0.6545 -0.9987  2.2781
 7542TIP3   OH222568   6.622   3.885   3.824  0.9599  0.8203  0.2644
 7542TIP3    H122569   6.716   3.873   3.810  0.7355  0.8022 -1.3764
 7542TIP3    H222570   6.606   3.847   3.910  2.1047 -1.0361 -0.2864
 7543TIP3   OH222571   8.016   2.989   6.516 -0.0309 -0.1700  0.1207
 7543TIP3    H122572   8.076   2.993   6.442  0.7484 -1.1148  0.6770
 7543TIP3    H222573   8.072   3.006   6.592 -0.8667  1.0474  0.4859
 7544TIP3   OH222574   7.752   6.404   4.604  0.0340  0.8720 -0.3578
 7544TIP3    H122575   7.668   6.395   4.559  0.0619 -1.8683 -0.0397
 7544TIP3    H222576   7.736   6.368   4.691  1.9741 -1.7814 -0.9701
 7545TIP3   OH222577   3.172   7.430   6.049  0.1808  0.2508 -0.8300
 7545TIP3    H122578   3.236   7.366   6.080  2.5800  2.6431 -0.4844
 7545TIP3    H222579   3.110   7.439   6.122  1.2012  0.0416  0.0972
 7546TIP3   OH222580   4.172   0.087   0.235 -0.2746 -0.4040 -0.1754
 7546TIP3    H122581   4.213   0.030   0.170  0.2643  1.0173 -1.1233
 7546TIP3    H222582   4.173   0.174   0.195 -1.1970  0.2580  1.1755
 7547TIP3   OH222583   6.412   6.246   5.455  0.4890 -0.2735 -0.2551
 7547TIP3    H122584   6.339   6.220   5.399 -1.6587 -0.4414  2.4150
 7547TIP3    H222585   6.435   6.334   5.426  0.7328 -0.9945 -2.5010
 7548TIP3   OH222586   2.603   7.684   5.207  0.7822  0.1524  0.0299
 7548TIP3    H122587   2.588   7.615   5.272  0.8128 -0.7501 -0.8822
 7548TIP3    H222588   2.519   7.729   5.201  0.7809  0.2385  0.6957
 7549TIP3   OH222589   1.053   4.492   3.435  0.3548 -0.4690 -0.2786
 7549TIP3    H122590   0.987   4.430   3.463  1.4479 -1.8732 -0.7030
 7549TIP3    H222591   1.019   4.529   3.354 -1.5674  1.6067  1.3400
 7550TIP3   OH222592   6.076   5.735   3.482 -0.1547 -0.4741 -0.6270
 7550TIP3    H122593   6.095   5.653   3.528 -0.4140 -0.5931 -0.7283
 7550TIP3    H222594   6.110   5.721   3.394  0.3413 -0.2466 -0.4730
 7551TIP3   OH222595   4.012   5.699   0.105 -0.1133  0.6025  0.2187
 7551TIP3    H122596   4.077   5.638   0.140 -0.1751  0.6984  0.5039
 7551TIP3    H222597   3.962   5.726   0.182 -2.3945 -1.6978 -0.3217
 7552TIP3   OH222598   0.568   6.884   0.198  0.1334  0.2735 -0.8943
 7552TIP3    H122599   0.521   6.950   0.249 -1.3741 -1.9850  0.8443
 7552TIP3    H222600   0.633   6.848   0.259  0.6135 -0.1632 -1.6441
 7553TIP3   OH222601   2.758   5.957   4.614  0.1696 -0.4526  0.2204
 7553TIP3    H122602   2.746   5.973   4.708  0.4608  0.4307  0.1161
 7553TIP3    H222603   2.805   5.874   4.610 -1.1256 -1.2356  0.8035
 7554TIP3   OH222604   0.908   7.565   4.750 -0.2720  0.2964  0.5697
 7554TIP3    H122605   0.864   7.557   4.835  0.3782  0.1654  0.8951
 7554TIP3    H222606   0.924   7.659   4.741  2.9424  0.0333  2.3016
 7555TIP3   OH222607   6.343   7.010   5.678  0.6822  0.5015  0.3852
 7555TIP3    H122608   6.415   6.948   5.684  0.4187  0.1012 -0.3533
 7555TIP3    H222609   6.298   6.986   5.597  0.6432  1.7402  0.0208
 7556TIP3   OH222610   7.377   2.242   5.199 -0.3264  0.1408 -0.5201
 7556TIP3    H122611   7.303   2.197   5.240 -0.6821 -0.2641 -1.5786
 7556TIP3    H222612   7.428   2.172   5.157 -0.1602  0.5807 -1.0624
 7557TIP3   OH222613   7.220   1.980   5.886 -0.1720  0.2540  0.2842
 7557TIP3    H122614   7.278   1.946   5.819 -1.1703  1.0000 -1.0074
 7557TIP3    H222615   7.272   1.981   5.966  1.5168  0.7033 -0.7831
 7558TIP3   OH222616   2.555   2.253   6.271 -0.4394 -0.4041 -0.0106
 7558TIP3    H122617   2.479   2.308   6.257 -0.1401  0.2393  0.8514
 7558TIP3    H222618   2.588   2.235   6.183 -1.0995 -0.0088 -0.3431
 7559TIP3   OH222619   5.634   5.812   1.628 -0.1607  0.6225 -0.3182
 7559TIP3    H122620   5.580   5.837   1.703 -0.7599 -0.9813 -0.1607
 7559TIP3    H222621   5.652   5.894   1.583 -1.9034  1.3488  0.1985
 7560TIP3   OH222622   2.214   3.232   2.624  0.3570  0.0056  0.4444
 7560TIP3    H122623   2.169   3.148   2.637  1.6306 -0.8334 -0.2840
 7560TIP3    H222624   2.231   3.236   2.530 -1.9740  2.3647  0.0183
 7561TIP3   OH222625   5.212   4.902   1.892 -0.3389  0.0039 -0.7391
 7561TIP3    H122626   5.302   4.873   1.905 -0.3107 -0.1843 -1.3223
 7561TIP3    H222627   5.172   4.897   1.979 -0.2113 -1.3558 -0.7290
 7562TIP3   OH222628   6.693   4.210   2.009  0.3773 -0.0559 -0.1079
 7562TIP3    H122629   6.726   4.206   2.099  1.6614 -3.1528 -0.5810
 7562TIP3    H222630   6.604   4.174   2.015  1.0005 -1.6711 -0.2365
 7563TIP3   OH222631   4.765   6.324   5.919 -0.3590 -0.0678 -0.2763
 7563TIP3    H122632   4.737   6.292   6.004 -1.2966  0.3441 -0.4131
 7563TIP3    H222633   4.709   6.278   5.856 -1.7740  1.7918 -0.4759
 7564TIP3   OH222634   1.652   3.350   5.888 -0.1502  0.3492 -0.1459
 7564TIP3    H122635   1.621   3.309   5.969 -2.9164  1.8386 -0.3496
 7564TIP3    H222636   1.624   3.290   5.819  1.0660 -0.2797 -0.1161
 7565TIP3   OH222637   5.022   3.406   3.498  0.7955 -0.1677 -0.9122
 7565TIP3    H122638   5.074   3.413   3.578 -0.7988 -0.4828  0.2036
 7565TIP3    H222639   5.083   3.426   3.427  2.2244  0.2301  0.3902
 7566TIP3   OH222640   5.511   5.835   3.291 -0.5155  0.0277 -0.2470
 7566TIP3    H122641   5.603   5.836   3.264 -1.0399 -0.1714 -2.1461
 7566TIP3    H222642   5.510   5.887   3.372  1.3696 -0.5997  0.2418
 7567TIP3   OH222643   8.157   7.206   6.791 -0.2781 -0.4168 -0.2926
 7567TIP3    H122644   8.095   7.228   6.722 -0.8741 -0.7908  0.1196
 7567TIP3    H222645   8.198   7.125   6.763 -1.2254 -1.0958  0.2429
 7568TIP3   OH222646   4.366   3.721   1.240  0.5412  0.0843  0.0023
 7568TIP3    H122647   4.398   3.639   1.202  0.9298 -0.3098  1.1342
 7568TIP3    H222648   4.444   3.762   1.277 -0.2245 -1.2411  3.4751
 7569TIP3   OH222649   5.040   2.865   1.421 -0.3730 -0.0779  0.2419
 7569TIP3    H122650   5.039   2.781   1.375  0.9155  0.2610 -0.4216
 7569TIP3    H222651   5.003   2.927   1.358 -1.3616 -0.1335  0.7464
 7570TIP3   OH222652   6.286   1.075   5.324 -1.0280 -0.2959 -0.1913
 7570TIP3    H122653   6.295   1.041   5.413 -0.0331  0.2974 -0.0439
 7570TIP3    H222654   6.229   1.151   5.334  1.1507  1.3679  0.4285
 7571TIP3   OH222655   4.704   5.329   2.215 -0.2719 -1.1591 -0.3259
 7571TIP3    H122656   4.791   5.300   2.242  0.8183  1.7330 -0.3392
 7571TIP3    H222657   4.683   5.400   2.277 -0.8080  0.8676 -2.6679
 7572TIP3   OH222658   1.571   6.261   5.960  0.2216  0.2828 -0.1454
 7572TIP3    H122659   1.608   6.339   6.001  1.2491  0.5886 -1.6024
 7572TIP3    H222660   1.621   6.249   5.879  0.2183 -1.9813  0.1051
 7573TIP3   OH222661   4.889   2.196   4.430 -0.0471  0.9301  0.1024
 7573TIP3    H122662   4.829   2.197   4.505 -0.2552  3.9809  0.0174
 7573TIP3    H222663   4.862   2.270   4.376  0.3694 -0.8924 -2.8496
 7574TIP3   OH222664   4.002   4.221   6.410 -0.0261  0.0801 -0.7253
 7574TIP3    H122665   3.943   4.296   6.401  0.5115  0.6712  0.4819
 7574TIP3    H222666   4.073   4.239   6.349 -0.3538  0.0968 -1.1039
 7575TIP3   OH222667   0.047   4.520   6.707 -0.5229  0.1986 -0.7380
 7575TIP3    H122668   0.057   4.514   6.802 -0.5215  2.7250 -0.4994
 7575TIP3    H222669   0.137   4.513   6.673 -0.4051  0.3775 -0.4617
 7576TIP3   OH222670   7.867   5.126   1.614 -0.3928 -0.0031  0.1598
 7576TIP3    H122671   7.863   5.050   1.556  0.7330 -0.2681  0.4147
 7576TIP3    H222672   7.809   5.190   1.572 -0.6856 -0.6842 -0.5127
 7577TIP3   OH222673   0.847   5.964   4.710  0.1108  0.9806 -0.0657
 7577TIP3    H122674   0.854   5.884   4.658 -2.9955 -0.4914  1.4897
 7577TIP3    H222675   0.875   5.938   4.798  0.2362  1.9696  0.2040
 7578TIP3   OH222676   2.995   4.067   2.073  0.0008 -0.0685 -0.4303
 7578TIP3    H122677   3.072   4.038   2.122 -1.0291 -0.6085  0.9228
 7578TIP3    H222678   3.000   4.163   2.075  0.3218 -0.0912  0.1525
 7579TIP3   OH222679   3.331   7.698   6.709  0.1827  0.2614  0.5201
 7579TIP3    H122680   3.375   7.771   6.753  1.0912 -0.5769  1.0415
 7579TIP3    H222681   3.401   7.655   6.660 -0.5051  0.2155 -0.4369
 7580TIP3   OH222682   5.392   7.066   6.445  0.9376 -0.1538 -0.2921
 7580TIP3    H122683   5.385   6.986   6.499 -0.4708 -0.6984 -1.2397
 7580TIP3    H222684   5.404   7.136   6.509 -2.4216 -0.5483  0.9419
 7581TIP3   OH222685   1.176   5.102   0.172  0.1154 -0.0814  1.0179
 7581TIP3    H122686   1.246   5.037   0.173 -0.9334 -1.2618  0.4946
 7581TIP3    H222687   1.097   5.053   0.197 -0.8324  0.8002 -0.1142
 7582TIP3   OH222688   4.600   7.734   1.435 -0.0949  0.2984 -0.1087
 7582TIP3    H122689   4.592   7.809   1.493  0.0046  0.3277 -0.1326
 7582TIP3    H222690   4.602   7.771   1.347  0.1142  0.2807 -0.1131
 7583TIP3   OH222691   0.753   1.011   3.907  0.4801 -0.3403  0.0124
 7583TIP3    H122692   0.797   1.058   3.977  1.0769  0.3319 -0.7897
 7583TIP3    H222693   0.823   0.969   3.858  0.2776  0.7461 -1.2854
 7584TIP3   OH222694   3.434   2.138   3.854 -0.7197  0.1571 -0.1758
 7584TIP3    H122695   3.509   2.078   3.845 -0.8251 -0.1603  0.8794
 7584TIP3    H222696   3.460   2.197   3.925 -2.3947 -1.4571  1.9096
 7585TIP3   OH222697   0.915   2.517   0.801  0.3075 -0.4161 -0.2659
 7585TIP3    H122698   0.874   2.589   0.848 -0.3644 -0.6525 -0.4749
 7585TIP3    H222699   0.992   2.555   0.759 -0.0243  0.1665 -0.3460
 7586TIP3   OH222700   2.040   7.043   1.379 -0.5361 -0.2166 -0.1315
 7586TIP3    H122701   1.951   7.015   1.359 -0.8847  0.7481  0.0089
 7586TIP3    H222702   2.076   7.070   1.295 -0.7001  0.2683 -0.0485
 7587TIP3   OH222703   7.989   1.430   0.539 -0.2461  0.1134  0.3235
 7587TIP3    H122704   8.017   1.341   0.516 -1.2242 -0.2003  0.3107
 7587TIP3    H222705   8.040   1.452   0.617  1.1708  0.1654 -0.5845
 7588TIP3   OH222706   6.221   1.181   1.718 -0.0367  0.1430 -0.4892
 7588TIP3    H122707   6.243   1.232   1.639 -0.9864 -0.5296 -1.2049
 7588TIP3    H222708   6.127   1.193   1.729 -0.2614 -1.3488 -0.5995
 7589TIP3   OH222709   1.012   0.514  -0.024  0.4062  0.8286 -0.4529
 7589TIP3    H122710   1.064   0.528   0.056 -0.7206 -3.7916  1.4600
 7589TIP3    H222711   0.922   0.532   0.003 -0.0360 -1.1982 -0.3896
 7590TIP3   OH222712   6.386   7.600   0.644 -0.2116 -0.5159 -0.0506
 7590TIP3    H122713   6.352   7.566   0.561  3.5201  0.0175 -2.0580
 7590TIP3    H222714   6.366   7.694   0.641  2.1583  0.0351 -1.8131
 7591TIP3   OH222715   2.317   3.823   1.596  0.4165  0.1861 -0.3233
 7591TIP3    H122716   2.286   3.878   1.668 -3.0563 -0.7132 -0.9653
 7591TIP3    H222717   2.344   3.886   1.529 -1.0041  1.1422 -0.0523
 7592TIP3   OH222718   1.769   4.413   1.979 -0.3928  0.1350  0.2170
 7592TIP3    H122719   1.709   4.433   2.052  1.1232 -0.3687  1.6568
 7592TIP3    H222720   1.760   4.318   1.966 -1.3919  0.3622 -0.9742
 7593TIP3   OH222721   7.608   1.793   1.824  0.1639 -0.3249 -0.2025
 7593TIP3    H122722   7.656   1.748   1.754  2.2987 -0.2417  1.1172
 7593TIP3    H222723   7.517   1.768   1.809  0.8031 -2.0774 -1.7198
 7594TIP3   OH222724   2.707   1.330   4.635 -0.3965  0.0906 -0.1397
 7594TIP3    H122725   2.679   1.332   4.727 -0.1452 -1.2234 -0.0112
 7594TIP3    H222726   2.783   1.388   4.632 -2.8025  3.5366 -0.4405
 7595TIP3   OH222727   7.128   0.600   2.762 -0.4945 -0.1298  0.1199
 7595TIP3    H122728   7.199   0.600   2.826 -0.8960  1.2583  0.6094
 7595TIP3    H222729   7.079   0.680   2.781 -1.4007 -0.3720 -1.0752
 7596TIP3   OH222730   6.853   0.272   6.528 -0.2397 -0.3103  0.6006
 7596TIP3    H122731   6.878   0.285   6.436  1.4753 -1.4295  0.8731
 7596TIP3    H222732   6.757   0.270   6.527 -0.2872  0.8199 -0.9876
 7597TIP3   OH222733   1.854   3.567   1.635 -0.8000 -0.4231 -0.4543
 7597TIP3    H122734   1.827   3.511   1.708 -2.1003  1.8180  0.9091
 7597TIP3    H222735   1.778   3.624   1.620  0.2070  0.5312 -2.2150
 7598TIP3   OH222736   6.876   1.313   2.811 -0.4628 -0.5312  0.5949
 7598TIP3    H122737   6.928   1.244   2.852  0.6353  0.9215  1.7994
 7598TIP3    H222738   6.939   1.364   2.760 -1.4802 -1.1283 -1.3489
 7599TIP3   OH222739   2.550   1.898   5.670  0.6805 -0.2829  0.7582
 7599TIP3    H122740   2.504   1.867   5.748 -0.1323  0.1089  0.4437
 7599TIP3    H222741   2.597   1.821   5.638 -0.9464 -1.1261  0.2514
 7600TIP3   OH222742   4.188   2.752   6.739  0.0714  0.4096 -0.3297
 7600TIP3    H122743   4.171   2.731   6.831 -0.3115  0.2957 -0.4260
 7600TIP3    H222744   4.283   2.763   6.734  0.0946  0.3899  0.0738
 7601TIP3   OH222745   1.647   0.122   1.039 -0.1528  0.3133  0.6675
 7601TIP3    H122746   1.607   0.206   1.062 -1.1603 -0.1004  0.4834
 7601TIP3    H222747   1.581   0.057   1.061  0.7923 -0.4829  1.2340
 7602TIP3   OH222748   5.142   3.421   2.729 -0.2920  0.2286 -0.1835
 7602TIP3    H122749   5.084   3.371   2.672  1.7990 -2.3771 -0.2156
 7602TIP3    H222750   5.169   3.496   2.676 -0.2971 -0.8410 -1.7744
 7603TIP3   OH222751   4.476   2.777   2.185  0.8057  0.7230  0.5746
 7603TIP3    H122752   4.430   2.696   2.209 -0.4249  1.1749 -0.1988
 7603TIP3    H222753   4.552   2.747   2.135 -1.0487  0.0801 -2.0623
 7604TIP3   OH222754   5.541   0.702   2.246 -0.1810  0.1278  0.1875
 7604TIP3    H122755   5.550   0.637   2.177  0.8728 -0.1940  0.6136
 7604TIP3    H222756   5.527   0.651   2.326  1.5029  0.3713  0.6629
 7605TIP3   OH222757   8.129   1.726   2.734 -0.1591 -0.1745  0.1300
 7605TIP3    H122758   8.069   1.782   2.783  0.1726 -1.0514  1.5916
 7605TIP3    H222759   8.216   1.760   2.753 -0.0824  0.2080 -0.8337
 7606TIP3   OH222760   0.084   1.282   1.561 -0.6129 -0.2720 -0.4421
 7606TIP3    H122761   0.091   1.377   1.547 -0.4422 -0.0858  0.8219
 7606TIP3    H222762   0.007   1.256   1.510 -1.1574  0.6847 -0.1302
 7607TIP3   OH222763   2.147   1.150   3.646  0.4597 -0.0373  0.3607
 7607TIP3    H122764   2.133   1.244   3.639  1.0050  0.1313  1.3087
 7607TIP3    H222765   2.059   1.114   3.655  0.2664  0.4083  0.3028
 7608TIP3   OH222766   4.466   4.697   5.194 -0.1920  0.4795 -0.4820
 7608TIP3    H122767   4.414   4.623   5.161  0.5147  0.5378 -1.7813
 7608TIP3    H222768   4.483   4.675   5.286 -1.1403 -0.3052 -0.4714
 7609TIP3   OH222769   2.847   5.771   6.589 -0.5721  0.2942 -0.1940
 7609TIP3    H122770   2.888   5.817   6.663 -0.9522  0.2446  0.0492
 7609TIP3    H222771   2.863   5.828   6.514  0.6734 -0.1263 -0.2626
 7610TIP3   OH222772   2.385   1.062   5.771 -0.2252 -0.6042 -0.3374
 7610TIP3    H122773   2.452   1.085   5.706 -0.3315  0.2853 -0.1475
 7610TIP3    H222774   2.307   1.110   5.742 -0.2616 -0.1623  0.4683
 7611TIP3   OH222775   7.384   6.673   4.928 -0.3398 -0.1057 -0.3524
 7611TIP3    H122776   7.341   6.721   4.857 -1.9141  1.2085  1.3937
 7611TIP3    H222777   7.467   6.644   4.890 -1.8675 -1.0728 -3.2743
 7612TIP3   OH222778   0.854   0.041   0.196  0.0646 -0.1397 -0.4569
 7612TIP3    H122779   0.822   0.050   0.286 -1.5669 -1.1651 -0.8898
 7612TIP3    H222780   0.871   0.130   0.168  0.2948  0.2216  0.7700
 7613TIP3   OH222781   3.318   0.082   5.511  0.2296  0.1853  0.1910
 7613TIP3    H122782   3.308   0.172   5.479 -0.6448  0.4467  1.1508
 7613TIP3    H222783   3.380   0.090   5.584  0.6570 -0.0925 -0.1410
 7614TIP3   OH222784   6.689   6.282   5.866  0.0829  0.4690  0.2900
 7614TIP3    H122785   6.672   6.285   5.960 -0.5244  1.5711  0.1497
 7614TIP3    H222786   6.603   6.275   5.826  0.3864 -1.1061 -0.1715
 7615TIP3   OH222787   1.358   4.749   5.255  0.3240  0.0312 -0.6567
 7615TIP3    H122788   1.265   4.733   5.237  0.0146  2.6653 -1.8884
 7615TIP3    H222789   1.403   4.706   5.182 -0.1714  1.0375 -1.5968
 7616TIP3   OH222790   0.883   1.601   0.846  0.5077 -0.0665 -0.1708
 7616TIP3    H122791   0.911   1.509   0.849  0.1602 -0.1804 -0.3159
 7616TIP3    H222792   0.904   1.630   0.757 -0.0095 -0.2104 -0.3416
 7617TIP3   OH222793   2.939   0.688   0.572  0.2407  0.4122  0.2750
 7617TIP3    H122794   3.003   0.759   0.565 -0.6732  1.3252  0.9059
 7617TIP3    H222795   2.939   0.664   0.664 -3.0797  3.1455  1.1891
 7618TIP3   OH222796   3.946   6.088   3.508 -0.3224  0.3101  0.0769
 7618TIP3    H122797   3.980   6.147   3.574 -0.8666  1.2706 -0.4755
 7618TIP3    H222798   3.980   6.122   3.425  0.6095 -1.0531 -0.1244
 7619TIP3   OH222799   2.297   6.893   1.056  0.5601  0.2000 -0.2555
 7619TIP3    H122800   2.293   6.843   0.974 -0.1754  1.0382 -0.7372
 7619TIP3    H222801   2.386   6.878   1.088 -0.1314 -2.8720  0.5566
 7620TIP3   OH222802   6.685   4.311   0.269  0.0456 -0.3672 -0.2252
 7620TIP3    H122803   6.777   4.287   0.266  0.4211  1.0099 -0.3308
 7620TIP3    H222804   6.670   4.341   0.359 -0.1912 -0.2221 -0.3102
 7621TIP3   OH222805   0.483   2.574   3.688 -0.1806 -0.4407  0.5423
 7621TIP3    H122806   0.532   2.512   3.742 -0.4250 -1.4090 -0.3051
 7621TIP3    H222807   0.550   2.630   3.648 -0.0078  0.3553  1.9016
 7622TIP3   OH222808   8.181   2.967   4.097  0.6762 -0.2954  0.0106
 7622TIP3    H122809   8.263   2.935   4.135 -0.0032 -0.5421  1.3543
 7622TIP3    H222810   8.113   2.915   4.141 -0.1791 -0.3642 -1.3550
 7623TIP3   OH222811   1.920   0.581   1.565  0.4238 -0.1683  0.1203
 7623TIP3    H122812   1.981   0.534   1.623  0.0638  0.3419  0.9277
 7623TIP3    H222813   1.902   0.519   1.495  1.0446 -0.7237  0.4360
 7624TIP3   OH222814   8.262   3.267   4.520 -0.2935  0.1330  0.1598
 7624TIP3    H122815   8.327   3.323   4.479 -1.0217  1.6281  0.9489
 7624TIP3    H222816   8.197   3.328   4.556 -1.0964 -1.2217  1.1076
 7625TIP3   OH222817  -0.022   2.251   0.707 -0.2519 -0.9218  0.7662
 7625TIP3    H122818  -0.040   2.345   0.713 -0.4060 -0.7968 -1.0649
 7625TIP3    H222819   0.068   2.246   0.675 -0.6181 -1.3398 -0.2593
 7626TIP3   OH222820   7.132   4.050   1.944  0.1611  0.0920 -0.3651
 7626TIP3    H122821   7.147   4.089   2.031 -2.8916  1.0344 -0.1575
 7626TIP3    H222822   7.105   3.961   1.963  0.6704 -0.0828 -0.4446
 7627TIP3   OH222823   7.028   1.185   1.631  0.0796 -0.6317 -0.1637
 7627TIP3    H122824   7.078   1.262   1.605  0.0158 -0.6102 -0.2225
 7627TIP3    H222825   6.945   1.220   1.663  0.5653 -0.5689  1.1276
 7628TIP3   OH222826   6.168   5.164   5.076 -0.1967 -0.0853 -0.8066
 7628TIP3    H122827   6.187   5.085   5.026 -0.0782  0.1051 -1.0640
 7628TIP3    H222828   6.093   5.140   5.130  1.4144 -1.1987  1.0590
 7629TIP3   OH222829   2.997   0.252   5.849 -0.0940 -0.1918 -0.4607
 7629TIP3    H122830   2.928   0.267   5.914 -0.3125 -2.5694 -0.0623
 7629TIP3    H222831   3.078   0.249   5.901 -0.1696 -1.2530 -0.3921
 7630TIP3   OH222832   1.723   2.606   5.219 -0.5368  0.3647  0.4045
 7630TIP3    H122833   1.742   2.546   5.290  2.8090 -2.5980 -2.6061
 7630TIP3    H222834   1.668   2.556   5.159 -1.7987  2.1550 -0.0527
 7631TIP3   OH222835   4.714   5.058   3.327  0.2395 -0.1850  0.1503
 7631TIP3    H122836   4.758   4.994   3.383  0.3735  0.0898  0.3628
 7631TIP3    H222837   4.751   5.142   3.354 -0.9773  0.1387  0.8760
 7632TIP3   OH222838   4.347   6.388   0.443  0.1942  0.2583  0.6121
 7632TIP3    H122839   4.364   6.368   0.351 -0.2870  0.8930  0.3757
 7632TIP3    H222840   4.344   6.484   0.446  0.0609  0.2356  1.2600
 7633TIP3   OH222841   2.606   3.316   1.368 -0.3256  0.0782  0.4326
 7633TIP3    H122842   2.689   3.363   1.357  1.2155 -2.5896 -0.1924
 7633TIP3    H222843   2.555   3.371   1.428  1.0834  2.7484 -0.6578
 7634TIP3   OH222844   5.981   7.668   4.963 -0.0414 -0.1311 -0.0622
 7634TIP3    H122845   6.034   7.738   4.923  0.5383 -0.9665 -0.8093
 7634TIP3    H222846   5.891   7.695   4.947  0.0517  2.0212  2.4470
 7635TIP3   OH222847   6.714   0.250   1.936  0.0723 -0.8518 -0.1885
 7635TIP3    H122848   6.763   0.321   1.978 -1.1367  0.3993 -0.7807
 7635TIP3    H222849   6.644   0.229   1.997 -1.4002  0.6390 -1.2701
 7636TIP3   OH222850   2.022   1.926   3.361 -0.2041  0.9396 -0.4372
 7636TIP3    H122851   2.069   1.955   3.283 -0.7125  0.3382 -0.9864
 7636TIP3    H222852   2.075   1.957   3.435  1.0935  0.2330 -1.0314
 7637TIP3   OH222853   2.276   7.352   4.994  0.0845  0.1757  0.4701
 7637TIP3    H122854   2.298   7.289   5.061  1.6748 -1.4762 -1.4780
 7637TIP3    H222855   2.352   7.410   4.989  0.8794 -0.9500 -1.2071
 7638TIP3   OH222856   0.831   1.689   2.425  0.1304  0.3513 -0.0947
 7638TIP3    H122857   0.920   1.672   2.455  0.3599  3.0781  1.0858
 7638TIP3    H222858   0.841   1.718   2.334  0.1519 -1.4821 -0.7148
 7639TIP3   OH222859   7.798   1.196   6.494  0.4755 -0.5938 -0.2072
 7639TIP3    H122860   7.708   1.201   6.461  0.4625  0.2522 -0.0787
 7639TIP3    H222861   7.850   1.170   6.418  0.4422  1.2886 -0.9284
 7640TIP3   OH222862   4.004   3.267   2.656  0.3235 -0.3905 -0.6327
 7640TIP3    H122863   3.938   3.208   2.692  1.4515 -1.4152 -0.1716
 7640TIP3    H222864   4.036   3.223   2.578  1.3530 -0.5384 -0.1470
 7641TIP3   OH222865   0.780   1.529   3.357  0.2166  0.5830  1.2452
 7641TIP3    H122866   0.700   1.580   3.351  0.3540  0.7105  0.4440
 7641TIP3    H222867   0.830   1.571   3.427  0.7500  2.1578 -0.0264
 7642TIP3   OH222868   6.812   1.604   3.429  0.1688  0.3794  0.4451
 7642TIP3    H122869   6.719   1.581   3.424 -0.0168  1.2501 -0.4977
 7642TIP3    H222870   6.816   1.671   3.497 -0.0387  0.9471 -0.0909
 7643TIP3   OH222871   2.508   6.461   3.657  0.1973  0.2077  0.2301
 7643TIP3    H122872   2.555   6.530   3.703  1.0998  0.0606 -0.4438
 7643TIP3    H222873   2.484   6.398   3.725  1.3809  0.0608  0.5253
 7644TIP3   OH222874   0.236   2.594   6.165 -0.4454  0.1994 -0.1212
 7644TIP3    H122875   0.200   2.615   6.078  1.3170  0.0851 -0.9242
 7644TIP3    H222876   0.245   2.679   6.208 -1.4966  0.2415  0.0254
 7645TIP3   OH222877   3.825   1.121   6.092 -0.1813  0.0220  0.1561
 7645TIP3    H122878   3.831   1.163   6.006 -0.1447  2.0229  1.0838
 7645TIP3    H222879   3.913   1.129   6.129 -0.7901  1.5965  1.3995
 7646TIP3   OH222880   4.182   3.717   3.562  0.4396  0.1846 -0.7989
 7646TIP3    H122881   4.146   3.628   3.556 -1.1936  0.8782 -2.1523
 7646TIP3    H222882   4.174   3.752   3.473  1.3553  1.5945 -0.3593
 7647TIP3   OH222883   0.099   0.729   0.954  0.1950  0.0556 -0.0646
 7647TIP3    H122884   0.031   0.745   1.020 -0.1999  1.8784 -0.8462
 7647TIP3    H222885   0.101   0.634   0.944 -0.8761 -0.1505  1.3847
 7648TIP3   OH222886   4.690   1.074   3.043 -0.2151 -0.1521  0.2373
 7648TIP3    H122887   4.729   1.147   3.092  1.5184 -0.7348 -0.1713
 7648TIP3    H222888   4.596   1.081   3.059  0.0316  1.4056  1.2376
 7649TIP3   OH222889   0.627   2.411   5.400 -0.0786 -0.0271 -0.5307
 7649TIP3    H122890   0.546   2.459   5.382  0.1280  0.5076 -0.0727
 7649TIP3    H222891   0.598   2.333   5.448 -0.0787  2.2682  3.7319
 7650TIP3   OH222892   2.946   7.455   5.047  0.5397 -0.0319  0.3707
 7650TIP3    H122893   2.914   7.503   5.124  2.0177  0.8405  0.4784
 7650TIP3    H222894   2.866   7.425   5.003 -0.3621  0.2089  1.7523
 7651TIP3   OH222895   0.298   6.370   3.742 -0.0951  0.3198  0.0960
 7651TIP3    H122896   0.367   6.399   3.683 -2.6739 -0.1572 -3.5350
 7651TIP3    H222897   0.305   6.275   3.744 -1.2239  0.1693 -1.2653
 7652TIP3   OH222898   5.228   6.086   2.087 -0.1311 -0.1780 -0.1866
 7652TIP3    H122899   5.184   6.032   2.153 -0.2990  1.6053  1.2414
 7652TIP3    H222900   5.182   6.066   2.006 -2.4175  0.2522  0.9205
 7653TIP3   OH222901   1.317   3.130   4.947 -0.0133  0.3819  0.2255
 7653TIP3    H122902   1.274   3.062   4.999 -0.2014  1.2282  1.2287
 7653TIP3    H222903   1.315   3.208   5.003 -0.1103  1.3123 -1.0089
 7654TIP3   OH222904   0.585   5.230   4.329 -0.1930  0.1450  0.2422
 7654TIP3    H122905   0.586   5.291   4.404 -0.7928 -0.9380  1.1586
 7654TIP3    H222906   0.650   5.163   4.353  0.7782  0.6147 -0.9536
 7655TIP3   OH222907   3.903   7.505   6.750 -0.2843  0.1980 -0.2588
 7655TIP3    H122908   3.815   7.474   6.771 -0.7722  1.0706 -0.9532
 7655TIP3    H222909   3.933   7.449   6.679 -0.8822  0.8368 -1.0294
 7656TIP3   OH222910   5.809   0.846   2.307  0.2792 -0.3967 -0.4406
 7656TIP3    H122911   5.823   0.898   2.387 -0.2242  2.1607 -1.8905
 7656TIP3    H222912   5.744   0.781   2.333 -0.6936  1.0460  1.0129
 7657TIP3   OH222913   0.645   1.304   5.044 -0.4907 -0.7511 -0.3231
 7657TIP3    H122914   0.717   1.336   4.990 -0.4561 -2.0642 -1.0934
 7657TIP3    H222915   0.566   1.322   4.992 -0.6832  0.1209  0.2458
 7658TIP3   OH222916   8.073   2.287   4.021 -0.0871 -0.0098 -1.0236
 7658TIP3    H122917   8.023   2.310   3.942 -1.8026  1.4593  0.3946
 7658TIP3    H222918   8.090   2.372   4.063 -0.7317 -0.8423  1.0356
 7659TIP3   OH222919   5.534   7.137   1.116 -0.0878 -0.3114  0.3906
 7659TIP3    H122920   5.598   7.130   1.187 -0.4698 -1.1203  0.6758
 7659TIP3    H222921   5.453   7.103   1.154 -0.2568 -0.9195 -0.4741
 7660TIP3   OH222922   5.551   5.810   5.470 -0.3454  0.4550  0.3181
 7660TIP3    H122923   5.462   5.832   5.445 -0.8310  0.7325  2.1642
 7660TIP3    H222924   5.574   5.874   5.538  0.8164 -0.3623  0.7351
 7661TIP3   OH222925   3.261   5.103   0.249  0.4498  1.1653 -0.3816
 7661TIP3    H122926   3.299   5.156   0.319  0.3069  1.0615 -0.2238
 7661TIP3    H222927   3.173   5.082   0.280  0.7844  0.1430 -0.0667
 7662TIP3   OH222928   0.848   3.302   2.661 -0.5274 -0.0852  0.1205
 7662TIP3    H122929   0.889   3.231   2.710  1.2484  0.2484 -0.7837
 7662TIP3    H222930   0.810   3.359   2.728  0.1111 -0.6679  0.9954
 7663TIP3   OH222931   1.212   6.665   3.226 -0.6416  0.0955 -0.1281
 7663TIP3    H122932   1.161   6.616   3.161 -0.2600 -1.8200  0.9511
 7663TIP3    H222933   1.250   6.598   3.282  1.5301  1.5749  0.2589
 7664TIP3   OH222934   6.575   1.824   5.542  0.5741  0.7863 -0.0541
 7664TIP3    H122935   6.507   1.890   5.557  1.0033  0.7256  2.4982
 7664TIP3    H222936   6.657   1.869   5.561  1.3452  0.7704 -2.8090
 7665TIP3   OH222937   0.787   1.001   5.823 -0.8295  0.0758  0.5280
 7665TIP3    H122938   0.716   0.972   5.881  0.3427  2.6931  3.5443
 7665TIP3    H222939   0.758   1.086   5.789  0.2890  0.5377  0.6937
 7666TIP3   OH222940   7.586   4.694   4.457 -0.3277  0.2810 -0.6874
 7666TIP3    H122941   7.605   4.616   4.510 -1.1578  0.2297 -0.4522
 7666TIP3    H222942   7.672   4.725   4.429  0.4558  1.8023  2.8022
 7667TIP3   OH222943   5.007   0.154   2.847  0.2186  0.3793 -0.3731
 7667TIP3    H122944   5.019   0.075   2.794  0.7973 -0.5180  1.0190
 7667TIP3    H222945   5.096   0.179   2.872 -0.1001 -1.1245  2.7577
 7668TIP3   OH222946   2.230   3.539   2.071 -0.2895  1.0909 -0.3466
 7668TIP3    H122947   2.152   3.486   2.089 -2.2012  2.5750 -3.4819
 7668TIP3    H222948   2.206   3.627   2.101  0.0893  1.5797 -1.4255
 7669TIP3   OH222949   6.908   0.026   1.016  0.1218  0.2658  0.1873
 7669TIP3    H122950   6.860   0.050   1.096  1.6981 -0.7089  1.4820
 7669TIP3    H222951   6.987   0.081   1.018 -0.9503  2.0873 -2.0853
 7670TIP3   OH222952   5.222   6.099   2.746 -0.4009  0.0691 -0.5237
 7670TIP3    H122953   5.157   6.113   2.815 -1.6167 -0.8121 -1.4297
 7670TIP3    H222954   5.260   6.014   2.766 -0.8674 -0.2602 -1.0008
 7671TIP3   OH222955   8.023   5.390   2.115 -0.2829 -0.1396  0.0240
 7671TIP3    H122956   8.051   5.299   2.108 -0.0959 -0.0162 -1.1721
 7671TIP3    H222957   8.087   5.438   2.061 -1.6190  0.4103 -1.1418
 7672TIP3   OH222958   1.764   6.805   2.763  0.0163  0.4244 -0.4812
 7672TIP3    H122959   1.696   6.739   2.773  0.0857  0.4237  0.0401
 7672TIP3    H222960   1.835   6.774   2.819 -0.2049  1.2609  0.2828
 7673TIP3   OH222961   1.449   7.420   3.656  0.2543  0.5264  0.3380
 7673TIP3    H122962   1.518   7.427   3.589  1.7692 -0.3460  1.7301
 7673TIP3    H222963   1.450   7.328   3.681  0.5340  1.0418  2.3680
 7674TIP3   OH222964   0.329   4.626   3.695 -0.7671  0.1683  0.1162
 7674TIP3    H122965   0.246   4.669   3.675 -1.2685  0.2620  2.1373
 7674TIP3    H222966   0.352   4.658   3.783  0.9660 -0.5305 -0.0383
 7675TIP3   OH222967   7.335   1.634   6.111  0.5250 -0.1309  0.2466
 7675TIP3    H122968   7.371   1.664   6.195 -0.0066 -2.0851  1.2390
 7675TIP3    H222969   7.242   1.620   6.128  0.0997  0.8259 -1.1115
 7676TIP3   OH222970   3.362   4.091   5.273  0.6021 -0.2524  0.2263
 7676TIP3    H122971   3.430   4.125   5.214  1.9046 -1.8272  0.7527
 7676TIP3    H222972   3.408   4.030   5.330 -0.8061  0.5221  2.2950
 7677TIP3   OH222973   6.008   5.924   3.857  0.4820  0.3545 -0.1433
 7677TIP3    H122974   6.091   5.882   3.835 -1.5452 -3.3755 -1.5033
 7677TIP3    H222975   5.985   5.887   3.943 -0.0392  0.9806 -0.0056
 7678TIP3   OH222976   7.755   4.648   4.926  0.1103  0.1730  0.1651
 7678TIP3    H122977   7.740   4.580   4.861 -0.5422  0.0581  0.4243
 7678TIP3    H222978   7.846   4.674   4.914 -0.4224  1.2781 -1.8721
 7679TIP3   OH222979   3.668   1.921   6.133 -0.2360 -0.2761  0.1600
 7679TIP3    H122980   3.718   1.862   6.077  0.1975  0.6660 -0.4621
 7679TIP3    H222981   3.733   1.961   6.191 -0.5889 -0.7402  0.8908
 7680TIP3   OH222982   7.654   4.669   3.257 -0.0827  0.4343 -0.3258
 7680TIP3    H122983   7.724   4.706   3.311  0.7936 -0.1116 -1.0397
 7680TIP3    H222984   7.668   4.575   3.261  0.0061  0.3806 -1.4771
 7681TIP3   OH222985   6.936   0.373   1.185  0.3669  0.1817 -0.3239
 7681TIP3    H122986   6.951   0.463   1.158  0.2176 -0.5889 -3.3882
 7681TIP3    H222987   7.022   0.340   1.212  0.6409  0.9065 -0.3076
 7682TIP3   OH222988   0.836   3.899   5.684 -0.3357 -0.5600  0.0504
 7682TIP3    H122989   0.855   3.857   5.769 -0.6921 -0.8979 -0.0343
 7682TIP3    H222990   0.831   3.992   5.704 -0.6928 -0.6616  0.4585
 7683TIP3   OH222991   1.444   2.763   4.255  0.3156  0.0348  0.2374
 7683TIP3    H122992   1.482   2.821   4.189  0.9757  0.4354  0.9600
 7683TIP3    H222993   1.350   2.767   4.238  0.4699  0.1702 -0.6484
 7684TIP3   OH222994   5.786   7.271   1.614  0.0139 -0.0459  0.2633
 7684TIP3    H122995   5.773   7.364   1.600 -0.1785  0.0877  1.2630
 7684TIP3    H222996   5.743   7.229   1.539 -2.6287  0.5490  1.3301
 7685TIP3   OH222997   6.630   4.404   4.155 -0.2429  0.7883 -0.3493
 7685TIP3    H122998   6.537   4.384   4.165 -0.0448  0.2797  0.6103
 7685TIP3    H222999   6.670   4.322   4.125  0.3404  0.0673  2.1733
 7686TIP3   OH223000   4.812   3.607   1.560 -0.2652 -0.4964  0.3081
 7686TIP3    H123001   4.735   3.663   1.547 -0.9640 -1.6603 -0.7245
 7686TIP3    H223002   4.852   3.640   1.640 -0.8294  1.2773 -0.0999
 7687TIP3   OH223003   0.058   6.869   4.213  0.2358  0.1664 -0.0034
 7687TIP3    H123004   0.077   6.945   4.157 -0.1334 -0.7946 -1.4964
 7687TIP3    H223005  -0.016   6.826   4.170  0.2824 -0.9025  0.9519
 7688TIP3   OH223006   3.677   3.487   2.787  0.0664  0.5874 -0.7522
 7688TIP3    H123007   3.725   3.498   2.869  0.2029  1.5538 -0.9533
 7688TIP3    H223008   3.591   3.526   2.804 -0.5099 -0.6950 -0.5525
 7689TIP3   OH223009   5.411   3.897   2.291 -0.0480  0.3645  0.3044
 7689TIP3    H123010   5.453   3.859   2.369  1.4411 -1.3638 -1.2489
 7689TIP3    H223011   5.476   3.958   2.257 -0.1676  0.1630 -0.2867
 7690TIP3   OH223012   5.561   0.101   4.448  0.1098  0.1875  0.5250
 7690TIP3    H123013   5.510   0.102   4.367 -2.6054 -2.0114  2.0354
 7690TIP3    H223014   5.518   0.166   4.504 -0.3157 -0.7782  1.3666
 7691TIP3   OH223015   7.343   2.942   6.706  0.2411  0.2586  0.2822
 7691TIP3    H123016   7.377   3.032   6.704 -1.0032  0.7497 -2.1586
 7691TIP3    H223017   7.420   2.887   6.691  0.6908  1.0795 -0.5730
 7692TIP3   OH223018   2.388   6.508   5.650 -0.0903 -0.3275 -0.0453
 7692TIP3    H123019   2.347   6.539   5.731  1.2806 -0.5766  0.7914
 7692TIP3    H223020   2.326   6.445   5.614  0.3944 -2.2663  2.2550
 7693TIP3   OH223021   2.743   2.576   1.617  0.1119  0.1046 -0.2646
 7693TIP3    H123022   2.785   2.530   1.544 -1.3032  0.4751 -1.3575
 7693TIP3    H223023   2.686   2.510   1.657 -0.9500  0.5221 -1.0384
 7694TIP3   OH223024   5.140   5.221   0.121  0.1876 -0.0786 -0.0823
 7694TIP3    H123025   5.051   5.239   0.089  0.0534 -0.6427 -0.0480
 7694TIP3    H223026   5.146   5.125   0.121  1.1798 -0.0432 -1.1445
 7695TIP3   OH223027   6.429   0.687   6.097 -0.1609 -0.5293 -0.6298
 7695TIP3    H123028   6.521   0.701   6.075 -0.0704 -0.3777 -0.1723
 7695TIP3    H223029   6.428   0.608   6.150 -0.1046  0.2245  0.5462
 7696TIP3   OH223030   1.976   0.835   1.020 -0.5958  0.3827 -0.4124
 7696TIP3    H123031   2.023   0.774   1.076 -1.3596  1.1711  1.1481
 7696TIP3    H223032   1.931   0.779   0.957 -0.2088 -0.5723  0.1331
 7697TIP3   OH223033   2.658   7.731   0.225  0.0886 -0.6318 -0.2648
 7697TIP3    H123034   2.594   7.753   0.294 -0.3883 -2.3870 -0.1018
 7697TIP3    H223035   2.740   7.768   0.257 -0.6418  0.9337 -0.0701
 7698TIP3   OH223036   4.462   5.220   4.061 -0.5372 -0.4022 -0.0097
 7698TIP3    H123037   4.444   5.165   3.984  0.3761 -0.4346 -0.2152
 7698TIP3    H223038   4.426   5.306   4.039  1.3155  0.1069 -1.2641
 7699TIP3   OH223039   6.354   5.654   3.584 -0.1711 -0.6650 -0.5288
 7699TIP3    H123040   6.337   5.563   3.608  1.5103 -0.7318  0.5556
 7699TIP3    H223041   6.320   5.661   3.495  0.8622 -2.7495 -1.1714
 7700TIP3   OH223042   0.618   2.650   2.468  0.7458 -0.3244 -0.8339
 7700TIP3    H123043   0.703   2.609   2.485  1.0234 -0.2772 -2.0477
 7700TIP3    H223044   0.619   2.671   2.374 -0.4799 -0.0259 -0.7995
 7701TIP3   OH223045   0.197   7.193   4.398  0.3630 -0.3891 -0.7279
 7701TIP3    H123046   0.153   7.202   4.313 -1.6294 -0.6858  0.2105
 7701TIP3    H223047   0.228   7.281   4.418 -0.4666  0.0040 -1.1082
 7702TIP3   OH223048   3.828   0.227   3.492  0.1780 -0.2686 -0.2261
 7702TIP3    H123049   3.847   0.138   3.523 -0.1784 -0.3955 -0.3728
 7702TIP3    H223050   3.895   0.244   3.426  0.6286 -0.1920  0.2448
 7703TIP3   OH223051   4.092   6.112   6.345  0.2037  0.1881 -0.1510
 7703TIP3    H123052   4.064   6.194   6.386  0.1511  0.1084 -0.0261
 7703TIP3    H223053   4.016   6.055   6.351  0.1703  0.2026 -0.4336
 7704TIP3   OH223054   1.094   5.854   4.030 -0.2875 -0.0493 -0.5507
 7704TIP3    H123055   1.121   5.788   3.966 -0.5342 -0.3733 -0.3259
 7704TIP3    H223056   1.171   5.870   4.084 -0.7037 -1.4477  0.5050
 7705TIP3   OH223057   7.805   2.847   3.292 -0.1592  0.5256  0.3515
 7705TIP3    H123058   7.887   2.798   3.288 -0.1789  0.3926  1.3572
 7705TIP3    H223059   7.773   2.849   3.202 -0.4565 -1.8331  0.3571
 7706TIP3   OH223060   0.569   2.759   1.958  0.0933  0.1836 -0.6949
 7706TIP3    H123061   0.663   2.771   1.951  0.0081 -0.0516 -3.8972
 7706TIP3    H223062   0.533   2.848   1.960  0.3267  0.2783 -0.7822
 7707TIP3   OH223063   3.764   6.352   1.852 -0.2007  0.0454 -0.3697
 7707TIP3    H123064   3.740   6.428   1.799 -0.3355 -0.9190 -1.7627
 7707TIP3    H223065   3.855   6.368   1.877  0.1534  0.1619 -1.6366
 7708TIP3   OH223066   2.018   3.850   1.415  0.0706 -0.1939  0.0938
 7708TIP3    H123067   1.991   3.917   1.477  0.0876 -0.1444  0.0478
 7708TIP3    H223068   2.033   3.772   1.468 -0.8246 -0.4107  0.0466
 7709TIP3   OH223069   5.313   5.659   3.716  0.0672  0.3669 -0.3537
 7709TIP3    H123070   5.320   5.641   3.623  1.0262 -1.0957 -0.0410
 7709TIP3    H223071   5.354   5.744   3.728  2.6810 -0.7070 -0.9096
 7710TIP3   OH223072   6.361   7.644   0.031  0.0659 -0.2152 -0.4382
 7710TIP3    H123073   6.295   7.581   0.058  0.4215 -1.1009 -1.5391
 7710TIP3    H223074   6.341   7.723   0.080 -2.1211 -0.3019 -1.1204
 7711TIP3   OH223075   7.424   5.010   3.501  0.2401 -0.1016 -0.0408
 7711TIP3    H123076   7.515   5.015   3.472  0.2565  1.4558  0.1968
 7711TIP3    H223077   7.423   4.935   3.561  1.3555 -0.1555 -0.0546
 7712TIP3   OH223078   3.472   4.391   2.525  0.5982 -0.0564 -0.2744
 7712TIP3    H123079   3.496   4.443   2.448 -0.4044  0.0730 -0.5125
 7712TIP3    H223080   3.377   4.388   2.523  0.5794 -0.4422  0.7170
 7713TIP3   OH223081   5.202   6.703   5.786 -0.3208  0.1028 -0.2449
 7713TIP3    H123082   5.255   6.636   5.830 -0.0200 -0.7984 -1.8954
 7713TIP3    H223083   5.114   6.692   5.821 -0.1822 -0.8905 -0.1802
 7714TIP3   OH223084   0.089   1.903   3.232  0.6692  0.0662 -0.1477
 7714TIP3    H123085   0.168   1.956   3.247  0.7221 -0.4965  1.9178
 7714TIP3    H223086   0.110   1.850   3.156  0.8738  2.4643 -1.8770
 7715TIP3   OH223087   0.106   2.696   6.438 -0.2969  0.4706 -0.6715
 7715TIP3    H123088   0.056   2.735   6.510  0.9729  2.2389 -0.6894
 7715TIP3    H223089   0.189   2.671   6.478 -0.3056 -0.3574 -1.1393
 7716TIP3   OH223090   3.456   0.101   3.523 -0.3295  0.0638  0.0997
 7716TIP3    H123091   3.384   0.163   3.534 -1.0400 -0.8405  0.6796
 7716TIP3    H223092   3.493   0.092   3.611 -0.1097 -0.1983 -0.0189
 7717TIP3   OH223093   6.378   3.616   2.975 -0.1766 -0.2203  0.1305
 7717TIP3    H123094   6.367   3.554   2.903  1.6345 -0.2440 -0.1832
 7717TIP3    H223095   6.318   3.687   2.955 -1.2970 -1.2288 -0.2238
 7718TIP3   OH223096   1.949   7.179   4.067  0.2166  0.1848 -0.4454
 7718TIP3    H123097   1.964   7.272   4.079  2.6531 -0.0969 -0.8456
 7718TIP3    H223098   2.022   7.149   4.012 -1.3176 -1.6907 -1.6068
 7719TIP3   OH223099   1.391   5.259   6.534 -0.2672  0.0286 -0.1002
 7719TIP3    H123100   1.421   5.344   6.501  3.1604 -0.0498  2.2388
 7719TIP3    H223101   1.467   5.202   6.525 -1.8080 -2.2301  0.3991
 7720TIP3   OH223102   7.119   0.134   4.816 -0.1292 -0.2000  0.3907
 7720TIP3    H123103   7.095   0.089   4.897  1.4352  0.1756  1.0938
 7720TIP3    H223104   7.212   0.153   4.826  0.1994 -0.5081 -1.6853
 7721TIP3   OH223105   6.624   6.620   1.870 -0.6766 -0.1059  0.1167
 7721TIP3    H123106   6.636   6.578   1.955  0.3038 -2.3628 -1.0537
 7721TIP3    H223107   6.671   6.703   1.877 -2.0601  0.5567  2.2896
 7722TIP3   OH223108   6.450   6.797   1.719  0.4010 -0.1892 -0.1720
 7722TIP3    H123109   6.507   6.722   1.737  0.9655  0.7040  2.2149
 7722TIP3    H223110   6.496   6.871   1.760 -0.8561  1.1961 -1.1653
 7723TIP3   OH223111   1.879   4.250   0.106 -0.0144 -0.4617  0.4383
 7723TIP3    H123112   1.938   4.177   0.126 -1.4438 -2.9074 -3.1172
 7723TIP3    H223113   1.938   4.321   0.078  1.3752 -2.1167 -1.0938
 7724TIP3   OH223114   2.130   3.333   3.564  0.2927  0.0550 -0.2732
 7724TIP3    H123115   2.086   3.279   3.630  0.4488 -1.6004 -1.4596
 7724TIP3    H223116   2.109   3.423   3.589 -1.6230 -0.5976  0.6471
 7725TIP3   OH223117   1.338   6.338   2.390 -0.4806  0.3661  0.5882
 7725TIP3    H123118   1.429   6.322   2.414 -0.4688 -0.6598 -0.0612
 7725TIP3    H223119   1.318   6.425   2.424  0.3590  0.0947  1.8154
 7726TIP3   OH223120   7.929   4.718   3.760 -0.2443  0.4378  0.0955
 7726TIP3    H123121   7.905   4.644   3.704 -1.5033 -0.2282  1.4412
 7726TIP3    H223122   7.862   4.785   3.741  0.0143  0.6598 -0.0382
 7727TIP3   OH223123   4.744   3.111   4.835 -0.2701  0.2461  0.7820
 7727TIP3    H123124   4.649   3.104   4.821 -0.6351  1.2636  2.4685
 7727TIP3    H223125   4.782   3.091   4.749 -2.0176  0.2873 -0.0564
 7728TIP3   OH223126   4.611   5.634   3.513  0.8797  0.5673 -0.3762
 7728TIP3    H123127   4.660   5.588   3.444 -0.5048  0.2569 -1.1882
 7728TIP3    H223128   4.554   5.566   3.551  0.2447  1.1676 -0.2341
 7729TIP3   OH223129   1.170   4.313   1.719  0.2135  0.1653 -0.4064
 7729TIP3    H123130   1.223   4.380   1.676 -0.3061  0.6627 -0.2798
 7729TIP3    H223131   1.234   4.257   1.763  0.6195  0.9834  0.0669
 7730TIP3   OH223132   1.351   6.827   6.233  0.5953 -0.4881  0.7422
 7730TIP3    H123133   1.265   6.785   6.233  0.7586 -0.9951  3.4398
 7730TIP3    H223134   1.409   6.764   6.275  1.9115  0.5283  0.5170
 7731TIP3   OH223135   0.253   5.204   3.378  0.4267 -0.3263  0.1250
 7731TIP3    H123136   0.167   5.206   3.335 -0.5022 -1.7788  1.7676
 7731TIP3    H223137   0.255   5.283   3.431  0.4776  0.1568 -0.5920
 7732TIP3   OH223138   0.682   4.466   1.138  0.7309  0.0547  0.3098
 7732TIP3    H123139   0.722   4.413   1.207 -3.3428  0.0589  2.9992
 7732TIP3    H223140   0.646   4.542   1.184 -0.9579  0.8068 -2.0873
 7733TIP3   OH223141   2.584   3.119   3.483 -0.3124  0.8884 -0.3158
 7733TIP3    H123142   2.604   3.081   3.398  0.8621 -0.4903  0.5292
 7733TIP3    H223143   2.518   3.186   3.464 -0.7595  0.0015 -2.1778
 7734TIP3   OH223144   0.158   4.096   3.810  0.2574 -0.0535  0.0136
 7734TIP3    H123145   0.095   4.029   3.836  1.1400 -0.3953  1.3473
 7734TIP3    H223146   0.218   4.050   3.750 -0.2634  0.0652 -0.6119
 7735TIP3   OH223147   0.863   0.073   0.756  0.2094 -0.3615 -0.3709
 7735TIP3    H123148   0.833   0.119   0.835  0.2371 -0.5956 -0.2255
 7735TIP3    H223149   0.876   0.143   0.692 -1.1277 -0.2826 -0.6050
 7736TIP3   OH223150   6.516   6.486   0.408  0.1588 -0.6849 -0.0919
 7736TIP3    H123151   6.534   6.578   0.389 -0.9985 -0.4005  0.1047
 7736TIP3    H223152   6.478   6.486   0.496  1.7434 -1.5566  0.6472
 7737TIP3   OH223153   6.313   0.276   6.783  0.1981  0.2185 -0.0952
 7737TIP3    H123154   6.307   0.365   6.817 -0.8865 -0.5137  1.8050
 7737TIP3    H223155   6.339   0.286   6.691  1.3453  2.4080  0.4184
 7738TIP3   OH223156   4.764   1.272   0.432 -0.3296  0.7145 -0.2821
 7738TIP3    H123157   4.723   1.277   0.346  0.4024 -0.5580 -0.7311
 7738TIP3    H223158   4.721   1.341   0.483 -2.4441 -0.0287 -0.9448
 7739TIP3   OH223159   7.191   6.487   4.972 -0.5346  0.4404 -0.1754
 7739TIP3    H123160   7.262   6.545   4.944  1.2912 -1.0451  1.0642
 7739TIP3    H223161   7.188   6.419   4.904 -2.5416  1.7866 -1.5298
 7740TIP3   OH223162   7.273   0.469   6.032  0.0007  0.2457  0.0189
 7740TIP3    H123163   7.359   0.484   6.071 -0.2318  0.0069  0.6304
 7740TIP3    H223164   7.284   0.494   5.940  0.6491  0.4712  0.1521
 7741TIP3   OH223165   3.114   5.122   4.246 -0.3027 -0.2471 -0.5193
 7741TIP3    H123166   3.140   5.149   4.334 -1.4964 -1.1599  0.1273
 7741TIP3    H223167   3.109   5.027   4.250 -0.4795 -0.2936 -1.5559
 7742TIP3   OH223168   0.468   3.633   4.013 -0.1543 -0.4465 -0.2762
 7742TIP3    H123169   0.527   3.652   3.941 -0.3234 -1.5513 -0.7261
 7742TIP3    H223170   0.381   3.629   3.973 -0.1409 -1.9848 -0.2063
 7743TIP3   OH223171   6.209   0.410   4.098  0.0801  0.1079  0.2992
 7743TIP3    H123172   6.176   0.355   4.169  0.4380  0.3721  0.6690
 7743TIP3    H223173   6.142   0.402   4.029 -0.2117 -0.2356  0.6185
 7744TIP3   OH223174   1.129   6.938   0.066 -0.1782  0.0496 -0.0572
 7744TIP3    H123175   1.173   6.937  -0.019 -0.3992  0.5562 -0.1810
 7744TIP3    H223176   1.038   6.960   0.046  0.1070  1.9220  0.4390
 7745TIP3   OH223177   4.505   0.086   2.578 -0.0596  0.3284 -0.8376
 7745TIP3    H123178   4.486   0.051   2.665 -1.2927  0.7072 -0.9349
 7745TIP3    H223179   4.528   0.009   2.525  3.4272  0.3394  0.4313
 7746TIP3   OH223180   7.707   7.113   2.602 -0.2907 -0.4063 -0.7632
 7746TIP3    H123181   7.736   7.147   2.518 -0.9373  2.2382  0.0061
 7746TIP3    H223182   7.777   7.138   2.664 -0.4529 -1.1289 -0.2731
 7747TIP3   OH223183   4.047   7.404   3.728  0.0759  0.1847  0.1972
 7747TIP3    H123184   4.125   7.360   3.695  0.4717 -0.0806  1.4293
 7747TIP3    H223185   4.031   7.475   3.666 -0.7190 -1.7722 -1.9857
 7748TIP3   OH223186   4.825   6.126   0.812 -0.0188 -0.1284 -0.1072
 7748TIP3    H123187   4.857   6.036   0.817  1.3994  0.2484 -1.7287
 7748TIP3    H223188   4.730   6.118   0.817  0.1074 -1.6830  0.1406
 7749TIP3   OH223189   0.297   6.096   3.688  0.2953  0.0190  0.4175
 7749TIP3    H123190   0.304   6.066   3.597  0.2163 -0.5696  0.6037
 7749TIP3    H223191   0.367   6.049   3.734 -0.1200 -0.2316  0.8028
 7750TIP3   OH223192   3.723   0.040   4.423  0.3467 -0.2473 -0.6860
 7750TIP3    H123193   3.678   0.119   4.453  0.4145 -0.1826 -0.7548
 7750TIP3    H223194   3.652  -0.023   4.407  0.3976 -0.8251  1.1662
 7751TIP3   OH223195   2.939   6.189   3.182  0.0727  0.3367  0.1723
 7751TIP3    H123196   3.020   6.161   3.140  1.7040  1.5238  2.3053
 7751TIP3    H223197   2.927   6.128   3.254 -0.7549  0.3747  0.0713
 7752TIP3   OH223198   2.136   6.457   2.127 -0.0118 -0.6749 -0.0946
 7752TIP3    H123199   2.088   6.526   2.173 -0.5880 -0.6474 -0.7202
 7752TIP3    H223200   2.221   6.454   2.171  0.6196  1.5173 -1.0470
 7753TIP3   OH223201   5.583   3.730   4.293  0.0211 -0.3837  0.1005
 7753TIP3    H123202   5.570   3.676   4.216 -1.4487  0.1646 -0.0550
 7753TIP3    H223203   5.673   3.710   4.321  0.0328 -1.7430 -0.8214
 7754TIP3   OH223204   5.971   6.206   0.691  0.0199 -0.2375  0.2078
 7754TIP3    H123205   5.892   6.169   0.731 -0.4694  0.6818  0.1047
 7754TIP3    H223206   5.950   6.298   0.676 -0.0102 -0.6285 -2.6352
 7755TIP3   OH223207   3.602   6.788   5.168  0.2009 -0.3322 -0.1693
 7755TIP3    H123208   3.565   6.850   5.232 -1.4953 -1.1168 -0.3335
 7755TIP3    H223209   3.574   6.821   5.083  1.3913  0.0152 -0.4398
 7756TIP3   OH223210   3.589   6.598   5.565  0.8306 -0.1381  0.4493
 7756TIP3    H123211   3.660   6.603   5.630  1.6040 -5.4395  0.4700
 7756TIP3    H223212   3.634   6.587   5.481 -0.1294  1.1872 -0.2757
 7757TIP3   OH223213   4.611   6.673   1.816 -0.3419 -0.0693  1.0217
 7757TIP3    H123214   4.602   6.765   1.793  0.3051 -0.5467 -1.5175
 7757TIP3    H223215   4.619   6.628   1.731  2.6800 -2.0983  2.2086
 7758TIP3   OH223216   0.713   1.846   0.622 -0.0365  0.4603 -0.0500
 7758TIP3    H123217   0.756   1.931   0.619  0.6758  0.1606  0.9900
 7758TIP3    H223218   0.782   1.783   0.597 -0.2102  0.0892  0.3831
 7759TIP3   OH223219   1.749   5.970   0.799  0.3191  0.2434  0.0866
 7759TIP3    H123220   1.670   5.960   0.852 -0.3168  1.2320 -0.6367
 7759TIP3    H223221   1.808   6.021   0.854 -0.0636  0.6485  0.1322
 7760TIP3   OH223222   6.471   6.600   0.894 -0.2145 -0.3934  0.0276
 7760TIP3    H123223   6.514   6.685   0.888 -1.4489  0.1848 -0.7325
 7760TIP3    H223224   6.470   6.580   0.988  1.6451 -0.4102  0.0812
 7761TIP3   OH223225   0.031   4.916   6.204  0.0166  0.0462  0.4907
 7761TIP3    H123226   0.054   4.900   6.113 -1.6638  0.5686 -0.0560
 7761TIP3    H223227   0.115   4.927   6.248  0.8902 -1.0343 -0.8167
 7762TIP3   OH223228   5.546   6.323   3.159 -0.2120  0.0798 -0.0183
 7762TIP3    H123229   5.594   6.242   3.172  0.7260  1.0013  2.9527
 7762TIP3    H223230   5.456   6.302   3.182 -0.3392 -0.4888 -0.9673
 7763TIP3   OH223231   2.631   2.398   5.174  0.5355 -0.1882  0.2633
 7763TIP3    H123232   2.680   2.415   5.093  1.6619  0.5849  1.0710
 7763TIP3    H223233   2.542   2.381   5.145  0.7157  0.9694 -1.1015
 7764TIP3   OH223234   1.735   3.021   6.780  0.0493 -0.0545 -0.4141
 7764TIP3    H123235   1.723   2.942   6.832 -0.0079  0.3298  0.1667
 7764TIP3    H223236   1.735   2.990   6.689 -4.2255 -0.2822 -0.5352
 7765TIP3   OH223237   6.993   7.432   5.468  0.0740  0.0870  0.1135
 7765TIP3    H123238   7.070   7.408   5.520 -0.6384 -2.2600  0.2154
 7765TIP3    H223239   6.985   7.526   5.479  3.5532  0.6423 -0.8003
 7766TIP3   OH223240   0.023   3.434   2.285 -0.9950 -0.6642  0.6133
 7766TIP3    H123241  -0.008   3.523   2.267 -0.7909 -0.4150  1.4544
 7766TIP3    H223242   0.113   3.446   2.316  0.5250 -1.4588 -3.0094
 7767TIP3   OH223243   3.222   7.680   4.563  0.3468  0.1316 -0.0856
 7767TIP3    H123244   3.317   7.674   4.572  0.4137  0.5980 -0.4217
 7767TIP3    H223245   3.200   7.764   4.603 -0.0678 -0.4609  0.9895
 7768TIP3   OH223246   0.157   5.408   0.364  0.1053  0.1520 -0.5224
 7768TIP3    H123247   0.223   5.450   0.418 -0.6541  2.0476 -0.9897
 7768TIP3    H223248   0.150   5.463   0.286 -0.8244 -0.9458 -1.2567
 7769TIP3   OH223249   3.067   2.932   4.357  0.1025  0.3636 -0.5542
 7769TIP3    H123250   2.997   2.872   4.379 -0.6623  0.8602 -1.5573
 7769TIP3    H223251   3.131   2.878   4.311  0.2950 -0.0444  0.1743
 7770TIP3   OH223252   7.889   3.605   6.005  0.6405  0.5027 -0.1123
 7770TIP3    H123253   7.981   3.629   6.003  0.5155  1.4262  2.2425
 7770TIP3    H223254   7.849   3.667   6.066 -1.2292 -0.8074  0.0896
 7771TIP3   OH223255   4.886   7.669   3.831  0.0596  0.4495 -0.7194
 7771TIP3    H123256   4.806   7.669   3.780  0.2524  1.4127 -1.0525
 7771TIP3    H223257   4.956   7.661   3.767  0.2214 -0.9238 -0.3893
 7772TIP3   OH223258   0.710   2.163   3.053 -0.3358 -0.1157 -0.0061
 7772TIP3    H123259   0.764   2.242   3.040 -0.8486  0.0884 -0.9833
 7772TIP3    H223260   0.756   2.115   3.122 -0.0961  1.1023  0.7277
 7773TIP3   OH223261   7.410   1.573   4.374 -0.2655  0.1122 -0.0811
 7773TIP3    H123262   7.499   1.608   4.365 -0.1331 -0.4138 -0.8842
 7773TIP3    H223263   7.416   1.484   4.339 -1.6059  0.8210 -2.2682
 7774TIP3   OH223264   3.050   3.933   4.349  0.5639  0.4771  0.1740
 7774TIP3    H123265   3.133   3.895   4.379  1.4679  0.2003 -2.4109
 7774TIP3    H223266   2.984   3.868   4.372  1.3299 -0.1772  0.5822
 7775TIP3   OH223267   3.272   0.958   3.076  0.0470 -0.0615  0.4010
 7775TIP3    H123268   3.240   1.048   3.081 -1.4136 -0.5274 -0.0792
 7775TIP3    H223269   3.316   0.954   2.991  0.6209  0.3335  0.6676
 7776TIP3   OH223270   2.214   4.839   5.582 -0.0808 -0.3454 -0.1581
 7776TIP3    H123271   2.301   4.879   5.586 -0.2668  0.1618 -0.9352
 7776TIP3    H223272   2.185   4.854   5.493 -0.6139 -1.2857 -0.1556
 7777TIP3   OH223273   6.565   2.050   3.708  0.1066  0.5359 -0.3005
 7777TIP3    H123274   6.483   2.050   3.660  0.2056 -2.8925 -0.6930
 7777TIP3    H223275   6.628   2.089   3.648 -0.5536 -0.0615 -1.4141
 7778TIP3   OH223276   6.353   3.875   5.978  0.4032 -0.0301  0.0980
 7778TIP3    H123277   6.306   3.948   5.937 -0.6177 -0.8346 -0.1962
 7778TIP3    H223278   6.365   3.903   6.069 -1.9602 -0.3846  0.5817
 7779TIP3   OH223279   5.682   0.078   3.869 -0.1868  0.5208 -0.6603
 7779TIP3    H123280   5.704   0.167   3.897 -0.4841  0.2746  0.4244
 7779TIP3    H223281   5.746   0.057   3.801  0.7172  1.0896 -0.0066
 7780TIP3   OH223282   2.072   2.336   3.309  0.3990  0.0738  0.2248
 7780TIP3    H123283   2.001   2.395   3.283  0.4808 -0.0655 -0.3169
 7780TIP3    H223284   2.045   2.302   3.394  0.2606  0.7453  0.4533
 7781TIP3   OH223285   1.329   6.642   1.621  0.3437 -0.0573 -0.5775
 7781TIP3    H123286   1.351   6.686   1.539 -0.1415  2.4609  0.5469
 7781TIP3    H223287   1.406   6.654   1.676  0.1844 -0.6206 -0.2213
 7782TIP3   OH223288   7.545   6.783   3.308 -0.1196 -0.5454 -0.2623
 7782TIP3    H123289   7.543   6.785   3.403  0.7345 -1.4020 -0.2086
 7782TIP3    H223290   7.613   6.847   3.284  0.4586 -1.1417 -0.2376
 7783TIP3   OH223291   4.623   5.782   2.358  0.2085 -0.5118 -0.1008
 7783TIP3    H123292   4.568   5.775   2.280 -0.3869 -0.9009  0.3444
 7783TIP3    H223293   4.640   5.691   2.383  0.2717 -0.3911  0.3021
 7784TIP3   OH223294   0.701   2.626   5.685 -0.2465 -0.3865  0.1758
 7784TIP3    H123295   0.740   2.707   5.718 -1.0421  1.1127 -2.2317
 7784TIP3    H223296   0.731   2.621   5.594 -0.6762 -2.5179  0.1067
 7785TIP3   OH223297   6.414   0.378   4.428 -0.0116 -0.2870  0.0777
 7785TIP3    H123298   6.479   0.320   4.468  0.3347 -0.0318 -0.1177
 7785TIP3    H223299   6.465   0.448   4.388 -0.3802 -0.2907 -0.4159
 7786TIP3   OH223300   3.758   1.244   5.869 -0.5562  0.0232 -0.2685
 7786TIP3    H123301   3.809   1.169   5.839  1.7153  0.7081  1.6317
 7786TIP3    H223302   3.748   1.298   5.790  0.9787 -0.5133 -0.8624
 7787TIP3   OH223303   4.072   5.673   5.704 -0.5104  0.1843 -0.2717
 7787TIP3    H123304   3.998   5.733   5.709 -0.1524  0.5679  0.8204
 7787TIP3    H223305   4.132   5.714   5.642 -1.7396 -0.7792 -2.1996
 7788TIP3   OH223306   5.087   2.611   2.059 -0.2827  0.4070 -0.0564
 7788TIP3    H123307   5.073   2.649   2.145  3.5493 -1.9956  1.9179
 7788TIP3    H223308   5.178   2.633   2.037  0.0735 -2.1506 -1.6732
 7789TIP3   OH223309   3.110   0.616   5.710 -0.1864 -0.1597  0.3917
 7789TIP3    H123310   3.041   0.614   5.776  0.6568  1.6183  1.3868
 7789TIP3    H223311   3.191   0.629   5.760  0.3817  2.1339 -0.9730
 7790TIP3   OH223312   2.239   3.885   0.409  0.8734  0.1549  0.3330
 7790TIP3    H123313   2.283   3.964   0.440  1.1877 -0.3114  1.1058
 7790TIP3    H223314   2.146   3.910   0.405  0.9637  0.5499  0.6216
 7791TIP3   OH223315   7.144   6.182   4.129  0.5830 -0.0302  0.0528
 7791TIP3    H123316   7.092   6.162   4.051  1.5497  0.3383 -0.7140
 7791TIP3    H223317   7.087   6.161   4.202 -0.3553 -0.3807 -0.7565
 7792TIP3   OH223318   2.337   3.266   3.373  0.0944  0.1041 -0.5413
 7792TIP3    H123319   2.342   3.350   3.328 -1.5756  0.0867 -0.8453
 7792TIP3    H223320   2.271   3.279   3.441  2.6503  0.1794  2.1102
 7793TIP3   OH223321   1.941   0.278   6.250  0.3830  0.3994  0.2176
 7793TIP3    H123322   1.908   0.326   6.326  0.1446  1.2281 -0.3930
 7793TIP3    H223323   1.942   0.186   6.277  0.4203  0.6996  1.2585
 7794TIP3   OH223324   3.075   1.395   6.589 -0.0270  0.4820  0.3274
 7794TIP3    H123325   3.103   1.484   6.609 -0.4247  0.5808  0.4496
 7794TIP3    H223326   2.981   1.403   6.569  0.0421  0.1650 -0.1394
 7795TIP3   OH223327   1.949   7.401   0.236 -0.1348 -0.1070 -0.1705
 7795TIP3    H123328   2.001   7.336   0.283 -1.8304 -2.0179 -0.7999
 7795TIP3    H223329   1.862   7.396   0.277 -1.1908 -0.6216 -2.3427
 7796TIP3   OH223330   3.154   0.527   6.147 -0.5675 -0.3898 -0.3243
 7796TIP3    H123331   3.073   0.480   6.124 -0.4552 -1.2082  0.8136
 7796TIP3    H223332   3.124   0.607   6.190 -0.7643  0.2788 -1.6836
 7797TIP3   OH223333   6.564   3.181   1.413 -0.3816 -0.2405  0.1592
 7797TIP3    H123334   6.583   3.146   1.500  1.0329  0.4846  0.1808
 7797TIP3    H223335   6.572   3.276   1.423  2.3575 -0.2156 -1.2390
 7798TIP3   OH223336   0.326   7.675   2.628  0.0222  0.2748 -0.2401
 7798TIP3    H123337   0.393   7.718   2.574 -2.3330  1.0138 -2.8395
 7798TIP3    H223338   0.340   7.710   2.716  2.2075  1.3720 -0.9357
 7799TIP3   OH223339   1.845   2.011   4.386 -0.5250  0.1275  0.1658
 7799TIP3    H123340   1.922   1.988   4.439  1.3045  0.2754 -2.2263
 7799TIP3    H223341   1.802   1.927   4.367  0.6994 -0.3330 -0.7426
 7800TIP3   OH223342   7.642   7.480   0.928 -0.4748 -0.1794  0.2458
 7800TIP3    H123343   7.673   7.570   0.936 -1.6484  0.2439  0.1441
 7800TIP3    H223344   7.700   7.441   0.862 -1.0144  0.9876 -0.9545
 7801TIP3   OH223345   6.062   7.656   2.047 -0.2288  0.2905  0.1552
 7801TIP3    H123346   6.095   7.574   2.083 -0.0082  0.3808  0.1555
 7801TIP3    H223347   6.093   7.656   1.956  1.8944  1.5260  0.8140
 7802TIP3   OH223348   3.218   6.432   2.602  0.1957  0.3267  0.0889
 7802TIP3    H123349   3.263   6.351   2.625 -2.1577 -1.4349 -1.0964
 7802TIP3    H223350   3.179   6.414   2.516 -1.2900  2.3457  0.2692
 7803TIP3   OH223351   7.950   5.745   1.897  0.1101  0.1234  0.4791
 7803TIP3    H123352   7.871   5.768   1.848 -0.4752 -0.5812  1.0706
 7803TIP3    H223353   8.022   5.783   1.846 -0.7146  2.2565  0.8130
 7804TIP3   OH223354   7.725   5.418   5.013 -0.4815 -0.4719 -0.3125
 7804TIP3    H123355   7.709   5.512   5.028  1.3381 -0.0577 -0.7219
 7804TIP3    H223356   7.645   5.386   4.972 -1.5055  0.6885  0.7008
 7805TIP3   OH223357   2.545   2.576   6.067  0.2295  0.0603 -0.1878
 7805TIP3    H123358   2.472   2.515   6.071 -0.3735  0.8299  1.1944
 7805TIP3    H223359   2.516   2.643   6.004 -1.6287  1.9469  2.4215
 7806TIP3   OH223360   0.379   5.125   0.883 -0.2008  0.4534  0.1279
 7806TIP3    H123361   0.333   5.129   0.799 -0.5096  0.6117  0.3081
 7806TIP3    H223362   0.472   5.129   0.858 -0.2052 -1.4172 -0.3473
 7807TIP3   OH223363   5.343   6.289   4.052 -0.4162 -0.5696  0.3134
 7807TIP3    H123364   5.353   6.202   4.090  2.1466 -0.5867 -0.2158
 7807TIP3    H223365   5.290   6.275   3.973 -1.6802 -1.2859  1.2570
 7808TIP3   OH223366   4.170   4.831   2.022 -0.4528  0.3505  0.1909
 7808TIP3    H123367   4.197   4.861   2.109  0.5952 -0.7002  0.2487
 7808TIP3    H223368   4.079   4.861   2.013 -0.2494  1.3483  1.2263
 7809TIP3   OH223369   4.325   5.170   5.160  0.1198  0.0286 -0.4645
 7809TIP3    H123370   4.345   5.091   5.210 -0.7849  0.4795  0.6323
 7809TIP3    H223371   4.389   5.234   5.190 -0.5127  0.3413  0.2449
 7810TIP3   OH223372   1.841   2.448   0.649 -0.1233 -0.0586 -0.1006
 7810TIP3    H123373   1.846   2.352   0.650  1.0390 -0.0092  1.3168
 7810TIP3    H223374   1.892   2.474   0.572 -1.5889 -0.5935 -1.3014
 7811TIP3   OH223375   7.285   0.316   5.118 -0.5727 -0.6212  0.0303
 7811TIP3    H123376   7.325   0.355   5.197 -0.6323 -0.5517  0.0260
 7811TIP3    H223377   7.240   0.389   5.076 -0.7641 -0.7163  0.0716
 7812TIP3   OH223378   4.764   6.553   1.444  0.1676 -0.1167  0.1660
 7812TIP3    H123379   4.831   6.497   1.404 -0.1964 -1.4952  1.3729
 7812TIP3    H223380   4.682   6.510   1.422 -0.1219 -0.0417  1.0589
 7813TIP3   OH223381   6.230   4.255   3.230 -0.1324 -0.0832 -0.0486
 7813TIP3    H123382   6.151   4.254   3.284  0.5821  0.7647  1.0375
 7813TIP3    H223383   6.276   4.174   3.254  0.4001  0.5082  0.9612
 7814TIP3   OH223384   2.491   4.707   3.078 -0.2266  0.2374 -0.5943
 7814TIP3    H123385   2.568   4.676   3.031 -0.0149 -0.1688  0.0108
 7814TIP3    H223386   2.463   4.632   3.131  0.1496  0.9780  0.7106
 7815TIP3   OH223387   1.152   1.695   5.877 -0.0059 -0.4048  0.5654
 7815TIP3    H123388   1.157   1.629   5.946 -1.0019 -0.3160  0.7386
 7815TIP3    H223389   1.084   1.756   5.907  0.1271  0.0913 -0.1118
 7816TIP3   OH223390   7.912   4.850   2.369  0.4507 -0.3892 -0.2759
 7816TIP3    H123391   7.912   4.755   2.371  1.8603 -0.4093  1.9372
 7816TIP3    H223392   8.004   4.873   2.356  0.1914  0.6764 -0.3152
 7817TIP3   OH223393   7.374   3.172   4.042 -0.2967 -0.5086  0.1114
 7817TIP3    H123394   7.464   3.160   4.071 -0.4886  1.5259  1.7802
 7817TIP3    H223395   7.381   3.228   3.965 -0.1463  0.0811  0.5479
 7818TIP3   OH223396   3.700   7.039   6.612  0.3066 -0.2166  0.2392
 7818TIP3    H123397   3.725   7.073   6.698 -1.2125  3.4097 -0.5610
 7818TIP3    H223398   3.777   7.056   6.557  0.6122 -0.8273  0.4736
 7819TIP3   OH223399   2.754   4.789   1.846  0.2328  0.1596  1.0913
 7819TIP3    H123400   2.718   4.831   1.767  0.8478 -0.5758  0.3949
 7819TIP3    H223401   2.734   4.696   1.834  2.4879 -0.3153  0.5718
 7820TIP3   OH223402   2.454   0.799   2.473 -0.0764 -0.5056 -0.1583
 7820TIP3    H123403   2.473   0.763   2.559  1.3599 -1.3337 -0.7929
 7820TIP3    H223404   2.538   0.800   2.428 -0.8318 -0.2941 -1.6295
 7821TIP3   OH223405   4.603   4.619   1.662 -0.1186  0.0123  0.6181
 7821TIP3    H123406   4.691   4.590   1.685  0.3597  2.1071  1.7180
 7821TIP3    H223407   4.554   4.615   1.744 -1.8683 -3.4868 -0.4361
 7822TIP3   OH223408   6.227   3.732   6.599 -0.1704 -0.2443  1.0032
 7822TIP3    H123409   6.191   3.800   6.542 -0.6230 -1.1349  0.2056
 7822TIP3    H223410   6.250   3.660   6.540  0.6812 -0.6378  1.7841
 7823TIP3   OH223411   4.885   4.567  -0.007  0.1693 -0.3211 -0.0873
 7823TIP3    H123412   4.950   4.537   0.056 -1.8210 -1.6761  1.4500
 7823TIP3    H223413   4.802   4.563   0.041 -1.4071 -1.1235 -2.6944
 7824TIP3   OH223414   5.806   6.403   5.408  0.1144 -0.1622  0.9220
 7824TIP3    H123415   5.900   6.403   5.425 -0.0513 -0.3384  1.8752
 7824TIP3    H223416   5.772   6.331   5.462 -0.6210  0.1709  0.9143
 7825TIP3   OH223417   5.050   4.070   4.801 -0.2510 -0.0166  0.1818
 7825TIP3    H123418   5.091   4.137   4.746 -2.0859 -0.8394 -2.3319
 7825TIP3    H223419   5.117   4.049   4.867  2.5780  0.2031 -2.4082
 7826TIP3   OH223420   0.498   4.410   6.256  0.0179  0.4668 -0.6298
 7826TIP3    H123421   0.520   4.392   6.164  2.7803  0.1778 -0.0083
 7826TIP3    H223422   0.560   4.358   6.306 -0.1654  2.0604  1.3923
 7827TIP3   OH223423   7.863   3.752   2.026 -0.3113  0.5722  0.3042
 7827TIP3    H123424   7.806   3.826   2.004 -0.1041  0.2983 -1.2374
 7827TIP3    H223425   7.802   3.683   2.054 -0.8770  0.0086 -2.0892
 7828TIP3   OH223426   4.895   5.282   4.699 -0.0694 -0.2542 -0.6720
 7828TIP3    H123427   4.808   5.320   4.683 -0.7658 -0.3623  2.3052
 7828TIP3    H223428   4.931   5.335   4.770  0.5198 -2.7219  0.9874
 7829TIP3   OH223429   2.130   2.707   5.961  0.1325 -0.1521  0.3839
 7829TIP3    H123430   2.180   2.638   5.917  0.5011 -1.0466  2.1025
 7829TIP3    H223431   2.197   2.766   5.996 -0.0629 -0.4060  1.2045
 7830TIP3   OH223432   2.854   2.514   1.352 -0.4533 -0.1598 -0.9100
 7830TIP3    H123433   2.876   2.589   1.296  0.8871  0.2434  0.0807
 7830TIP3    H223434   2.936   2.466   1.360 -0.5933 -0.1619  0.7435
 7831TIP3   OH223435   6.220   3.076   2.083 -0.1026  0.6170 -0.2303
 7831TIP3    H123436   6.261   2.992   2.104 -0.9307 -0.2458 -1.9027
 7831TIP3    H223437   6.277   3.141   2.124  0.4995 -0.7439  1.1949
 7832TIP3   OH223438   5.023   5.276   5.155 -0.3235  0.3761  0.4230
 7832TIP3    H123439   5.021   5.305   5.247 -0.8144  2.6673 -0.2439
 7832TIP3    H223440   4.933   5.250   5.137  0.0153 -1.2382  0.8776
 7833TIP3   OH223441   6.348   0.198   5.740  0.7778 -0.1463 -0.1664
 7833TIP3    H123442   6.417   0.219   5.803 -1.1844  0.3745  1.9468
 7833TIP3    H223443   6.355   0.266   5.673  0.1692  2.0961  1.8934
 7834TIP3   OH223444   5.312   6.974   0.201 -0.5572  0.2961  0.4428
 7834TIP3    H123445   5.265   6.958   0.283 -1.8742  0.0275 -0.3309
 7834TIP3    H223446   5.280   7.060   0.172  0.8303  0.9605  0.8052
 7835TIP3   OH223447   1.234   1.057   1.136  0.0972 -0.1953 -0.0572
 7835TIP3    H123448   1.329   1.052   1.141  0.1461  0.7170  0.0761
 7835TIP3    H223449   1.217   1.128   1.075 -0.4911  0.3080  0.6765
 7836TIP3   OH223450   6.413   6.635   5.821 -1.0608  0.1895 -0.1628
 7836TIP3    H123451   6.320   6.636   5.798 -0.7329  1.3643 -1.6178
 7836TIP3    H223452   6.447   6.717   5.785  0.0909  0.9484  2.3799
 7837TIP3   OH223453   3.600   0.101   2.695  0.4740 -0.8976 -0.5082
 7837TIP3    H123454   3.552   0.103   2.777  1.1316  1.4579 -0.1073
 7837TIP3    H223455   3.675   0.045   2.712  0.6688 -0.3358  0.5747
 7838TIP3   OH223456   4.862   7.690   1.649  0.0052 -0.0856  0.3101
 7838TIP3    H123457   4.908   7.648   1.576  0.3359  1.4461 -0.4019
 7838TIP3    H223458   4.770   7.692   1.622  0.4025  2.5536 -1.2146
 7839TIP3   OH223459   2.286   7.537   0.140  0.3881  0.2643 -0.4055
 7839TIP3    H123460   2.192   7.553   0.147  0.4855  0.4517  0.7627
 7839TIP3    H223461   2.294   7.463   0.080 -0.6176 -0.7979  0.7202
 7840TIP3   OH223462   0.991   6.678   6.353  0.6991  0.3630  0.8305
 7840TIP3    H123463   0.958   6.744   6.293  1.7829  0.8022  0.6993
 7840TIP3    H223464   1.020   6.727   6.430  1.4109  0.0371  0.7775
 7841TIP3   OH223465   3.079   2.830   3.930  0.1388  0.1731  0.4809
 7841TIP3    H123466   3.032   2.898   3.881 -0.8252 -0.2000  0.8614
 7841TIP3    H223467   3.013   2.792   3.987  0.3688 -1.8590 -0.5090
 7842TIP3   OH223468   7.577   3.853   1.272 -0.1666 -0.1684 -0.5441
 7842TIP3    H123469   7.621   3.910   1.335 -0.7227 -1.1774  0.8203
 7842TIP3    H223470   7.646   3.829   1.210  0.5797  0.3258  0.0641
 7843TIP3   OH223471   6.867   0.086   5.232  0.1182 -0.2322 -0.0525
 7843TIP3    H123472   6.877   0.023   5.304  1.9399  0.5091  0.4122
 7843TIP3    H223473   6.844   0.168   5.275  2.8667  0.6446 -0.0188
 7844TIP3   OH223474   6.831   6.551   3.123  0.3705  0.2080  0.3347
 7844TIP3    H123475   6.870   6.498   3.193  0.3085  0.7001  0.7493
 7844TIP3    H223476   6.737   6.539   3.134  0.3817 -0.9783 -0.6647
 7845TIP3   OH223477   7.284   0.605   4.418  0.3756  0.5180 -0.2502
 7845TIP3    H123478   7.235   0.587   4.498  1.2783  0.0668  0.2248
 7845TIP3    H223479   7.220   0.596   4.348 -0.1923 -0.2008  0.3380
 7846TIP3   OH223480   5.100   5.863   3.419  0.3919  0.1176 -0.4026
 7846TIP3    H123481   5.107   5.958   3.420 -1.2048  0.2643 -0.1001
 7846TIP3    H223482   5.057   5.843   3.336 -2.4527 -0.0058  0.9888
 7847TIP3   OH223483   4.705   7.408   4.432  0.3234 -0.5248  0.4876
 7847TIP3    H123484   4.778   7.348   4.420  0.2476 -0.5342  0.0412
 7847TIP3    H223485   4.744   7.488   4.467  0.7608 -0.0305 -1.0337
 7848TIP3   OH223486   2.353   3.050   5.357 -0.1208  0.3119  0.6172
 7848TIP3    H123487   2.336   3.125   5.414 -0.2931 -0.7625  2.0130
 7848TIP3    H223488   2.370   2.977   5.416 -2.1918 -1.3189 -0.6128
 7849TIP3   OH223489   1.829   3.309   2.580 -0.3000 -0.1458 -0.2938
 7849TIP3    H123490   1.860   3.293   2.669 -1.0402 -1.3131 -0.2267
 7849TIP3    H223491   1.773   3.386   2.588  0.7344  0.5988 -0.0157
 7850TIP3   OH223492   1.278   2.815   1.965 -0.3065  0.0967 -0.4528
 7850TIP3    H123493   1.329   2.745   1.924 -0.5355  0.1386 -0.8103
 7850TIP3    H223494   1.264   2.879   1.895 -1.0460 -0.0236 -0.4273
 7851TIP3   OH223495   5.835   3.191   5.321 -0.5664  0.3120  0.5032
 7851TIP3    H123496   5.766   3.170   5.259 -1.2670  0.3148  1.2739
 7851TIP3    H223497   5.905   3.128   5.301 -1.0286 -0.0848  0.1171
 7852TIP3   OH223498   2.517   6.434   2.551 -0.0707  0.1373  0.0491
 7852TIP3    H123499   2.493   6.388   2.471  0.4107  0.0226 -0.0323
 7852TIP3    H223500   2.606   6.404   2.570 -0.7560 -1.0862  1.5193
 7853TIP3   OH223501   6.860   0.243   3.226  0.0905  0.3847 -0.5582
 7853TIP3    H123502   6.902   0.157   3.236  0.9373  0.8651  0.1025
 7853TIP3    H223503   6.809   0.235   3.145 -1.9996 -1.6225  0.8398
 7854TIP3   OH223504   6.609   3.847   1.928  0.4059  0.1650 -0.1936
 7854TIP3    H123505   6.679   3.860   1.992 -0.8145  1.5090  0.9351
 7854TIP3    H223506   6.531   3.828   1.981 -0.0119 -1.9252 -1.4460
 7855TIP3   OH223507   7.387   0.057   0.674 -0.0622 -0.3578  0.8337
 7855TIP3    H123508   7.476   0.088   0.687  0.7476 -1.9896 -0.3510
 7855TIP3    H223509   7.337   0.135   0.648  1.9440  0.0465 -2.4798
 7856TIP3   OH223510   0.258   2.329   1.021 -0.0996 -0.4265  0.1521
 7856TIP3    H123511   0.345   2.302   1.049  0.5276  1.1633 -0.2054
 7856TIP3    H223512   0.199   2.283   1.082  0.7310 -3.7528 -1.2932
 7857TIP3   OH223513   1.940   4.735   3.995 -0.4550  0.5051 -0.1560
 7857TIP3    H123514   1.972   4.647   3.972 -3.8270 -0.0752 -3.6167
 7857TIP3    H223515   1.963   4.788   3.919  0.1233  2.2825  1.2134
 7858TIP3   OH223516   1.450   5.049   0.438  0.0094  0.2484  0.7087
 7858TIP3    H123517   1.443   4.954   0.446  0.0769  0.2538  0.8416
 7858TIP3    H223518   1.399   5.071   0.360 -0.0871  0.1132  0.7332
 7859TIP3   OH223519   3.157   2.680   3.719 -0.2899 -0.7785 -0.0893
 7859TIP3    H123520   3.078   2.679   3.664 -0.5837 -1.5496  0.3393
 7859TIP3    H223521   3.132   2.734   3.794  0.3913  1.0082 -1.0835
 7860TIP3   OH223522   6.392   4.358   5.285  0.4420 -0.3127 -0.5017
 7860TIP3    H123523   6.333   4.285   5.303  0.4971 -0.1540  0.3886
 7860TIP3    H223524   6.450   4.360   5.361 -0.6954  1.7830  0.3876
 7861TIP3   OH223525   1.585   0.851   4.459  0.4203  0.0494 -0.0352
 7861TIP3    H123526   1.552   0.819   4.542  0.3288 -0.2985 -0.2054
 7861TIP3    H223527   1.566   0.945   4.461 -1.1124 -0.2280 -0.3594
 7862TIP3   OH223528   4.474   2.680   0.426  0.6003  0.1831  0.3001
 7862TIP3    H123529   4.386   2.685   0.390 -0.0454  0.1988  1.8000
 7862TIP3    H223530   4.528   2.729   0.364 -0.2387 -0.6376 -1.1560
 7863TIP3   OH223531   1.741   4.957   3.072 -0.5867  0.0325  0.1302
 7863TIP3    H123532   1.768   4.974   3.163  1.4194  0.4115 -0.4985
 7863TIP3    H223533   1.664   5.013   3.060 -0.2164  0.8371  1.2656
 7864TIP3   OH223534   7.440   2.749   2.794  0.2847 -0.5048 -0.0716
 7864TIP3    H123535   7.490   2.753   2.713  0.2577  1.6389 -0.0430
 7864TIP3    H223536   7.470   2.825   2.844 -0.2295 -1.3721  1.6130
 7865TIP3   OH223537   5.274   5.792   2.750 -0.4030  0.3273 -0.4062
 7865TIP3    H123538   5.314   5.733   2.813 -3.0037 -0.6533  0.4299
 7865TIP3    H223539   5.335   5.793   2.676  1.1475 -1.0189  0.7936
 7866TIP3   OH223540   7.219   0.012   5.718  0.2689 -0.3779  0.2697
 7866TIP3    H123541   7.314   0.009   5.712  0.2712  1.0866 -0.7193
 7866TIP3    H223542   7.200  -0.006   5.811  1.6557  1.7406  1.0267
 7867TIP3   OH223543   2.071   3.870   3.690  0.0453 -0.5555 -0.1334
 7867TIP3    H123544   2.162   3.851   3.670 -0.2080 -2.2289  0.1480
 7867TIP3    H223545   2.066   3.865   3.786 -0.3438 -0.5119 -0.1492
 7868TIP3   OH223546   3.192   2.058   0.495 -0.4071  0.0047  0.1084
 7868TIP3    H123547   3.127   2.065   0.565 -0.0536  1.2137  0.3511
 7868TIP3    H223548   3.170   2.131   0.436  0.7690  0.4746  0.2357
 7869TIP3   OH223549   1.045   3.740   2.161 -0.1740 -0.0329 -0.1563
 7869TIP3    H123550   1.099   3.684   2.105 -1.0950  0.0644 -1.1764
 7869TIP3    H223551   1.039   3.823   2.114 -0.8095  0.1132  0.1689
 7870TIP3   OH223552   3.159   4.520   5.539  0.1086 -0.6000 -0.3851
 7870TIP3    H123553   3.183   4.428   5.549  1.4354 -0.1561  1.0120
 7870TIP3    H223554   3.198   4.563   5.615 -0.3954  1.1389 -1.0582
 7871TIP3   OH223555   2.956   5.581   0.420  0.2080 -0.2409 -0.0229
 7871TIP3    H123556   2.865   5.553   0.422  0.2670 -0.4185  0.3511
 7871TIP3    H223557   3.005   5.503   0.393  0.0701  0.3809 -2.2256
 7872TIP3   OH223558   2.613   7.154   3.657  0.1865 -0.3839  0.6097
 7872TIP3    H123559   2.667   7.225   3.624  0.4761  0.1155  2.0526
 7872TIP3    H223560   2.524   7.175   3.628  0.1263  1.0568  1.7293
 7873TIP3   OH223561   7.674   4.382   3.348 -0.3916 -0.1612  0.0316
 7873TIP3    H123562   7.740   4.347   3.409 -0.9633  0.7182  1.2044
 7873TIP3    H223563   7.680   4.326   3.271 -0.2804 -1.9142  1.2646
 7874TIP3   OH223564   7.791   7.326   4.404  0.0737  0.3177  0.1713
 7874TIP3    H123565   7.711   7.330   4.456  0.9884  0.3746  1.6468
 7874TIP3    H223566   7.774   7.382   4.328 -0.9619  1.0282  0.9087
 7875TIP3   OH223567   2.357   3.824   1.190 -0.3544  0.2266  0.1368
 7875TIP3    H123568   2.345   3.844   1.097 -1.8177  1.8945  0.6203
 7875TIP3    H223569   2.377   3.731   1.192  1.4424  0.4837 -1.9425
 7876TIP3   OH223570   3.705   7.198   4.286 -0.1627 -0.4859 -1.0420
 7876TIP3    H123571   3.645   7.234   4.351 -0.9976 -1.3576 -1.3100
 7876TIP3    H223572   3.742   7.120   4.329  1.1237  0.2652 -0.7159
 7877TIP3   OH223573   0.475   1.495   0.821  0.0789  0.2249  0.1592
 7877TIP3    H123574   0.518   1.504   0.736 -0.5329  1.1019 -0.0641
 7877TIP3    H223575   0.430   1.411   0.817  0.0590  0.2615 -0.3765
 7878TIP3   OH223576   4.546   0.453   3.622  0.0827  0.3360 -0.0599
 7878TIP3    H123577   4.594   0.483   3.699  1.6054  0.8931 -1.1809
 7878TIP3    H223578   4.493   0.528   3.596 -1.3149 -0.2197  1.0714
 7879TIP3   OH223579   3.592   5.330   1.572 -0.0101 -0.6172 -0.0745
 7879TIP3    H123580   3.603   5.354   1.480  1.9294  0.7840  0.4578
 7879TIP3    H223581   3.670   5.278   1.592 -0.5606 -1.1544  0.7103
 7880TIP3   OH223582   4.756   7.025   4.905  0.4539  0.9072 -0.5196
 7880TIP3    H123583   4.713   6.972   4.837 -0.6862  1.9459 -0.6483
 7880TIP3    H223584   4.748   6.972   4.984  0.5726  0.2787 -0.9169
 7881TIP3   OH223585   5.151   0.877   3.716  0.0565  0.3822 -0.5123
 7881TIP3    H123586   5.123   0.950   3.770 -1.1617  0.8389 -1.7025
 7881TIP3    H223587   5.141   0.800   3.772  0.9289  1.0564  0.6031
 7882TIP3   OH223588   5.579   1.396   2.947  0.2410 -0.2915 -0.1739
 7882TIP3    H123589   5.520   1.471   2.954 -1.0653 -1.0541 -2.0907
 7882TIP3    H223590   5.666   1.433   2.954 -0.3946  1.0192  1.6508
 7883TIP3   OH223591   6.970   5.143   5.063 -0.1823  0.3152 -0.0697
 7883TIP3    H123592   6.995   5.071   5.004  0.0316  0.3310  0.0005
 7883TIP3    H223593   6.885   5.173   5.030 -1.3568 -1.4169  1.2118
 7884TIP3   OH223594   7.914   2.776   0.667  0.1336 -0.4770 -0.1080
 7884TIP3    H123595   7.927   2.755   0.574  0.9420  1.0838 -0.3960
 7884TIP3    H223596   7.997   2.817   0.693 -0.3840 -0.1622  1.0765
 7885TIP3   OH223597   7.218   2.852   5.206 -0.1568 -0.0661  0.3172
 7885TIP3    H123598   7.146   2.847   5.269  0.7713 -0.6147  1.3654
 7885TIP3    H223599   7.178   2.890   5.127 -1.7889 -1.1399  0.5708
 7886TIP3   OH223600   6.364   3.255   4.716  0.0339 -0.2066  0.5159
 7886TIP3    H123601   6.440   3.263   4.658  1.2666 -1.6048  1.8505
 7886TIP3    H223602   6.289   3.254   4.657  0.9490  1.8299 -0.8172
 7887TIP3   OH223603   8.034   1.577   3.536 -0.0389 -0.0897  0.6660
 7887TIP3    H123604   8.064   1.531   3.458 -0.0390  0.0342  0.5914
 7887TIP3    H223605   8.106   1.637   3.557  0.3041 -0.6770  1.2273
 7888TIP3   OH223606   7.076   2.337   5.905  0.5793 -0.6036  0.3728
 7888TIP3    H123607   7.115   2.423   5.891  0.5637 -0.6538  0.0140
 7888TIP3    H223608   7.053   2.336   5.998  0.3595 -0.1276  0.3249
 7889TIP3   OH223609   2.591   4.239   6.598 -0.6497 -0.0839  0.2170
 7889TIP3    H123610   2.529   4.257   6.527 -1.2549  1.2538  1.0418
 7889TIP3    H223611   2.634   4.323   6.614  1.6623 -1.0369 -0.5406
 7890TIP3   OH223612   5.767   6.790   4.072  0.2145  0.5022 -0.0343
 7890TIP3    H123613   5.674   6.796   4.050  0.0800  4.1633  0.7757
 7890TIP3    H223614   5.776   6.840   4.153  2.6599 -1.3650  0.9937
 7891TIP3   OH223615   2.539   6.175   6.217 -0.3809 -0.3733 -0.3001
 7891TIP3    H123616   2.494   6.223   6.287 -0.0504  1.3694 -1.2285
 7891TIP3    H223617   2.512   6.219   6.136 -0.4776 -2.1261 -1.2615
 7892TIP3   OH223618   4.357   3.681   5.269 -0.6465 -0.2666  0.1663
 7892TIP3    H123619   4.380   3.667   5.361 -0.4292 -1.0625 -0.0029
 7892TIP3    H223620   4.434   3.724   5.232 -0.0240 -1.4976 -0.0303
 7893TIP3   OH223621   5.520   0.356   1.042  0.4428 -0.4433 -0.0495
 7893TIP3    H123622   5.564   0.389   0.963 -0.5418 -0.8559 -0.7890
 7893TIP3    H223623   5.453   0.296   1.009 -0.9068  0.4149  1.0220
 7894TIP3   OH223624   4.344   7.426   2.963  0.1737 -0.2022  0.1838
 7894TIP3    H123625   4.278   7.423   3.032 -1.2746  1.2793 -1.0451
 7894TIP3    H223626   4.334   7.342   2.917  0.0303 -0.5065  0.7576
 7895TIP3   OH223627   5.957   1.075   2.958  0.2105 -0.2911  0.2556
 7895TIP3    H123628   5.956   1.000   3.017 -0.4724 -1.0145 -0.6448
 7895TIP3    H223629   5.867   1.108   2.959  0.3110 -0.0054 -0.0083
 7896TIP3   OH223630   6.279   2.650   1.139 -0.3044  0.0994 -0.2922
 7896TIP3    H123631   6.341   2.707   1.093 -0.9450  1.5228  0.5361
 7896TIP3    H223632   6.204   2.706   1.156 -0.1261 -0.3663  2.4113
 7897TIP3   OH223633   4.767   2.957   3.908  0.1029  0.1081 -0.0573
 7897TIP3    H123634   4.829   2.933   3.839 -0.0005 -0.0135 -0.1090
 7897TIP3    H223635   4.709   2.881   3.915 -0.1007  0.2603 -0.0792
 7898TIP3   OH223636   4.086   5.443   3.774  0.5270  0.0002 -0.0758
 7898TIP3    H123637   4.110   5.415   3.685  0.6250  1.0851 -0.4015
 7898TIP3    H223638   4.001   5.485   3.763  0.2009 -0.4916  0.4735
 7899TIP3   OH223639   8.148   5.187   2.403 -0.0369 -0.6349 -0.0660
 7899TIP3    H123640   8.121   5.163   2.314  0.0836 -0.5268 -0.1331
 7899TIP3    H223641   8.150   5.283   2.402  0.4230 -0.6401 -0.0891
 7900TIP3   OH223642   3.620   3.814   0.225 -0.1910 -0.1729  0.5017
 7900TIP3    H123643   3.602   3.815   0.131  1.9579  2.5331  0.0054
 7900TIP3    H223644   3.667   3.732   0.240 -0.4695 -0.5902 -0.7980
 7901TIP3   OH223645   1.075   5.260   3.931 -0.4244  0.2833  0.4681
 7901TIP3    H123646   1.153   5.311   3.955 -0.0472 -0.5712  1.1079
 7901TIP3    H223647   1.107   5.170   3.923 -1.1262  0.1010 -0.4325
 7902TIP3   OH223648   6.502   2.197   5.793  0.0757  0.1498  0.7400
 7902TIP3    H123649   6.579   2.186   5.737 -0.1849 -1.3737  0.6432
 7902TIP3    H223650   6.537   2.227   5.877  0.8206 -0.7853  0.7800
 7903TIP3   OH223651   8.247   1.076   3.991  0.1281 -0.5161 -0.1981
 7903TIP3    H123652   8.201   0.998   3.958 -0.4162  0.5623 -2.1279
 7903TIP3    H223653   8.338   1.048   4.000  0.0923 -1.1870 -1.6542
 7904TIP3   OH223654   8.113   7.257   1.799  0.0836  0.0235  0.1592
 7904TIP3    H123655   8.057   7.332   1.815  0.2758  0.3045 -0.4630
 7904TIP3    H223656   8.072   7.185   1.847  0.0004  0.5608  0.9074
 7905TIP3   OH223657   5.291   3.143   6.694  0.3193  0.2319 -0.2951
 7905TIP3    H123658   5.297   3.237   6.677 -1.5023  0.0368 -2.6230
 7905TIP3    H223659   5.379   3.109   6.679  0.6389  1.3680 -1.0625
 7906TIP3   OH223660   1.139   7.784   2.300 -0.2187  0.0758 -0.6230
 7906TIP3    H123661   1.185   7.842   2.239  0.9803  3.1782  2.8624
 7906TIP3    H223662   1.204   7.719   2.325 -0.7480 -1.2798 -2.5330
 7907TIP3   OH223663   7.143   0.782   3.227 -0.0459 -0.3048  0.3389
 7907TIP3    H123664   7.080   0.728   3.180 -0.9795  1.7827 -0.9597
 7907TIP3    H223665   7.089   0.844   3.277  0.9700  0.3265  0.6904
 7908TIP3   OH223666   1.882   4.930   0.758  0.2916 -0.4360 -0.2054
 7908TIP3    H123667   1.961   4.980   0.778 -0.4182  0.2831  0.9576
 7908TIP3    H223668   1.903   4.840   0.785  0.6793 -0.2325  0.1875
 7909TIP3   OH223669   5.922   6.677   4.394  0.4035  0.0109  0.1384
 7909TIP3    H123670   6.007   6.633   4.383  0.0279 -0.6410 -0.1946
 7909TIP3    H223671   5.857   6.609   4.378 -0.1926  0.6221 -0.1033
 7910TIP3   OH223672   4.676   4.458   5.424  0.2645  0.4510 -0.3503
 7910TIP3    H123673   4.744   4.391   5.420 -0.4767 -0.3315 -0.2278
 7910TIP3    H223674   4.709   4.529   5.370  2.2379  1.1126  1.5891
 7911TIP3   OH223675   0.539   1.848   3.475  0.5625 -0.0803 -0.3089
 7911TIP3    H123676   0.555   1.754   3.463  0.9190 -0.0367 -0.2055
 7911TIP3    H223677   0.547   1.861   3.570  0.3723  0.0298 -0.3081
 7912TIP3   OH223678   5.636   1.966   0.778 -0.5482 -0.2537  0.9482
 7912TIP3    H123679   5.618   2.011   0.861 -0.7689  0.0538  0.7354
 7912TIP3    H223680   5.690   2.028   0.729  0.2112 -0.7326  1.1524
 7913TIP3   OH223681   0.252   5.412   5.826  0.0918 -0.2534  0.0465
 7913TIP3    H123682   0.255   5.340   5.764 -2.9485 -0.7626  0.3556
 7913TIP3    H223683   0.318   5.474   5.794  0.4373 -1.6627 -2.1667
 7914TIP3   OH223684   2.744   2.679   0.317  0.0221  0.5308  0.2149
 7914TIP3    H123685   2.660   2.719   0.294 -0.1741  0.3512  0.6120
 7914TIP3    H223686   2.720   2.601   0.368  0.3643 -0.5223 -1.1659
 7915TIP3   OH223687   7.324   3.908   1.780  0.1654  0.8089 -0.9911
 7915TIP3    H123688   7.242   3.957   1.783  0.1765  0.7706  0.4310
 7915TIP3    H223689   7.376   3.943   1.853  0.5692 -0.6185 -0.5533
 7916TIP3   OH223690   4.498   5.820   3.687 -0.3538  0.4822  0.1912
 7916TIP3    H123691   4.522   5.753   3.624  0.0401 -1.2223  2.0461
 7916TIP3    H223692   4.510   5.902   3.641 -0.1794 -0.6789 -1.9563
 7917TIP3   OH223693   6.896   0.667   1.482 -0.0907  0.0025  0.3477
 7917TIP3    H123694   6.927   0.599   1.542  2.0635 -1.1596 -1.9016
 7917TIP3    H223695   6.806   0.642   1.461  1.0510 -3.1364 -1.5040
 7918TIP3   OH223696   0.359   3.681   1.213 -0.3864  0.6747 -0.4677
 7918TIP3    H123697   0.440   3.632   1.200  1.4016  2.9713  1.2028
 7918TIP3    H223698   0.290   3.620   1.189  1.7960 -1.5346 -1.5582
 7919TIP3   OH223699   1.175   4.603   6.182  0.0468 -0.2345  0.2055
 7919TIP3    H123700   1.194   4.584   6.090  0.2580 -1.9609  0.5581
 7919TIP3    H223701   1.085   4.572   6.194  0.1208 -0.2841  0.6426
 7920TIP3   OH223702   3.251   5.877   1.112 -0.1093  0.2514 -0.0283
 7920TIP3    H123703   3.197   5.954   1.095  1.0770  1.3303  0.7981
 7920TIP3    H223704   3.287   5.853   1.027 -1.9265 -0.5541 -0.6036
 7921TIP3   OH223705   2.930   0.517   2.736  0.4276 -0.7215 -0.2264
 7921TIP3    H123706   2.905   0.525   2.644  1.6604 -1.6226 -0.6746
 7921TIP3    H223707   2.958   0.605   2.761 -0.5173 -0.3331 -0.5227
 7922TIP3   OH223708   6.564   7.335   4.993  0.2165 -0.0956  0.5628
 7922TIP3    H123709   6.569   7.361   5.085 -2.1190  1.1463  0.4156
 7922TIP3    H223710   6.476   7.299   4.983  0.7332 -1.0016 -1.0145
 7923TIP3   OH223711   0.069   6.504   5.290  0.8534  0.3789 -0.4653
 7923TIP3    H123712   0.104   6.551   5.214  0.9267  2.1067  0.5832
 7923TIP3    H223713   0.099   6.555   5.365 -0.4323 -0.4753  0.6666
 7924TIP3   OH223714   4.911   1.610   3.043 -0.4698 -0.0101 -0.7137
 7924TIP3    H123715   4.839   1.607   3.106 -0.6874  1.0306 -0.8865
 7924TIP3    H223716   4.884   1.552   2.972 -1.1235  0.3316 -0.7505
 7925TIP3   OH223717   4.694   4.527   0.629 -0.3446 -0.1247 -0.6557
 7925TIP3    H123718   4.782   4.527   0.667 -0.4624 -2.7338 -0.1804
 7925TIP3    H223719   4.636   4.530   0.705 -0.6034 -1.2917 -0.7848
 7926TIP3   OH223720   5.128   1.870   4.356  0.1651 -0.1566 -0.1737
 7926TIP3    H123721   5.038   1.894   4.376 -0.0107  0.0801 -1.1965
 7926TIP3    H223722   5.120   1.794   4.298  0.6153 -0.0573 -0.3694
 7927TIP3   OH223723   1.567   3.685   3.246  0.4181  0.0547 -0.3811
 7927TIP3    H123724   1.638   3.729   3.293  0.8897 -0.8230 -0.2514
 7927TIP3    H223725   1.609   3.611   3.202 -0.7013 -1.7848  1.4260
 7928TIP3   OH223726   5.373   2.521   3.923  0.3908  0.4217  0.0669
 7928TIP3    H123727   5.300   2.582   3.936 -0.1416 -0.5064  1.6905
 7928TIP3    H223728   5.391   2.486   4.010  0.7319 -1.6958 -0.8019
 7929TIP3   OH223729   0.933   3.602   0.794  0.3583  0.4677  0.2359
 7929TIP3    H123730   0.840   3.614   0.775 -0.2303 -0.0971  2.4455
 7929TIP3    H223731   0.939   3.510   0.822  1.1236  1.0645  2.2043
 7930TIP3   OH223732   5.433   6.307   2.720  0.2334 -0.4400  0.9474
 7930TIP3    H123733   5.365   6.250   2.756 -0.7494  0.8240  1.1525
 7930TIP3    H223734   5.385   6.367   2.662  1.2227  0.2839  0.8654
 7931TIP3   OH223735   5.002   6.144   2.903 -0.0218 -0.1697 -0.3607
 7931TIP3    H123736   5.010   6.122   2.996  0.8426  0.4192 -0.2850
 7931TIP3    H223737   4.917   6.108   2.877 -1.0038  1.0081  1.0501
 7932TIP3   OH223738   7.833   1.909   1.318 -0.1868 -0.0123 -0.4006
 7932TIP3    H123739   7.805   2.001   1.313 -1.8211 -0.4553 -0.0506
 7932TIP3    H223740   7.751   1.860   1.326  0.7123 -1.4085  0.7279
 7933TIP3   OH223741   7.831   5.388   6.480 -0.3583  0.0791  0.2206
 7933TIP3    H123742   7.901   5.408   6.542 -0.9245  2.1588  0.2572
 7933TIP3    H223743   7.752   5.380   6.533 -0.4514 -0.4878  0.0014
 7934TIP3   OH223744   3.175   0.539   2.282  0.5871 -0.1606 -0.0797
 7934TIP3    H123745   3.214   0.523   2.368 -1.0602  0.7954  0.8912
 7934TIP3    H223746   3.246   0.521   2.220  2.0244 -0.1723  1.5003
 7935TIP3   OH223747   6.377   0.520   4.767  0.2931  0.1026  0.3357
 7935TIP3    H123748   6.307   0.529   4.702  0.0161  0.1076  0.6299
 7935TIP3    H223749   6.358   0.589   4.832  0.2529 -0.2532  0.7036
 7936TIP3   OH223750   7.907   2.849   1.711 -0.5094  0.5423 -0.1770
 7936TIP3    H123751   7.944   2.766   1.680  0.0541  0.3211  1.0477
 7936TIP3    H223752   7.850   2.825   1.784  0.4835  1.3054  0.8844
 7937TIP3   OH223753   0.952   7.718   5.708  0.4972  0.2880  0.0545
 7937TIP3    H123754   1.003   7.677   5.778  0.2107 -0.6332 -0.2560
 7937TIP3    H223755   1.009   7.788   5.675  0.3347  1.2367  1.6836
 7938TIP3   OH223756   1.078   1.407   3.748 -0.9857 -0.0815  0.0382
 7938TIP3    H123757   1.160   1.371   3.783 -0.5269 -0.6199 -1.5202
 7938TIP3    H223758   1.105   1.480   3.693 -1.5703 -0.1224 -0.3121
 7939TIP3   OH223759   6.646   4.101   4.559 -0.2867 -0.0444 -0.3462
 7939TIP3    H123760   6.660   4.153   4.638 -3.2832 -0.2167  0.4453
 7939TIP3    H223761   6.734   4.080   4.528  1.0088  1.7965  1.7390
 7940TIP3   OH223762   0.483   7.627   4.513 -0.5589  0.3480  0.6308
 7940TIP3    H123763   0.486   7.673   4.597  0.2472 -0.0701  0.8442
 7940TIP3    H223764   0.396   7.587   4.510 -0.5725  0.3165  1.3027
 7941TIP3   OH223765   0.189   4.838   4.222 -0.0920 -0.0045  0.4475
 7941TIP3    H123766   0.117   4.886   4.263  2.1058  2.8220  1.2953
 7941TIP3    H223767   0.265   4.856   4.277  1.3049 -3.1686 -0.2014
 7942TIP3   OH223768   2.226   0.882   1.569 -0.2681 -0.9138  0.1615
 7942TIP3    H123769   2.184   0.943   1.630 -2.6947 -1.8170 -0.5142
 7942TIP3    H223770   2.238   0.802   1.620  1.7830 -0.3586  0.6745
 7943TIP3   OH223771   7.874   3.365   5.498 -0.3882  0.1784 -0.1111
 7943TIP3    H123772   7.958   3.348   5.454 -0.1357  1.4462 -0.1611
 7943TIP3    H223773   7.817   3.394   5.427 -0.3463  1.0217  0.1975
 7944TIP3   OH223774   6.028   4.662   2.109 -0.4815 -0.1201 -0.1472
 7944TIP3    H123775   6.057   4.678   2.199  1.7925  0.1243 -0.8610
 7944TIP3    H223776   5.937   4.635   2.117 -0.6573  0.9689  2.1359
 7945TIP3   OH223777   7.223   0.433   1.581  0.0551 -0.0651 -0.0498
 7945TIP3    H123778   7.315   0.432   1.606  0.5586  3.8452 -1.0779
 7945TIP3    H223779   7.179   0.475   1.654 -0.3886  0.6849 -0.7284
 7946TIP3   OH223780   6.545   5.703   1.097  0.4099 -0.4612  0.6234
 7946TIP3    H123781   6.561   5.797   1.094 -0.0207 -0.4038 -1.0036
 7946TIP3    H223782   6.615   5.665   1.044 -0.5723 -0.8589 -0.4267
 7947TIP3   OH223783   6.092   7.636   4.656 -0.1750 -0.6677  0.5638
 7947TIP3    H123784   6.168   7.648   4.599 -1.4285 -0.0358 -1.0489
 7947TIP3    H223785   6.077   7.541   4.657 -1.0713 -0.5978 -1.5087
 7948TIP3   OH223786   7.749   1.371   3.109 -0.1381  0.5097  0.1881
 7948TIP3    H123787   7.771   1.330   3.193  1.0114  2.2109  0.7846
 7948TIP3    H223788   7.747   1.465   3.129  0.4996  0.9766 -1.7515
 7949TIP3   OH223789   2.986   6.932   1.102 -0.0669 -0.4287 -0.1243
 7949TIP3    H123790   3.076   6.897   1.103  0.6040  1.2234  0.2702
 7949TIP3    H223791   2.956   6.921   1.192  0.0689 -0.1766 -0.0477
 7950TIP3   OH223792   4.429   7.385   1.026 -1.0005 -0.7435 -0.0607
 7950TIP3    H123793   4.356   7.387   0.965 -1.3427  0.3481  0.3570
 7950TIP3    H223794   4.416   7.462   1.081 -0.2231 -1.2249  0.8263
 7951TIP3   OH223795   3.880   4.135   3.408 -0.2195 -0.0596  0.4804
 7951TIP3    H123796   3.967   4.135   3.449  0.3550  1.9045 -0.5941
 7951TIP3    H223797   3.843   4.220   3.431 -0.8486  0.1148 -1.0682
 7952TIP3   OH223798   7.513   5.590   3.154  0.4153 -0.2520  0.1258
 7952TIP3    H123799   7.543   5.500   3.139  3.6524  0.4572  1.4895
 7952TIP3    H223800   7.541   5.637   3.076  2.0050  0.1926  0.9203
 7953TIP3   OH223801   6.895   2.902   4.931  1.2020 -0.2827 -0.6144
 7953TIP3    H123802   6.844   2.966   4.980 -2.0646 -1.8327 -1.6498
 7953TIP3    H223803   6.888   2.822   4.982  1.3461 -0.8914 -1.5288
 7954TIP3   OH223804   1.848   4.619   0.281 -0.6814 -0.0807  0.3627
 7954TIP3    H123805   1.857   4.664   0.197 -0.4434 -1.5088 -0.4188
 7954TIP3    H223806   1.871   4.685   0.347 -0.0675  0.8334 -0.7368
 7955TIP3   OH223807   7.117   0.373   0.401 -0.4660 -0.1981 -0.1568
 7955TIP3    H123808   7.050   0.311   0.430 -1.1502  0.2597 -0.6942
 7955TIP3    H223809   7.073   0.458   0.403 -0.3033 -0.0414 -1.7072
 7956TIP3   OH223810   0.131   7.368   5.421  0.3397  0.1492 -0.1900
 7956TIP3    H123811   0.194   7.364   5.349  0.3603  1.7635 -0.2993
 7956TIP3    H223812   0.076   7.443   5.401 -0.3637 -0.0480  0.9188
 7957TIP3   OH223813   5.054   2.548   4.118  0.3253 -0.0912 -0.7013
 7957TIP3    H123814   4.985   2.523   4.056  1.1757 -0.3647 -1.5694
 7957TIP3    H223815   5.052   2.643   4.118  1.5267 -0.0202 -2.6098
 7958TIP3   OH223816   6.240   6.708   1.563 -0.1904  0.3980  0.5751
 7958TIP3    H123817   6.272   6.667   1.483  0.1119 -1.1453  1.4461
 7958TIP3    H223818   6.318   6.749   1.602  0.4434 -1.7393  1.7335
 7959TIP3   OH223819   3.584   4.038   3.273  0.0118  0.3575  0.2037
 7959TIP3    H123820   3.627   4.005   3.352  0.5854  1.4339  0.3597
 7959TIP3    H223821   3.588   3.966   3.211  0.4619 -0.1597  0.8213
 7960TIP3   OH223822   5.726   6.535   0.207  0.0749  0.3760 -0.4773
 7960TIP3    H123823   5.781   6.613   0.208  0.2967  0.2100  0.3867
 7960TIP3    H223824   5.642   6.565   0.242 -0.1725  0.4621 -1.1270
 7961TIP3   OH223825   3.569   2.084   1.051  0.3497  0.1563 -0.5404
 7961TIP3    H123826   3.639   2.074   0.986  2.7757  0.3443  1.8508
 7961TIP3    H223827   3.574   2.006   1.105 -0.2220  0.8916  0.6307
 7962TIP3   OH223828   0.630   2.654   0.349  0.5066 -0.0732  0.2826
 7962TIP3    H123829   0.666   2.704   0.421 -1.5522  0.3958  1.0683
 7962TIP3    H223830   0.559   2.602   0.388 -0.5330  0.0343 -1.3397
 7963TIP3   OH223831   6.584   2.299   2.749  0.3335 -0.3888  0.4447
 7963TIP3    H123832   6.593   2.388   2.715  0.8833 -0.3577  0.6599
 7963TIP3    H223833   6.657   2.251   2.710 -0.0152 -0.7716  0.2563
 7964TIP3   OH223834   8.011   0.907   1.282  0.1286  0.2829 -0.0048
 7964TIP3    H123835   7.934   0.957   1.253 -0.8259 -1.6976 -1.0250
 7964TIP3    H223836   7.982   0.863   1.362 -0.1285 -1.1239 -0.8376
 7965TIP3   OH223837   2.652   4.597   5.747  0.3975  0.0453  0.0629
 7965TIP3    H123838   2.622   4.627   5.661  0.7586 -0.5900 -0.2936
 7965TIP3    H223839   2.572   4.570   5.792  0.2252  0.2057 -0.1423
 7966TIP3   OH223840   4.584   7.399   5.526  0.4128 -0.0276  0.7440
 7966TIP3    H123841   4.537   7.316   5.527 -1.0902  0.7664  2.2788
 7966TIP3    H223842   4.676   7.375   5.530  0.2260 -1.6430 -2.2489
 7967TIP3   OH223843   5.469   6.927   6.668  0.2362  0.1489 -0.1557
 7967TIP3    H123844   5.552   6.974   6.657 -1.3307  2.7223 -1.9194
 7967TIP3    H223845   5.437   6.956   6.754  1.3302 -1.3160  0.8109
 7968TIP3   OH223846   1.955   2.486   1.536 -0.2958  0.0420  0.2219
 7968TIP3    H123847   1.877   2.506   1.485 -0.8716  0.0063  1.0731
 7968TIP3    H223848   1.948   2.543   1.613  0.5743  0.1179  0.2562
 7969TIP3   OH223849   2.533   1.468   1.636 -0.8171  0.5422 -0.0359
 7969TIP3    H123850   2.513   1.468   1.542  0.1449 -1.4498 -0.3006
 7969TIP3    H223851   2.499   1.552   1.668  0.2897  2.0347 -2.4536
 7970TIP3   OH223852   1.441   4.315   2.253  0.2993 -0.3054 -0.1099
 7970TIP3    H123853   1.490   4.379   2.304  1.8414 -1.5735  0.0564
 7970TIP3    H223854   1.422   4.360   2.170  0.0656  0.8581  0.5593
 7971TIP3   OH223855   1.306   0.813   6.442  0.3291  0.1099 -0.1440
 7971TIP3    H123856   1.388   0.774   6.412  0.3603  0.9326 -1.1667
 7971TIP3    H223857   1.311   0.808   6.538  1.8929  0.7813 -0.1577
 7972TIP3   OH223858   0.308   5.473   3.477 -0.1339  1.1623 -0.0735
 7972TIP3    H123859   0.394   5.462   3.518 -0.1707  1.3506  0.0575
 7972TIP3    H223860   0.248   5.486   3.551 -0.4092  0.1811 -0.1145
 7973TIP3   OH223861   4.623   2.941   3.427  0.3536  0.6105 -0.0806
 7973TIP3    H123862   4.546   2.906   3.382  1.2550 -0.8572 -0.5498
 7973TIP3    H223863   4.588   2.979   3.508 -0.8003 -0.7892  0.1261
 7974TIP3   OH223864   5.766   4.679   3.772 -0.1420  0.3824  0.0222
 7974TIP3    H123865   5.791   4.617   3.702  0.9388  0.0970  0.6298
 7974TIP3    H223866   5.800   4.639   3.852 -1.0678  0.8763  0.6792
 7975TIP3   OH223867   4.830   2.425   4.007 -0.3920 -0.4298  0.5399
 7975TIP3    H123868   4.750   2.377   4.029 -0.0182 -1.4466 -0.2377
 7975TIP3    H223869   4.801   2.493   3.946 -0.9961  0.6772  1.9994
 7976TIP3   OH223870   0.545   2.697   6.642 -0.3129  0.0227  0.0742
 7976TIP3    H123871   0.530   2.630   6.575 -1.0381  0.2183  0.0280
 7976TIP3    H223872   0.480   2.678   6.709 -1.0689  1.1607 -0.3164
 7977TIP3   OH223873   2.104   3.839   4.696  0.0633  0.3317  0.2563
 7977TIP3    H123874   2.170   3.873   4.756  0.5816  0.0215 -0.1329
 7977TIP3    H223875   2.145   3.844   4.610 -0.2469 -0.2873  0.0678
 7978TIP3   OH223876   0.442   6.541   5.106 -0.4396  0.5262 -0.5969
 7978TIP3    H123877   0.413   6.452   5.127 -0.3524  0.2823 -1.4580
 7978TIP3    H223878   0.377   6.598   5.148 -1.3445  0.0176 -1.2576
 7979TIP3   OH223879   3.474   5.022   1.934 -0.0524 -0.7065 -0.0189
 7979TIP3    H123880   3.447   5.113   1.928 -1.3842 -0.7939  2.7676
 7979TIP3    H223881   3.408   4.974   1.885  0.0324 -0.2665 -0.5707
 7980TIP3   OH223882   6.962   1.701   6.669 -0.1780 -0.1348  0.1309
 7980TIP3    H123883   6.953   1.794   6.651 -0.8891  0.1583  1.8587
 7980TIP3    H223884   7.018   1.696   6.746 -1.6430 -1.0063  1.1993
 7981TIP3   OH223885   3.884   3.328   6.373  0.7519 -0.1282  0.3000
 7981TIP3    H123886   3.955   3.386   6.403  0.3984  0.4101  0.1042
 7981TIP3    H223887   3.820   3.330   6.444  1.0395 -0.8204  0.5909
 7982TIP3   OH223888   4.699   2.679   2.095  0.2188 -0.1622 -0.4005
 7982TIP3    H123889   4.733   2.607   2.042 -1.0680  0.5589 -2.3000
 7982TIP3    H223890   4.710   2.757   2.041 -1.1360  0.6148  0.3785
 7983TIP3   OH223891   2.259   5.320   5.133  0.2550  0.2290  0.6257
 7983TIP3    H123892   2.288   5.411   5.144  0.8263  0.1789 -0.3529
 7983TIP3    H223893   2.165   5.328   5.113 -0.0486  0.4965  2.0760
 7984TIP3   OH223894   4.195   6.351   4.497 -0.3301 -0.3122  0.0313
 7984TIP3    H123895   4.280   6.385   4.468 -0.8668  1.0860  0.0332
 7984TIP3    H223896   4.151   6.324   4.416 -0.1078 -0.5193 -0.0222
 7985TIP3   OH223897   2.353   3.073   1.565  0.1868  0.1688  0.3299
 7985TIP3    H123898   2.265   3.107   1.549  0.1520  0.6823  1.4800
 7985TIP3    H223899   2.338   2.987   1.603  0.2280 -0.3191 -0.7258
 7986TIP3   OH223900   7.062   6.152   1.966  0.4120 -0.1992 -0.2527
 7986TIP3    H123901   7.034   6.072   2.011 -0.2770  0.2059  0.0574
 7986TIP3    H223902   6.990   6.214   1.980  1.3555  0.7993  0.3682
 7987TIP3   OH223903   8.236   5.779   6.369 -0.3111  0.5261 -0.0381
 7987TIP3    H123904   8.325   5.787   6.403  1.1341 -2.9781 -2.4575
 7987TIP3    H223905   8.197   5.710   6.422 -2.0543  2.6090  1.5767
 7988TIP3   OH223906   0.082   3.799   2.325  0.1432  0.7642 -0.0847
 7988TIP3    H123907   0.167   3.790   2.284  0.3320 -0.1205  0.4617
 7988TIP3    H223908   0.023   3.824   2.254  0.6447  0.2486 -0.6991
 7989TIP3   OH223909   0.851   1.677   1.384 -0.1031 -0.4587 -0.0973
 7989TIP3    H123910   0.938   1.650   1.411  0.3116  0.9843  0.0618
 7989TIP3    H223911   0.863   1.720   1.299 -0.6199 -0.0818  0.0108
 7990TIP3   OH223912   4.055   0.493   2.075  0.2346  0.7787 -0.0532
 7990TIP3    H123913   4.108   0.432   2.024 -0.6786 -0.8320  0.8303
 7990TIP3    H223914   3.981   0.440   2.105  0.4222  1.8032  2.4177
 7991TIP3   OH223915   1.371   1.433   2.454 -0.0546 -0.7281  0.7686
 7991TIP3    H123916   1.388   1.522   2.424  2.0104 -1.9554 -2.1305
 7991TIP3    H223917   1.413   1.427   2.540  2.2510  0.3719 -0.2068
 7992TIP3   OH223918   1.222   4.188   3.230  0.0335  0.3050 -0.4930
 7992TIP3    H123919   1.209   4.113   3.173  1.2254  0.7102 -1.3291
 7992TIP3    H223920   1.137   4.233   3.230 -0.8898 -1.3433  0.5228
 7993TIP3   OH223921   1.519   0.600   5.986  0.4138  0.3042 -0.2903
 7993TIP3    H123922   1.567   0.522   6.014 -0.2391  0.1797  0.5480
 7993TIP3    H223923   1.429   0.583   6.014  0.7308  2.5668  2.6081
 7994TIP3   OH223924   4.967   0.740   0.740  0.9252  0.6264  0.0534
 7994TIP3    H123925   4.955   0.663   0.685 -1.6200  2.4418 -2.1700
 7994TIP3    H223926   5.057   0.732   0.772  0.7360 -3.2955  0.1660
 7995TIP3   OH223927   7.882   3.862   3.244 -0.4316 -0.2683 -0.1750
 7995TIP3    H123928   7.919   3.776   3.229  0.2169 -0.0935  0.4020
 7995TIP3    H223929   7.942   3.923   3.201 -2.0421 -0.2116 -2.5675
 7996TIP3   OH223930   4.085   3.152   4.110  0.2288 -0.0615  0.5321
 7996TIP3    H123931   4.156   3.183   4.167  0.7330 -1.9365  0.9800
 7996TIP3    H223932   4.008   3.200   4.140  1.1098  1.3592  0.6260
 7997TIP3   OH223933   2.104   3.674   6.164 -0.3772  0.1444 -0.1566
 7997TIP3    H123934   2.023   3.724   6.177 -0.1440  0.0860  1.8156
 7997TIP3    H223935   2.077   3.583   6.167 -0.2645  0.1257  0.4446
 7998TIP3   OH223936   5.578   4.225   0.732  0.4462  0.4183  0.2591
 7998TIP3    H123937   5.485   4.246   0.746 -0.5069 -1.7815 -1.9984
 7998TIP3    H223938   5.620   4.311   0.722 -2.0326  1.5104 -2.2688
 7999TIP3   OH223939   1.083   2.834   2.374 -0.0889  0.3196 -0.1499
 7999TIP3    H123940   1.125   2.909   2.333  0.4635 -0.2144 -0.5694
 7999TIP3    H223941   1.021   2.802   2.308 -0.0251  0.1517 -0.1281
 8000TIP3   OH223942   1.240   1.791   4.919  0.1271  0.2148  0.0501
 8000TIP3    H123943   1.311   1.786   4.855 -0.1940  0.6730 -0.3518
 8000TIP3    H223944   1.166   1.826   4.869 -0.2993  0.0150  0.5319
 8001TIP3   OH223945   5.830   4.481   2.191  0.4239 -0.0449  0.3417
 8001TIP3    H123946   5.780   4.547   2.239 -0.2979 -0.7448  0.5748
 8001TIP3    H223947   5.881   4.435   2.258 -0.2875 -0.7616  0.4201
 8002TIP3   OH223948   0.643   5.348   2.324  0.6994  0.5906 -0.0517
 8002TIP3    H123949   0.606   5.399   2.252  0.1445  0.3539  0.0575
 8002TIP3    H223950   0.579   5.278   2.339  2.0579 -0.9103 -1.0521
 8003TIP3   OH223951   4.721   0.410   6.650  0.0402  0.0057  0.2229
 8003TIP3    H123952   4.732   0.401   6.555  2.4277  0.2090  0.4209
 8003TIP3    H223953   4.704   0.321   6.681  0.8757 -0.3344 -0.2519
 8004TIP3   OH223954   5.707   7.831   3.654  0.0208  0.0476  0.1896
 8004TIP3    H123955   5.717   7.879   3.736  0.6391 -0.7229  0.5859
 8004TIP3    H223956   5.730   7.741   3.676 -1.3665 -0.4962 -0.4741
 8005TIP3   OH223957   7.028   2.185   3.924  0.1350 -0.5396 -0.0306
 8005TIP3    H123958   7.060   2.237   3.997 -0.7624  0.2492 -0.1754
 8005TIP3    H223959   6.944   2.150   3.955 -0.3488 -0.0362 -0.7470
 8006TIP3   OH223960   7.990   2.194   0.717  0.7240  0.0220  0.3888
 8006TIP3    H123961   8.086   2.200   0.723  0.9100 -1.8680  0.1081
 8006TIP3    H223962   7.969   2.229   0.631  1.2387 -0.0726  0.2185
 8007TIP3   OH223963   0.229   0.812   5.778 -0.7191  0.2211  0.2690
 8007TIP3    H123964   0.265   0.779   5.860 -2.0432 -0.8600  0.4580
 8007TIP3    H223965   0.180   0.890   5.803  1.2355  1.5948  0.0353
 8008TIP3   OH223966   2.492   2.551   1.373  0.1912  0.6991 -0.2088
 8008TIP3    H123967   2.578   2.510   1.363 -0.6346 -0.9039 -1.2960
 8008TIP3    H223968   2.492   2.623   1.311  0.4445  0.1203 -0.9013
 8009TIP3   OH223969   5.448   2.269   5.621 -0.2425 -0.0584  0.4204
 8009TIP3    H123970   5.489   2.312   5.545  1.8784 -1.2637  0.8062
 8009TIP3    H223971   5.481   2.317   5.696 -2.0464  0.8913  0.6646
 8010TIP3   OH223972   4.370   2.877   3.277  0.1794  0.4055 -0.2499
 8010TIP3    H123973   4.317   2.932   3.219  1.1302 -0.0150 -1.5489
 8010TIP3    H223974   4.373   2.792   3.234  1.7621  0.3734 -0.1476
 8011TIP3   OH223975   4.151   3.845   5.312  0.1293  0.2700 -0.2966
 8011TIP3    H123976   4.171   3.883   5.398 -2.1022 -1.4063  1.0849
 8011TIP3    H223977   4.234   3.807   5.283  1.1286  1.5751  0.7245
 8012TIP3   OH223978   4.173   1.020   3.918 -0.0890 -0.2411 -0.1513
 8012TIP3    H123979   4.092   1.027   3.968 -0.2395 -0.5199 -0.3583
 8012TIP3    H223980   4.241   1.005   3.984 -0.1115  0.6337  0.0826
 8013TIP3   OH223981   6.512   1.079   1.597  0.0700 -0.2249  0.2329
 8013TIP3    H123982   6.578   1.011   1.608 -0.5314 -0.9937 -0.7089
 8013TIP3    H223983   6.441   1.036   1.549  0.7257  1.6675 -2.7243
 8014TIP3   OH223984   5.623   3.011   1.630  0.1061  0.1094  0.9417
 8014TIP3    H123985   5.605   2.970   1.545 -0.1945 -0.4956  1.2995
 8014TIP3    H223986   5.544   3.061   1.649  0.2692  0.4479  0.7568
 8015TIP3   OH223987   0.289   1.820   4.571  0.2868 -0.3331 -0.0531
 8015TIP3    H123988   0.201   1.783   4.575  1.1121 -2.3236  0.8916
 8015TIP3    H223989   0.281   1.895   4.511 -1.8572 -0.9423 -0.6101
 8016TIP3   OH223990   4.903   3.875   1.090 -0.0715  0.0260  0.7460
 8016TIP3    H123991   4.878   3.790   1.055 -0.5465 -0.0556  1.2724
 8016TIP3    H223992   4.859   3.880   1.175  1.1384  0.1673  1.3859
 8017TIP3   OH223993   0.111   4.286   1.212 -0.0549 -0.0312 -0.3203
 8017TIP3    H123994   0.040   4.350   1.222  0.7956  1.0331 -0.8536
 8017TIP3    H223995   0.079   4.207   1.256 -1.7977  0.2311 -1.0234
 8018TIP3   OH223996   6.304   6.842   3.962 -0.3361 -0.1213  0.2866
 8018TIP3    H123997   6.257   6.784   4.022 -0.7749  0.4781  0.5378
 8018TIP3    H223998   6.393   6.845   3.997 -0.5451  0.0855  0.8167
 8019TIP3   OH223999   7.360   4.286   6.192 -0.1409 -0.2438  0.6208
 8019TIP3    H124000   7.365   4.370   6.147  3.0964 -0.5929  0.0324
 8019TIP3    H224001   7.394   4.304   6.280 -0.0951 -0.7731  0.7175
 8020TIP3   OH224002   0.871   4.509   4.877  0.4426  0.6882  0.1623
 8020TIP3    H124003   0.944   4.468   4.831  0.5447  0.1511  0.7988
 8020TIP3    H224004   0.813   4.437   4.899 -0.0169  1.0487  0.1444
 8021TIP3   OH224005   1.540   2.533   6.017  0.2449 -0.1517  0.0494
 8021TIP3    H124006   1.449   2.543   6.042  0.2509 -0.3198  0.1356
 8021TIP3    H224007   1.587   2.523   6.100  0.4721  0.9713  0.0729
 8022TIP3   OH224008   8.164   6.660   4.823 -0.3378 -0.4079  0.0664
 8022TIP3    H124009   8.212   6.736   4.787 -1.0526  0.2704  0.5201
 8022TIP3    H224010   8.090   6.649   4.764 -0.7396 -0.1762  0.5287
 8023TIP3   OH224011   3.735   6.762   6.132 -0.1687  0.2749 -0.1251
 8023TIP3    H124012   3.684   6.834   6.171  0.9497  1.6905 -1.1450
 8023TIP3    H224013   3.700   6.683   6.172 -0.3791  1.4921  2.2672
 8024TIP3   OH224014   6.341   6.701   4.660  0.0503  0.1075  0.1141
 8024TIP3    H124015   6.277   6.771   4.647 -1.0147 -0.8450  0.0432
 8024TIP3    H224016   6.418   6.745   4.695 -0.6653  1.2783  0.2738
 8025TIP3   OH224017   3.329   1.781   6.442 -0.1986 -0.0229 -0.0890
 8025TIP3    H124018   3.412   1.762   6.398 -0.5150  1.5528 -1.4871
 8025TIP3    H224019   3.350   1.782   6.535  1.0135 -1.1384 -0.3322
 8026TIP3   OH224020   4.892   6.672   0.696 -0.0379 -0.1249 -0.0902
 8026TIP3    H124021   4.892   6.584   0.734  1.0749 -0.9115 -1.7495
 8026TIP3    H224022   4.956   6.721   0.748  1.3890 -1.1472 -0.7961
 8027TIP3   OH224023   2.550   6.735   6.392 -0.3648 -0.1655  0.0917
 8027TIP3    H124024   2.462   6.736   6.354 -0.6896  0.9930  0.8190
 8027TIP3    H224025   2.538   6.697   6.479  0.0137 -0.8171 -0.1344
 8028TIP3   OH224026   7.930   0.528   0.315 -0.8775  0.4211  0.2084
 8028TIP3    H124027   7.880   0.565   0.243  0.5478  1.2171 -0.4203
 8028TIP3    H224028   8.014   0.573   0.311  0.0691 -1.1915  0.9065
 8029TIP3   OH224029   3.434   1.579   3.388  0.0317 -0.4751  0.6148
 8029TIP3    H124030   3.351   1.545   3.423  1.3029 -2.0053  2.3229
 8029TIP3    H224031   3.482   1.608   3.466  0.5963  1.6912 -0.4686
 8030TIP3   OH224032   5.018   0.292   4.017  0.9340  0.3301  0.1075
 8030TIP3    H124033   5.038   0.316   4.108  0.1266  1.0973  0.0946
 8030TIP3    H224034   5.031   0.198   4.014  0.2018  0.1690  1.2442
 8031TIP3   OH224035   1.706   0.127   1.782 -0.5550  0.1781  0.1515
 8031TIP3    H124036   1.734   0.216   1.761 -1.8318  0.5308 -0.1424
 8031TIP3    H224037   1.630   0.139   1.840 -0.6882 -0.7233  0.1759
 8032TIP3   OH224038   5.892   6.946   5.874 -0.1858 -0.1619  0.0310
 8032TIP3    H124039   5.818   6.958   5.932 -0.1001 -1.0291  0.3421
 8032TIP3    H224040   5.959   6.904   5.928  0.3639  0.1917 -0.3587
 8033TIP3   OH224041   1.897   2.111   5.065  0.4636  0.0363  0.4117
 8033TIP3    H124042   1.949   2.031   5.062 -2.0232 -1.6560 -0.5056
 8033TIP3    H224043   1.872   2.127   4.974 -0.3630  0.9741  0.7810
 8034TIP3   OH224044   4.592   0.560   0.591  0.0374 -0.3120  0.1208
 8034TIP3    H124045   4.509   0.604   0.612 -0.9915 -1.6026 -1.1051
 8034TIP3    H224046   4.639   0.556   0.675 -1.1645  0.3679  0.8484
 8035TIP3   OH224047   1.347   2.913   5.527  0.2686 -0.3730 -0.4404
 8035TIP3    H124048   1.325   2.996   5.570  0.7611  0.4372 -1.7231
 8035TIP3    H224049   1.281   2.903   5.458  0.6079 -0.7217 -0.7149
 8036TIP3   OH224050   0.545   4.249   5.493  0.1931 -0.1264  0.0480
 8036TIP3    H124051   0.584   4.175   5.447  0.0618  0.4589 -1.0556
 8036TIP3    H224052   0.620   4.296   5.531  0.6021  0.8857 -1.8948
 8037TIP3   OH224053   1.414   7.289   2.645  0.0551 -0.4259 -0.4264
 8037TIP3    H124054   1.383   7.199   2.648 -0.1777 -0.3485  2.6951
 8037TIP3    H224055   1.461   7.301   2.728 -1.7033  2.8741  0.2745
 8038TIP3   OH224056   4.273   2.404   4.773  0.1686 -0.5474  0.2909
 8038TIP3    H124057   4.257   2.480   4.716  1.1726 -0.2492  0.3801
 8038TIP3    H224058   4.214   2.336   4.740 -0.4151  0.1284 -0.0829
 8039TIP3   OH224059   6.511   0.650   2.781  0.6469  0.4151 -0.0421
 8039TIP3    H124060   6.563   0.596   2.840 -1.9285  1.3084  3.3385
 8039TIP3    H224061   6.423   0.615   2.788 -0.8465  3.9504  1.1037
 8040TIP3   OH224062   0.262   2.405   4.418  0.3373 -0.2606  0.9622
 8040TIP3    H124063   0.183   2.352   4.421  0.3988 -0.3738  0.6106
 8040TIP3    H224064   0.292   2.399   4.328 -0.9506  2.2649  0.2530
 8041TIP3   OH224065   3.435   1.580   5.765  0.1218  0.0084  0.4098
 8041TIP3    H124066   3.407   1.669   5.742 -0.3654 -0.1370  0.4218
 8041TIP3    H224067   3.486   1.590   5.845  0.3778  0.3172  0.2124
 8042TIP3   OH224068   6.202   6.443   1.378  0.2399  0.1461  0.0801
 8042TIP3    H124069   6.171   6.508   1.314  1.5280  1.1022  0.3886
 8042TIP3    H224070   6.273   6.398   1.334 -0.3681 -0.7934  0.0287
 8043TIP3   OH224071   3.174   5.297   3.353 -0.5514  0.1554  0.2986
 8043TIP3    H124072   3.153   5.343   3.271  1.1098 -3.2080 -2.2541
 8043TIP3    H224073   3.112   5.224   3.356  1.4518 -1.6450  0.1913
 8044TIP3   OH224074   1.762   4.534   2.568 -0.1824 -0.2685  0.1550
 8044TIP3    H124075   1.846   4.570   2.594  0.3238  0.1628 -1.8811
 8044TIP3    H224076   1.719   4.605   2.520 -0.6372 -1.2434 -0.9439
 8045TIP3   OH224077   0.254   0.196   0.735  0.8335 -0.1581  0.1083
 8045TIP3    H124078   0.197   0.212   0.660  0.8805 -0.4426  0.0120
 8045TIP3    H224079   0.238   0.105   0.758  0.6851 -0.0191  0.5575
 8046TIP3   OH224080   5.571   6.350   4.573 -0.0743  0.2866 -0.0954
 8046TIP3    H124081   5.552   6.278   4.513  0.5763  0.8060 -0.9466
 8046TIP3    H224082   5.547   6.429   4.524 -1.3769  0.6569  1.0490
 8047TIP3   OH224083   7.677   4.861   3.739  0.0785 -0.5566  0.4291
 8047TIP3    H124084   7.679   4.904   3.824 -0.7786  0.2045  0.0738
 8047TIP3    H224085   7.585   4.855   3.716  0.1103 -3.0493  0.6645
 8048TIP3   OH224086   0.412   4.641   6.416 -0.4103 -0.0944  0.3418
 8048TIP3    H124087   0.493   4.672   6.457 -0.9314  1.9833 -0.1221
 8048TIP3    H224088   0.440   4.570   6.358  0.8568 -0.3850  1.2635
 8049TIP3   OH224089   3.042   0.518   4.020  0.3465 -0.2640  0.0043
 8049TIP3    H124090   3.071   0.568   3.943 -0.0094 -0.4032 -0.2228
 8049TIP3    H224091   3.046   0.427   3.991  0.8464 -0.3619  0.3674
 8050TIP3   OH224092   5.596   6.199   5.860 -0.3708 -0.1592 -0.2056
 8050TIP3    H124093   5.588   6.215   5.954 -2.4661 -0.8380 -0.2035
 8050TIP3    H224094   5.629   6.281   5.824  1.5890 -0.2474  1.2118
 8051TIP3   OH224095   3.138   5.727   0.258 -0.3334  0.1778 -0.0085
 8051TIP3    H124096   3.051   5.767   0.261 -0.2177  0.3881  3.0625
 8051TIP3    H224097   3.124   5.635   0.280  0.1936  0.1301  0.1415
 8052TIP3   OH224098   4.916   2.005   1.278  0.2157  0.6334  0.4484
 8052TIP3    H124099   4.888   2.014   1.187 -1.3772  0.1666  0.8600
 8052TIP3    H224100   4.868   1.929   1.310  1.3951  0.2811  1.4530
 8053TIP3   OH224101   6.827   1.825   6.111  0.1682 -0.0488  0.4132
 8053TIP3    H124102   6.774   1.766   6.056  1.2108 -0.3968 -0.2538
 8053TIP3    H224103   6.804   1.912   6.080  2.0441 -0.2728 -1.9299
 8054TIP3   OH224104   0.964   2.897   0.769  0.0323 -0.1487 -0.3617
 8054TIP3    H124105   0.936   2.892   0.860  1.8995 -0.3892  0.2427
 8054TIP3    H224106   1.019   2.974   0.765 -0.1020 -0.0901 -1.3224
 8055TIP3   OH224107   7.360   4.498   5.996 -1.1432 -0.3222 -0.1661
 8055TIP3    H124108   7.295   4.567   5.977 -0.9792 -0.4158 -1.1252
 8055TIP3    H224109   7.390   4.470   5.910 -0.2603 -0.7029  0.2615
 8056TIP3   OH224110   6.457   5.408   4.903 -0.4728 -0.3874  1.0456
 8056TIP3    H124111   6.376   5.392   4.952 -0.4033  0.5598  1.4973
 8056TIP3    H224112   6.467   5.504   4.904 -1.3433 -0.1158 -2.2078
 8057TIP3   OH224113   3.210   4.264   4.724  0.1266  0.0673  0.4281
 8057TIP3    H124114   3.146   4.325   4.688  0.1847  1.2023  2.1700
 8057TIP3    H224115   3.181   4.247   4.813  1.0953 -1.0806  0.5600
 8058TIP3   OH224116   6.975   3.126   3.076 -0.1578 -0.0887  0.8098
 8058TIP3    H124117   6.927   3.151   2.997 -0.1557 -1.1777  0.4495
 8058TIP3    H224118   7.036   3.198   3.091  0.6565 -0.3879 -0.8453
 8059TIP3   OH224119   2.504   0.590   0.597  0.0109  0.3119  0.4096
 8059TIP3    H124120   2.445   0.515   0.587  0.6388 -0.3279  1.3494
 8059TIP3    H224121   2.456   0.664   0.561 -1.1846 -0.2812  0.7527
 8060TIP3   OH224122   1.184   6.945   1.636 -0.7397  0.0072  0.7056
 8060TIP3    H124123   1.278   6.947   1.616 -0.1923  2.8396  3.0215
 8060TIP3    H224124   1.143   6.981   1.557  0.1302 -0.6472 -0.0784
 8061TIP3   OH224125   6.968   0.369   2.704 -0.5520 -0.3114  0.0174
 8061TIP3    H124126   7.024   0.446   2.706 -1.8036  0.6394 -0.3982
 8061TIP3    H224127   7.012   0.309   2.644  1.3436 -0.6788  1.6944
 8062TIP3   OH224128   6.867   4.173   2.948 -0.2440  0.2561  0.5414
 8062TIP3    H124129   6.904   4.205   3.031  0.6530 -0.6845  0.5261
 8062TIP3    H224130   6.916   4.221   2.881 -0.2370  0.2531  0.5443
 8063TIP3   OH224131   2.854   1.266   4.374  0.9630 -0.4032 -0.4030
 8063TIP3    H124132   2.880   1.250   4.464 -0.8252  1.5974  0.5569
 8063TIP3    H224133   2.791   1.196   4.355 -0.2097  0.3162  0.6662
 8064TIP3   OH224134   3.471   6.018   4.849 -0.8897 -0.0080 -0.0577
 8064TIP3    H124135   3.546   6.074   4.827 -1.4935  1.8807  2.2859
 8064TIP3    H224136   3.509   5.930   4.857  1.0109  0.8239  0.6732
 8065TIP3   OH224137   6.378   4.431   4.704 -0.4396 -0.0626  0.5588
 8065TIP3    H124138   6.333   4.384   4.775  1.5492 -0.5431  1.5778
 8065TIP3    H224139   6.384   4.368   4.633 -1.9303  0.2294  0.1453
 8066TIP3   OH224140   5.023   5.017   6.762  0.2372 -0.0155 -0.5374
 8066TIP3    H124141   5.078   4.983   6.691 -1.0792 -1.1824 -1.0505
 8066TIP3    H224142   5.083   5.028   6.836  1.6444  1.2287 -1.8038
 8067TIP3   OH224143   0.830   5.376   5.954  0.0219 -0.3650  0.3511
 8067TIP3    H124144   0.911   5.426   5.966 -1.5295  2.5901 -0.4986
 8067TIP3    H224145   0.793   5.410   5.873 -2.5901 -0.8245  1.2717
 8068TIP3   OH224146   3.709   4.764   4.863  0.0889  0.1757 -0.0263
 8068TIP3    H124147   3.629   4.807   4.835  0.0458  0.3218  0.3191
 8068TIP3    H224148   3.679   4.692   4.919  0.2470  1.4917  1.8612
 8069TIP3   OH224149   6.761   2.481   6.193 -0.0833 -0.8606  1.0337
 8069TIP3    H124150   6.771   2.576   6.200  0.8890 -0.9070  0.4598
 8069TIP3    H224151   6.847   2.450   6.165 -1.4330 -1.4398 -3.1688
 8070TIP3   OH224152   6.874   5.235   1.697 -0.2795  0.0898  0.0588
 8070TIP3    H124153   6.896   5.181   1.621 -0.3724  2.4392 -1.7476
 8070TIP3    H224154   6.951   5.230   1.754  0.1174 -1.0635 -0.5487
 8071TIP3   OH224155   2.143   5.728   0.128 -0.4934 -0.0801  0.2016
 8071TIP3    H124156   2.198   5.652   0.143  0.3944  0.3213 -0.8242
 8071TIP3    H224157   2.062   5.711   0.177  0.4583 -0.7699  1.5808
 8072TIP3   OH224158   1.735   7.734   1.871 -0.5539  0.3120 -0.5907
 8072TIP3    H124159   1.786   7.799   1.823 -2.4869  1.8845 -0.6196
 8072TIP3    H224160   1.731   7.658   1.812  1.1954  0.3620 -0.8219
 8073TIP3   OH224161   7.225   2.701   6.580  0.0972 -0.1689  0.1210
 8073TIP3    H124162   7.298   2.721   6.638  1.7790 -1.6051 -1.3495
 8073TIP3    H224163   7.264   2.700   6.492 -1.9004 -0.1169 -0.8326
 8074TIP3   OH224164   4.068   0.976   0.533  0.1221 -0.0700  0.3134
 8074TIP3    H124165   4.049   0.936   0.618  0.6149 -1.2513 -0.1134
 8074TIP3    H224166   4.004   1.047   0.525 -0.7787 -0.7722  1.0983
 8075TIP3   OH224167   4.963   7.053   1.913  0.1255 -0.2517 -0.2180
 8075TIP3    H124168   4.943   6.960   1.906  1.3916 -0.7386  1.9184
 8075TIP3    H224169   5.056   7.060   1.893  0.0824  0.5254 -0.1910
 8076TIP3   OH224170   0.097   4.592   1.418 -0.0873 -0.2476 -0.2195
 8076TIP3    H124171   0.188   4.568   1.400 -0.4114 -0.4838 -1.6845
 8076TIP3    H224172   0.086   4.577   1.512  0.9049 -1.8419 -0.3197
 8077TIP3   OH224173   3.726   2.835   5.504  0.5283  0.1863 -0.3206
 8077TIP3    H124174   3.654   2.778   5.479 -1.0632  2.2535 -0.7409
 8077TIP3    H224175   3.773   2.852   5.422  2.2264 -1.9639  0.1053
 8078TIP3   OH224176   2.679   4.498   3.300 -0.1547  0.1119  0.8292
 8078TIP3    H124177   2.759   4.448   3.286  0.2047  0.7913  0.3958
 8078TIP3    H224178   2.703   4.588   3.278 -0.5563  0.6252  2.3572
 8079TIP3   OH224179   5.763   1.893   2.463 -0.3110 -0.2823  0.3614
 8079TIP3    H124180   5.803   1.978   2.444 -0.1640 -0.5418 -0.5467
 8079TIP3    H224181   5.780   1.879   2.556 -0.5378  0.7832  0.5837
 8080TIP3   OH224182   2.438   2.515   1.882  0.5759 -0.3454 -0.3057
 8080TIP3    H124183   2.384   2.537   1.806 -1.1655  0.4203  1.0893
 8080TIP3    H224184   2.489   2.439   1.854  1.1465  0.8255 -2.7364
 8081TIP3   OH224185   4.522   1.433   0.741  0.0887  0.7696 -0.2527
 8081TIP3    H124186   4.459   1.497   0.774 -1.5116 -0.0667 -1.5461
 8081TIP3    H224187   4.481   1.348   0.755  0.8882  0.2028 -1.1890
 8082TIP3   OH224188   7.098   4.045   1.533 -0.2951 -0.1219 -0.2794
 8082TIP3    H124189   7.046   4.103   1.589  2.3348  1.6636  0.5258
 8082TIP3    H224190   7.056   3.960   1.541 -1.2745  0.5099  2.8301
 8083TIP3   OH224191   1.624   3.736   0.788  0.2828  0.3397 -0.0259
 8083TIP3    H124192   1.536   3.716   0.820 -0.2751 -0.3187 -1.8334
 8083TIP3    H224193   1.613   3.816   0.736  0.8472  0.5050  0.1009
 8084TIP3   OH224194   2.994   5.676   3.355  0.6547 -0.2862 -0.0337
 8084TIP3    H124195   2.967   5.624   3.279  0.3318 -1.2774  0.7383
 8084TIP3    H224196   2.955   5.631   3.430 -0.1844  1.4330  0.6220
 8085TIP3   OH224197   7.990   7.497   5.594  0.3546  0.2211  0.2477
 8085TIP3    H124198   7.943   7.580   5.601  1.7570  1.2550 -1.7238
 8085TIP3    H224199   7.982   7.472   5.502  0.6480 -1.4368  0.6359
 8086TIP3   OH224200   4.503   7.722   3.646 -0.4686 -0.3180 -0.1691
 8086TIP3    H124201   4.425   7.683   3.606 -0.4199 -0.3580 -0.2250
 8086TIP3    H224202   4.533   7.786   3.581  0.1766 -1.0782 -0.6259
 8087TIP3   OH224203   8.271   5.221   3.331 -0.0316  0.2107 -0.3682
 8087TIP3    H124204   8.185   5.179   3.320  0.8319 -1.8451  0.2350
 8087TIP3    H224205   8.293   5.206   3.423  1.7155 -0.8671 -0.9165
 8088TIP3   OH224206   3.901   1.044   0.141  0.7491  0.7279 -0.0235
 8088TIP3    H124207   3.836   1.094   0.092  0.9993  0.6004 -0.4924
 8088TIP3    H224208   3.936   1.106   0.206 -1.3599  0.2127  1.7097
 8089TIP3   OH224209   6.043   4.724   4.730  0.4303  0.0484  0.1402
 8089TIP3    H124210   5.954   4.717   4.695 -0.0307 -0.3825  1.3473
 8089TIP3    H224211   6.053   4.646   4.786  1.6855 -0.0863 -0.2366
 8090TIP3   OH224212   3.922   5.105   2.683  0.3981  0.2321 -0.7257
 8090TIP3    H124213   4.016   5.107   2.700  0.2041 -2.7040  1.5261
 8090TIP3    H224214   3.914   5.094   2.588  2.0230  4.7850 -1.6689
 8091TIP3   OH224215   7.455   5.851   1.533 -0.3216  0.1358  0.0277
 8091TIP3    H124216   7.542   5.811   1.525  0.3461  1.3528  0.7357
 8091TIP3    H224217   7.400   5.783   1.571  0.5737 -0.3656  0.4572
 8092TIP3   OH224218   0.497   2.843   5.564  0.2803  0.4609  0.3129
 8092TIP3    H124219   0.513   2.793   5.483  0.0247  0.6997  0.1133
 8092TIP3    H224220   0.584   2.853   5.603  0.6305  1.6354 -0.6884
 8093TIP3   OH224221   4.743   7.154   0.293 -0.2338 -0.0357  0.2800
 8093TIP3    H124222   4.727   7.238   0.334  1.9199  1.2004 -1.2305
 8093TIP3    H224223   4.796   7.106   0.356  0.1803  0.5139  0.3540
 8094TIP3   OH224224   0.431   7.608   5.537 -0.4341 -0.0006  0.3419
 8094TIP3    H124225   0.462   7.565   5.616 -1.3415 -0.1554  0.6241
 8094TIP3    H224226   0.480   7.690   5.534 -0.4282  0.0324  1.1047
 8095TIP3   OH224227   6.920   6.766   2.986  0.3566  0.2241 -0.0095
 8095TIP3    H124228   7.005   6.726   3.006 -0.1991 -0.6542  0.6467
 8095TIP3    H224229   6.856   6.703   3.016 -0.5478  1.2044  0.1790
 8096TIP3   OH224230   5.178   6.691   3.697 -0.3352 -0.3396 -0.7589
 8096TIP3    H124231   5.209   6.780   3.678  1.2628 -0.7764 -0.3539
 8096TIP3    H224232   5.083   6.701   3.709 -0.1662  1.3429 -0.5421
 8097TIP3   OH224233   4.792   1.345   3.188 -0.0489  0.2695 -0.0355
 8097TIP3    H124234   4.723   1.399   3.150 -1.3843 -0.8490  0.7035
 8097TIP3    H224235   4.785   1.361   3.282  0.3999 -0.1996  0.0785
 8098TIP3   OH224236   2.900   6.284   5.733 -0.0119 -0.4757 -0.4258
 8098TIP3    H124237   2.915   6.326   5.648  1.8156 -0.5504 -0.1707
 8098TIP3    H224238   2.816   6.319   5.762  0.3558  1.2185 -1.2673
 8099TIP3   OH224239   1.548   4.130   1.923  0.1273  0.0175 -0.2731
 8099TIP3    H124240   1.499   4.067   1.870 -0.0759  0.7506 -0.9954
 8099TIP3    H224241   1.502   4.133   2.007  0.8745 -1.6907  0.2253
 8100TIP3   OH224242   0.404   3.052   1.389  0.3414  0.3234  0.1535
 8100TIP3    H124243   0.452   3.011   1.461 -0.4225 -0.1219  0.4129
 8100TIP3    H224244   0.374   2.979   1.335 -0.9192  0.5285  0.5453
 8101TIP3   OH224245   7.451   3.302   0.632 -0.0960  0.6267 -0.1438
 8101TIP3    H124246   7.504   3.254   0.696  0.8823  1.9958  0.1337
 8101TIP3    H224247   7.390   3.353   0.686  1.4439  2.6238 -0.1508
 8102TIP3   OH224248   7.553   0.786   0.975 -0.8087  0.3751  0.1324
 8102TIP3    H124249   7.473   0.831   0.948 -0.7003  0.6025  0.1863
 8102TIP3    H224250   7.577   0.732   0.900 -0.4438  1.0898 -0.2739
 8103TIP3   OH224251   5.280   0.039   0.463 -0.0637  0.0386  0.2474
 8103TIP3    H124252   5.233  -0.016   0.526  0.5690  0.3398  0.9988
 8103TIP3    H224253   5.211   0.076   0.408 -0.6889  0.1994  1.1140
 8104TIP3   OH224254   8.261   3.814   6.509 -0.0851  0.7021 -0.2972
 8104TIP3    H124255   8.174   3.827   6.470 -0.0954  1.0667 -0.1626
 8104TIP3    H224256   8.267   3.882   6.576 -1.1466 -1.5449  2.2414
 8105TIP3   OH224257   6.299   0.867   3.626  0.3787  0.0710  0.1624
 8105TIP3    H124258   6.253   0.945   3.658  0.6438  0.2955 -0.0079
 8105TIP3    H224259   6.369   0.853   3.689  1.4253  1.0063 -0.7685
 8106TIP3   OH224260   8.300   7.258   6.539 -0.1327  0.2482 -0.5606
 8106TIP3    H124261   8.279   7.334   6.484  0.4658  0.1314 -0.9614
 8106TIP3    H224262   8.215   7.214   6.552 -0.1975 -0.1368 -2.0181
 8107TIP3   OH224263   3.053   2.453   1.050 -0.3958 -0.7188 -0.1254
 8107TIP3    H124264   3.115   2.499   1.107 -0.1529 -0.2407 -0.7655
 8107TIP3    H224265   3.053   2.363   1.083  1.2342 -0.9292 -0.5886
 8108TIP3   OH224266   5.794   3.349   4.567  0.1703 -0.2749 -0.0778
 8108TIP3    H124267   5.885   3.370   4.586  0.1681  0.8117 -1.1382
 8108TIP3    H224268   5.749   3.359   4.650  0.5713  1.8952 -0.0651
 8109TIP3   OH224269   8.109   0.395   6.688 -0.6533 -0.5626  0.2349
 8109TIP3    H124270   8.130   0.422   6.777  0.5158 -1.5280  0.2723
 8109TIP3    H224271   8.062   0.470   6.651 -1.6443 -0.3558  1.8104
 8110TIP3   OH224272   7.576   7.651   2.014 -0.4350  0.3707  0.3020
 8110TIP3    H124273   7.522   7.576   2.040 -0.5083  0.6485  0.9658
 8110TIP3    H224274   7.528   7.692   1.942 -0.8745  0.3425  0.5773
 8111TIP3   OH224275   5.659   2.349   2.498 -0.2428 -0.1126 -0.2095
 8111TIP3    H124276   5.728   2.290   2.468 -0.5174 -0.6191  0.1272
 8111TIP3    H224277   5.687   2.436   2.469  0.6857 -0.2665  0.1882
 8112TIP3   OH224278   1.816   4.136   1.991 -0.1998 -0.7053  0.2693
 8112TIP3    H124279   1.800   4.091   2.074 -1.6660 -1.8231 -0.5689
 8112TIP3    H224280   1.733   4.131   1.944 -0.5511  3.2258  0.2043
 8113TIP3   OH224281   4.213   6.213   5.332 -0.2758 -0.4400 -0.0667
 8113TIP3    H124282   4.190   6.230   5.423 -0.9345  0.4309 -0.3788
 8113TIP3    H224283   4.282   6.277   5.312  1.2097 -1.8418  0.3307
 8114TIP3   OH224284   6.734   3.670   3.142 -0.0372  1.1829  0.0839
 8114TIP3    H124285   6.672   3.644   3.073  0.4065  2.3053 -0.7633
 8114TIP3    H224286   6.786   3.740   3.103  2.9833 -0.8352  0.1211
 8115TIP3   OH224287   0.287   6.083   3.416  0.4698  0.0639  0.1337
 8115TIP3    H124288   0.316   6.171   3.392 -2.1936  0.7035 -1.0575
 8115TIP3    H224289   0.318   6.027   3.345  1.5121  0.1318  0.5156
 8116TIP3   OH224290   0.820   6.801   3.364 -0.1554 -0.0433  0.2584
 8116TIP3    H124291   0.900   6.828   3.319 -0.7063  0.4155 -0.4575
 8116TIP3    H224292   0.763   6.766   3.295 -0.0482 -1.6964  0.9432
 8117TIP3   OH224293   3.417   5.101   6.588 -0.5503 -0.4270 -0.0590
 8117TIP3    H124294   3.356   5.166   6.553 -0.9354 -0.7218  0.0581
 8117TIP3    H224295   3.468   5.150   6.653  0.4973  0.2448 -1.3437
 8118TIP3   OH224296   7.232   1.413   1.832 -0.1209  0.0450  0.7145
 8118TIP3    H124297   7.274   1.328   1.836 -1.1913 -0.4710  1.9691
 8118TIP3    H224298   7.281   1.467   1.894  1.0315  0.5882 -0.6434
 8119TIP3   OH224299   0.894   1.096   1.258 -0.1124  0.0758  0.6432
 8119TIP3    H124300   0.837   1.081   1.182  0.5503  1.3141 -0.1297
 8119TIP3    H224301   0.859   1.038   1.325  0.0976 -2.0962 -1.0126
 8120TIP3   OH224302   3.744   4.626   0.249  0.7160 -0.6040  0.7293
 8120TIP3    H124303   3.752   4.532   0.264  0.5684 -0.6419  0.5754
 8120TIP3    H224304   3.716   4.661   0.333  1.7600 -0.5595  1.0705
 8121TIP3   OH224305   4.020   5.057   3.913 -0.4443  0.4032  0.0749
 8121TIP3    H124306   4.085   5.003   3.958 -1.5034 -0.5845  0.4747
 8121TIP3    H224307   4.066   5.091   3.837 -0.1185 -2.3870 -1.1260
 8122TIP3   OH224308   0.107   7.095   5.533 -0.0967 -0.3911  0.0389
 8122TIP3    H124309   0.017   7.125   5.548  0.2948  1.6073 -1.2623
 8122TIP3    H224310   0.150   7.169   5.490  2.8260 -0.3833  2.6078
 8123TIP3   OH224311   6.489   4.490   0.850 -0.5321  0.0652 -0.3873
 8123TIP3    H124312   6.395   4.488   0.868 -0.6558 -1.3003 -1.0359
 8123TIP3    H224313   6.507   4.579   0.820 -1.6270  0.3116 -0.3264
 8124TIP3   OH224314   4.130   7.075   4.788  0.2578  0.0372 -0.0453
 8124TIP3    H124315   4.044   7.112   4.810  0.1786 -0.7690  1.0377
 8124TIP3    H224316   4.110   6.996   4.738  0.4272  2.0645 -3.6719
 8125TIP3   OH224317   3.551   3.926   5.135 -0.7969 -0.5862  0.3140
 8125TIP3    H124318   3.593   3.947   5.051 -1.4816  0.2232  0.1619
 8125TIP3    H224319   3.612   3.865   5.177  0.3367  0.2268 -0.0781
 8126TIP3   OH224320   3.183   7.307   1.070  0.6764  0.6173  0.4261
 8126TIP3    H124321   3.116   7.365   1.106 -0.2428 -0.0363 -0.1769
 8126TIP3    H224322   3.155   7.292   0.980  0.1848 -1.7245  0.8921
 8127TIP3   OH224323   6.826   3.302   5.989  0.1987 -0.0192 -0.1656
 8127TIP3    H124324   6.766   3.339   6.054  2.6349  3.0303  0.6239
 8127TIP3    H224325   6.813   3.357   5.911  2.3248  1.1875  0.2593
 8128TIP3   OH224326   7.911   6.173   2.634  0.0488 -0.1233 -0.9854
 8128TIP3    H124327   7.866   6.089   2.627  0.1829 -0.2336 -0.5290
 8128TIP3    H224328   7.905   6.196   2.726  1.7258 -0.5761 -0.7486
 8129TIP3   OH224329   7.471   6.444   4.593  0.4684  0.2185  0.1065
 8129TIP3    H124330   7.503   6.380   4.530 -0.6622  0.4171 -0.7140
 8129TIP3    H224331   7.460   6.524   4.542 -3.1057 -0.3191 -0.2151
 8130TIP3   OH224332   7.229   6.489   2.533  0.4561  0.1633 -0.3007
 8130TIP3    H124333   7.136   6.466   2.529 -0.0579  1.4923  1.8615
 8130TIP3    H224334   7.230   6.585   2.530  1.4635  0.3238  2.1943
 8131TIP3   OH224335   6.239   0.115   5.008 -0.0646  0.1395 -0.0689
 8131TIP3    H124336   6.220   0.112   5.102 -1.1294  1.6709 -0.2050
 8131TIP3    H224337   6.196   0.194   4.977 -0.8572 -1.0254 -2.1235
 8132TIP3   OH224338   5.100   5.028   2.391 -0.5599 -0.0762  0.6514
 8132TIP3    H124339   5.187   5.007   2.357 -0.9128 -1.4476  0.5172
 8132TIP3    H224340   5.099   4.991   2.479 -0.9223  0.1394  0.7391
 8133TIP3   OH224341   8.153   4.961   0.756  0.0182  0.6042 -0.2002
 8133TIP3    H124342   8.143   5.054   0.740  0.6134  0.6371 -0.3941
 8133TIP3    H224343   8.223   4.955   0.821  0.4910  0.2609 -0.7303
 8134TIP3   OH224344   2.602   7.487   0.988 -0.5694  0.1167 -0.0638
 8134TIP3    H124345   2.680   7.433   0.972 -1.0117 -0.6344  0.3006
 8134TIP3    H224346   2.605   7.506   1.082 -0.7446  0.2262 -0.0797
 8135TIP3   OH224347   0.972   1.966   2.916 -0.2223  0.7394  0.0690
 8135TIP3    H124348   1.023   1.972   2.996 -1.4228 -0.9586  1.0091
 8135TIP3    H224349   0.894   1.916   2.940 -0.7218  0.3697 -2.1026
 8136TIP3   OH224350   5.524   2.450   4.144 -0.1767 -0.1382  0.4185
 8136TIP3    H124351   5.518   2.391   4.219 -0.4855  0.6584  1.0369
 8136TIP3    H224352   5.616   2.444   4.116 -0.4641 -1.7501 -0.2482
 8137TIP3   OH224353   0.592   1.063   4.788 -0.1670  0.2523  0.1332
 8137TIP3    H124354   0.526   1.130   4.804  0.6150  0.7971  1.2451
 8137TIP3    H224355   0.620   1.036   4.876  3.5433  2.5399 -0.0961
 8138TIP3   OH224356   2.724   3.764   1.382  0.2095  0.0903  0.3240
 8138TIP3    H124357   2.765   3.692   1.335 -0.9204 -0.6037  0.3690
 8138TIP3    H224358   2.718   3.733   1.473 -1.0693 -0.1306  0.1773
 8139TIP3   OH224359   0.243   5.354   5.264  0.1892 -0.2071 -0.3945
 8139TIP3    H124360   0.185   5.277   5.268 -0.3357  0.1425 -0.9851
 8139TIP3    H224361   0.193   5.424   5.306  0.7413 -0.2213  0.3100
 8140TIP3   OH224362   7.262   7.109   1.090 -0.3736 -0.1991 -0.0731
 8140TIP3    H124363   7.216   7.068   1.017  2.2334  0.4992 -2.3062
 8140TIP3    H224364   7.246   7.203   1.078 -1.6141 -0.1637  1.5642
 8141TIP3   OH224365   8.053   6.761   6.514  0.1725 -0.2061 -0.2695
 8141TIP3    H124366   8.119   6.792   6.453  0.4153 -1.7041 -0.8157
 8141TIP3    H224367   8.085   6.788   6.600 -0.0852  1.7602 -0.7574
 8142TIP3   OH224368   2.047   5.248   4.699  0.0351 -0.1124 -0.3727
 8142TIP3    H124369   2.071   5.341   4.707  1.2692 -0.5598  1.8138
 8142TIP3    H224370   1.966   5.240   4.749  0.1517 -0.2939 -0.2130
 8143TIP3   OH224371   6.174   3.512   0.040 -0.8055  0.0855 -0.3757
 8143TIP3    H124372   6.268   3.528   0.045 -0.6980 -0.7688  1.7611
 8143TIP3    H224373   6.167   3.419   0.018 -1.1064 -0.0716  0.3504
 8144TIP3   OH224374   1.253   1.123   1.731  0.1272  0.2051 -0.2359
 8144TIP3    H124375   1.306   1.163   1.800 -1.3922  0.4272  0.8760
 8144TIP3    H224376   1.209   1.050   1.774  1.2102 -1.3805 -1.7084
 8145TIP3   OH224377   7.649   5.647   1.262 -0.3810 -0.4563  0.6895
 8145TIP3    H124378   7.696   5.694   1.194 -0.1823 -0.0236  1.1173
 8145TIP3    H224379   7.596   5.583   1.215  0.0246 -0.4079  0.1534
 8146TIP3   OH224380   3.755   5.373   5.975  0.2510  0.5522 -0.3646
 8146TIP3    H124381   3.809   5.365   6.054 -1.1933 -0.4408  0.5879
 8146TIP3    H224382   3.765   5.289   5.931  0.6008  0.8936 -0.9413
 8147TIP3   OH224383   6.155   6.161   0.298  0.1630 -0.2842  0.6886
 8147TIP3    H124384   6.097   6.229   0.265  1.0422 -0.1098 -0.5696
 8147TIP3    H224385   6.163   6.098   0.226  3.4167  0.9364 -0.1833
 8148TIP3   OH224386   2.219   1.389   1.503  0.5511 -0.3085  0.6149
 8148TIP3    H124387   2.231   1.315   1.443 -2.1701 -1.1171  0.9358
 8148TIP3    H224388   2.195   1.462   1.447  0.1552 -0.4912  0.5461
 8149TIP3   OH224389   7.263   2.141   1.371 -0.4127  0.1436  0.2187
 8149TIP3    H124390   7.261   2.127   1.277  0.6752  1.1661  0.0226
 8149TIP3    H224391   7.344   2.190   1.387 -0.7948  0.3757  1.6241
 8150TIP3   OH224392   3.437   3.739   1.451  0.2030 -0.3768  0.0454
 8150TIP3    H124393   3.493   3.685   1.395 -0.5545 -1.3195  0.1697
 8150TIP3    H224394   3.498   3.799   1.494  1.2325 -1.7826  0.6558
 8151TIP3   OH224395   4.136   6.792   3.229 -0.0041 -0.3157  0.0992
 8151TIP3    H124396   4.144   6.699   3.250  0.0468  0.0799  1.9422
 8151TIP3    H224397   4.171   6.799   3.140  3.6365 -1.5170  1.2444
 8152TIP3   OH224398   7.917   5.733   3.807 -0.0228 -0.0677  0.1680
 8152TIP3    H124399   7.894   5.688   3.889 -1.6538  2.8602  1.4969
 8152TIP3    H224400   7.840   5.722   3.751  1.0681 -2.0138 -1.0195
 8153TIP3   OH224401   3.768   1.395   5.622  0.4518  0.1363 -0.3629
 8153TIP3    H124402   3.760   1.490   5.616 -0.3876  0.0392 -0.9048
 8153TIP3    H224403   3.848   1.374   5.573  0.8702  0.5878  0.1055
 8154TIP3   OH224404   2.951   7.047   4.543 -0.3961 -0.1070 -0.0471
 8154TIP3    H124405   2.909   6.977   4.593 -0.1939 -0.6200 -0.5891
 8154TIP3    H224406   3.043   7.042   4.569 -0.2721 -0.4410 -0.5476
 8155TIP3   OH224407   3.875   3.420   1.232  0.3980  0.1516 -0.2273
 8155TIP3    H124408   3.924   3.351   1.275  1.2070  0.1669 -1.0954
 8155TIP3    H224409   3.858   3.484   1.301 -0.9401 -1.1748  0.7421
 8156TIP3   OH224410   4.770   1.524   0.826 -0.6120 -0.1830  0.3474
 8156TIP3    H124411   4.681   1.509   0.793 -1.5782 -0.4852  2.8822
 8156TIP3    H224412   4.807   1.436   0.835  0.7979 -0.0198 -2.5690
 8157TIP3   OH224413   7.172   4.587   5.238  0.0364  0.4508  0.2176
 8157TIP3    H124414   7.155   4.569   5.331  0.3694  1.4456  0.4922
 8157TIP3    H224415   7.251   4.641   5.239  1.4130 -1.4451 -0.8227
 8158TIP3   OH224416   4.711   2.382   6.308  0.7762  0.2875 -1.0234
 8158TIP3    H124417   4.738   2.417   6.393 -0.9888  0.2493 -0.3872
 8158TIP3    H224418   4.664   2.455   6.267 -2.1194 -0.8689 -0.0821
 8159TIP3   OH224419   0.174   4.338   5.943 -0.7564  0.0069 -0.0606
 8159TIP3    H124420   0.116   4.263   5.930  0.0643 -0.6151 -0.2321
 8159TIP3    H224421   0.237   4.331   5.871 -1.3058  1.4856 -0.7221
 8160TIP3   OH224422   0.367   6.259   0.137  0.0812 -0.4353  0.2211
 8160TIP3    H124423   0.405   6.210   0.065  1.4090 -0.7946  1.1203
 8160TIP3    H224424   0.339   6.192   0.200  1.6965 -0.1010  1.3541
 8161TIP3   OH224425   4.729   6.318   0.113 -0.6567 -0.4026  0.1531
 8161TIP3    H124426   4.789   6.342   0.183 -1.8864  1.4951  0.6422
 8161TIP3    H224427   4.644   6.313   0.155 -1.2107 -0.6127 -0.9514
 8162TIP3   OH224428   1.812   5.599   4.826  0.0472 -0.0797  0.0457
 8162TIP3    H124429   1.825   5.534   4.896  0.4951  0.4794  0.4984
 8162TIP3    H224430   1.720   5.590   4.802  0.4483 -1.9380 -0.9736
 8163TIP3   OH224431   4.612   5.006   1.407  0.3583  0.0896  0.2817
 8163TIP3    H124432   4.543   4.943   1.430 -1.4683  1.9282  0.1424
 8163TIP3    H224433   4.594   5.082   1.461  3.1091  0.2077  1.1477
 8164TIP3   OH224434   5.367   1.204   4.874  0.7384  0.1622 -0.9302
 8164TIP3    H124435   5.376   1.291   4.836  0.9655 -0.2896 -1.9532
 8164TIP3    H224436   5.417   1.208   4.956  0.1192  1.2024 -0.5939
 8165TIP3   OH224437   7.710   7.713   3.118  0.3131  0.1253 -0.3944
 8165TIP3    H124438   7.669   7.798   3.134 -0.1322 -0.2853  0.7315
 8165TIP3    H224439   7.648   7.666   3.063  0.1532  0.2107 -0.2870
 8166TIP3   OH224440   6.915   3.573   3.584  0.1389  0.0160 -0.1794
 8166TIP3    H124441   6.823   3.546   3.586  0.2296 -0.3262  2.2706
 8166TIP3    H224442   6.918   3.650   3.641  1.6222 -1.0008  1.2086
 8167TIP3   OH224443   1.491   2.851   5.111 -0.0962  0.1337  0.4631
 8167TIP3    H124444   1.446   2.888   5.035  0.4122 -0.6353 -0.2308
 8167TIP3    H224445   1.455   2.763   5.120 -2.2836  1.1569  2.9163
 8168TIP3   OH224446   3.376   5.826   0.847  0.0897 -0.0399 -0.1767
 8168TIP3    H124447   3.437   5.787   0.784 -1.1784 -0.7858 -1.0026
 8168TIP3    H224448   3.333   5.897   0.798 -1.0921 -0.7884 -0.2604
 8169TIP3   OH224449   6.037   2.099   3.984 -0.3152 -0.4377 -0.2316
 8169TIP3    H124450   5.945   2.123   3.995 -0.5008 -0.9661 -0.5722
 8169TIP3    H224451   6.034   2.011   3.945  0.3389 -0.9881  0.9089
 8170TIP3   OH224452   5.332   5.757   2.212 -0.0935  0.4377  0.3731
 8170TIP3    H124453   5.383   5.833   2.184  0.3169  0.4434  1.1148
 8170TIP3    H224454   5.397   5.687   2.221 -0.4777 -0.0231 -0.3614
 8171TIP3   OH224455   6.612   7.219   0.778 -0.3275 -0.0224 -0.0713
 8171TIP3    H124456   6.564   7.265   0.846 -0.2759  2.0179 -1.3273
 8171TIP3    H224457   6.619   7.283   0.707  2.7931 -0.7997 -0.5874
 8172TIP3   OH224458   1.480   5.074   1.673 -0.6262 -0.4257 -0.3995
 8172TIP3    H124459   1.420   4.999   1.666 -0.5707 -0.4067 -1.2302
 8172TIP3    H224460   1.488   5.106   1.583 -1.2766  1.0907  0.0647
 8173TIP3   OH224461   3.308   7.145   6.347  0.1757 -0.0285 -0.2318
 8173TIP3    H124462   3.326   7.170   6.437 -1.0648 -0.4137  0.1390
 8173TIP3    H224463   3.224   7.098   6.351  1.1004 -1.9042 -1.2745
 8174TIP3   OH224464   4.968   1.611   4.304  0.0959  0.3519 -0.3268
 8174TIP3    H124465   4.919   1.690   4.325 -0.1293 -0.1371  1.0697
 8174TIP3    H224466   4.942   1.591   4.213 -0.9675  1.0558 -0.1967
 8175TIP3   OH224467   6.636   5.651   4.821  0.2447 -0.2996 -0.2892
 8175TIP3    H124468   6.721   5.620   4.789  0.7991 -0.6658  1.3968
 8175TIP3    H224469   6.582   5.658   4.743  1.8057 -0.1056 -1.4080
 8176TIP3   OH224470   6.848   7.074   3.344 -0.1672  0.1503  0.4019
 8176TIP3    H124471   6.882   7.080   3.255  0.8227 -4.2517  0.2412
 8176TIP3    H224472   6.782   7.004   3.340  1.6142 -1.9367  3.4207
 8177TIP3   OH224473   8.153   0.559   5.695 -0.1060 -0.4950 -0.3077
 8177TIP3    H124474   8.110   0.509   5.764  0.3244 -0.8272 -0.2829
 8177TIP3    H224475   8.131   0.512   5.614  0.1934 -0.6568 -0.2970
 8178TIP3   OH224476   2.606   4.261   0.220 -0.2582 -0.5671 -0.0087
 8178TIP3    H124477   2.553   4.314   0.279 -1.1002 -1.8666  0.4383
 8178TIP3    H224478   2.566   4.175   0.222  0.3990 -0.9554 -1.5832
 8179TIP3   OH224479   5.432   5.008   2.741 -0.3727 -0.1101 -0.4099
 8179TIP3    H124480   5.498   4.995   2.809 -0.9539 -0.0058  0.1813
 8179TIP3    H224481   5.446   4.936   2.679 -0.5306 -0.8296  0.3807
 8180TIP3   OH224482   3.438   0.968   0.601  0.2534  0.3203 -0.4141
 8180TIP3    H124483   3.471   1.014   0.523  0.5079  0.2608 -0.3434
 8180TIP3    H224484   3.509   0.976   0.665 -0.2235  0.9574  0.0485
 8181TIP3   OH224485   4.196   4.417   3.474 -0.6893  0.0206 -0.4245
 8181TIP3    H124486   4.252   4.485   3.512 -0.8956  0.9698 -1.7727
 8181TIP3    H224487   4.115   4.422   3.525 -1.1328  1.5867 -1.2152
 8182TIP3   OH224488   6.363   6.862   5.425 -0.1161 -0.0467 -0.2943
 8182TIP3    H124489   6.455   6.861   5.448 -0.1907 -0.2684  0.0081
 8182TIP3    H224490   6.358   6.912   5.344  0.1542  0.7581  0.1791
 8183TIP3   OH224491   4.392   7.353   1.420 -0.7934 -0.1577  0.5612
 8183TIP3    H124492   4.335   7.420   1.455 -0.4288 -0.0190  0.8974
 8183TIP3    H224493   4.342   7.313   1.349 -0.2686  1.8366 -1.0340
 8184TIP3   OH224494   1.849   0.841   4.449  0.0206 -0.2119 -0.2599
 8184TIP3    H124495   1.758   0.817   4.430  0.2985 -0.8285 -0.8703
 8184TIP3    H224496   1.854   0.844   4.544 -0.6742 -0.0423 -0.2263
 8185TIP3   OH224497   6.117   7.005   0.721 -0.2783  0.4059 -0.3338
 8185TIP3    H124498   6.038   7.053   0.744  0.0037  0.1456  1.2972
 8185TIP3    H224499   6.087   6.932   0.668 -1.0361  0.7421 -0.3771
 8186TIP3   OH224500   0.000   3.668   2.055  0.5062 -0.4022  0.3341
 8186TIP3    H124501   0.084   3.646   2.014  0.5815 -1.9648  1.2767
 8186TIP3    H224502  -0.065   3.627   1.999  0.4362 -0.2880  0.3304
 8187TIP3   OH224503   1.863   0.476   1.205  0.9000  0.0024  0.3261
 8187TIP3    H124504   1.828   0.466   1.117 -0.2350 -2.2073  0.9559
 8187TIP3    H224505   1.869   0.387   1.239 -0.7280  0.8731  3.2476
 8188TIP3   OH224506   1.301   3.853   0.970 -0.4891 -0.1348 -0.4521
 8188TIP3    H124507   1.281   3.776   0.917  1.0228 -0.0187 -1.2240
 8188TIP3    H224508   1.263   3.926   0.921  1.6302  0.0770 -1.8821
 8189TIP3   OH224509   5.494   4.299   2.731 -0.1098 -0.5646  0.0731
 8189TIP3    H124510   5.517   4.319   2.822  1.4052  1.0224 -0.5969
 8189TIP3    H224511   5.513   4.206   2.721  2.2821 -0.2031  0.6922
 8190TIP3   OH224512   6.905   0.246   6.243 -0.2483  0.2683  0.1927
 8190TIP3    H124513   6.897   0.267   6.150  2.7529  0.2370 -0.1840
 8190TIP3    H224514   6.898   0.150   6.247 -1.2599  0.3314  0.1512
 8191TIP3   OH224515   7.565   3.458   1.719  0.4719 -0.2634  0.0328
 8191TIP3    H124516   7.586   3.545   1.685  0.2796 -0.7253 -1.3151
 8191TIP3    H224517   7.647   3.428   1.759  0.1522  1.1004  1.8559
 8192TIP3   OH224518   5.621   2.203   6.731 -0.4151 -0.8778 -0.2708
 8192TIP3    H124519   5.534   2.161   6.731 -0.2576 -1.2168  0.4186
 8192TIP3    H224520   5.667   2.159   6.660 -0.8097 -0.6860 -0.6535
 8193TIP3   OH224521   6.872   5.584   1.203 -0.2852  0.0648  0.5007
 8193TIP3    H124522   6.872   5.537   1.286 -1.6051 -1.9338 -0.5384
 8193TIP3    H224523   6.850   5.517   1.138  2.7683  1.0917 -1.7799
 8194TIP3   OH224524   0.451   2.892   3.698 -0.9337 -0.2992  0.0659
 8194TIP3    H124525   0.516   2.835   3.658 -1.8256 -1.0046 -0.4245
 8194TIP3    H224526   0.459   2.876   3.792 -0.2604 -0.2174  0.0230
 8195TIP3   OH224527   4.459   1.389   2.536  0.3739 -0.3800  0.4741
 8195TIP3    H124528   4.393   1.396   2.467  0.9509 -1.4231 -0.2226
 8195TIP3    H224529   4.436   1.457   2.599  0.0404  0.8499 -0.9278
 8196TIP3   OH224530   1.076   2.406   0.071  0.0626 -0.2614 -0.1297
 8196TIP3    H124531   1.016   2.402  -0.003  0.5358 -1.2128 -0.4797
 8196TIP3    H224532   1.031   2.360   0.142  0.5975 -1.5036 -0.5700
 8197TIP3   OH224533   0.290  -0.002   3.952  0.1014 -0.7279 -0.6407
 8197TIP3    H124534   0.343   0.064   3.995  2.0692 -0.5855 -3.0447
 8197TIP3    H224535   0.205   0.040   3.939  1.1745  1.2587 -1.7110
 8198TIP3   OH224536   2.262   4.985   4.400 -0.3381 -0.4035  0.0237
 8198TIP3    H124537   2.290   4.897   4.422 -0.8010 -0.8562 -1.1409
 8198TIP3    H224538   2.318   5.042   4.453  0.4598 -1.3719  0.2505
 8199TIP3   OH224539   0.586   7.275   2.793  0.3641 -0.2409  0.0759
 8199TIP3    H124540   0.515   7.305   2.736  1.0068  0.8794 -0.1482
 8199TIP3    H224541   0.648   7.348   2.796  0.9587 -0.7689  1.1949
 8200TIP3   OH224542   7.567   7.357   6.584 -0.5172 -0.1382  0.0821
 8200TIP3    H124543   7.625   7.425   6.550  2.4435 -1.9045  1.1960
 8200TIP3    H224544   7.494   7.354   6.522  0.7940  1.9035 -1.6971
 8201TIP3   OH224545   3.644   0.014   1.831  0.0987  0.6741 -0.4329
 8201TIP3    H124546   3.690   0.076   1.774 -0.8087  2.2233  0.4449
 8201TIP3    H224547   3.713  -0.031   1.879  0.7752  1.4927 -0.6095
 8202TIP3   OH224548   6.168   3.054   3.672  0.4650 -0.5069  0.4910
 8202TIP3    H124549   6.100   3.091   3.617  0.8183 -0.7411 -0.1053
 8202TIP3    H224550   6.205   3.129   3.720 -0.3490 -0.4084  0.9818
 8203TIP3   OH224551   6.880   2.680   1.951  0.6754 -0.2655  0.0802
 8203TIP3    H124552   6.960   2.636   1.923 -0.1308 -0.7788 -1.5375
 8203TIP3    H224553   6.849   2.726   1.873 -1.2905 -1.1459  0.2682
 8204TIP3   OH224554   3.749   2.314   3.367  0.0422 -0.0080  0.2023
 8204TIP3    H124555   3.762   2.220   3.373 -1.8034 -0.4132 -1.2565
 8204TIP3    H224556   3.837   2.349   3.349  0.5893 -1.5496 -0.2612
 8205TIP3   OH224557   0.160   4.874   2.445  0.9805  0.1983 -0.1890
 8205TIP3    H124558   0.195   4.793   2.408  1.8953 -0.1079  1.2475
 8205TIP3    H224559   0.211   4.888   2.525  0.0214  1.5456  0.2315
 8206TIP3   OH224560   4.231   3.402   6.277 -0.3348  0.3236  0.1070
 8206TIP3    H124561   4.221   3.314   6.312  1.9889 -0.1332 -0.1651
 8206TIP3    H224562   4.189   3.459   6.341 -1.0267 -0.9114  0.7734
 8207TIP3   OH224563   5.031   2.727   3.521 -0.1181 -0.2511  0.3419
 8207TIP3    H124564   5.114   2.686   3.544 -0.5575 -0.6537  1.2786
 8207TIP3    H224565   5.053   2.791   3.454  1.0629  0.1836  1.1266
 8208TIP3   OH224566   5.439   3.902   5.879  0.1041  0.2066  0.3456
 8208TIP3    H124567   5.391   3.820   5.870 -1.4038  1.1608 -1.1423
 8208TIP3    H224568   5.379   3.968   5.842  1.6584  1.8190  0.5744
 8209TIP3   OH224569   6.212   6.531   6.176 -0.4083 -0.2926  0.4452
 8209TIP3    H124570   6.198   6.486   6.093 -2.4177 -1.3550  1.2754
 8209TIP3    H224571   6.171   6.617   6.164 -2.1162 -1.0135  0.7692
 8210TIP3   OH224572   3.531   1.925   1.581 -0.2100  0.1673 -0.3568
 8210TIP3    H124573   3.559   2.010   1.546 -1.9847  0.3564 -1.4248
 8210TIP3    H224574   3.517   1.941   1.675 -0.1660  0.9524 -0.4781
 8211TIP3   OH224575   3.209   1.223   3.098 -0.1947  0.2161  0.1007
 8211TIP3    H124576   3.114   1.236   3.091 -0.1093  2.3015  1.7949
 8211TIP3    H224577   3.247   1.291   3.041  0.2763  0.3030  0.5121
 8212TIP3   OH224578   1.919   7.680   5.592  0.4731 -0.3888 -0.3880
 8212TIP3    H124579   1.838   7.631   5.573  1.6310 -2.7554  0.4320
 8212TIP3    H224580   1.984   7.641   5.533  1.5152 -0.0735  0.5311
 8213TIP3   OH224581   1.263   4.256   6.738 -0.1157 -0.8209  0.5252
 8213TIP3    H124582   1.273   4.351   6.734 -0.3228 -0.7073  2.0112
 8213TIP3    H224583   1.188   4.237   6.681 -0.0181 -0.1078  0.1529
 8214TIP3   OH224584   4.051   2.968   4.435 -0.0063 -0.1457  0.0321
 8214TIP3    H124585   4.147   2.974   4.427 -0.0759  2.4129  0.3473
 8214TIP3    H224586   4.038   2.921   4.518  0.9796 -0.1950  0.1831
 8215TIP3   OH224587   6.945   1.110   1.995  0.3016 -0.1376  0.3918
 8215TIP3    H124588   6.982   1.184   1.948  1.9512 -1.3874 -0.3863
 8215TIP3    H224589   6.858   1.099   1.958  0.3995  0.8285 -0.1551
 8216TIP3   OH224590   0.669   2.592   4.777  0.1461 -0.0772 -0.0866
 8216TIP3    H124591   0.719   2.533   4.721 -0.6397 -0.3115 -0.5565
 8216TIP3    H224592   0.721   2.600   4.857  0.2154 -1.4885  0.0320
 8217TIP3   OH224593   2.661   4.738   5.433  0.2520 -0.1729 -0.4955
 8217TIP3    H124594   2.677   4.825   5.469  1.7932 -0.9874  0.9417
 8217TIP3    H224595   2.569   4.740   5.406  0.0536  1.6607  0.1608
 8218TIP3   OH224596   2.435   0.569   1.125 -0.0364  0.4743  0.7686
 8218TIP3    H124597   2.476   0.551   1.040  1.2842 -0.8549  1.6346
 8218TIP3    H224598   2.427   0.665   1.127 -0.6581  0.4987 -1.0812
 8219TIP3   OH224599   7.778   2.833   1.455  0.3845 -0.3354 -0.3417
 8219TIP3    H124600   7.854   2.871   1.501 -1.3435  0.4285  2.1028
 8219TIP3    H224601   7.706   2.893   1.475 -1.1600 -1.7415 -1.4432
 8220TIP3   OH224602   7.021   1.489   5.693 -0.5109 -0.0487 -0.1557
 8220TIP3    H124603   7.042   1.566   5.642  2.5590  0.4704  1.6331
 8220TIP3    H224604   7.081   1.421   5.662 -1.7345 -1.1223 -0.2919
 8221TIP3   OH224605   7.627   7.401   0.573  0.5251  0.0048 -0.3978
 8221TIP3    H124606   7.616   7.495   0.557 -1.6707 -0.2915 -1.0577
 8221TIP3    H224607   7.697   7.395   0.638 -0.0289  2.1735  0.4886
 8222TIP3   OH224608   0.688   2.249   4.991  0.3572  0.2449  0.3370
 8222TIP3    H124609   0.734   2.324   5.029 -0.0813 -0.0231  1.4265
 8222TIP3    H224610   0.643   2.285   4.914  1.1160  0.8323  0.1567
 8223TIP3   OH224611  -0.023   7.286   0.216  0.3726 -0.5639 -0.0053
 8223TIP3    H124612   0.054   7.240   0.182  1.3327  0.5669  0.5481
 8223TIP3    H224613  -0.018   7.272   0.311 -0.5955 -1.1920 -0.0374
 8224TIP3   OH224614   6.411   2.577   6.413 -0.2523 -0.0143 -0.1468
 8224TIP3    H124615   6.457   2.654   6.380  1.0513 -1.2508 -1.3502
 8224TIP3    H224616   6.475   2.532   6.469 -0.3059 -1.2062 -0.9946
 8225TIP3   OH224617   7.602   3.766   1.915 -0.2333  0.5821 -0.6918
 8225TIP3    H124618   7.611   3.678   1.951 -0.1156  1.2659  1.0213
 8225TIP3    H224619   7.619   3.755   1.821  2.3264 -0.8473 -0.1595
 8226TIP3   OH224620   3.685   2.386   2.074 -0.3058 -0.0124  0.5622
 8226TIP3    H124621   3.625   2.460   2.064  0.0505  0.3686  1.1618
 8226TIP3    H224622   3.675   2.360   2.166 -0.1796 -0.4944  0.4426
 8227TIP3   OH224623   2.054   7.044   4.659  0.1671  0.1080 -0.3795
 8227TIP3    H124624   2.005   7.124   4.675  1.3853  0.5209  1.7249
 8227TIP3    H224625   2.138   7.073   4.624  0.9640 -0.0913  1.2265
 8228TIP3   OH224626   3.501   1.564   2.586  0.6677  0.0539  0.5909
 8228TIP3    H124627   3.551   1.495   2.630  1.4616 -0.5346 -1.1454
 8228TIP3    H224628   3.425   1.579   2.643  2.6059  0.7736  3.1811
 8229TIP3   OH224629   6.940   2.414   4.628 -0.0020 -0.4512 -0.8136
 8229TIP3    H124630   7.005   2.468   4.584  0.3285  2.3984  2.7687
 8229TIP3    H224631   6.856   2.446   4.594  0.2370  1.7825  0.5239
 8230TIP3   OH224632   1.498   2.503   3.404 -0.3554  0.4603 -0.6571
 8230TIP3    H124633   1.445   2.570   3.359  0.1022  0.1497 -1.6869
 8230TIP3    H224634   1.585   2.542   3.409  0.2063 -0.4992 -2.3257
 8231TIP3   OH224635   7.935   7.752   6.465  0.2626 -0.3974  0.3607
 8231TIP3    H124636   8.025   7.760   6.497 -0.0620 -1.0442  1.4850
 8231TIP3    H224637   7.926   7.823   6.401  1.3273  0.1519  0.7916
 8232TIP3   OH224638   3.543   7.615   2.776 -0.0040 -0.1550  0.1344
 8232TIP3    H124639   3.505   7.553   2.838 -3.5625  0.4293 -1.1718
 8232TIP3    H224640   3.507   7.700   2.802 -0.9875  0.2161 -2.1200
 8233TIP3   OH224641   3.446   7.644   5.012  0.3935 -0.0261  0.0745
 8233TIP3    H124642   3.528   7.645   4.964  1.7687  0.4670  2.3175
 8233TIP3    H224643   3.425   7.736   5.028 -0.0786 -0.1828  0.3960
 8234TIP3   OH224644   3.596   3.131   4.923 -0.5113  0.1034  0.3823
 8234TIP3    H124645   3.568   3.208   4.972  0.6155  1.0647 -0.4257
 8234TIP3    H224646   3.532   3.123   4.853 -0.1336  0.8606 -0.0617
 8235TIP3   OH224647   4.466   4.144   0.790 -0.4705 -0.2179 -0.5607
 8235TIP3    H124648   4.448   4.050   0.787 -0.2246 -0.3977  1.9558
 8235TIP3    H224649   4.379   4.185   0.791 -0.6740 -0.6077  1.4156
 8236TIP3   OH224650   3.901   4.408   4.777 -0.5440  0.1800  0.3004
 8236TIP3    H124651   3.817   4.454   4.769 -0.3751  0.6734  1.1685
 8236TIP3    H224652   3.955   4.445   4.708 -0.5004  1.1098  0.8102
 8237TIP3   OH224653   4.593   2.767   5.992 -0.4561 -0.1902  0.1713
 8237TIP3    H124654   4.673   2.745   5.945 -0.5357 -1.1734  0.4805
 8237TIP3    H224655   4.551   2.833   5.937  0.6368  0.4555  0.0881
 8238TIP3   OH224656   7.363   1.007   5.733  0.1884 -0.3141  0.6240
 8238TIP3    H124657   7.366   1.005   5.637  2.8368  1.3409  0.5712
 8238TIP3    H224658   7.449   1.040   5.759 -0.3472 -0.9868  3.6143
 8239TIP3   OH224659   3.385   6.753   5.388  0.0298 -0.3876 -0.5036
 8239TIP3    H124660   3.425   6.835   5.360  2.7400 -0.4864  2.5557
 8239TIP3    H224661   3.382   6.699   5.308  1.2856  1.4764 -1.9017
 8240TIP3   OH224662   4.486   6.260   1.908  0.3794 -0.2598  0.4759
 8240TIP3    H124663   4.510   6.181   1.858 -2.7600  0.1183 -1.9509
 8240TIP3    H224664   4.444   6.227   1.987  0.0315 -0.9973 -0.0117
 8241TIP3   OH224665   0.403   2.582   0.535 -0.0670  0.2738  0.0822
 8241TIP3    H124666   0.412   2.564   0.628 -1.5236  0.1648  0.2258
 8241TIP3    H224667   0.315   2.551   0.513  1.0940 -1.9921 -1.8681
 8242TIP3   OH224668   7.921   6.325   4.356  0.0265 -0.1675 -0.5493
 8242TIP3    H124669   7.918   6.402   4.300 -0.6038 -0.4297 -0.8885
 8242TIP3    H224670   7.851   6.339   4.420  0.6868  0.0929  0.1339
 8243TIP3   OH224671   5.969   7.165   4.300 -0.4642 -0.4432 -0.3110
 8243TIP3    H124672   5.928   7.084   4.328  0.0996 -1.3348 -1.9445
 8243TIP3    H224673   5.978   7.157   4.205  1.3484  0.6995 -0.2979
 8244TIP3   OH224674   1.858   2.970   5.637 -0.0789 -0.3536  0.3075
 8244TIP3    H124675   1.888   2.987   5.727 -0.4600  0.1504  0.3486
 8244TIP3    H224676   1.882   3.049   5.589 -0.6917 -0.2347  0.1814
 8245TIP3   OH224677   4.034   3.882   6.386  0.1005 -0.5158 -0.7370
 8245TIP3    H124678   3.980   3.840   6.318 -1.2689  0.7076 -0.4716
 8245TIP3    H224679   3.970   3.918   6.448  1.2756  0.0676  0.1723
 8246TIP3   OH224680   5.215   3.517   2.021 -0.2416  0.5845  0.1905
 8246TIP3    H124681   5.289   3.561   2.062  0.5258 -0.4135 -0.0846
 8246TIP3    H224682   5.196   3.443   2.079 -0.0252 -0.0484 -0.5244
 8247TIP3   OH224683   2.206   7.634   2.503  0.0235  0.2388  0.7716
 8247TIP3    H124684   2.233   7.717   2.465  0.2416 -0.5079 -0.7714
 8247TIP3    H224685   2.178   7.581   2.428 -0.8288 -0.8137  1.7970
 8248TIP3   OH224686   4.272   5.530   6.480 -0.5073 -0.1329  0.1897
 8248TIP3    H124687   4.236   5.462   6.538  0.8317  0.5191  1.8788
 8248TIP3    H224688   4.239   5.612   6.516  2.5041  0.4846  1.7972
 8249TIP3   OH224689   1.391   7.572   4.957 -0.0455  0.0079  0.1505
 8249TIP3    H124690   1.362   7.656   4.994  2.7127  0.9372  0.3933
 8249TIP3    H224691   1.342   7.566   4.874 -0.5915  1.6730  0.3012
 8250TIP3   OH224692   8.170   7.475   3.111 -0.0106 -0.0288 -0.1250
 8250TIP3    H124693   8.100   7.410   3.120  0.7448 -0.9960 -0.9401
 8250TIP3    H224694   8.133   7.541   3.053 -0.8397  0.3688  0.8193
 8251TIP3   OH224695   3.804   1.503   1.994  0.4816  0.3365 -0.2993
 8251TIP3    H124696   3.855   1.436   2.040  0.6587  0.7281  0.0943
 8251TIP3    H224697   3.830   1.494   1.902 -0.8349 -1.3000 -0.5455
 8252TIP3   OH224698   5.694   0.178   2.605 -0.0622 -0.2526 -0.2917
 8252TIP3    H124699   5.688   0.087   2.634  0.5990  0.4569  2.3557
 8252TIP3    H224700   5.786   0.191   2.585 -0.1916 -0.2034 -0.8723
 8253TIP3   OH224701   7.465   1.449   0.764  0.2532 -0.1677  0.4291
 8253TIP3    H124702   7.556   1.422   0.757  0.8107  1.2775  1.5616
 8253TIP3    H224703   7.415   1.376   0.728  1.9443  0.0133 -2.6652
 8254TIP3   OH224704   4.692   3.709   0.231 -0.2360  0.3598  0.6111
 8254TIP3    H124705   4.766   3.770   0.224 -1.1092  1.4559  0.4925
 8254TIP3    H224706   4.694   3.660   0.149  0.7778 -0.1374  0.9154
 8255TIP3   OH224707   5.936   3.426   4.131  0.6304 -0.0832 -0.7495
 8255TIP3    H124708   5.996   3.478   4.184 -0.0775 -0.3359  0.3323
 8255TIP3    H224709   5.990   3.353   4.100  1.1076  0.1660 -0.5185
 8256TIP3   OH224710   7.688   2.377   1.126  0.4770 -0.7955 -0.0121
 8256TIP3    H124711   7.710   2.469   1.115  0.0027 -0.7851 -0.9847
 8256TIP3    H224712   7.693   2.340   1.038  2.2260 -2.0747  0.5581
 8257TIP3   OH224713   6.387   7.811   1.853  0.1772 -0.0788  0.1501
 8257TIP3    H124714   6.458   7.747   1.859  0.1898 -0.0209  0.6439
 8257TIP3    H224715   6.313   7.761   1.816 -0.4273 -0.9265  2.3286
 8258TIP3   OH224716   4.176   0.424   2.786 -0.1303  0.3672  0.3457
 8258TIP3    H124717   4.195   0.450   2.876 -1.1462  0.0214  0.6781
 8258TIP3    H224718   4.203   0.499   2.733 -0.4628  0.9943  1.0348
 8259TIP3   OH224719   5.561   1.705   5.814 -0.0261  0.3288 -0.3335
 8259TIP3    H124720   5.628   1.767   5.842  0.8903 -0.7871  0.0280
 8259TIP3    H224721   5.486   1.759   5.790  0.3089  1.5098  1.1570
 8260TIP3   OH224722   7.594   2.122   6.007  0.5597  0.0658  0.1711
 8260TIP3    H124723   7.512   2.087   6.041  0.0506 -0.0774 -1.1523
 8260TIP3    H224724   7.645   2.044   5.983  0.8972  0.1694  0.5236
 8261TIP3   OH224725   7.004   6.158   6.076 -0.2082 -0.0356 -0.4912
 8261TIP3    H124726   7.091   6.122   6.059  0.4415  0.9709  0.5587
 8261TIP3    H224727   6.951   6.127   6.002  0.5215 -2.3000 -0.1466
 8262TIP3   OH224728   6.480   1.831   2.751 -0.2343  0.4790  0.3284
 8262TIP3    H124729   6.462   1.924   2.747  1.2277  0.7384 -0.8677
 8262TIP3    H224730   6.423   1.792   2.684 -2.2097  0.2171  2.0529
 8263TIP3   OH224731   3.636   5.614   1.871 -0.1487 -0.0305  0.0331
 8263TIP3    H124732   3.703   5.557   1.835  0.5958  0.6525  0.3173
 8263TIP3    H224733   3.554   5.582   1.833  0.4843 -0.0536 -1.3518
 8264TIP3   OH224734   3.191   0.926   0.026 -0.1565  0.2277 -0.4013
 8264TIP3    H124735   3.099   0.951   0.038 -0.1418  0.3921 -0.6353
 8264TIP3    H224736   3.236   0.969   0.099 -0.1939  0.5446 -0.5621
 8265TIP3   OH224737   0.570   1.046   5.348 -0.4126  0.1163 -0.2739
 8265TIP3    H124738   0.660   1.077   5.350 -1.3011  3.1827 -1.5621
 8265TIP3    H224739   0.534   1.071   5.433 -0.1490 -0.7629  0.0964
 8266TIP3   OH224740   0.577   7.389   2.130 -0.2582 -0.0717 -0.4752
 8266TIP3    H124741   0.518   7.448   2.176 -1.3869 -0.6771 -1.1222
 8266TIP3    H224742   0.546   7.389   2.040  0.8370 -0.2779 -0.8664
 8267TIP3   OH224743   7.939   2.445   3.778  0.1586  0.3023  0.2409
 8267TIP3    H124744   7.931   2.350   3.767  0.1575  0.1593  1.3935
 8267TIP3    H224745   7.859   2.470   3.823  0.3563  0.7812  0.3261
 8268TIP3   OH224746   3.432   3.158   1.243  0.9073 -0.2572 -0.0448
 8268TIP3    H124747   3.521   3.129   1.221  1.2877  1.9387 -1.6931
 8268TIP3    H224748   3.430   3.251   1.220 -1.5445 -0.0122  0.8642
 8269TIP3   OH224749   5.846   5.929   6.346  0.1420 -1.0440  0.2432
 8269TIP3    H124750   5.774   5.892   6.296  0.3547  1.0476 -1.7757
 8269TIP3    H224751   5.852   6.020   6.317  2.5871 -0.6978  1.5045
 8270TIP3   OH224752   1.636   4.544   6.222 -1.0086 -0.2875  0.0135
 8270TIP3    H124753   1.658   4.606   6.292 -1.1343  0.7893 -0.8665
 8270TIP3    H224754   1.583   4.477   6.265 -1.2720  0.4733  0.9040
 8271TIP3   OH224755   4.916   6.379   1.303 -0.3401  0.3876  0.0273
 8271TIP3    H124756   4.982   6.340   1.246  0.1532  0.8064  0.3051
 8271TIP3    H224757   4.871   6.304   1.343  0.8452  0.0847  0.8449
 8272TIP3   OH224758   2.478   4.860   1.307 -0.3198 -0.1643  0.0704
 8272TIP3    H124759   2.417   4.841   1.236 -0.3156 -0.1725  0.0690
 8272TIP3    H224760   2.532   4.782   1.315  1.9018  1.0044 -2.1203
 8273TIP3   OH224761   7.574   5.248   0.246  0.9385 -0.2501 -0.2342
 8273TIP3    H124762   7.593   5.157   0.224 -1.2978 -1.0487  0.7580
 8273TIP3    H224763   7.500   5.242   0.307  1.3233  2.2023  0.5713
 8274TIP3   OH224764   5.117   6.548   5.178 -0.0831 -0.3635  0.1970
 8274TIP3    H124765   5.034   6.526   5.136 -0.3190  0.0133  0.4617
 8274TIP3    H224766   5.179   6.483   5.145 -0.0879  0.3691 -1.3275
 8275TIP3   OH224767   1.204   5.740   2.852 -0.3456  0.1605 -0.3103
 8275TIP3    H124768   1.240   5.751   2.940  0.1680  0.2095 -0.5204
 8275TIP3    H224769   1.271   5.778   2.794 -0.1249 -0.9496 -0.8038
 8276TIP3   OH224770   4.817   6.313   5.221 -0.4052 -0.0485  0.1089
 8276TIP3    H124771   4.853   6.250   5.285 -0.6840 -0.5744 -0.2459
 8276TIP3    H224772   4.791   6.388   5.274  0.7790  0.1580  0.4343
 8277TIP3   OH224773   3.993   1.679   1.878  0.9132 -0.4245 -0.2832
 8277TIP3    H124774   3.967   1.771   1.880  0.8127 -0.4545 -0.1365
 8277TIP3    H224775   3.936   1.639   1.813  0.1080 -0.6295  0.5226
 8278TIP3   OH224776   0.099   3.529   0.164  0.3891 -0.6454 -0.0759
 8278TIP3    H124777   0.186   3.541   0.126  0.3000 -1.5370 -0.5975
 8278TIP3    H224778   0.043   3.506   0.090 -1.2092  3.6492 -0.4661
 8279TIP3   OH224779   3.828   3.736   3.366  0.5168 -0.0730  0.0127
 8279TIP3    H124780   3.733   3.741   3.351  0.3983 -0.0505  0.7600
 8279TIP3    H224781   3.845   3.799   3.436  1.1066  0.0142 -0.2001
 8280TIP3   OH224782   7.432   3.832   4.662  0.6164 -0.1524 -0.2433
 8280TIP3    H124783   7.338   3.850   4.660  0.6679  0.0609 -1.1393
 8280TIP3    H224784   7.463   3.874   4.743  0.0227  0.1715 -0.1810
 8281TIP3   OH224785   2.439   5.032   1.796 -0.1737 -0.6132 -0.0835
 8281TIP3    H124786   2.392   4.992   1.869 -0.0147 -1.0178 -0.1967
 8281TIP3    H224787   2.423   4.972   1.723 -0.5357 -0.0880 -0.4452
 8282TIP3   OH224788   5.659   1.652   5.507  0.3559  0.4413 -0.1914
 8282TIP3    H124789   5.580   1.613   5.543  0.6620  0.9402  1.0780
 8282TIP3    H224790   5.640   1.745   5.502  1.4232  0.8336  1.8188
 8283TIP3   OH224791   3.322   6.963   0.564 -0.0151  0.3247  0.2543
 8283TIP3    H124792   3.274   7.014   0.629 -3.0825 -1.4333 -0.4682
 8283TIP3    H224793   3.333   6.876   0.604  1.5381  0.3145 -0.1124
 8284TIP3   OH224794   1.604   6.691   6.716 -0.0886 -0.3630  0.2515
 8284TIP3    H124795   1.565   6.626   6.774 -1.4127  0.1118 -0.0782
 8284TIP3    H224796   1.564   6.774   6.742 -0.6110 -0.1241 -1.2510
 8285TIP3   OH224797   4.642   2.663   5.692  0.2246 -0.3481 -0.0103
 8285TIP3    H124798   4.730   2.663   5.729  0.8130 -1.6955 -1.2562
 8285TIP3    H224799   4.587   2.623   5.760  0.8989 -0.9838  0.1787
 8286TIP3   OH224800   7.009   5.857   4.964  0.0429  0.2983 -0.0068
 8286TIP3    H124801   6.914   5.848   4.961  0.1250 -1.1511  0.9063
 8286TIP3    H224802   7.030   5.859   5.057  0.9720 -0.3720 -0.1900
 8287TIP3   OH224803   3.438   0.774   2.308 -0.4059  0.7091  0.1554
 8287TIP3    H124804   3.435   0.822   2.391  0.4164 -0.8758  1.1401
 8287TIP3    H224805   3.440   0.682   2.333 -0.2390  0.1839 -1.6392
 8288TIP3   OH224806   1.344   4.878   0.158 -0.3046 -0.4615  0.4444
 8288TIP3    H124807   1.393   4.802   0.191  1.3994  0.2161 -0.3859
 8288TIP3    H224808   1.281   4.841   0.096  0.5980 -1.2140 -0.0530
 8289TIP3   OH224809   1.363   2.150   3.772  0.1195 -0.3139  0.5467
 8289TIP3    H124810   1.394   2.191   3.692 -0.4587 -2.2333 -0.7121
 8289TIP3    H224811   1.437   2.157   3.833  0.3555  1.6821  0.0982
 8290TIP3   OH224812   1.652   0.139   3.470 -0.1629 -0.0394  0.3170
 8290TIP3    H124813   1.667   0.228   3.503  1.3761  0.5591 -1.7615
 8290TIP3    H224814   1.580   0.148   3.408 -0.9160 -0.5312  1.1055
 8291TIP3   OH224815   3.578   4.702   2.432 -0.3982  0.1358 -0.0496
 8291TIP3    H124816   3.569   4.717   2.338 -1.2480 -0.2310 -0.0377
 8291TIP3    H224817   3.576   4.790   2.471 -3.1056  0.2050 -0.1523
 8292TIP3   OH224818   4.437   5.430   3.645 -0.1177 -0.0248 -0.3242
 8292TIP3    H124819   4.446   5.347   3.599 -0.0198 -0.6806  0.8392
 8292TIP3    H224820   4.493   5.421   3.722 -0.0612  1.1500 -0.2056
 8293TIP3   OH224821   7.677   4.980   3.364 -0.7010 -0.0486  0.1984
 8293TIP3    H124822   7.683   4.885   3.374 -0.4440 -0.0541  0.0073
 8293TIP3    H224823   7.768   5.009   3.357 -0.7698  0.2293  0.4231
 8294TIP3   OH224824   1.697   4.975   3.598  0.0044 -0.5307  0.2648
 8294TIP3    H124825   1.740   4.891   3.583 -1.5279 -1.2841 -0.1887
 8294TIP3    H224826   1.745   5.015   3.670  2.3420 -0.6251 -1.1460
 8295TIP3   OH224827   6.070   3.403   5.115  0.6185  0.4890  0.6494
 8295TIP3    H124828   6.117   3.341   5.172  0.4859 -0.6101 -0.3960
 8295TIP3    H224829   6.128   3.416   5.040  0.4530  1.3141  0.6574
 8296TIP3   OH224830   7.196   0.945   1.548  0.2971 -0.1799  0.2141
 8296TIP3    H124831   7.118   0.968   1.598 -0.3255  0.6276 -1.0634
 8296TIP3    H224832   7.172   0.865   1.501 -0.1240  0.5833 -0.9070
 8297TIP3   OH224833   5.924   2.298   6.023  0.0900 -0.8159 -0.3579
 8297TIP3    H124834   5.845   2.297   6.076  0.4945 -1.7957  0.2575
 8297TIP3    H224835   5.996   2.287   6.085  0.6957 -0.3184 -0.9444
 8298TIP3   OH224836   6.048   6.179   4.420 -0.4528 -0.0580 -0.1248
 8298TIP3    H124837   6.070   6.221   4.337  0.6257 -0.4225 -0.0397
 8298TIP3    H224838   6.132   6.156   4.459 -0.9518 -0.1586  0.9400
 8299TIP3   OH224839   5.160   3.911   6.149 -0.1529 -0.1615  0.1219
 8299TIP3    H124840   5.242   3.875   6.184 -0.5537 -0.2656  0.9637
 8299TIP3    H224841   5.188   3.967   6.076  0.6474 -0.4105  0.2309
 8300TIP3   OH224842   4.080   3.542   3.919  0.1532  0.4219 -0.4099
 8300TIP3    H124843   4.023   3.558   3.843  0.7064 -0.1828 -0.9603
 8300TIP3    H224844   4.025   3.491   3.978  1.0611 -3.1668 -2.3598
 8301TIP3   OH224845   2.752   7.594   4.042  1.0454 -0.0535 -0.2457
 8301TIP3    H124846   2.723   7.607   4.133 -0.1359  1.6224 -0.7993
 8301TIP3    H224847   2.672   7.568   3.996  1.7523 -1.4325 -0.7371
 8302TIP3   OH224848   2.526   7.544   5.699 -0.5193  0.2090  0.2283
 8302TIP3    H124849   2.613   7.528   5.662 -1.0366 -1.1869 -0.4565
 8302TIP3    H224850   2.535   7.626   5.747  1.3098 -0.1576  0.5921
 8303TIP3   OH224851   3.334   6.175   0.850  0.5368  0.5686  0.7685
 8303TIP3    H124852   3.363   6.254   0.804  1.0088  0.3638  0.7099
 8303TIP3    H224853   3.304   6.117   0.781 -0.2659  0.8799  0.8495
 8304TIP3   OH224854   4.035   1.547   5.848  0.4947  0.0477 -0.3808
 8304TIP3    H124855   4.010   1.461   5.816 -0.4033  0.5393 -1.0487
 8304TIP3    H224856   4.123   1.561   5.813  0.8887 -0.8404  0.2388
 8305TIP3   OH224857   4.926   7.631   5.165 -0.0295  0.7780 -0.0312
 8305TIP3    H124858   4.855   7.618   5.227  0.6737  3.1444  1.4153
 8305TIP3    H224859   5.003   7.593   5.208  0.0084  0.1819 -0.6091
 8306TIP3   OH224860   0.488   5.739   1.993  0.1548  0.5803 -0.3311
 8306TIP3    H124861   0.411   5.690   2.023  0.4642  0.3568  0.1038
 8306TIP3    H224862   0.457   5.828   1.983 -0.8171  0.0471 -2.5970
 8307TIP3   OH224863   5.607   1.926   3.250  0.5597  0.1945  0.5340
 8307TIP3    H124864   5.562   2.010   3.263  2.3642  1.1548  0.9019
 8307TIP3    H224865   5.577   1.871   3.322 -3.3621 -0.8055 -1.5987
 8308TIP3   OH224866   6.511   3.778   4.054 -0.2094 -0.0646  0.3058
 8308TIP3    H124867   6.420   3.798   4.077 -0.2331  1.4302 -0.9068
 8308TIP3    H224868   6.552   3.754   4.136 -1.4887  0.1029  1.0199
 8309TIP3   OH224869   7.211   3.788   0.761 -0.0995 -0.0762 -0.4370
 8309TIP3    H124870   7.146   3.735   0.716 -1.2430  0.7340  0.2166
 8309TIP3    H224871   7.274   3.811   0.693 -0.7201 -0.5248 -1.1781
 8310TIP3   OH224872   0.944   2.066   6.539 -0.1288  0.0071  0.1521
 8310TIP3    H124873   0.889   2.128   6.491  0.0208  0.6598  0.8200
 8310TIP3    H224874   0.883   1.999   6.571 -0.2862 -0.2118 -0.5783
 8311TIP3   OH224875   2.593   2.070   1.411  0.8917  0.2153  0.3664
 8311TIP3    H124876   2.602   2.163   1.393 -2.2204  0.0392 -3.5381
 8311TIP3    H224877   2.522   2.064   1.475  0.6249  0.5524  0.1049
 8312TIP3   OH224878   3.563   0.787   3.156 -0.4734 -0.3472 -0.1230
 8312TIP3    H124879   3.632   0.809   3.219 -0.9876  2.2242 -0.3126
 8312TIP3    H224880   3.486   0.769   3.209 -0.7814  1.3360  0.0604
 8313TIP3   OH224881   4.605   1.785   6.648 -0.0338  0.1567 -0.0842
 8313TIP3    H124882   4.569   1.853   6.592  0.3857  0.1179 -0.4104
 8313TIP3    H224883   4.698   1.806   6.655  0.1354 -0.4704 -0.3250
 8314TIP3   OH224884   1.512   4.386   2.687  0.2302 -0.3544  0.2401
 8314TIP3    H124885   1.577   4.434   2.635  0.5391 -0.7918  0.2181
 8314TIP3    H224886   1.430   4.400   2.641  0.4576 -0.5232 -0.2306
 8315TIP3   OH224887   4.861   3.556   2.778 -0.2431  0.3580 -0.0789
 8315TIP3    H124888   4.847   3.468   2.742 -0.1888 -0.5065  1.8759
 8315TIP3    H224889   4.787   3.571   2.837 -0.3503  1.7154 -0.5263
 8316TIP3   OH224890   1.356   5.462   6.161  0.2244  0.4652 -0.4858
 8316TIP3    H124891   1.318   5.379   6.133 -0.3005  0.6607 -0.3693
 8316TIP3    H224892   1.401   5.441   6.243  0.6143  0.1741 -0.7704
 8317TIP3   OH224893   2.789   7.484   6.054 -0.5567 -0.3445 -0.2564
 8317TIP3    H124894   2.802   7.521   6.141  1.7209 -2.0122  0.1772
 8317TIP3    H224895   2.788   7.389   6.068 -1.8309 -0.6205 -1.8798
 8318TIP3   OH224896   6.308   2.686   0.533  0.1678  0.4384  0.4094
 8318TIP3    H124897   6.293   2.672   0.440 -0.0506 -0.2588  0.5426
 8318TIP3    H224898   6.402   2.674   0.545  0.7115  3.3095 -0.1723
 8319TIP3   OH224899   0.834   5.376   0.534  0.2874  0.1665 -0.0632
 8319TIP3    H124900   0.835   5.390   0.629 -1.9046  0.9540 -0.1093
 8319TIP3    H224901   0.909   5.319   0.518 -0.3628 -1.5706  2.4167
 8320TIP3   OH224902   7.878   0.560   0.606  0.3009 -0.0736 -0.3919
 8320TIP3    H124903   7.795   0.519   0.629 -0.0639 -0.1574 -1.7929
 8320TIP3    H224904   7.883   0.554   0.511  1.7602  0.2396 -0.3621
 8321TIP3   OH224905   5.320   4.548   1.947  0.4597  0.1531  0.7789
 8321TIP3    H124906   5.363   4.565   2.031 -0.7373  0.5252  1.3367
 8321TIP3    H224907   5.369   4.475   1.910  0.1515 -0.9490  2.4405
 8322TIP3   OH224908   7.181   1.794   2.513 -0.3336  0.1652 -0.2680
 8322TIP3    H124909   7.118   1.866   2.505 -0.2770  0.1010 -1.5493
 8322TIP3    H224910   7.165   1.758   2.600 -3.4170 -1.0243 -1.1557
 8323TIP3   OH224911   2.842   4.373   2.891  0.2926  0.0117  0.1071
 8323TIP3    H124912   2.788   4.307   2.935  0.1875 -0.4954 -0.7399
 8323TIP3    H224913   2.932   4.350   2.914  0.2278 -0.1097  0.2390
 8324TIP3   OH224914   4.314   5.643   3.814 -0.2592 -0.3743  0.3147
 8324TIP3    H124915   4.345   5.555   3.793 -0.9253 -0.1584 -1.7718
 8324TIP3    H224916   4.367   5.701   3.760 -1.0580  0.3637  0.3117
 8325TIP3   OH224917   0.929   3.744   5.218 -0.1487  0.1002  0.2516
 8325TIP3    H124918   0.996   3.761   5.152 -1.4819 -2.4903 -1.9620
 8325TIP3    H224919   0.971   3.686   5.281  0.1600 -0.2209 -0.2405
 8326TIP3   OH224920   0.022   3.713   5.388  0.2068  0.3723  0.8917
 8326TIP3    H124921   0.006   3.801   5.355  0.4181  0.1138  0.0781
 8326TIP3    H224922  -0.003   3.717   5.480 -1.1259  0.9070  0.5240
 8327TIP3   OH224923   7.666   4.441   4.735  0.0762  0.0222  0.1355
 8327TIP3    H124924   7.574   4.438   4.708  0.0508 -0.8766  0.2907
 8327TIP3    H224925   7.714   4.448   4.653 -0.1249  0.2658  0.0369
 8328TIP3   OH224926   1.114   6.255   5.345  0.2480 -0.1235 -0.0822
 8328TIP3    H124927   1.146   6.183   5.400  0.3933  0.7617  1.0423
 8328TIP3    H224928   1.038   6.289   5.393  0.2061  0.4909 -0.5703
 8329TIP3   OH224929   3.036   4.909   3.956 -0.0147  0.0841  0.3115
 8329TIP3    H124930   3.096   4.930   3.884 -0.5202 -1.2717 -0.5437
 8329TIP3    H224931   3.039   4.814   3.963 -2.2782 -0.0554  0.0303
 8330TIP3   OH224932   3.416   2.535   0.797 -0.3419  0.4461  0.0947
 8330TIP3    H124933   3.398   2.617   0.750 -0.4668  0.6347  0.4669
 8330TIP3    H224934   3.509   2.517   0.779 -1.0442 -1.0405 -2.6160
 8331TIP3   OH224935   6.127   7.165   5.445 -0.1987 -0.5435 -0.2591
 8331TIP3    H124936   6.066   7.102   5.407 -0.2384 -1.3590  1.1126
 8331TIP3    H224937   6.072   7.222   5.499 -0.0311  0.0657 -0.7221
 8332TIP3   OH224938   8.254   6.732   0.662  0.1670 -0.1175 -0.0967
 8332TIP3    H124939   8.288   6.725   0.573  0.0178 -0.5377 -0.1215
 8332TIP3    H224940   8.329   6.758   0.714  0.5351 -1.0124 -0.1567
 8333TIP3   OH224941   0.125   5.147   0.715  0.3022  0.5994 -0.5427
 8333TIP3    H124942   0.029   5.155   0.714  0.3437  1.1846 -0.5523
 8333TIP3    H224943   0.156   5.230   0.678  0.7559 -0.7603 -3.4430
 8334TIP3   OH224944   4.716   2.641   4.159  0.8353  0.4766 -0.1140
 8334TIP3    H124945   4.727   2.558   4.205 -0.0867  0.7371  0.6132
 8334TIP3    H224946   4.799   2.656   4.114  1.2685 -0.4630  0.3649
 8335TIP3   OH224947   7.724   3.781   2.691 -0.1273 -0.0782  0.0071
 8335TIP3    H124948   7.805   3.827   2.712  0.0203  0.5982 -1.9157
 8335TIP3    H224949   7.736   3.693   2.728  2.1364 -0.4776 -1.5024
 8336TIP3   OH224950   6.198   4.315   4.873  0.2366 -0.0886 -0.5580
 8336TIP3    H124951   6.176   4.256   4.945  1.8932  0.6705  0.6331
 8336TIP3    H224952   6.138   4.388   4.883  0.9862  0.4113  0.6352
 8337TIP3   OH224953   7.973   2.031   5.020  0.1451  0.6587  0.2525
 8337TIP3    H124954   8.039   2.066   4.960 -0.1580  1.3577  0.3114
 8337TIP3    H224955   7.982   1.936   5.013  1.0858  0.7440  0.1847
 8338TIP3   OH224956   3.769  -0.022   4.700 -0.1492  0.1040  0.3671
 8338TIP3    H124957   3.784  -0.010   4.607  1.0962 -0.5702  0.4562
 8338TIP3    H224958   3.786   0.064   4.739  1.4617 -0.1071  0.1932
 8339TIP3   OH224959   4.694   7.002   2.332 -0.4458 -0.3530 -0.6517
 8339TIP3    H124960   4.648   6.961   2.405 -1.4436  1.7888  0.0145
 8339TIP3    H224961   4.733   6.929   2.284  0.1494 -1.8650  1.9242
 8340TIP3   OH224962   5.028   3.402   1.220  0.0093 -0.3527  0.3761
 8340TIP3    H124963   5.062   3.465   1.157 -2.2746 -0.7587 -1.4071
 8340TIP3    H224964   5.086   3.326   1.211 -0.1846 -0.3513 -1.1852
 8341TIP3   OH224965   4.680   6.780   2.099 -0.1745 -0.1760  0.1303
 8341TIP3    H124966   4.746   6.786   2.030 -0.6388  1.0661 -0.2156
 8341TIP3    H224967   4.633   6.699   2.080 -0.1430  0.0331 -0.8646
 8342TIP3   OH224968   1.582   0.486   1.502 -0.6446 -0.2734 -0.2771
 8342TIP3    H124969   1.650   0.448   1.446  0.3502  0.8724  0.1370
 8342TIP3    H224970   1.572   0.576   1.470 -0.3304  0.2809  1.1421
 8343TIP3   OH224971   3.114   3.189   2.970  0.3523  0.2769 -0.0240
 8343TIP3    H124972   3.203   3.178   2.938  0.5192  0.5738  0.3239
 8343TIP3    H224973   3.062   3.205   2.892  0.3927 -1.1052 -0.3574
 8344TIP3   OH224974   4.631   2.572   0.637 -0.0791 -0.3981 -0.0458
 8344TIP3    H124975   4.579   2.602   0.563 -1.1285  1.6977  1.4297
 8344TIP3    H224976   4.714   2.543   0.599 -0.8027  0.0488 -2.0601
 8345TIP3   OH224977   2.559   1.245   2.058 -0.2169 -0.0547 -0.0499
 8345TIP3    H124978   2.540   1.162   2.101 -0.7961  1.0397  1.9770
 8345TIP3    H224979   2.506   1.309   2.107  0.3315  1.5228 -1.4350
 8346TIP3   OH224980   8.091   1.561   4.540  0.2155  0.6592  0.3839
 8346TIP3    H124981   8.010   1.597   4.577 -0.6507 -1.6246  0.8506
 8346TIP3    H224982   8.066   1.529   4.453  0.2582 -1.2006  1.0223
 8347TIP3   OH224983   5.861   4.394   6.208 -0.2846 -0.2597 -0.0996
 8347TIP3    H124984   5.813   4.478   6.205 -0.0096 -0.0950  0.0948
 8347TIP3    H224985   5.798   4.332   6.245  0.0730  0.2514  1.4332
 8348TIP3   OH224986   5.173   1.651   2.861 -0.6538  0.1335  0.0169
 8348TIP3    H124987   5.124   1.594   2.801 -1.5217  2.9100 -2.1224
 8348TIP3    H224988   5.106   1.685   2.921  0.0950 -2.0582  2.2627
 8349TIP3   OH224989   6.612   7.274   5.598  0.0894  0.6910 -0.3527
 8349TIP3    H124990   6.527   7.286   5.641  1.2994 -0.5123  2.6401
 8349TIP3    H224991   6.593   7.214   5.525 -1.9222  2.2117 -1.2116
 8350TIP3   OH224992   1.913   2.434   4.629  0.4740 -0.1881 -0.2815
 8350TIP3    H124993   1.889   2.461   4.718  0.5605 -0.0389 -0.3031
 8350TIP3    H224994   1.936   2.342   4.638  0.5723 -0.1515 -0.1293
 8351TIP3   OH224995   2.222   1.764   1.102  0.4885  0.1926 -0.2431
 8351TIP3    H124996   2.233   1.684   1.153  0.5219  0.1091 -0.3810
 8351TIP3    H224997   2.129   1.786   1.112  0.3490 -0.1769 -0.6614
 8352TIP3   OH224998   2.246   5.836   5.398  0.5041 -0.4130  0.0490
 8352TIP3    H124999   2.265   5.809   5.308  1.0183  0.8259 -0.2387
 8352TIP3    H225000   2.274   5.928   5.402  0.1317 -0.3330  1.3668
 8353TIP3   OH225001   8.153   3.484   3.377 -0.1010  0.2854 -0.1886
 8353TIP3    H125002   8.159   3.442   3.463  0.2438 -1.5218 -1.0664
 8353TIP3    H225003   8.059   3.491   3.360 -0.2167  1.8803  0.8722
 8354TIP3   OH225004   3.139   3.408   1.117 -0.2576  0.4909 -0.2963
 8354TIP3    H125005   3.161   3.437   1.029 -0.2888 -0.4594 -0.6164
 8354TIP3    H225006   3.165   3.482   1.173  1.4603  0.3720 -0.8951
 8355TIP3   OH225007   6.964   5.947   0.171  0.0591 -0.3508  0.2080
 8355TIP3    H125008   6.921   6.019   0.217 -0.4822 -0.8358  0.4787
 8355TIP3    H225009   6.908   5.871   0.188  0.4719 -0.7776 -0.3033
 8356TIP3   OH225010   8.314   0.319   5.758 -0.2698  0.4872  1.1879
 8356TIP3    H125011   8.355   0.388   5.705 -0.1656 -0.6812 -0.3329
 8356TIP3    H225012   8.224   0.349   5.770 -1.0794 -0.3434 -1.9176
 8357TIP3   OH225013   5.823   6.401   1.446  0.1759 -0.2834  0.3462
 8357TIP3    H125014   5.730   6.421   1.445  0.3114  0.9105  2.6837
 8357TIP3    H225015   5.828   6.310   1.473 -0.3090 -0.6219 -0.6711
 8358TIP3   OH225016   3.585   3.071   3.563  0.2765  0.0470  0.3413
 8358TIP3    H125017   3.591   3.123   3.483  0.8354 -0.3390  0.1237
 8358TIP3    H225018   3.507   3.018   3.552  0.8842 -0.7172 -0.3907
 8359TIP3   OH225019   0.273   1.828   0.040 -0.0930  0.0698 -0.1900
 8359TIP3    H125020   0.302   1.898  -0.018  1.4877 -0.0257  0.4169
 8359TIP3    H225021   0.279   1.866   0.128 -1.1263 -0.2226  0.0238
 8360TIP3   OH225022   5.049   3.716   6.307  0.5458  0.0208 -0.0665
 8360TIP3    H125023   5.096   3.751   6.383 -1.1051  1.0192  0.5418
 8360TIP3    H225024   5.047   3.788   6.245  1.0600 -0.4951 -0.7035
 8361TIP3   OH225025   3.812   2.691   0.407  0.2360 -0.3197  0.1918
 8361TIP3    H125026   3.722   2.659   0.410 -0.2732  0.9785 -0.3566
 8361TIP3    H225027   3.863   2.617   0.373 -0.8356 -0.6637 -0.7138
 8362TIP3   OH225028   0.893   7.009   2.997  0.4074  0.4623 -0.2301
 8362TIP3    H125029   0.882   6.955   2.919 -1.0854 -0.3372  0.4857
 8362TIP3    H225030   0.913   7.096   2.964 -0.0289  0.1027 -1.4916
 8363TIP3   OH225031   7.838   0.842   2.761  0.4803 -0.1457 -0.0469
 8363TIP3    H125032   7.902   0.828   2.830  1.0735  1.9480 -0.1099
 8363TIP3    H225033   7.887   0.832   2.679  0.1094 -1.1651 -0.1556
 8364TIP3   OH225034   2.395   5.045   5.459 -0.8432  0.4223  0.2512
 8364TIP3    H125035   2.347   5.062   5.378 -1.1557 -1.2946  0.0540
 8364TIP3    H225036   2.417   5.133   5.492 -0.1047  1.1604 -2.0176
 8365TIP3   OH225037   3.453   2.712   4.597 -0.1357 -0.2442 -0.4529
 8365TIP3    H125038   3.420   2.756   4.519 -0.9177 -0.9822 -0.5483
 8365TIP3    H225039   3.517   2.773   4.634 -0.2580  0.4012 -1.2906
 8366TIP3   OH225040   6.671   3.140   6.249 -0.4413  0.4185 -0.4390
 8366TIP3    H125041   6.676   3.066   6.189 -3.0186  0.1182 -0.4104
 8366TIP3    H225042   6.625   3.208   6.200 -2.0958  0.3616  0.9421
 8367TIP3   OH225043   0.147   7.207   3.530 -0.1643  0.2326  0.4514
 8367TIP3    H125044   0.200   7.261   3.472 -1.3423  1.1545  0.2038
 8367TIP3    H225045   0.207   7.183   3.602 -0.2399  4.0818  2.0242
 8368TIP3   OH225046   1.456   0.232   4.853 -1.1153 -0.7197 -0.6667
 8368TIP3    H125047   1.486   0.145   4.879  0.4331  0.2942  1.2045
 8368TIP3    H225048   1.511   0.255   4.779 -1.7694 -1.4412 -1.3961
 8369TIP3   OH225049   5.926   5.984   4.272 -0.4527  0.6295 -0.2195
 8369TIP3    H125050   6.000   5.938   4.232 -1.7757 -1.8401 -0.0189
 8369TIP3    H225051   5.966   6.061   4.313  1.6610  0.5373 -1.9162
 8370TIP3   OH225052   6.342   4.319   6.283  0.1478  0.1276 -0.4983
 8370TIP3    H125053   6.382   4.406   6.277  0.6279  0.0365  0.9658
 8370TIP3    H225054   6.274   4.320   6.216  0.0145  1.7052 -0.3964
 8371TIP3   OH225055   6.611   1.259   5.474 -0.2752  0.0466  0.0998
 8371TIP3    H125056   6.700   1.225   5.478  0.2828  1.4828  0.8538
 8371TIP3    H225057   6.597   1.278   5.381 -0.3558 -1.5082 -0.2326
 8372TIP3   OH225058   6.552   1.961   2.995 -0.7000  0.9043  0.2814
 8372TIP3    H125059   6.522   1.918   2.915 -0.5952 -1.7763  1.5636
 8372TIP3    H225060   6.632   1.914   3.019 -1.1393  1.1127  2.3435
 8373TIP3   OH225061   6.583   1.137   3.087 -0.3863 -0.1344  1.2648
 8373TIP3    H125062   6.529   1.173   3.157 -0.0839  3.5889 -0.1799
 8373TIP3    H225063   6.673   1.143   3.121 -0.3864 -0.1027  1.2596
 8374TIP3   OH225064   0.440   1.726   0.358 -0.3118 -0.1429 -0.2527
 8374TIP3    H125065   0.370   1.663   0.340 -1.3227  0.0848  2.3501
 8374TIP3    H225066   0.398   1.811   0.351 -0.0103  0.0447  0.1687
 8375TIP3   OH225067   3.143   0.489   3.685 -0.1806  0.3931 -0.7140
 8375TIP3    H125068   3.172   0.497   3.594 -0.4111 -0.0582 -0.8293
 8375TIP3    H225069   3.177   0.567   3.728  0.7071  0.1613 -0.9812
 8376TIP3   OH225070   7.485   1.085   6.747  0.4236 -0.4027  0.8230
 8376TIP3    H125071   7.396   1.070   6.779 -0.0050  1.3637  0.5309
 8376TIP3    H225072   7.477   1.156   6.684  1.7312 -1.7402 -0.9591
 8377TIP3   OH225073   7.248   4.238   0.054  0.7761 -0.5527  0.2469
 8377TIP3    H125074   7.276   4.323   0.088 -1.0243 -0.6453  2.2090
 8377TIP3    H225075   7.164   4.257   0.011  1.6117 -0.9559 -1.6389
 8378TIP3   OH225076   2.201   2.566   4.204  0.5243  0.3411  0.8654
 8378TIP3    H125077   2.229   2.578   4.294  0.9718 -0.0185  0.7801
 8378TIP3    H225078   2.118   2.519   4.210 -0.4114  1.9474  1.1432
 8379TIP3   OH225079   2.548   7.012   1.439 -0.3297 -0.4074  0.1367
 8379TIP3    H125080   2.563   7.072   1.366 -0.5188  0.3657  0.7241
 8379TIP3    H225081   2.591   6.930   1.412  1.0483  0.3775 -0.1191
 8380TIP3   OH225082   2.164   6.955   5.850  0.0613 -0.0630  0.3090
 8380TIP3    H125083   2.213   6.996   5.779 -1.9354  1.5398 -0.2331
 8380TIP3    H225084   2.201   6.866   5.856  1.6562  0.4236 -1.3355
 8381TIP3   OH225085   6.542   6.978   1.111  0.5104  0.3278  0.2654
 8381TIP3    H125086   6.526   7.072   1.113 -1.9133 -0.0152 -0.7856
 8381TIP3    H225087   6.514   6.947   1.197 -1.3316  0.2276 -0.3383
 8382TIP3   OH225088   0.043   3.516   4.999  0.1206 -0.6730  0.3248
 8382TIP3    H125089  -0.007   3.595   5.021 -0.3996 -0.7223 -0.6265
 8382TIP3    H225090  -0.013   3.444   5.028  0.1219 -0.7093  0.2366
 8383TIP3   OH225091   3.904   0.368   2.803  0.2221 -0.1726 -0.2175
 8383TIP3    H125092   3.880   0.434   2.868  0.3192  0.6244 -0.9665
 8383TIP3    H225093   4.000   0.367   2.805  0.2298 -1.9192  1.3598
 8384TIP3   OH225094   8.071   1.300   3.371  0.3033  0.3744  0.1977
 8384TIP3    H125095   8.150   1.262   3.411  0.3158 -1.8920 -1.7973
 8384TIP3    H225096   8.090   1.301   3.278 -2.7473 -2.3136 -0.6364
 8385TIP3   OH225097   4.714   6.218   1.695 -0.0323  0.0378 -0.2390
 8385TIP3    H125098   4.780   6.269   1.742 -1.9417  0.4607  2.2081
 8385TIP3    H225099   4.649   6.283   1.668 -1.7203 -0.8085  1.5349
 8386TIP3   OH225100   0.361   1.447   1.176  0.1786 -0.2797 -0.5058
 8386TIP3    H125101   0.370   1.541   1.166 -0.8694 -0.3035 -2.0166
 8386TIP3    H225102   0.444   1.411   1.145  1.0782  0.1635  1.2760
 8387TIP3   OH225103   8.021   5.631   4.170 -0.3139  0.0905  0.4291
 8387TIP3    H125104   7.947   5.573   4.189 -0.7839  0.4268 -0.3485
 8387TIP3    H225105   7.981   5.712   4.140  0.3770  0.1593 -0.3472
 8388TIP3   OH225106   5.521   7.613   5.115  0.6315  0.2867 -0.0557
 8388TIP3    H125107   5.477   7.547   5.061  0.6879 -0.7963  1.1741
 8388TIP3    H225108   5.573   7.562   5.178  1.1731  1.5139  0.5212
 8389TIP3   OH225109   2.610   6.060   0.375  0.5590 -0.0370  0.0591
 8389TIP3    H125110   2.565   6.143   0.368  1.4579  0.3282 -2.7517
 8389TIP3    H225111   2.551   5.996   0.335  0.3525 -0.5592  1.1625
 8390TIP3   OH225112   4.532   5.168   4.804 -0.3926  0.0092 -0.0817
 8390TIP3    H125113   4.601   5.112   4.840  0.9058  1.3138 -0.4540
 8390TIP3    H225114   4.520   5.236   4.870 -0.1258  0.7253 -0.7633
 8391TIP3   OH225115   3.673   2.531   0.750 -0.5000 -0.0922 -0.1216
 8391TIP3    H125116   3.761   2.514   0.718 -0.8366 -0.4802 -0.8654
 8391TIP3    H225117   3.683   2.603   0.812  0.3950 -0.4077  0.1158
 8392TIP3   OH225118   5.934   0.164   1.834 -0.4776  0.0438 -0.6458
 8392TIP3    H125119   5.862   0.209   1.790 -2.2022 -2.2397 -0.3342
 8392TIP3    H225120   5.942   0.209   1.918 -1.2522  0.6010 -0.8560
 8393TIP3   OH225121   2.970   4.668   6.448  0.5034  0.2297  0.5047
 8393TIP3    H125122   2.900   4.733   6.437  0.5673  0.2439  0.1633
 8393TIP3    H225123   2.924   4.589   6.477  0.2045 -0.0470 -0.6414
 8394TIP3   OH225124   7.117   4.042   5.691 -0.2777  0.5060  0.1138
 8394TIP3    H125125   7.023   4.060   5.691 -0.5644 -0.8925  0.1127
 8394TIP3    H225126   7.157   4.121   5.728 -1.3717  1.4471 -0.6523
 8395TIP3   OH225127   4.744   3.626   6.109  0.5535 -0.4927 -0.1176
 8395TIP3    H125128   4.827   3.663   6.079  0.9580 -0.6599  0.7349
 8395TIP3    H225129   4.765   3.534   6.126  0.1866 -0.5407  0.0738
 8396TIP3   OH225130   2.497   3.006   5.785  0.3559  0.4659 -0.1281
 8396TIP3    H125131   2.416   3.044   5.821 -0.5941  0.0928 -1.7601
 8396TIP3    H225132   2.531   3.073   5.726  1.6329  0.8777  1.0268
 8397TIP3   OH225133   1.465   3.484   4.816  0.7008 -0.0676 -0.0728
 8397TIP3    H125134   1.508   3.408   4.777  1.6544  0.9337 -1.0753
 8397TIP3    H225135   1.471   3.552   4.748 -2.5616  0.1452 -0.3131
 8398TIP3   OH225136   2.021   2.267   3.581 -0.5017 -0.2042  0.4968
 8398TIP3    H125137   1.964   2.247   3.656 -0.9396 -0.4033  0.1140
 8398TIP3    H225138   2.061   2.183   3.559  2.0667  0.3601  2.4540
 8399TIP3   OH225139   2.420   6.322   0.619 -0.2086 -0.1699  0.0069
 8399TIP3    H125140   2.397   6.268   0.544 -1.3406 -0.8667  0.8253
 8399TIP3    H225141   2.497   6.371   0.591  0.0114 -1.1889 -1.2349
 8400TIP3   OH225142   5.108   3.954   4.476  0.7176  0.1197  0.1671
 8400TIP3    H125143   5.107   3.858   4.483 -0.3745  0.1213  0.1499
 8400TIP3    H225144   5.033   3.975   4.421  1.1995  0.9700 -0.1811
 8401TIP3   OH225145   1.095   4.380   0.598  0.1933 -0.0276 -0.8409
 8401TIP3    H125146   1.148   4.340   0.667  0.3804 -1.5496 -1.8170
 8401TIP3    H225147   1.159   4.411   0.534  0.0547  2.0016 -0.0569
 8402TIP3   OH225148   7.236   5.864   1.383  0.5286 -0.0830  0.4523
 8402TIP3    H125149   7.191   5.927   1.440 -1.8146 -1.2834  0.0635
 8402TIP3    H225150   7.326   5.863   1.415  0.2745  2.2832  1.4617
 8403TIP3   OH225151   4.196   3.318   1.123  0.2429  0.0084  0.1306
 8403TIP3    H125152   4.239   3.244   1.081  2.4839  1.5088 -0.4177
 8403TIP3    H225153   4.238   3.325   1.209 -0.7921 -0.0451  0.6579
 8404TIP3   OH225154   4.705   0.501   5.383  0.0512 -0.7021  0.0922
 8404TIP3    H125155   4.705   0.461   5.470  0.0342 -2.3884 -0.6476
 8404TIP3    H225156   4.771   0.569   5.387 -0.8314  0.1098  1.7903
 8405TIP3   OH225157   4.288   5.619   5.489  0.0691 -0.9319 -0.2908
 8405TIP3    H125158   4.237   5.657   5.418  0.1836  0.1504  0.1903
 8405TIP3    H225159   4.371   5.666   5.489 -0.1599 -0.4780  0.9294
 8406TIP3   OH225160   6.705   6.498   2.147  0.2801 -0.0796  0.4836
 8406TIP3    H125161   6.721   6.462   2.234 -0.7236 -1.4475  0.1376
 8406TIP3    H225162   6.769   6.569   2.138 -0.4624  1.0004  2.8500
 8407TIP3   OH225163   4.376   4.166   0.171  0.5198  0.0886 -0.1468
 8407TIP3    H125164   4.394   4.126   0.255 -0.7125  0.6399  0.4056
 8407TIP3    H225165   4.280   4.163   0.162  0.5082  1.3874 -0.8200
 8408TIP3   OH225166   5.968   7.761   3.241  0.1629  0.1455 -0.7330
 8408TIP3    H125167   5.963   7.836   3.300 -1.8846 -0.6109  0.1600
 8408TIP3    H225168   5.877   7.742   3.218  0.8559  0.9246 -4.9335
 8409TIP3   OH225169   1.975   0.321   2.659  0.4978  0.2113  0.1838
 8409TIP3    H125170   1.997   0.248   2.600  1.4427 -0.9258  1.8425
 8409TIP3    H225171   2.022   0.301   2.740 -1.0281  1.5230  1.4670
 8410TIP3   OH225172   1.143   2.391   3.956 -0.3931  0.1793  0.2104
 8410TIP3    H125173   1.200   2.437   3.894  2.2221 -1.4260  1.2354
 8410TIP3    H225174   1.142   2.446   4.033 -0.7367  0.4904 -0.0128
 8411TIP3   OH225175   1.288   2.934   1.558  0.6441  0.1055  0.0695
 8411TIP3    H125176   1.287   3.017   1.510  0.1874  0.0052 -0.0981
 8411TIP3    H225177   1.281   2.959   1.650  0.4514  0.2492  0.0159
 8412TIP3   OH225178   6.027   7.214   0.131 -0.8208 -0.0645 -0.6980
 8412TIP3    H125179   5.948   7.243   0.176  0.7200  2.1097  0.7781
 8412TIP3    H225180   6.025   7.118   0.139 -2.5221  0.0310  0.6378
 8413TIP3   OH225181   3.766   1.906   2.091 -0.2076 -0.3588 -0.0057
 8413TIP3    H125182   3.855   1.883   2.062  0.3305 -3.5216  3.3950
 8413TIP3    H225183   3.776   1.992   2.133  1.0675 -0.3056 -0.3799
 8414TIP3   OH225184   5.063   5.587   3.491 -0.0298 -0.7497 -0.3025
 8414TIP3    H125185   4.999   5.613   3.557  1.3498 -0.9204  1.1622
 8414TIP3    H225186   5.085   5.669   3.446  0.0919 -0.3446  0.4609
 8415TIP3   OH225187   2.718   6.533   4.391 -0.6042  0.3108  0.0160
 8415TIP3    H125188   2.757   6.510   4.475 -0.8314 -0.1749 -0.0040
 8415TIP3    H225189   2.676   6.618   4.406 -1.3166 -0.1358  0.6152
 8416TIP3   OH225190   2.241   5.864   0.399 -0.9499  0.4051  0.3454
 8416TIP3    H125191   2.208   5.944   0.358 -1.5896  0.0743  0.1982
 8416TIP3    H225192   2.301   5.895   0.467  0.1185  0.9552 -0.8045
 8417TIP3   OH225193   2.274   5.644   5.796  0.0106  0.1189 -0.1840
 8417TIP3    H125194   2.226   5.655   5.714 -1.7096  1.9250  0.9670
 8417TIP3    H225195   2.289   5.550   5.803 -2.7825 -0.4809 -0.9921
 8418TIP3   OH225196   6.278   7.652   2.944  0.1460 -0.2945  0.1034
 8418TIP3    H125197   6.245   7.614   2.863  0.0813  0.1787 -0.0993
 8418TIP3    H225198   6.329   7.582   2.985 -0.4400 -0.7771  0.0252
 8419TIP3   OH225199   3.069   5.038   4.596  0.2235  1.0117  0.5054
 8419TIP3    H125200   3.143   5.066   4.543 -0.5748  2.0800 -0.0965
 8419TIP3    H225201   3.071   5.095   4.672 -1.1009  2.4379 -0.4693
 8420TIP3   OH225202   1.961   2.159   5.495  0.1144  0.2233  0.2022
 8420TIP3    H125203   1.893   2.174   5.560  1.9489  1.0399  2.0637
 8420TIP3    H225204   1.926   2.197   5.414 -0.4761  3.4513  1.8034
 8421TIP3   OH225205   6.153   3.686   2.318  0.0208 -0.1663  0.2530
 8421TIP3    H125206   6.229   3.738   2.341  0.9673 -1.2382 -0.3691
 8421TIP3    H225207   6.120   3.725   2.237 -0.1278  0.3331  0.5542
 8422TIP3   OH225208   2.058   0.688   5.606  0.6273 -0.2037  0.2381
 8422TIP3    H125209   2.126   0.693   5.540  0.6293  2.9610  0.3070
 8422TIP3    H225210   2.025   0.598   5.601  1.0712 -0.3112 -3.5685
 8423TIP3   OH225211   5.692   7.135   0.497 -1.3308  0.9504  0.4013
 8423TIP3    H125212   5.753   7.159   0.567  0.2146 -0.5919 -0.3428
 8423TIP3    H225213   5.619   7.092   0.543 -0.7382  0.6959  1.1344
 8424TIP3   OH225214   5.054   5.933   4.393 -0.0073  0.1527 -0.2685
 8424TIP3    H125215   5.127   5.873   4.409  1.2112  1.3149 -1.2287
 8424TIP3    H225216   4.980   5.876   4.373  1.0995 -1.0513 -1.1107
 8425TIP3   OH225217   2.555   6.903   0.026 -0.0756 -0.0816 -0.5105
 8425TIP3    H125218   2.560   6.821   0.075  0.2150  1.0718  1.5310
 8425TIP3    H225219   2.505   6.961   0.083  0.6722  1.4872 -1.3970
 8426TIP3   OH225220   5.975   3.230   6.702 -0.0509 -0.2488 -0.3702
 8426TIP3    H125221   5.979   3.267   6.613  0.4138  1.1354  0.2053
 8426TIP3    H225222   5.888   3.255   6.733 -0.9306 -2.2903 -1.0619
 8427TIP3   OH225223   0.588   2.966   0.193 -0.2457  0.3675 -0.4730
 8427TIP3    H125224   0.516   3.029   0.202 -0.3380  0.6475 -2.6561
 8427TIP3    H225225   0.657   3.000   0.249 -1.0540  1.2329  0.0299
 8428TIP3   OH225226   4.400   5.711   6.210  0.6823  0.2283 -0.0869
 8428TIP3    H125227   4.343   5.721   6.134  1.7024 -0.5209 -0.9711
 8428TIP3    H225228   4.341   5.723   6.285  0.2005  4.3132 -0.8741
 8429TIP3   OH225229   7.760   1.675   5.081  0.2808 -0.0056 -0.3627
 8429TIP3    H125230   7.691   1.692   5.145  0.2963 -1.9251  0.2477
 8429TIP3    H225231   7.712   1.655   5.000  0.2181  1.0847 -0.6042
 8430TIP3   OH225232   2.605   6.792   3.351  0.1434  0.1712  0.2928
 8430TIP3    H125233   2.538   6.736   3.391  0.0177 -0.0416 -0.2111
 8430TIP3    H225234   2.662   6.816   3.424 -1.3027  1.5703  1.0200
 8431TIP3   OH225235   8.238   0.419   4.070 -0.3102 -0.4159  0.0689
 8431TIP3    H125236   8.181   0.416   4.147 -1.9979 -1.0761 -1.1236
 8431TIP3    H225237   8.195   0.482   4.012  1.0937  0.2965 -0.2343
 8432TIP3   OH225238   1.838   7.230   5.824  0.5549 -0.0034 -0.7596
 8432TIP3    H125239   1.802   7.147   5.856  0.9155 -0.0391 -0.4358
 8432TIP3    H225240   1.846   7.217   5.729 -0.3420  0.0358 -0.8498
 8433TIP3   OH225241   3.526   0.449   0.446 -0.6523 -0.2093 -0.3576
 8433TIP3    H125242   3.490   0.536   0.459  0.5178  0.3339 -0.6408
 8433TIP3    H225243   3.568   0.427   0.530  0.7609  0.3419 -0.8959
 8434TIP3   OH225244   2.479   4.850   5.734 -0.0368  0.0321 -0.1925
 8434TIP3    H125245   2.529   4.929   5.714  0.3595 -0.5029 -1.3919
 8434TIP3    H225246   2.465   4.854   5.828  3.2102 -0.3330  0.4127
 8435TIP3   OH225247   5.488   0.960   1.341  0.3997 -0.6374  0.6094
 8435TIP3    H125248   5.482   0.867   1.362 -1.4453 -0.6303  0.3496
 8435TIP3    H225249   5.493   0.962   1.245 -0.5893 -0.4814  0.5445
 8436TIP3   OH225250   7.806   3.265   1.085 -0.0139  0.1816 -0.0693
 8436TIP3    H125251   7.805   3.361   1.079 -0.1881  0.2262  0.5634
 8436TIP3    H225252   7.872   3.237   1.021 -0.6167  0.6674 -0.9158
 8437TIP3   OH225253   5.394   1.579   2.089 -0.3816  0.1968  0.2314
 8437TIP3    H125254   5.355   1.628   2.016  1.0197  0.7783 -0.1484
 8437TIP3    H225255   5.362   1.624   2.167  0.4962  1.4483 -0.1039
 8438TIP3   OH225256   5.131   5.007   3.860 -0.6008 -0.6070 -0.0812
 8438TIP3    H125257   5.172   4.945   3.919 -2.3520 -2.4352 -0.6905
 8438TIP3    H225258   5.196   5.022   3.791  0.8045  0.2742  1.3637
 8439TIP3   OH225259   5.249   0.035   5.751  0.1457 -0.5007 -0.4010
 8439TIP3    H125260   5.171  -0.014   5.723  0.0386 -0.5277 -0.0606
 8439TIP3    H225261   5.251   0.025   5.846  0.3429 -0.1662 -0.3684
 8440TIP3   OH225262   1.751   7.470   5.612  0.1298  0.7328 -0.3551
 8440TIP3    H125263   1.678   7.412   5.591  2.1619 -2.2907  0.2066
 8440TIP3    H225264   1.738   7.494   5.704  0.6401 -1.2386  0.2826
 8441TIP3   OH225265   7.717   3.365   6.459 -0.4233 -0.1249 -0.3407
 8441TIP3    H125266   7.686   3.409   6.380 -2.5053 -1.6765 -0.4747
 8441TIP3    H225267   7.772   3.294   6.428 -0.4096 -0.1196 -0.3288
 8442TIP3   OH225268   4.960   2.888   2.176 -0.2017 -0.1366  0.0478
 8442TIP3    H125269   4.902   2.828   2.130  0.4794 -1.0410  0.3407
 8442TIP3    H225270   5.007   2.934   2.107 -1.3017  0.6619 -0.1927
 8443TIP3   OH225271   1.842   6.679   0.435 -0.4290 -0.3421  0.2137
 8443TIP3    H125272   1.850   6.677   0.530 -0.0341 -0.1549  0.1884
 8443TIP3    H225273   1.757   6.639   0.417  0.0769 -1.6302  0.5720
 8444TIP3   OH225274   4.309   4.291   3.230 -0.5705 -0.8295  0.1830
 8444TIP3    H125275   4.257   4.223   3.187 -0.2241 -0.5743 -0.6543
 8444TIP3    H225276   4.267   4.302   3.316 -1.0778 -1.5696  0.0419
 8445TIP3   OH225277   2.216   0.501   5.798  0.1412  0.2587 -0.1526
 8445TIP3    H125278   2.193   0.422   5.750 -1.1287  1.1584 -1.0870
 8445TIP3    H225279   2.292   0.537   5.751 -0.0426  0.2439 -0.4554
 8446TIP3   OH225280   6.377   3.601   5.952  0.2922 -0.6772 -0.1890
 8446TIP3    H125281   6.359   3.694   5.959  0.8904 -0.6103  0.5957
 8446TIP3    H225282   6.343   3.563   6.033  1.7559 -0.8477  0.3676
 8447TIP3   OH225283   3.271   5.217   4.029 -0.5134 -0.2783 -0.4053
 8447TIP3    H125284   3.323   5.274   4.086 -0.7088 -0.1195 -0.3836
 8447TIP3    H225285   3.206   5.178   4.086 -1.2173  0.4938 -0.6530
 8448TIP3   OH225286   7.849   1.988   0.826  0.0201 -0.0860  0.4738
 8448TIP3    H125287   7.908   2.049   0.783 -1.2287 -1.0942 -3.0143
 8448TIP3    H225288   7.895   1.904   0.824 -0.0286 -0.1431  1.2542
 8449TIP3   OH225289   2.967   2.859   5.726  0.3984 -0.1944 -0.4221
 8449TIP3    H125290   2.886   2.809   5.715  0.6162 -0.5476 -0.4528
 8449TIP3    H225291   3.017   2.809   5.791  0.3022  0.3847  0.1160
 8450TIP3   OH225292   3.678   0.710   5.264 -0.0517  0.1821  0.6875
 8450TIP3    H125293   3.604   0.676   5.314  1.3025  0.1505  2.7692
 8450TIP3    H225294   3.640   0.738   5.181 -2.2435 -0.6050  1.3686
 8451TIP3   OH225295   1.585   1.544   4.751 -0.1286 -0.7721 -0.0479
 8451TIP3    H125296   1.512   1.607   4.759  0.8945  0.7144 -1.6160
 8451TIP3    H225297   1.575   1.507   4.663  0.8110 -0.7730 -0.1655
 8452TIP3   OH225298   7.186   4.055   3.116 -0.0871 -0.3931  0.5627
 8452TIP3    H125299   7.177   4.150   3.103  0.0052 -0.0925  2.3698
 8452TIP3    H225300   7.227   4.023   3.035 -0.8315  0.9763 -0.3971
 8453TIP3   OH225301   2.931   4.466   4.923 -0.1469 -0.2349  0.6785
 8453TIP3    H125302   2.986   4.504   4.992 -1.7521 -0.1269  1.9677
 8453TIP3    H225303   2.931   4.531   4.853 -0.5150  0.8378  1.6492
 8454TIP3   OH225304   7.574   5.485   6.601  0.1539 -0.0861 -0.5679
 8454TIP3    H125305   7.624   5.558   6.639 -0.4144 -1.2323  2.6622
 8454TIP3    H225306   7.493   5.525   6.570  0.2192  0.7924  0.3399
 8455TIP3   OH225307   2.064   5.861   1.997 -0.3747  0.1047  0.1300
 8455TIP3    H125308   2.050   5.952   2.024 -0.4078  0.1850 -0.1609
 8455TIP3    H225309   2.055   5.811   2.078 -3.0079  0.0683 -0.0841
 8456TIP3   OH225310   1.023   3.984   4.774 -0.1416  0.3684  0.4025
 8456TIP3    H125311   1.014   4.079   4.781 -0.9749  0.2507  1.2018
 8456TIP3    H225312   1.032   3.967   4.681  1.9523  1.3760  0.3535
 8457TIP3   OH225313   7.583   6.780   1.186 -0.2013  0.3100 -0.5562
 8457TIP3    H125314   7.607   6.687   1.189  0.0795  0.3303 -1.8586
 8457TIP3    H225315   7.503   6.783   1.134 -0.6419  0.7329  0.1235
 8458TIP3   OH225316   2.223   7.313   1.230 -0.1558  0.0205  0.4968
 8458TIP3    H125317   2.286   7.301   1.301 -0.0686 -2.5067  0.0754
 8458TIP3    H225318   2.201   7.224   1.202 -0.6945  0.9170 -2.2000
 8459TIP3   OH225319   4.961   6.477   1.648  0.0034  0.0586 -0.1288
 8459TIP3    H125320   5.039   6.503   1.599  0.0661  1.3970  0.6276
 8459TIP3    H225321   4.887   6.507   1.595  0.0360  0.1117 -0.1443
 8460TIP3   OH225322   8.031   5.228   3.082 -0.1398 -0.0066 -0.4881
 8460TIP3    H125323   8.054   5.136   3.099  1.5791  0.1982 -1.4764
 8460TIP3    H225324   8.024   5.267   3.169 -0.3399 -0.9373 -0.0685
 8461TIP3   OH225325   6.386   4.234   4.502  0.2441 -0.6689 -0.8031
 8461TIP3    H125326   6.329   4.160   4.482  0.4658 -1.6743  1.9337
 8461TIP3    H225327   6.475   4.200   4.487  0.3162 -0.6922 -0.3187
 8462TIP3   OH225328   4.546   4.026   2.400  0.6938 -0.4022  0.0492
 8462TIP3    H125329   4.507   3.952   2.447 -0.0389  0.2803  0.5305
 8462TIP3    H225330   4.497   4.102   2.430  0.2791  0.0753 -1.7340
 8463TIP3   OH225331   0.688   5.569   6.196 -0.0031  0.9187 -0.1167
 8463TIP3    H125332   0.783   5.565   6.201  0.0041  1.9543  0.7683
 8463TIP3    H225333   0.665   5.501   6.132  1.1338 -1.0731  1.4809
 8464TIP3   OH225334   0.330   0.450   3.441  0.4946  0.1832  0.1620
 8464TIP3    H125335   0.311   0.485   3.354  0.9087 -1.2371 -0.5421
 8464TIP3    H225336   0.244   0.431   3.479  0.3132  0.7319  0.0258
 8465TIP3   OH225337   1.392   3.544   5.727  0.2237  0.3668  0.1028
 8465TIP3    H125338   1.450   3.609   5.767  0.5528  0.1772 -0.0615
 8465TIP3    H225339   1.450   3.474   5.698 -0.0420  0.3656 -0.4494
 8466TIP3   OH225340   5.373   5.758   3.044  0.0264 -0.2333 -0.1894
 8466TIP3    H125341   5.419   5.681   3.011 -0.4292 -0.3598 -0.5341
 8466TIP3    H225342   5.421   5.782   3.124  0.8264 -0.2255 -0.6573
 8467TIP3   OH225343   0.141   7.041   2.873  0.0089 -0.5787 -0.4772
 8467TIP3    H125344   0.204   7.110   2.893 -0.1888 -1.1079  2.3746
 8467TIP3    H225345   0.056   7.085   2.877 -0.0557 -0.7563  0.4188
 8468TIP3   OH225346   1.920   5.377   1.484  0.5839  0.2194  0.1819
 8468TIP3    H125347   1.840   5.428   1.498 -0.4480 -0.7654 -1.7316
 8468TIP3    H225348   1.981   5.411   1.549 -0.9979  1.8186  0.9355
 8469TIP3   OH225349   3.834   0.936   5.087  0.0153 -0.1279  0.3431
 8469TIP3    H125350   3.836   0.856   5.139 -0.1211  0.4368  1.2477
 8469TIP3    H225351   3.745   0.971   5.100 -1.0849 -1.4404 -2.6193
 8470TIP3   OH225352   5.656   5.486   0.698  0.2910 -0.4368  0.7611
 8470TIP3    H125353   5.649   5.483   0.794  2.2282 -0.7357  0.9321
 8470TIP3    H225354   5.678   5.396   0.673  1.0293 -0.1018  0.1670
 8471TIP3   OH225355   4.323   6.703   5.298 -0.3112 -0.9242  0.4050
 8471TIP3    H125356   4.344   6.772   5.235 -0.7618  0.6871  1.9452
 8471TIP3    H225357   4.291   6.631   5.244  3.2426 -1.2641 -1.5739
 8472TIP3   OH225358   7.092   1.241   6.182  0.0456  0.0487 -0.2015
 8472TIP3    H125359   7.061   1.314   6.127  0.4148  1.4527  1.3771
 8472TIP3    H225360   7.065   1.163   6.134  1.7710  1.1368 -3.2577
 8473TIP3   OH225361   3.547   6.205   5.679  0.1735  0.0477 -0.4970
 8473TIP3    H125362   3.507   6.276   5.730 -0.3741 -0.4231 -0.2575
 8473TIP3    H225363   3.506   6.210   5.593 -0.6050 -0.5869 -0.1776
 8474TIP3   OH225364   4.024   2.625   2.196  0.1388 -0.5727 -0.5581
 8474TIP3    H125365   3.958   2.655   2.259 -0.1866  0.6301 -1.4293
 8474TIP3    H225366   4.107   2.632   2.244 -0.0889  0.4627 -0.2761
 8475TIP3   OH225367   6.615   6.857   0.186  0.6469  0.3729 -0.0362
 8475TIP3    H125368   6.664   6.825   0.111  0.8369  1.6438 -0.4667
 8475TIP3    H225369   6.671   6.924   0.224  0.9735 -0.8598  1.8141
 8476TIP3   OH225370   5.112   3.638   0.060 -0.1264 -0.4383  0.2917
 8476TIP3    H125371   5.102   3.729   0.031 -0.9402  0.1882  2.3395
 8476TIP3    H225372   5.023   3.609   0.079  0.1660 -1.5467  0.0262
 8477TIP3   OH225373   0.094   2.456   0.119 -0.2766 -0.4481  0.0618
 8477TIP3    H125374   0.157   2.442   0.190  0.4369  1.0282 -0.2259
 8477TIP3    H225375   0.097   2.376   0.067  0.6996 -0.7518  0.5721
 8478TIP3   OH225376   5.499   7.380   2.783 -0.1287 -0.3202  0.2655
 8478TIP3    H125377   5.547   7.297   2.779  1.4093  0.5200  0.5096
 8478TIP3    H225378   5.427   7.369   2.720 -1.0201 -2.4522  1.5390
 8479TIP3   OH225379   5.179   1.228   6.414 -0.0954 -0.2488 -0.5047
 8479TIP3    H125380   5.255   1.181   6.379  0.2154  1.0356 -1.6262
 8479TIP3    H225381   5.110   1.213   6.349  0.0734  0.9748 -1.0025
 8480TIP3   OH225382   1.008   4.987   5.267  0.0553  0.0402 -0.3762
 8480TIP3    H125383   1.055   4.972   5.185 -1.6224  1.8344 -1.7577
 8480TIP3    H225384   0.916   4.971   5.246 -0.3691  0.0761  1.2957
 8481TIP3   OH225385   1.395   6.771   2.764  0.1015  0.3100 -0.1500
 8481TIP3    H125386   1.431   6.697   2.813 -0.1197  0.1958 -0.1588
 8481TIP3    H225387   1.301   6.769   2.784 -0.0302  0.1148 -0.7771
 8482TIP3   OH225388   1.684   5.644   5.830  0.0166  0.5974 -0.3843
 8482TIP3    H125389   1.589   5.650   5.826 -0.2765 -1.2825  1.8554
 8482TIP3    H225390   1.708   5.694   5.909  0.7569  0.1581 -0.3171
 8483TIP3   OH225391   0.519   0.909   6.284  0.2716  0.4231  0.5172
 8483TIP3    H125392   0.480   0.955   6.210 -0.1587 -0.7372  0.0122
 8483TIP3    H225393   0.562   0.979   6.335 -0.4788  1.4005 -0.1464
 8484TIP3   OH225394   5.646   5.157   3.538 -0.3967  0.1803  0.1125
 8484TIP3    H125395   5.561   5.178   3.575 -0.0466  1.0645  0.4410
 8484TIP3    H225396   5.663   5.067   3.567 -0.5321  0.5346  1.3545
 8485TIP3   OH225397   1.181   3.692   0.783 -0.1320 -0.4289  0.0276
 8485TIP3    H125398   1.103   3.641   0.804  0.9478 -1.2860  2.2812
 8485TIP3    H225399   1.184   3.693   0.687 -2.2099 -1.4004 -0.1038
 8486TIP3   OH225400   2.625   4.950   2.644  0.3141  0.0433  0.5215
 8486TIP3    H125401   2.673   4.867   2.649 -1.0773 -0.8867 -0.6673
 8486TIP3    H225402   2.671   5.000   2.577 -1.1417 -1.4627 -1.7459
 8487TIP3   OH225403   0.508   6.917   4.673 -0.3952 -0.3125  0.1543
 8487TIP3    H125404   0.465   7.002   4.669 -0.6238 -0.4537 -3.3767
 8487TIP3    H225405   0.442   6.856   4.640  0.5616 -1.4889  0.3412
 8488TIP3   OH225406   6.319   5.612   4.578  0.2473 -0.6816  0.1403
 8488TIP3    H125407   6.380   5.545   4.547  1.4625 -0.9666  2.8770
 8488TIP3    H225408   6.253   5.564   4.627 -0.0012 -0.0586  0.4217
 8489TIP3   OH225409   6.368   1.226   4.267  0.2331  0.4713  0.0548
 8489TIP3    H125410   6.358   1.294   4.200 -0.9493 -0.8565 -1.1947
 8489TIP3    H225411   6.393   1.147   4.218  0.7905 -0.2029  1.3686
 8490TIP3   OH225412   1.051   7.776   3.597  0.8904 -0.0663  0.2544
 8490TIP3    H125413   1.134   7.737   3.625  1.2856  0.0097 -0.7860
 8490TIP3    H225414   1.017   7.716   3.531  1.1305  0.9239 -0.8058
 8491TIP3   OH225415   2.014   5.047   3.289  0.2862 -0.6332 -0.3036
 8491TIP3    H125416   2.001   5.091   3.373 -1.3963 -0.5968 -0.5545
 8491TIP3    H225417   2.011   5.117   3.224 -1.2335 -0.9410 -0.6044
 8492TIP3   OH225418   6.100   5.575   2.683 -0.1280 -0.1775 -0.7065
 8492TIP3    H125419   6.171   5.511   2.689 -1.2885 -1.7854 -2.6068
 8492TIP3    H225420   6.108   5.610   2.594 -1.5097 -0.1929 -0.8578
 8493TIP3   OH225421   4.842   6.974   3.037  0.2958 -0.3438  0.0760
 8493TIP3    H125422   4.758   6.997   3.078  0.1961 -0.1442 -0.2394
 8493TIP3    H225423   4.825   6.890   2.994  0.9234 -1.5607  2.0488
 8494TIP3   OH225424   3.402   1.003   6.761  0.1944  0.3373  0.8642
 8494TIP3    H125425   3.491   1.036   6.775  0.3637  0.2441  0.0319
 8494TIP3    H225426   3.349   1.082   6.749  0.5115  0.3416 -0.6181
 8495TIP3   OH225427   5.117   2.196   1.393 -0.0637 -0.0620 -0.1011
 8495TIP3    H125428   5.041   2.154   1.352  0.3077 -2.2200  1.2584
 8495TIP3    H225429   5.191   2.172   1.337  0.4093 -2.8225  1.5335
 8496TIP3   OH225430   5.286   3.200   6.388 -0.1543  0.1281  0.2950
 8496TIP3    H125431   5.327   3.114   6.394  1.3726  0.8170  0.3438
 8496TIP3    H225432   5.213   3.196   6.449  0.4255 -0.8632  0.9546
 8497TIP3   OH225433   7.329   0.127   2.852 -0.5821 -0.2225  0.1802
 8497TIP3    H125434   7.324   0.040   2.813  0.2012 -0.8763  1.4818
 8497TIP3    H225435   7.282   0.119   2.936  0.1180  0.4002  0.6480
 8498TIP3   OH225436   1.982   5.839   6.163 -0.2083 -0.1826 -0.0651
 8498TIP3    H125437   2.068   5.804   6.186 -0.4030  0.3999  1.6844
 8498TIP3    H225438   1.927   5.820   6.239 -1.3465  0.3851 -0.7246
 8499TIP3   OH225439   1.626   1.565   1.132  0.6854  0.3976  0.3042
 8499TIP3    H125440   1.602   1.560   1.225  0.1921 -2.2829  0.1089
 8499TIP3    H225441   1.717   1.536   1.130  0.4873 -0.2193 -0.0859
 8500TIP3   OH225442   7.662   2.917   0.652 -0.3465 -0.1961  0.1525
 8500TIP3    H125443   7.641   2.878   0.567 -0.5467  0.8459 -0.2928
 8500TIP3    H225444   7.707   2.847   0.700  1.0824 -0.3476 -1.3376
 8501TIP3   OH225445   6.553   1.394   3.804  0.0695 -0.2640  0.6519
 8501TIP3    H125446   6.649   1.404   3.806 -0.0100  0.5539  2.1330
 8501TIP3    H225447   6.521   1.478   3.770 -0.1041 -1.0727 -1.3089
 8502TIP3   OH225448   2.798   4.394   1.115 -0.1219 -1.0883  0.4934
 8502TIP3    H125449   2.848   4.446   1.051 -0.7407  0.7217  1.4154
 8502TIP3    H225450   2.854   4.318   1.132  0.7660 -0.8255 -1.0076
 8503TIP3   OH225451   1.700   1.560   2.163 -0.0773  0.3813  0.1055
 8503TIP3    H125452   1.720   1.481   2.114 -0.3238  0.6819 -0.4885
 8503TIP3    H225453   1.762   1.558   2.236 -0.6657 -0.7908  0.5917
 8504TIP3   OH225454   6.618   7.629   2.727  0.3724 -0.2834 -0.4009
 8504TIP3    H125455   6.611   7.542   2.766  0.9252  0.1010  0.6132
 8504TIP3    H225456   6.555   7.629   2.655  0.5292 -1.5878 -0.5591
 8505TIP3   OH225457   0.677   5.075   1.161 -0.5599  0.2654  0.7701
 8505TIP3    H125458   0.764   5.039   1.175 -0.2200  1.2321  1.1944
 8505TIP3    H225459   0.671   5.148   1.222 -1.2097  0.9713 -0.1101
 8506TIP3   OH225460   7.182   3.652   6.107  0.0150  0.6906 -0.2565
 8506TIP3    H125461   7.112   3.633   6.044  0.1037 -1.8621  0.3146
 8506TIP3    H225462   7.135   3.680   6.186 -0.2984  0.4615 -0.3555
 8507TIP3   OH225463   4.679   4.877   5.143 -0.6811 -0.0571  0.1732
 8507TIP3    H125464   4.608   4.823   5.176 -0.8158 -0.7821 -1.2504
 8507TIP3    H225465   4.637   4.939   5.083 -0.2077 -0.0149 -0.1201
 8508TIP3   OH225466   2.878   0.146   1.289  0.0387 -0.1411 -0.4422
 8508TIP3    H125467   2.808   0.107   1.341  0.1826  0.3288  0.1126
 8508TIP3    H225468   2.921   0.208   1.348  0.7777 -0.2540 -0.8504
 8509TIP3   OH225469   6.488   2.843   5.452 -0.0658 -0.6982 -0.6605
 8509TIP3    H125470   6.569   2.864   5.500  0.1620  0.8618 -1.6533
 8509TIP3    H225471   6.418   2.874   5.509  0.0930 -1.0814 -0.2575
 8510TIP3   OH225472   7.102   3.431   1.562 -0.2919 -1.2319 -0.3681
 8510TIP3    H125473   7.192   3.462   1.573  0.2376 -2.1216 -1.8506
 8510TIP3    H225474   7.111   3.336   1.553 -1.6717 -1.6919  2.1527
 8511TIP3   OH225475   4.949   7.561   1.397  0.6336 -0.0350 -0.3721
 8511TIP3    H125476   4.893   7.545   1.320 -0.2448 -2.6027  0.6687
 8511TIP3    H225477   5.038   7.543   1.366  0.5297  0.9072 -1.2559
 8512TIP3   OH225478   6.325   2.639   3.429 -0.5900 -0.1180  0.2269
 8512TIP3    H125479   6.380   2.587   3.488 -0.0297 -0.1818 -0.3400
 8512TIP3    H225480   6.330   2.593   3.345 -0.9336  0.2736 -0.0104
 8513TIP3   OH225481   2.034   0.116   3.172 -0.0254  0.3028  0.5765
 8513TIP3    H125482   1.996   0.191   3.127 -0.1694  0.8080  1.5191
 8513TIP3    H225483   1.959   0.061   3.195  0.0273  0.1577  0.4024
 8514TIP3   OH225484   3.147   1.477   2.626 -0.5825 -0.4938 -0.2826
 8514TIP3    H125485   3.081   1.542   2.602  2.0565  2.4197 -0.2724
 8514TIP3    H225486   3.201   1.468   2.547  2.3683  1.7299  1.2836
 8515TIP3   OH225487   1.897   6.916   2.367  0.1396 -0.0966  0.0898
 8515TIP3    H125488   1.965   6.945   2.306 -2.0000 -0.4381 -2.6830
 8515TIP3    H225489   1.942   6.856   2.427  2.3281 -0.0831 -1.4088
 8516TIP3   OH225490   6.357   5.426   4.113 -0.1448  0.4251  0.3540
 8516TIP3    H125491   6.297   5.376   4.167 -0.5095  1.3720  0.8383
 8516TIP3    H225492   6.444   5.400   4.143 -0.2282 -1.6187 -0.9431
 8517TIP3   OH225493   1.574   2.972   4.442  0.4090  0.4857 -0.3431
 8517TIP3    H125494   1.513   3.007   4.507 -0.5868 -0.6413 -0.6343
 8517TIP3    H225495   1.519   2.919   4.384  1.6548 -0.4598 -0.6874
 8518TIP3   OH225496   6.884   4.519   5.928  0.2799 -0.1106  0.0005
 8518TIP3    H125497   6.858   4.428   5.940  2.3716 -1.0988 -2.2336
 8518TIP3    H225498   6.869   4.537   5.835  1.0998  1.4224  0.1188
 8519TIP3   OH225499   3.353   3.232   2.381  0.1321 -0.7993  0.6239
 8519TIP3    H125500   3.265   3.268   2.395  0.3129 -0.1788  0.1892
 8519TIP3    H225501   3.353   3.202   2.291  0.5807 -0.1644  0.4051
 8520TIP3   OH225502   0.208   2.886   3.915 -0.4345 -0.8509 -0.0525
 8520TIP3    H125503   0.201   2.981   3.924 -1.4002 -0.8767 -0.4103
 8520TIP3    H225504   0.141   2.863   3.850  0.3889 -1.6763 -0.6295
 8521TIP3   OH225505   0.797   1.427   6.558 -0.3662 -0.0780 -0.6156
 8521TIP3    H125506   0.851   1.348   6.563 -0.6260 -0.4388 -2.6003
 8521TIP3    H225507   0.855   1.498   6.585  0.2863 -0.7749 -0.1438
 8522TIP3   OH225508   5.561   1.339   2.619  0.7216 -0.0669  0.2577
 8522TIP3    H125509   5.547   1.385   2.536 -1.2941  1.1215  1.1565
 8522TIP3    H225510   5.584   1.409   2.681  1.6230 -0.8507  0.8260
 8523TIP3   OH225511   3.549   7.397   4.072  0.3755 -0.0488  0.2827
 8523TIP3    H125512   3.613   7.337   4.032  0.2544 -1.0798  1.5916
 8523TIP3    H225513   3.563   7.389   4.166 -0.3070  1.2811  0.5302
 8524TIP3   OH225514   2.800   2.726   6.113  0.4955  0.1762  0.6729
 8524TIP3    H125515   2.753   2.710   6.195 -0.1243 -0.2494  0.2416
 8524TIP3    H225516   2.807   2.639   6.072  0.2653  0.4714 -0.0044
 8525TIP3   OH225517   1.558   4.393   3.922  0.1632 -0.5782 -0.0948
 8525TIP3    H125518   1.534   4.485   3.906 -0.7330 -0.7864 -0.0194
 8525TIP3    H225519   1.529   4.375   4.011  2.3636 -0.3173  0.7340
 8526TIP3   OH225520   6.275   5.536   5.365  0.0939 -0.0887 -0.1451
 8526TIP3    H125521   6.278   5.468   5.432  0.8524 -0.1861 -0.2667
 8526TIP3    H225522   6.237   5.612   5.409  0.2560 -0.2622  0.2975
 8527TIP3   OH225523   5.947   3.056   2.044  0.3233 -0.5786  0.1504
 8527TIP3    H125524   6.031   3.095   2.069  0.4155 -1.9072  2.2113
 8527TIP3    H225525   5.928   2.994   2.115 -1.1065 -2.2561 -1.6044
 8528TIP3   OH225526   1.229   6.438   4.790  0.3257  0.3349 -0.4851
 8528TIP3    H125527   1.169   6.510   4.772  1.2119  0.7551 -1.8751
 8528TIP3    H225528   1.172   6.363   4.807 -0.6246  1.4132  1.4730
 8529TIP3   OH225529   3.989   3.313   1.618  0.1781  0.2950  0.3305
 8529TIP3    H125530   4.081   3.289   1.623  0.0341 -0.2141  0.6724
 8529TIP3    H225531   3.953   3.288   1.704 -0.1485  1.0384  0.4185
 8530TIP3   OH225532   2.201   3.216   0.822  0.5407 -0.3448  0.3573
 8530TIP3    H125533   2.210   3.129   0.862  1.0221 -0.2024  0.5730
 8530TIP3    H225534   2.276   3.265   0.856  1.6512 -0.5694 -1.6221
 8531TIP3   OH225535   8.163   1.319   1.778  0.4016  0.0771  0.1609
 8531TIP3    H125536   8.175   1.379   1.704  1.2069  1.2917  1.2312
 8531TIP3    H225537   8.082   1.347   1.820 -0.1540 -0.7291 -0.3293
 8532TIP3   OH225538   1.117   4.541   2.059  0.2616  0.0853 -0.4323
 8532TIP3    H125539   1.082   4.602   1.995 -0.4355  1.6407  1.3352
 8532TIP3    H225540   1.196   4.505   2.018  1.0642  2.6514 -1.3091
 8533TIP3   OH225541   3.074   5.580   6.199  0.1859 -0.4153 -0.1487
 8533TIP3    H125542   3.063   5.648   6.132  0.2985 -0.3472 -0.0991
 8533TIP3    H225543   3.121   5.624   6.270  2.1819 -1.0989 -0.9851
 8534TIP3   OH225544   7.883   7.382   2.424  0.3289 -0.7463 -0.8235
 8534TIP3    H125545   7.971   7.363   2.456  0.2679 -0.0751 -0.2294
 8534TIP3    H225546   7.846   7.295   2.405  1.6741 -0.9853 -2.7106
 8535TIP3   OH225547   6.857   5.526   1.532 -0.2918  0.6557 -0.3644
 8535TIP3    H125548   6.826   5.436   1.543 -1.9014  1.1771 -0.4042
 8535TIP3    H225549   6.872   5.557   1.621 -0.8597  0.7177 -0.2883
 8536TIP3   OH225550   0.627   5.673   3.009  0.1237  0.0330 -0.2602
 8536TIP3    H125551   0.697   5.724   2.969 -0.9486  1.2008 -0.6953
 8536TIP3    H225552   0.619   5.709   3.098  0.5516 -0.5993  0.0442
 8537TIP3   OH225553   1.803   3.583   0.298 -0.5787  0.2645  0.3454
 8537TIP3    H125554   1.770   3.578   0.387  0.5406  0.9882  0.8246
 8537TIP3    H225555   1.898   3.573   0.307 -0.5440 -0.7528 -0.8818
 8538TIP3   OH225556   1.886   2.828   0.171 -0.0764  0.0159 -0.1636
 8538TIP3    H125557   1.883   2.854   0.079 -0.6964  0.9788  0.1091
 8538TIP3    H225558   1.816   2.878   0.213 -0.3455 -1.0322  0.6888
 8539TIP3   OH225559   6.566   7.396   0.577  0.0395  0.1365 -0.1681
 8539TIP3    H125560   6.525   7.387   0.491  1.2093 -1.1921 -0.6072
 8539TIP3    H225561   6.564   7.490   0.595  1.2289  0.6346 -2.3695
 8540TIP3   OH225562   5.928   5.074   3.119 -0.1579 -0.4064  0.1985
 8540TIP3    H125563   5.908   5.001   3.062  0.0021 -1.1205  1.0377
 8540TIP3    H225564   5.874   5.060   3.197  0.2788  0.0665  0.5995
 8541TIP3   OH225565   2.665   6.467   1.470  0.1091  0.3388 -0.2447
 8541TIP3    H125566   2.660   6.513   1.554  1.8164  0.3944 -0.1461
 8541TIP3    H225567   2.622   6.383   1.486  1.5380 -0.1729  1.0742
 8542TIP3   OH225568   5.398   3.713   4.497  0.0546  0.6128  0.2053
 8542TIP3    H125569   5.447   3.666   4.564  0.1412  0.1855 -0.1553
 8542TIP3    H225570   5.453   3.708   4.419 -0.9124 -0.5618 -0.4272
 8543TIP3   OH225571   4.245   6.003   3.513  0.6747  0.3907 -0.3438
 8543TIP3    H125572   4.282   6.036   3.595  1.3264  0.1315 -0.5273
 8543TIP3    H225573   4.153   5.987   3.533  0.8383  0.2808  0.3544
 8544TIP3   OH225574   6.656   4.798   3.829  0.7380 -0.5147 -0.2795
 8544TIP3    H125575   6.633   4.882   3.869 -0.0822  0.0608 -1.8579
 8544TIP3    H225576   6.731   4.766   3.879  1.5976  1.5645 -0.1866
 8545TIP3   OH225577   3.099   2.986   2.057  0.5849  0.1128  0.0497
 8545TIP3    H125578   3.035   2.928   2.017 -0.7850  1.5471  0.0683
 8545TIP3    H225579   3.124   3.046   1.987 -0.0525  1.1601  0.6974
 8546TIP3   OH225580   5.728   1.150   1.301  0.0041  0.1523  0.0458
 8546TIP3    H125581   5.815   1.151   1.262  0.5315 -2.2052  0.9919
 8546TIP3    H225582   5.683   1.078   1.257 -1.2478  0.8914  0.0668
 8547TIP3   OH225583   1.400   6.161   3.987 -0.3068  0.5427  0.3292
 8547TIP3    H125584   1.405   6.179   3.893 -1.5594 -1.5782 -0.2247
 8547TIP3    H225585   1.481   6.114   4.006 -0.3997  0.2988  0.1282
 8548TIP3   OH225586   3.650   6.865   4.172 -0.0129  0.2438  0.2619
 8548TIP3    H125587   3.708   6.902   4.238  1.9064 -1.9602 -0.0737
 8548TIP3    H225588   3.699   6.872   4.090  0.0782 -2.0956  0.0473
 8549TIP3   OH225589   5.318   2.936   2.257  0.1112 -0.0390 -0.0033
 8549TIP3    H125590   5.296   2.987   2.335  0.6364  0.9749 -0.5001
 8549TIP3    H225591   5.376   2.993   2.206 -0.1376 -0.7232 -1.0891
 8550TIP3   OH225592   8.023   6.041   3.219 -0.0833 -0.0190 -0.0680
 8550TIP3    H125593   7.957   5.972   3.215 -0.0035 -0.2171  1.3612
 8550TIP3    H225594   8.047   6.046   3.312  1.9656  0.0114 -0.5505
 8551TIP3   OH225595   5.063   7.817   5.850 -0.3530  0.5806  0.2797
 8551TIP3    H125596   5.083   7.780   5.936  3.0863 -0.5586 -0.8420
 8551TIP3    H225597   5.012   7.748   5.806 -0.1328  0.1841  0.6346
 8552TIP3   OH225598   3.232   7.577   2.901  0.0275  0.3414  0.0710
 8552TIP3    H125599   3.201   7.657   2.859  1.0718  1.0945  0.6642
 8552TIP3    H225600   3.179   7.570   2.981  1.4634  1.7678  1.2190
 8553TIP3   OH225601   2.243   4.090   2.198 -0.2241  0.7877 -0.4084
 8553TIP3    H125602   2.176   4.151   2.229 -1.0587 -0.4716  0.3502
 8553TIP3    H225603   2.305   4.084   2.270  0.3109  1.3663 -0.8121
 8554TIP3   OH225604   1.357   1.172   5.264  0.1708 -0.1771 -0.1450
 8554TIP3    H125605   1.440   1.178   5.311  0.2824 -1.3923 -0.1535
 8554TIP3    H225606   1.374   1.212   5.179  0.5383  0.2242  0.1143
 8555TIP3   OH225607   1.619   5.990   4.035  0.8459 -0.1569 -0.3947
 8555TIP3    H125608   1.574   5.933   3.973 -1.6160  1.3449 -0.1215
 8555TIP3    H225609   1.612   5.944   4.119  0.0664 -0.0979 -0.4183
 8556TIP3   OH225610   1.536   2.941   6.210 -0.2061  0.0409 -0.0603
 8556TIP3    H125611   1.453   2.984   6.232 -0.8614 -0.8531 -0.7305
 8556TIP3    H225612   1.579   3.002   6.151  0.3695  1.2493  1.5236
 8557TIP3   OH225613   4.329   3.628   4.198  0.6709 -0.3530 -0.2418
 8557TIP3    H125614   4.388   3.585   4.136  0.5141  0.1711 -0.7590
 8557TIP3    H225615   4.373   3.618   4.283  2.1614  1.1060 -0.7871
 8558TIP3   OH225616   0.802   6.258   6.673  0.3214 -0.7029 -0.0038
 8558TIP3    H125617   0.773   6.316   6.602  0.5597 -0.2940  0.2286
 8558TIP3    H225618   0.856   6.314   6.729 -1.5692 -0.4395  1.6761
 8559TIP3   OH225619   3.331   2.808   4.329  0.1985  0.5355 -0.1899
 8559TIP3    H125620   3.287   2.723   4.325 -0.5262  0.8778  0.3229
 8559TIP3    H225621   3.402   2.801   4.265  0.8539 -0.8545  0.6430
 8560TIP3   OH225622   7.852   4.985   2.768 -0.4373 -0.6127 -0.0192
 8560TIP3    H125623   7.930   5.003   2.821 -0.2541 -1.6722  0.0859
 8560TIP3    H225624   7.878   5.012   2.679 -0.5557  0.6379  0.2996
 8561TIP3   OH225625   4.296   1.567   6.169 -0.1407 -0.0237  0.3051
 8561TIP3    H125626   4.361   1.599   6.107  0.0555 -1.3931 -0.2263
 8561TIP3    H225627   4.258   1.489   6.128  0.1776 -1.1360  1.9820
 8562TIP3   OH225628   8.257   0.277   0.911 -0.4569  0.2911 -0.2639
 8562TIP3    H125629   8.323   0.341   0.887  0.0207 -0.5867 -1.3877
 8562TIP3    H225630   8.194   0.326   0.963  0.4416  1.4205 -0.2046
 8563TIP3   OH225631   5.330   3.774   3.625  0.5937 -0.0519 -0.3398
 8563TIP3    H125632   5.373   3.689   3.633 -0.4567 -0.4507  1.8368
 8563TIP3    H225633   5.239   3.756   3.648  0.4697  1.7701  0.7292
 8564TIP3   OH225634   0.366   5.715   4.119  0.2881 -0.4262 -0.3991
 8564TIP3    H125635   0.282   5.706   4.074 -0.1188 -0.3073  0.3314
 8564TIP3    H225636   0.400   5.800   4.090 -0.2858 -0.0480  0.0337
 8565TIP3   OH225637   5.325   2.703  -0.016 -0.7062 -0.5027 -0.8438
 8565TIP3    H125638   5.236   2.723  -0.045 -1.0567 -0.7722  0.0065
 8565TIP3    H225639   5.322   2.710   0.079  0.8723  2.2501 -0.8931
 8566TIP3   OH225640   5.585   5.988   0.414  0.0604  0.4544 -0.2540
 8566TIP3    H125641   5.521   5.942   0.468  0.1095  0.4286 -0.2166
 8566TIP3    H225642   5.620   5.920   0.356  1.9678 -0.1773  1.5011
 8567TIP3   OH225643   6.864   5.689   5.326 -0.2581 -0.6066 -0.5084
 8567TIP3    H125644   6.792   5.743   5.358  0.2935  0.0029 -0.2720
 8567TIP3    H225645   6.821   5.616   5.281 -1.0231 -0.4674 -0.0234
 8568TIP3   OH225646   5.308   7.628   3.221  0.5141  0.0737  0.1663
 8568TIP3    H125647   5.346   7.543   3.243 -0.3885 -0.3493  0.1340
 8568TIP3    H225648   5.304   7.627   3.125 -0.4223 -0.2707  0.2022
 8569TIP3   OH225649   5.796   1.250   5.548 -0.0005 -0.6658 -0.1375
 8569TIP3    H125650   5.703   1.234   5.559 -0.3088  1.2040  0.3940
 8569TIP3    H225651   5.839   1.187   5.605 -0.9852 -0.9222  0.3280
 8570TIP3   OH225652   6.520   7.118   6.495 -0.2231  0.8001 -0.0294
 8570TIP3    H125653   6.562   7.119   6.581 -0.2707  2.0336  0.0022
 8570TIP3    H225654   6.427   7.128   6.514 -0.2975  0.4130 -0.1961
 8571TIP3   OH225655   7.667   2.624   6.778 -0.0537 -0.5472 -0.0746
 8571TIP3    H125656   7.616   2.603   6.700 -1.6965  0.5649  0.6442
 8571TIP3    H225657   7.755   2.641   6.745  0.0371 -2.9291 -1.3067
 8572TIP3   OH225658   3.872   3.419   6.096 -0.8367  0.3602 -0.6161
 8572TIP3    H125659   3.798   3.359   6.092 -0.8044 -0.1072  2.8399
 8572TIP3    H225660   3.879   3.442   6.189  1.7780  2.4167 -1.2082
 8573TIP3   OH225661   4.022   1.223   0.312  0.2723  0.0970 -0.1084
 8573TIP3    H125662   4.110   1.259   0.301  0.0576  1.4033  1.8942
 8573TIP3    H225663   4.004   1.231   0.406 -1.7678 -0.6666 -0.3683
 8574TIP3   OH225664   1.806   3.860   3.921  0.2531 -0.1730  0.5662
 8574TIP3    H125665   1.816   3.949   3.954  1.8595 -0.6749  1.5122
 8574TIP3    H225666   1.860   3.806   3.978 -1.7302 -2.0012  0.8887
 8575TIP3   OH225667   5.417   3.026   2.911 -0.1555 -0.6845 -0.1051
 8575TIP3    H125668   5.340   2.979   2.880 -0.8679  0.8310 -0.7400
 8575TIP3    H225669   5.481   2.958   2.928 -1.2900 -1.9099 -0.5506
 8576TIP3   OH225670   7.722   0.460   5.805  0.8779 -0.4446  0.0659
 8576TIP3    H125671   7.743   0.519   5.732  0.5941 -0.0354  0.3194
 8576TIP3    H225672   7.764   0.500   5.881  1.3934 -1.0079  0.0896
 8577TIP3   OH225673   0.584   6.597   4.104 -0.1776  0.1064  0.9621
 8577TIP3    H125674   0.667   6.625   4.064  0.2270 -0.8667  1.0865
 8577TIP3    H225675   0.603   6.596   4.198 -1.0584  2.1700  1.2151
 8578TIP3   OH225676   1.904   0.352   3.081  0.1527  0.1411 -0.0492
 8578TIP3    H125677   1.962   0.425   3.102 -1.6220  1.3987  0.6246
 8578TIP3    H225678   1.867   0.374   2.995 -0.0452 -0.2178 -0.0602
 8579TIP3   OH225679   3.227   5.540   1.578  0.4279 -0.2278 -0.5235
 8579TIP3    H125680   3.205   5.469   1.518 -0.5088  0.3087 -0.8303
 8579TIP3    H225681   3.264   5.608   1.521 -1.1748  0.5932 -0.6490
 8580TIP3   OH225682   4.748   0.186   1.137 -0.6590  0.5233 -0.5060
 8580TIP3    H125683   4.746   0.178   1.042 -0.2855  0.4524 -0.5100
 8580TIP3    H225684   4.771   0.098   1.167 -1.3732  0.3957 -0.3234
 8581TIP3   OH225685   3.521   5.529   2.626 -0.5493 -0.6214 -0.5636
 8581TIP3    H125686   3.550   5.556   2.539  1.2974  0.3860  0.3069
 8581TIP3    H225687   3.561   5.592   2.685 -2.8347 -0.4700  0.9616
 8582TIP3   OH225688   3.848   2.066   1.225  0.1554  0.1980 -0.3174
 8582TIP3    H125689   3.817   2.034   1.310 -0.8416  0.1923 -0.6721
 8582TIP3    H225690   3.926   2.014   1.207  0.4873  0.3243  0.6746
 8583TIP3   OH225691   4.748   6.237   2.630 -0.2563 -0.0639  0.1241
 8583TIP3    H125692   4.775   6.161   2.683  0.1036  0.6287  0.9649
 8583TIP3    H225693   4.821   6.298   2.638  0.4536 -0.5070 -2.3916
 8584TIP3   OH225694   3.726   2.007   4.730  0.3185  0.3567  0.0164
 8584TIP3    H125695   3.704   1.914   4.729  1.0308  0.1790 -0.5925
 8584TIP3    H225696   3.643   2.052   4.740 -0.2622 -0.3032 -1.5450
 8585TIP3   OH225697   7.523   4.649   1.640  0.5407 -0.3299  0.0313
 8585TIP3    H125698   7.587   4.720   1.640  0.1497  0.0985  2.0605
 8585TIP3    H225699   7.549   4.593   1.567  1.2672  1.5200 -1.2008
 8586TIP3   OH225700   7.297   5.899   6.174  0.5143  0.2621  0.5397
 8586TIP3    H125701   7.392   5.898   6.187  0.6122  1.8909  0.2003
 8586TIP3    H225702   7.286   5.937   6.087 -0.4620  0.7847  0.8802
 8587TIP3   OH225703   5.530   6.654   6.692 -0.0906 -0.2097 -0.5520
 8587TIP3    H125704   5.563   6.646   6.782  0.9154  0.4371 -0.8521
 8587TIP3    H225705   5.513   6.748   6.681  0.4686 -0.1836 -1.2624
 8588TIP3   OH225706   8.110   4.574   5.055  0.2790  0.2680  0.1205
 8588TIP3    H125707   8.136   4.483   5.070 -2.0503 -0.8434 -1.8763
 8588TIP3    H225708   8.090   4.607   5.143 -1.8852 -2.2295  0.7055
 8589TIP3   OH225709   4.732   0.290   6.412 -0.3210 -0.6119  0.1848
 8589TIP3    H125710   4.710   0.198   6.405  0.8414 -0.8473 -0.8007
 8589TIP3    H225711   4.712   0.327   6.326  0.9393 -0.3791 -0.0432
 8590TIP3   OH225712   5.668   2.589   2.867 -0.8220 -0.1698  0.1218
 8590TIP3    H125713   5.676   2.503   2.825 -2.0668 -0.0784 -0.3362
 8590TIP3    H225714   5.631   2.646   2.800 -1.4959  0.3280  0.8915
 8591TIP3   OH225715   7.649   0.468   3.394 -0.1396 -0.5060  0.0140
 8591TIP3    H125716   7.657   0.391   3.449  2.4958 -0.9930 -0.8673
 8591TIP3    H225717   7.739   0.488   3.368 -0.9058  1.8813 -1.1398
 8592TIP3   OH225718   6.732   4.028   2.406  0.3612  0.4997 -0.0292
 8592TIP3    H125719   6.637   4.014   2.409  0.5969 -3.0456 -2.7750
 8592TIP3    H225720   6.745   4.094   2.338 -0.1026  0.7305  0.1044
 8593TIP3   OH225721   4.578   5.318   5.239  0.5821 -0.9406 -0.1993
 8593TIP3    H125722   4.637   5.328   5.314  1.2517  0.4175 -0.8745
 8593TIP3    H225723   4.555   5.407   5.214 -0.6944 -1.4095 -0.8138
 8594TIP3   OH225724   1.715   5.627   5.418  0.7748  0.2529 -0.3501
 8594TIP3    H125725   1.766   5.668   5.348  0.8983 -0.2010 -0.5329
 8594TIP3    H225726   1.635   5.678   5.422  1.5671  1.4933  0.4916
 8595TIP3   OH225727   2.104   1.661   0.316 -0.3690 -0.7720  0.3407
 8595TIP3    H125728   2.064   1.738   0.277 -0.5206 -1.1848 -0.3433
 8595TIP3    H225729   2.131   1.607   0.241  2.6070  0.0406  0.7138
 8596TIP3   OH225730   1.291   2.768   6.390  0.5673 -0.0793 -0.3190
 8596TIP3    H125731   1.224   2.787   6.456  0.2634 -0.5235 -0.4981
 8596TIP3    H225732   1.369   2.746   6.442  0.2648 -0.6583 -0.0995
 8597TIP3   OH225733   1.222   7.042   0.812 -0.1951  0.1628 -0.1075
 8597TIP3    H125734   1.272   6.961   0.802 -1.4004 -0.5591 -0.5411
 8597TIP3    H225735   1.238   7.090   0.731  1.4645  0.9413  0.6331
 8598TIP3   OH225736   2.486   0.501   3.177  0.2412 -0.2643 -0.1097
 8598TIP3    H125737   2.403   0.472   3.140 -0.5525  0.4701  1.0594
 8598TIP3    H225738   2.525   0.555   3.109 -0.7242  0.2382 -0.2785
 8599TIP3   OH225739   3.653   4.117   2.497 -0.2034 -0.4805 -0.1054
 8599TIP3    H125740   3.697   4.116   2.412 -0.2264  0.1956 -0.1377
 8599TIP3    H225741   3.559   4.121   2.476 -0.2074 -0.2641 -0.0497
 8600TIP3   OH225742   1.671   1.752   1.592 -0.1553  0.2920 -0.3397
 8600TIP3    H125743   1.690   1.791   1.677  1.1797  0.6908 -0.8090
 8600TIP3    H225744   1.724   1.672   1.589 -0.1088  0.3376 -0.8378
 8601TIP3   OH225745   2.307   4.172   4.677  0.2196 -0.2788  0.4068
 8601TIP3    H125746   2.293   4.100   4.738  0.6233  1.3001  2.4837
 8601TIP3    H225747   2.393   4.207   4.700 -0.1300  1.1013 -0.2661
 8602TIP3   OH225748   5.351   0.782   3.495  0.6048 -0.5086 -0.2498
 8602TIP3    H125749   5.276   0.799   3.552  0.9639 -0.1276  0.1103
 8602TIP3    H225750   5.361   0.862   3.444  2.0284  0.2467  1.1436
 8603TIP3   OH225751   7.549   7.021   1.034 -0.3397 -0.3130  0.8417
 8603TIP3    H125752   7.455   7.035   1.047 -0.8539 -1.7195 -0.9717
 8603TIP3    H225753   7.568   6.940   1.082 -0.3189 -0.6649  0.2486
 8604TIP3   OH225754   4.982   7.611   1.885  0.1256 -0.2650 -0.4465
 8604TIP3    H125755   4.932   7.685   1.919  0.5365 -0.1447 -0.0791
 8604TIP3    H225756   4.953   7.600   1.795  0.6115  0.8365 -0.7534
 8605TIP3   OH225757   5.113   4.778   2.547 -0.3958  0.1357  0.1148
 8605TIP3    H125758   5.159   4.762   2.464 -1.1293  0.9754 -0.4813
 8605TIP3    H225759   5.084   4.692   2.576  1.6834 -0.4493  0.6137
 8606TIP3   OH225760   3.714   3.666   1.946  0.2579 -0.4627 -0.1346
 8606TIP3    H125761   3.653   3.738   1.962  0.1037  0.2145 -3.0563
 8606TIP3    H225762   3.679   3.593   1.996 -2.2862  0.2442 -0.7031
 8607TIP3   OH225763   5.973   1.543   3.506 -0.9481  0.0106 -0.5722
 8607TIP3    H125764   5.976   1.495   3.588 -1.0235 -1.3168 -1.3300
 8607TIP3    H225765   5.884   1.581   3.504 -0.4041  1.4828  0.7093
 8608TIP3   OH225766   0.980   6.251   3.065  0.2951  0.2888  0.0530
 8608TIP3    H125767   1.001   6.221   2.976  0.1404 -0.7354  0.3496
 8608TIP3    H225768   0.947   6.340   3.053 -0.7527 -0.2125 -1.0417
 8609TIP3   OH225769   2.746   0.860   3.671  0.4865  0.2370  0.5718
 8609TIP3    H125770   2.809   0.815   3.615 -1.2797  0.6013 -1.8321
 8609TIP3    H225771   2.784   0.947   3.684  0.6770  0.3263 -0.5274
 8610TIP3   OH225772   1.420   5.660   5.998 -0.1907 -0.2419 -0.3947
 8610TIP3    H125773   1.377   5.585   6.040  1.6206 -1.0901  0.0189
 8610TIP3    H225774   1.482   5.692   6.064  1.2322 -0.2972 -1.6611
 8611TIP3   OH225775   4.346   2.550   3.274 -0.6873 -0.1116  0.9566
 8611TIP3    H125776   4.288   2.492   3.224 -1.9490 -0.2912  2.5591
 8611TIP3    H225777   4.292   2.582   3.346  0.6385  1.3405  1.3568
 8612TIP3   OH225778   2.443   4.420   4.865  0.3490 -0.2257  0.3524
 8612TIP3    H125779   2.398   4.336   4.877 -1.7329  0.5999 -1.0465
 8612TIP3    H225780   2.391   4.482   4.917 -0.3840  0.8062 -1.5222
 8613TIP3   OH225781   0.145   1.692   2.417  0.2850  0.6210  0.0120
 8613TIP3    H125782   0.190   1.710   2.499  0.5319  0.5976 -0.1174
 8613TIP3    H225783   0.054   1.675   2.443  0.3085  0.8566  0.2534
 8614TIP3   OH225784   2.974   4.723   2.834 -0.8136  0.1965  0.6445
 8614TIP3    H125785   3.042   4.702   2.771 -1.4509  4.0270 -1.6508
 8614TIP3    H225786   3.013   4.791   2.889 -1.5754 -0.3027  1.8495
 8615TIP3   OH225787   7.790   0.139   0.794  0.2187  0.2645  0.2096
 8615TIP3    H125788   7.793   0.058   0.745  3.7095  0.7911 -0.7116
 8615TIP3    H225789   7.819   0.206   0.732 -1.1393  2.0347  1.3563
 8616TIP3   OH225790   5.000   5.756   3.967 -0.3891 -0.1644  0.1976
 8616TIP3    H125791   5.071   5.808   4.006  0.3284 -1.2497  0.3846
 8616TIP3    H225792   4.931   5.820   3.949 -0.8326  0.4219  3.3604
 8617TIP3   OH225793   0.734   7.409   6.369 -0.1998  0.1381  0.1088
 8617TIP3    H125794   0.644   7.393   6.395 -0.4033  0.3047 -0.4898
 8617TIP3    H225795   0.786   7.352   6.426 -0.7515 -0.7539 -0.2593
 8618TIP3   OH225796   4.768   0.104   5.214  0.0553  0.3294  0.1942
 8618TIP3    H125797   4.686   0.110   5.262  0.9797 -1.8409  2.2406
 8618TIP3    H225798   4.809   0.190   5.226 -1.1002  0.8167  0.7251
 8619TIP3   OH225799   8.268   5.219   1.211 -0.4205  0.4287 -0.2903
 8619TIP3    H125800   8.265   5.285   1.280 -0.3566 -0.5243  0.6553
 8619TIP3    H225801   8.354   5.231   1.170 -0.3563  0.8365 -0.0448
 8620TIP3   OH225802   6.085   7.300   2.744 -0.2488 -0.1999  0.1784
 8620TIP3    H125803   6.001   7.273   2.708  0.4686 -0.8724 -1.0775
 8620TIP3    H225804   6.134   7.219   2.756  0.0661  0.1421  1.3370
 8621TIP3   OH225805   1.878   5.417   6.073  0.3467 -0.1115 -0.0990
 8621TIP3    H125806   1.904   5.494   6.022 -0.8176  0.9000  0.7538
 8621TIP3    H225807   1.880   5.345   6.011 -0.4879  0.9648 -1.4456
 8622TIP3   OH225808   8.238   1.980   3.604  0.2260  0.3638 -0.5714
 8622TIP3    H125809   8.186   2.057   3.625 -1.8714 -1.4134  1.3098
 8622TIP3    H225810   8.320   1.993   3.654 -0.3105  1.1382  0.1445
 8623TIP3   OH225811   0.392   1.766   4.820 -0.1453  0.0159  0.2069
 8623TIP3    H125812   0.376   1.782   4.727  0.3239 -0.7400 -0.0213
 8623TIP3    H225813   0.334   1.826   4.866 -1.5306 -0.6802 -0.5661
 8624TIP3   OH225814   5.710   7.628   0.451 -0.8443 -0.1602 -0.3343
 8624TIP3    H125815   5.751   7.608   0.366 -0.2751  0.4532 -0.2138
 8624TIP3    H225816   5.774   7.683   0.496  0.1591 -2.8288  1.7010
 8625TIP3   OH225817   6.873   2.160   3.186  0.0629 -0.2415  0.2016
 8625TIP3    H125818   6.834   2.132   3.269 -0.9278 -1.8427 -0.7603
 8625TIP3    H225819   6.944   2.098   3.171  1.5868  1.2742  0.8017
 8626TIP3   OH225820   6.788   4.373   1.259 -0.3056 -0.3035 -0.5482
 8626TIP3    H125821   6.782   4.277   1.260 -1.0772 -0.2531  0.4144
 8626TIP3    H225822   6.698   4.403   1.266 -0.0052  0.5037  0.0110
 8627TIP3   OH225823   3.009   7.253   4.096 -0.7747  0.3641 -0.1477
 8627TIP3    H125824   3.000   7.326   4.159  1.1681  0.8083 -0.3134
 8627TIP3    H225825   3.100   7.258   4.067 -0.5265 -2.2634 -0.0467
 8628TIP3   OH225826   7.856   5.577   5.976 -0.4822  0.5888  0.2437
 8628TIP3    H125827   7.824   5.539   6.058  0.9130  0.8049  0.9313
 8628TIP3    H225828   7.820   5.520   5.908 -1.7077  0.4302  0.9930
 8629TIP3   OH225829   5.630   3.490   5.405 -0.3358 -0.3460  0.1367
 8629TIP3    H125830   5.557   3.506   5.345  0.2831  1.6204 -0.1662
 8629TIP3    H225831   5.705   3.475   5.348  0.0697  0.6056  0.4106
 8630TIP3   OH225832   7.711   0.256   3.593  0.4210 -0.1557 -0.1095
 8630TIP3    H125833   7.795   0.245   3.637  0.2167 -1.1613  0.0632
 8630TIP3    H225834   7.650   0.280   3.663  0.4296 -0.0929 -0.1234
 8631TIP3   OH225835   8.169   4.889   0.509 -0.2411 -0.6037 -0.2715
 8631TIP3    H125836   8.084   4.847   0.491 -1.7328  2.1784 -0.3563
 8631TIP3    H225837   8.178   4.885   0.604 -0.4065 -1.0625 -0.2750
 8632TIP3   OH225838   3.132   6.794   5.488  0.0605 -0.0694 -0.1014
 8632TIP3    H125839   3.143   6.860   5.556 -0.6715  0.6439 -0.6536
 8632TIP3    H225840   3.219   6.785   5.449  0.9547 -1.8313  2.0782
 8633TIP3   OH225841   2.633   6.480   5.212  0.0068 -0.4721 -0.0248
 8633TIP3    H125842   2.699   6.428   5.167 -0.5956 -0.8275 -0.5231
 8633TIP3    H225843   2.553   6.428   5.206 -1.1549  1.3755 -2.4237
 8634TIP3   OH225844   2.191   3.390   3.994  0.3500  0.4866  0.2818
 8634TIP3    H125845   2.130   3.381   4.067  0.1923  0.5029  0.1535
 8634TIP3    H225846   2.140   3.361   3.917  0.5125  0.4723  0.1794
 8635TIP3   OH225847   0.640   0.592   0.668 -0.3646  0.6330 -0.4108
 8635TIP3    H125848   0.689   0.674   0.674  0.3209  0.2131 -0.1304
 8635TIP3    H225849   0.623   0.581   0.575  0.0433  0.8124 -0.5104
 8636TIP3   OH225850   0.790   1.479   4.588  0.5221  0.0678 -0.6615
 8636TIP3    H125851   0.765   1.452   4.500 -3.5399 -0.6642  0.4796
 8636TIP3    H225852   0.782   1.574   4.587  1.4061  0.1464 -1.2717
 8637TIP3   OH225853   6.991   5.897   1.650  0.1603  0.5396  0.0869
 8637TIP3    H125854   7.070   5.932   1.691  1.6942 -0.8397 -1.5033
 8637TIP3    H225855   7.000   5.802   1.660 -0.1524  0.2449 -2.0209
 8638TIP3   OH225856   1.239   0.754   4.843  0.3179 -0.7879  0.1574
 8638TIP3    H125857   1.175   0.818   4.813  1.3005  0.0907 -0.1223
 8638TIP3    H225858   1.208   0.727   4.930  0.0273  0.2590  0.3891
 8639TIP3   OH225859   3.437   5.557   1.024  0.0562  0.0615 -0.2063
 8639TIP3    H125860   3.418   5.650   1.011  0.2150  0.0586 -0.4731
 8639TIP3    H225861   3.444   5.521   0.935 -0.0405 -0.2141 -0.1055
 8640TIP3   OH225862   5.263   6.841   4.126 -0.1562 -0.1029  0.0462
 8640TIP3    H125863   5.176   6.880   4.138 -1.4940 -3.1162  1.1790
 8640TIP3    H225864   5.250   6.775   4.059  1.5320 -0.0136 -0.4141
 8641TIP3   OH225865   0.427   5.690   6.663  0.3417  0.1146  0.0108
 8641TIP3    H125866   0.506   5.715   6.712  1.6316 -1.9808 -0.8610
 8641TIP3    H225867   0.426   5.749   6.588  0.7323  0.5692  0.3510
 8642TIP3   OH225868   4.301   6.501   0.687 -0.1287  0.1816 -0.0425
 8642TIP3    H125869   4.324   6.493   0.779 -1.0698  0.3412  0.2191
 8642TIP3    H225870   4.318   6.414   0.651  0.6495  0.2356  0.1759
 8643TIP3   OH225871   4.484   5.282   1.419 -0.1273 -0.1741  0.2900
 8643TIP3    H125872   4.446   5.369   1.434 -0.9660 -0.2312 -1.3377
 8643TIP3    H225873   4.571   5.300   1.384 -0.5889  0.0454 -0.7842
 8644TIP3   OH225874   1.491   3.976   6.313 -0.0857  0.0894 -0.1289
 8644TIP3    H125875   1.441   4.038   6.260  0.5793 -0.1833 -1.0990
 8644TIP3    H225876   1.500   4.019   6.398 -0.3863  0.9365 -0.5167
 8645TIP3   OH225877   5.691   6.028   1.431 -0.1567  0.1665 -0.7333
 8645TIP3    H125878   5.743   6.020   1.351 -0.1944  0.1038 -0.7526
 8645TIP3    H225879   5.730   6.101   1.479 -1.0331  1.1664 -1.4929
 8646TIP3   OH225880   7.117   4.736   0.613 -0.4420  0.2532 -0.1273
 8646TIP3    H125881   7.064   4.785   0.676 -1.8005  0.2111 -1.1959
 8646TIP3    H225882   7.205   4.775   0.620 -0.7462  0.7584  1.2152
 8647TIP3   OH225883   3.393   5.413   3.036  0.5729  0.2944  0.1918
 8647TIP3    H125884   3.429   5.344   3.091 -0.1341  1.4114  2.1430
 8647TIP3    H225885   3.358   5.477   3.097 -2.4456  0.4980 -1.5449
 8648TIP3   OH225886   5.304   1.772   6.617 -0.2939 -0.5422 -0.3788
 8648TIP3    H125887   5.327   1.701   6.557 -0.0785  0.0853 -1.0445
 8648TIP3    H225888   5.230   1.738   6.667 -1.6833 -0.4086 -2.2704
 8649TIP3   OH225889   6.671   0.915   3.794 -0.4344  0.0588  0.4846
 8649TIP3    H125890   6.631   0.830   3.811  0.9550 -0.8969 -0.8712
 8649TIP3    H225891   6.596   0.974   3.781 -1.4159 -0.7667  2.0796
 8650TIP3   OH225892   1.961   3.215   2.044 -0.1025 -0.7345  0.0804
 8650TIP3    H125893   2.020   3.222   1.969 -0.0688 -0.0705  0.1671
 8650TIP3    H225894   1.883   3.264   2.019  0.8103  1.5275  1.3452
 8651TIP3   OH225895   2.955   2.676   4.131 -0.1382 -0.4820  0.0557
 8651TIP3    H125896   2.942   2.660   4.225  0.7515 -3.1766 -0.1861
 8651TIP3    H225897   2.873   2.649   4.091 -0.5075  0.6424  0.0329
 8652TIP3   OH225898   0.033   5.171   5.602  1.1818  0.0152  0.3207
 8652TIP3    H125899   0.125   5.189   5.622  1.0183  0.1560  0.9557
 8652TIP3    H225900  -0.016   5.223   5.665  0.6067  1.7219 -1.4199
 8653TIP3   OH225901   4.708   7.205   3.503  0.2006 -0.2852 -0.4803
 8653TIP3    H125902   4.746   7.228   3.418  0.7106 -0.4334 -0.2951
 8653TIP3    H225903   4.783   7.196   3.562 -0.2876  3.1488  0.8661
 8654TIP3   OH225904   1.808   0.285   0.132 -0.2281  0.1864  0.5230
 8654TIP3    H125905   1.735   0.269   0.192 -0.5835 -1.0740 -0.2092
 8654TIP3    H225906   1.848   0.198   0.120 -1.0093  0.1239 -2.1282
 8655TIP3   OH225907   5.569   4.287   6.062 -0.1787 -0.0005  0.5438
 8655TIP3    H125908   5.574   4.247   6.149 -0.5232  0.7120  0.8987
 8655TIP3    H225909   5.567   4.381   6.079  0.8675  0.1851 -0.2953
 8656TIP3   OH225910   1.026   6.403   2.573  0.4717  0.5557 -0.5069
 8656TIP3    H125911   0.964   6.335   2.547  0.5892  0.0421  0.5199
 8656TIP3    H225912   1.001   6.480   2.521 -0.1673 -0.0314 -1.0862
 8657TIP3   OH225913   2.648   7.760   2.087 -0.5028  0.6581 -0.1908
 8657TIP3    H125914   2.722   7.808   2.126  0.0117  1.6174 -2.2122
 8657TIP3    H225915   2.686   7.678   2.057 -0.3274  0.9717 -0.8491
 8658TIP3   OH225916   5.299   4.636   5.221 -0.1895  0.0481 -0.4510
 8658TIP3    H125917   5.290   4.565   5.285 -0.4297  2.0349  1.8558
 8658TIP3    H225918   5.211   4.673   5.215  0.2144  1.0091 -0.5337
 8659TIP3   OH225919   5.739   4.457   0.536  0.3629  0.3557 -0.2934
 8659TIP3    H125920   5.647   4.450   0.562 -0.3602  1.3493 -2.3662
 8659TIP3    H225921   5.738   4.445   0.441  2.3766  0.4306 -0.3663
 8660TIP3   OH225922   4.322   1.967   2.868 -0.2906  0.0674  0.0487
 8660TIP3    H125923   4.351   1.877   2.877 -0.2936 -0.0569 -1.0826
 8660TIP3    H225924   4.368   2.000   2.790  0.7932  1.4841  1.2273
 8661TIP3   OH225925   5.656   0.690   5.919 -0.4128  0.0823 -0.6942
 8661TIP3    H125926   5.744   0.677   5.955 -0.3126  0.4181 -0.8136
 8661TIP3    H225927   5.600   0.633   5.972  0.1270 -1.5582 -1.7831
 8662TIP3   OH225928   4.406   5.820   3.026 -0.3441  0.2927 -0.4100
 8662TIP3    H125929   4.329   5.873   3.006 -1.8231 -0.7398  2.0126
 8662TIP3    H225930   4.407   5.817   3.122  2.8430  0.3755 -0.3564
 8663TIP3   OH225931   4.798   4.031   0.001 -0.2136  0.1352 -0.2006
 8663TIP3    H125932   4.710   4.000  -0.020 -1.3661  2.4218  0.9551
 8663TIP3    H225933   4.791   4.069   0.088  1.7046  1.2375 -0.4586
 8664TIP3   OH225934   5.919   3.697   1.187  0.0232  0.2228 -0.4563
 8664TIP3    H125935   5.872   3.777   1.163  0.5977  1.4809  2.2455
 8664TIP3    H225936   5.851   3.639   1.220  0.0089  1.3090  1.6164
 8665TIP3   OH225937   2.784   1.379   5.811 -0.1284 -0.3234 -0.3950
 8665TIP3    H125938   2.755   1.329   5.888  1.3353  1.4801  1.4532
 8665TIP3    H225939   2.850   1.323   5.770 -0.5943 -1.1321 -0.0544
 8666TIP3   OH225940   2.554   2.852   2.090 -0.1393 -0.0861 -0.5553
 8666TIP3    H125941   2.530   2.765   2.122 -1.0358 -0.2040 -1.4915
 8666TIP3    H225942   2.612   2.835   2.016  1.7816  0.1797  0.8184
 8667TIP3   OH225943   7.153   3.160   1.716 -0.6006  0.5437 -0.3366
 8667TIP3    H125944   7.213   3.228   1.749  1.3817 -1.7785  1.2204
 8667TIP3    H225945   7.077   3.165   1.774 -0.0887  0.8754  0.3175
 8668TIP3   OH225946   7.820   2.763   4.065 -0.1005 -0.3135 -0.2395
 8668TIP3    H125947   7.799   2.676   4.031  1.3981 -1.3840  1.3701
 8668TIP3    H225948   7.844   2.814   3.988  0.8641 -1.9234 -1.0604
 8669TIP3   OH225949   1.224   1.763   0.317  0.0153  0.2686 -0.0017
 8669TIP3    H125950   1.246   1.673   0.343  0.7526  0.9923  2.1129
 8669TIP3    H225951   1.176   1.754   0.235  3.0806 -1.8579 -1.7843
 8670TIP3   OH225952   5.068   4.123   1.119 -0.2097 -0.2532  0.2764
 8670TIP3    H125953   5.040   4.033   1.102 -2.3349  0.9327 -3.5312
 8670TIP3    H225954   4.987   4.170   1.137  0.6808  1.2617  0.4861
 8671TIP3   OH225955   3.329   3.960   3.998  0.0231  0.6665  0.6780
 8671TIP3    H125956   3.397   3.961   4.066 -1.0344 -0.4804  1.7849
 8671TIP3    H225957   3.247   3.974   4.046 -0.8733 -1.3175 -0.1794
 8672TIP3   OH225958   0.503   0.793   1.567 -0.3033  0.2036 -0.1219
 8672TIP3    H125959   0.547   0.828   1.489  1.0073  2.8610  1.6495
 8672TIP3    H225960   0.566   0.732   1.605 -0.3619 -0.0245 -0.3889
 8673TIP3   OH225961   6.101   1.116   6.496 -0.1057 -0.2660  0.2108
 8673TIP3    H125962   6.175   1.056   6.488  1.4392  1.4391  0.8754
 8673TIP3    H225963   6.027   1.069   6.456  1.2963 -2.0647 -0.4148
 8674TIP3   OH225964   4.625   7.316   0.798 -0.8832 -0.2337 -0.3731
 8674TIP3    H125965   4.599   7.335   0.888 -3.0981 -0.6466 -0.8689
 8674TIP3    H225966   4.622   7.401   0.754 -0.0232 -0.0686 -0.1317
 8675TIP3   OH225967   4.829   6.786   1.601  0.3643 -0.3786 -0.1716
 8675TIP3    H125968   4.776   6.840   1.543  0.9731  0.4476  0.0167
 8675TIP3    H225969   4.848   6.707   1.550 -0.1395 -0.2125 -0.6234
 8676TIP3   OH225970   2.706   2.779   0.701 -0.1359 -0.1580  0.1941
 8676TIP3    H125971   2.663   2.731   0.631 -0.8413 -1.8156  1.7041
 8676TIP3    H225972   2.775   2.720   0.732  1.4385  1.3280 -0.3297
 8677TIP3   OH225973   4.941   2.336   0.802  0.2565  0.3156  0.0909
 8677TIP3    H125974   4.967   2.425   0.777 -0.4576  0.7171  0.7323
 8677TIP3    H225975   4.929   2.291   0.718  0.2116  0.9512 -0.2533
 8678TIP3   OH225976   5.974   1.794   0.808  0.2503 -0.5619 -0.3462
 8678TIP3    H125977   6.043   1.857   0.829 -1.8217  1.4364  0.9538
 8678TIP3    H225978   5.920   1.837   0.742 -1.1925 -0.9147  0.5316
 8679TIP3   OH225979   7.491   4.267   4.112 -0.0833  0.5216 -0.0519
 8679TIP3    H125980   7.551   4.197   4.140 -1.3236 -0.4993  0.1500
 8679TIP3    H225981   7.477   4.251   4.019 -0.4562  0.4260  0.0183
 8680TIP3   OH225982   2.670   2.610   4.860  0.5835  0.4136  0.0295
 8680TIP3    H125983   2.681   2.667   4.784  0.7344  1.4917  0.8362
 8680TIP3    H225984   2.730   2.645   4.925  0.6946 -0.6996  0.5442
 8681TIP3   OH225985   2.686   5.621   4.700 -0.8789  0.5027  0.2574
 8681TIP3    H125986   2.631   5.664   4.635  0.2927  0.1186 -1.0469
 8681TIP3    H225987   2.718   5.542   4.656  0.9849  0.8942  0.7897
 8682TIP3   OH225988   2.968   2.263   4.288 -0.6610 -0.1556 -0.6771
 8682TIP3    H125989   2.911   2.313   4.230 -2.1209 -1.4529 -0.4070
 8682TIP3    H225990   2.915   2.189   4.317  0.7325 -0.6989  0.6371
 8683TIP3   OH225991   7.627   1.709   5.346 -0.2376 -0.1444 -0.3049
 8683TIP3    H125992   7.590   1.755   5.421 -1.2818 -1.9251  0.3513
 8683TIP3    H225993   7.716   1.687   5.372  0.4020  1.7064 -0.7665
 8684TIP3   OH225994   3.457   6.336   1.349 -0.0469  0.1284 -0.2323
 8684TIP3    H125995   3.395   6.321   1.421  1.1194 -0.9881  0.6026
 8684TIP3    H225996   3.538   6.293   1.379  1.2465  1.8343 -1.1202
 8685TIP3   OH225997   4.224   0.174   4.939 -1.4277  0.2554 -0.1245
 8685TIP3    H125998   4.130   0.188   4.930 -1.6071 -0.1101  1.0041
 8685TIP3    H225999   4.254   0.250   4.988 -1.5874 -0.8016  1.7267
 8686TIP3   OH226000   0.957   1.592   3.129  0.1210  0.2994  0.1556
 8686TIP3    H126001   0.926   1.532   3.197 -1.1993  0.3861 -0.3328
 8686TIP3    H226002   0.885   1.596   3.066 -0.3170  3.1662  0.6645
 8687TIP3   OH226003   5.928   5.271   3.723  0.3658 -0.4444  0.2628
 8687TIP3    H126004   5.838   5.300   3.738  0.6719 -0.4437  2.4818
 8687TIP3    H226005   5.963   5.254   3.811  2.6415 -0.1565 -0.5094
 8688TIP3   OH226006   5.445   0.048  -0.019 -0.1620 -0.1553 -0.0890
 8688TIP3    H126007   5.407  -0.005   0.051  0.3739  1.0022  1.1082
 8688TIP3    H226008   5.434   0.138   0.010  2.2100  0.2737 -0.3833
 8689TIP3   OH226009   7.701   2.277   0.860 -0.0600 -1.2639  0.4702
 8689TIP3    H126010   7.749   2.351   0.823  0.8422 -1.1925  1.6916
 8689TIP3    H226011   7.705   2.210   0.792 -0.9509 -0.1981 -0.6863
 8690TIP3   OH226012   5.961   7.020   5.282  0.2605  0.3873 -0.6272
 8690TIP3    H126013   5.867   7.040   5.277  0.1336 -0.3959 -2.0096
 8690TIP3    H226014   5.992   7.026   5.192  1.4439  0.1553 -0.2572
 8691TIP3   OH226015   3.404   5.290   0.853 -0.5851  0.2101  0.3041
 8691TIP3    H126016   3.316   5.299   0.817 -0.3506  1.1176 -0.0758
 8691TIP3    H226017   3.440   5.213   0.808 -0.4884  1.0048 -1.0400
 8692TIP3   OH226018   6.467   0.272   5.282 -0.3304  0.0999  0.3594
 8692TIP3    H126019   6.415   0.348   5.255 -0.5934  0.6524  2.2497
 8692TIP3    H226020   6.522   0.253   5.206 -1.3946  1.1667 -0.7413
 8693TIP3   OH226021   2.307   1.565   2.610  0.1362 -0.2007  0.4516
 8693TIP3    H126022   2.272   1.653   2.599  1.4195  0.2572 -0.2411
 8693TIP3    H226023   2.271   1.535   2.694 -0.8789  0.6958  0.3581
 8694TIP3   OH226024   2.780   7.455   0.302 -0.1220  0.4610 -0.0489
 8694TIP3    H126025   2.699   7.446   0.252 -0.3518  0.9428  0.2268
 8694TIP3    H226026   2.812   7.543   0.281  0.4898  0.1692 -0.3820
 8695TIP3   OH226027   4.251   7.004   1.162 -0.0171  0.2033  0.3937
 8695TIP3    H126028   4.230   7.087   1.203  1.3958  1.5164 -1.3497
 8695TIP3    H226029   4.202   7.004   1.080  1.6215  0.3824 -0.6503
 8696TIP3   OH226030   6.768   7.629   5.427 -0.0099  0.3736  0.0198
 8696TIP3    H126031   6.706   7.698   5.450  1.0039  1.4863 -0.4689
 8696TIP3    H226032   6.740   7.553   5.479 -1.0581  1.1839  0.6821
 8697TIP3   OH226033   4.412   3.026   2.728 -0.2140  0.0959 -0.6269
 8697TIP3    H126034   4.427   2.949   2.673 -1.1128  0.1156 -0.9181
 8697TIP3    H226035   4.340   3.001   2.786 -0.3049  0.6148 -0.5063
 8698TIP3   OH226036   1.006   6.904   0.586 -0.1634 -0.6943  0.7131
 8698TIP3    H126037   1.050   6.985   0.610 -1.2047 -0.3710  1.5726
 8698TIP3    H226038   1.019   6.897   0.491  0.3602  0.2081  0.7090
 8699TIP3   OH226039   2.760   3.828   6.490 -0.3843 -0.2218  0.5825
 8699TIP3    H126040   2.686   3.885   6.509 -1.3743 -1.0763 -0.6074
 8699TIP3    H226041   2.721   3.743   6.469  1.0449 -1.3178  2.0965
 8700TIP3   OH226042   3.202   4.267   3.900  0.2457  0.4354 -0.0398
 8700TIP3    H126043   3.108   4.267   3.882  0.2507  0.4557 -0.0676
 8700TIP3    H226044   3.237   4.199   3.842  0.2506  0.4405 -0.0431
 8701TIP3   OH226045   3.593   7.443   2.252 -0.1925  0.1044  0.6523
 8701TIP3    H126046   3.603   7.521   2.197  1.3830 -0.7450 -0.3519
 8701TIP3    H226047   3.554   7.476   2.333 -2.4807  1.4304 -0.8619
 8702TIP3   OH226048   8.273   4.530   3.439 -0.0551  0.3948  0.1574
 8702TIP3    H126049   8.282   4.436   3.420  1.8613  0.4172  0.7222
 8702TIP3    H226050   8.254   4.569   3.354 -0.0017 -0.4118 -0.2387
 8703TIP3   OH226051   6.583   3.312   0.569 -0.9253 -0.5317 -0.1495
 8703TIP3    H126052   6.494   3.331   0.540 -0.5694  1.4990 -0.0436
 8703TIP3    H226053   6.572   3.248   0.640 -2.4337  0.8029  0.8839
 8704TIP3   OH226054   3.503   7.027   2.333  0.0803  1.1915 -0.1754
 8704TIP3    H126055   3.534   6.947   2.376  1.2089  1.0831 -1.1350
 8704TIP3    H226056   3.412   7.036   2.362 -0.2247 -0.6967 -0.4002
 8705TIP3   OH226057   6.373   5.413   0.662 -0.0235 -0.0912  0.0875
 8705TIP3    H126058   6.355   5.366   0.743  0.8675  0.9872  0.9513
 8705TIP3    H226059   6.342   5.355   0.593 -1.2018 -0.8524  1.2076
 8706TIP3   OH226060   0.365   2.003   6.018  0.0925  0.4106 -0.2210
 8706TIP3    H126061   0.424   2.024   5.945  0.8627  2.6111  0.9318
 8706TIP3    H226062   0.410   2.038   6.095 -2.2019  1.1538  0.8534
 8707TIP3   OH226063   2.392   1.857   3.236 -0.6401 -0.2536 -0.2933
 8707TIP3    H126064   2.418   1.775   3.278  0.1985  0.3132  0.3295
 8707TIP3    H226065   2.436   1.925   3.287 -2.0621  0.6514 -0.2119
 8708TIP3   OH226066   2.645   1.574   5.296 -0.2606 -0.3204  0.5859
 8708TIP3    H126067   2.599   1.658   5.294  1.6796  0.8659  2.1880
 8708TIP3    H226068   2.578   1.512   5.326 -1.1011  1.1859  2.0786
 8709TIP3   OH226069   7.548   0.361   1.086  0.1185  0.6033  0.1652
 8709TIP3    H126070   7.584   0.418   1.155  2.3852 -0.4224 -0.0550
 8709TIP3    H226071   7.618   0.357   1.021 -1.1098 -0.2338 -1.1360
 8710TIP3   OH226072   6.204   1.954   4.304 -0.0324  0.3701 -0.5544
 8710TIP3    H126073   6.266   1.998   4.245  1.1480  0.4774  0.7082
 8710TIP3    H226074   6.195   2.013   4.378 -1.7025  0.3578 -0.7140
 8711TIP3   OH226075   0.653   7.675   3.613 -0.1027 -0.2977 -0.4534
 8711TIP3    H126076   0.675   7.761   3.576  0.5304 -0.3049 -0.1120
 8711TIP3    H226077   0.559   7.680   3.630 -0.2687 -0.0548 -1.4075
 8712TIP3   OH226078   0.895   4.475   6.215  0.1177  0.3169  0.3562
 8712TIP3    H126079   0.815   4.515   6.180  0.6089 -0.0982 -1.2843
 8712TIP3    H226080   0.865   4.394   6.256 -0.3889  0.5560  0.4816
 8713TIP3   OH226081   1.740   3.332   4.101  0.4201 -0.0939  0.1965
 8713TIP3    H126082   1.731   3.259   4.163  0.7461  0.2052  0.5991
 8713TIP3    H226083   1.662   3.385   4.116 -0.0594 -0.6081 -0.4334
 8714TIP3   OH226084   7.467   6.269   4.002 -0.0365 -0.1339 -0.3780
 8714TIP3    H126085   7.387   6.249   4.050  0.3606 -0.3831  0.1848
 8714TIP3    H226086   7.462   6.363   3.984 -0.7581 -0.2718 -0.9093
 8715TIP3   OH226087   1.878   3.809   6.272 -0.2811  0.4213 -0.6240
 8715TIP3    H126088   1.801   3.755   6.292  1.5565 -2.4521 -0.6528
 8715TIP3    H226089   1.843   3.887   6.230 -3.2034 -0.3799  0.0862
 8716TIP3   OH226090   1.652   2.810   3.563  0.1811  0.8506  0.0557
 8716TIP3    H126091   1.694   2.734   3.522  0.8955  1.5293 -0.5142
 8716TIP3    H226092   1.626   2.865   3.489 -2.5259  0.0866  0.3306
 8717TIP3   OH226093   4.425   2.606   4.895  0.2406 -0.0890  0.0545
 8717TIP3    H126094   4.490   2.629   4.828 -0.3620  0.7977 -0.2435
 8717TIP3    H226095   4.372   2.538   4.854  0.8646 -0.6998  0.2382
 8718TIP3   OH226096   1.672   3.903   2.545 -0.5724  0.3253  0.2746
 8718TIP3    H126097   1.601   3.965   2.561  0.1100  1.5104 -0.9969
 8718TIP3    H226098   1.742   3.932   2.604 -1.0042 -0.6401  1.2906
 8719TIP3   OH226099   7.592   5.696   0.279 -0.2800  0.0674 -0.1588
 8719TIP3    H126100   7.501   5.684   0.307  0.2341 -0.3869  1.4928
 8719TIP3    H226101   7.599   5.789   0.258 -1.1726  0.0628 -0.5187
 8720TIP3   OH226102   7.805   1.328   6.808 -0.0994  0.0007  0.5206
 8720TIP3    H126103   7.768   1.395   6.750  0.1744  0.0283  0.3785
 8720TIP3    H226104   7.786   1.246   6.763  2.4186  0.1317 -0.9615
 8721TIP3   OH226105   5.651   4.979   4.109 -0.0549  0.5943 -0.3518
 8721TIP3    H126106   5.746   4.969   4.117 -0.2296 -0.1650  1.3127
 8721TIP3    H226107   5.639   5.035   4.032  1.6775 -0.2272 -1.2833
 8722TIP3   OH226108   7.071   0.370   4.609  0.2962  0.2958  0.2707
 8722TIP3    H126109   7.159   0.344   4.635 -0.3326 -0.9640  1.3000
 8722TIP3    H226110   7.077   0.464   4.593  1.6144  0.3968  1.2072
 8723TIP3   OH226111   7.233   7.603   4.134  0.7417  1.0521 -0.4596
 8723TIP3    H126112   7.289   7.526   4.132 -1.5612 -0.7583  0.0701
 8723TIP3    H226113   7.209   7.619   4.043  1.0357  0.9912 -0.5459
 8724TIP3   OH226114   3.932   0.361   1.275  0.3468 -0.0721  0.2022
 8724TIP3    H126115   3.961   0.331   1.361 -0.3069 -1.7701 -0.1249
 8724TIP3    H226116   3.969   0.297   1.214 -0.5792  0.1404 -0.6092
 8725TIP3   OH226117   8.177   2.266   5.679 -0.1044 -0.2474  0.0703
 8725TIP3    H126118   8.142   2.211   5.749  0.6592 -0.6927  0.1238
 8725TIP3    H226119   8.220   2.203   5.620  2.0336  0.3798  0.8563
 8726TIP3   OH226120   3.228   5.317   3.755 -0.5799  0.0210  0.1986
 8726TIP3    H126121   3.228   5.303   3.849  0.9020 -0.5249  0.1428
 8726TIP3    H226122   3.220   5.229   3.718 -1.5490  0.2629 -0.1955
 8727TIP3   OH226123   3.064   5.029   3.307 -0.1006  0.4461  0.1701
 8727TIP3    H126124   2.970   5.048   3.312 -0.8314 -2.9122  1.1478
 8727TIP3    H226125   3.070   4.934   3.301  3.2739  0.5306  0.1654
 8728TIP3   OH226126   2.422   6.932   5.216  0.5236  0.6313  0.1053
 8728TIP3    H126127   2.399   7.018   5.180 -1.3863 -0.2268 -0.9133
 8728TIP3    H226128   2.346   6.877   5.195  1.8607 -1.4086  0.3637
 8729TIP3   OH226129   5.808   6.636   6.379  0.7519 -0.1858 -0.3859
 8729TIP3    H126130   5.718   6.617   6.407  1.4706 -0.3583  2.0965
 8729TIP3    H226131   5.806   6.728   6.351 -0.3566 -0.4522 -1.2439
 8730TIP3   OH226132   3.991   2.928   1.802  0.7408  0.3759  0.2102
 8730TIP3    H126133   3.981   2.851   1.857  1.3851 -1.0194 -1.5146
 8730TIP3    H226134   4.026   2.894   1.719 -0.9935  2.2242 -1.4015
 8731TIP3   OH226135   5.560   4.498   3.406  0.2655 -0.1981  0.3925
 8731TIP3    H126136   5.465   4.502   3.416  0.4228  0.2006  2.0843
 8731TIP3    H226137   5.592   4.466   3.491  1.5586 -1.9011 -0.6902
 8732TIP3   OH226138   5.734   7.263   1.299  0.3485 -0.4022  0.0384
 8732TIP3    H126139   5.809   7.276   1.241 -0.0207 -0.9845 -0.5806
 8732TIP3    H226140   5.660   7.300   1.251 -0.1218 -1.7023 -0.2831
 8733TIP3   OH226141   7.652   3.245   0.305  0.6871  0.1718 -0.3822
 8733TIP3    H126142   7.571   3.194   0.300  1.3701 -0.8538 -1.7381
 8733TIP3    H226143   7.631   3.319   0.363 -0.9143 -0.5860  0.0564
 8734TIP3   OH226144   7.312   0.306   6.551  0.1870  0.3192  0.3235
 8734TIP3    H126145   7.270   0.373   6.604  2.0991  2.0536 -0.2126
 8734TIP3    H226146   7.341   0.240   6.614 -1.6966 -0.0563  0.8605
 8735TIP3   OH226147   3.417   5.768   2.888 -0.2397  0.0785 -0.0000
 8735TIP3    H126148   3.506   5.734   2.884 -0.9412 -1.7553 -2.8410
 8735TIP3    H226149   3.365   5.696   2.924 -0.5360  1.5917  2.9724
 8736TIP3   OH226150   0.512   5.013   5.497 -0.2812 -0.3484 -0.0201
 8736TIP3    H126151   0.478   5.071   5.428  0.6723  1.0903  0.6676
 8736TIP3    H226152   0.449   4.941   5.501 -1.1642  0.3024 -1.3527
 8737TIP3   OH226153   8.125   4.345   5.774  0.1199 -0.3712 -0.0532
 8737TIP3    H126154   8.106   4.261   5.732 -0.6072 -0.4541  0.4223
 8737TIP3    H226155   8.173   4.395   5.708 -1.7947 -0.1429 -1.3341
 8738TIP3   OH226156   6.808   1.173   4.672 -0.7510 -0.3349 -0.1406
 8738TIP3    H126157   6.790   1.165   4.579 -1.3427  2.8765 -0.4095
 8738TIP3    H226158   6.898   1.208   4.677 -0.2286 -1.7096  0.5804
 8739TIP3   OH226159   6.165   2.117   2.958  0.4121 -0.3641  0.0495
 8739TIP3    H126160   6.133   2.035   2.919  0.2961 -1.3066  2.0152
 8739TIP3    H226161   6.260   2.112   2.950  0.3454  0.5174 -2.0540
 8740TIP3   OH226162   2.421   3.890   5.356  0.0948 -0.1493 -0.3389
 8740TIP3    H126163   2.352   3.953   5.334 -1.5618 -1.3079  1.2383
 8740TIP3    H226164   2.408   3.818   5.295 -2.5526 -1.9849  2.0780
 8741TIP3   OH226165   5.758   4.034   1.307  0.0967 -0.0563  0.2180
 8741TIP3    H126166   5.796   4.046   1.394 -3.2291 -1.4745  2.0826
 8741TIP3    H226167   5.766   4.119   1.264  1.4333  0.8110  2.0804
 8742TIP3   OH226168   4.178   2.074   5.404  0.4733  0.3514  0.8819
 8742TIP3    H126169   4.121   2.060   5.479 -0.7696  1.0530  0.1018
 8742TIP3    H226170   4.183   1.988   5.361 -0.5309  0.4208  0.6096
 8743TIP3   OH226171   1.818   3.907   5.924 -0.2119  0.1381  0.2431
 8743TIP3    H126172   1.777   3.984   5.885 -0.9387 -0.7338 -0.7459
 8743TIP3    H226173   1.775   3.897   6.009 -2.6772 -1.1837 -1.0516
 8744TIP3   OH226174   0.056   7.807   6.132  0.9916 -0.1630 -0.8172
 8744TIP3    H126175   0.112   7.883   6.147 -0.4117  0.4652  1.9114
 8744TIP3    H226176   0.111   7.732   6.155  1.4601  0.2614 -0.5385
 8745TIP3   OH226177   2.461   2.106   6.507 -0.4233 -0.5595  0.0963
 8745TIP3    H126178   2.466   2.015   6.479  0.0101 -0.3814 -0.4237
 8745TIP3    H226179   2.520   2.153   6.447  0.9532 -0.2545  1.6120
 8746TIP3   OH226180   4.885   4.508   6.541 -0.6455  0.0236  0.3277
 8746TIP3    H126181   4.941   4.574   6.500  0.9836 -0.8668  1.0014
 8746TIP3    H226182   4.880   4.437   6.476  1.0019 -0.8982  1.1345
 8747TIP3   OH226183   1.025   5.821   5.912  0.0168 -0.0581 -0.2706
 8747TIP3    H126184   1.006   5.915   5.905 -0.8537  0.0109  2.0375
 8747TIP3    H226185   0.941   5.778   5.898  0.4794 -0.5646 -1.6828
 8748TIP3   OH226186   0.761   5.308   0.148 -0.6095  0.2962  0.2008
 8748TIP3    H126187   0.810   5.353   0.079 -0.0977  0.5049  0.6911
 8748TIP3    H226188   0.697   5.254   0.102 -2.8944  3.2693 -0.4465
 8749TIP3   OH226189   5.321   2.699   3.576 -0.0272  0.2242  0.6505
 8749TIP3    H126190   5.379   2.628   3.550 -0.2518  0.2284  0.1290
 8749TIP3    H226191   5.359   2.777   3.535 -1.4831 -0.0596 -1.4119
 8750TIP3   OH226192   3.192   2.597   2.975  0.1071 -0.5984 -0.3487
 8750TIP3    H126193   3.153   2.525   2.926 -0.0643 -0.6365 -0.1608
 8750TIP3    H226194   3.141   2.674   2.950  1.2176 -0.2624 -1.6670
 8751TIP3   OH226195   5.331   4.171   0.483 -0.0353 -0.0918 -0.5092
 8751TIP3    H126196   5.302   4.097   0.536 -0.0248 -0.1003 -0.5152
 8751TIP3    H226197   5.285   4.246   0.520  0.0727 -0.0766 -0.4037
 8752TIP3   OH226198   4.822   1.068   3.670  0.4790  0.4743  0.0925
 8752TIP3    H126199   4.771   1.122   3.609  1.2060  1.9801  0.7564
 8752TIP3    H226200   4.905   1.053   3.624  0.1497 -0.3982 -0.2323
 8753TIP3   OH226201   5.146   6.137   3.435 -0.0470  0.1884  0.0874
 8753TIP3    H126202   5.157   6.202   3.365  0.2944  0.9686  0.8459
 8753TIP3    H226203   5.130   6.189   3.513 -0.4018 -0.6782  0.5988
 8754TIP3   OH226204   7.569   5.340   3.104 -0.4504  0.0182 -0.2320
 8754TIP3    H126205   7.533   5.255   3.077 -0.0028  0.5873 -2.8460
 8754TIP3    H226206   7.663   5.332   3.091 -0.2455  0.5221  0.7930
 8755TIP3   OH226207   4.746   4.024   2.840 -0.5669 -0.0570 -0.4251
 8755TIP3    H126208   4.737   3.968   2.763  0.1052  0.4244 -0.8502
 8755TIP3    H226209   4.777   4.108   2.807  2.4251 -0.6399  0.6074
 8756TIP3   OH226210   3.564   2.451   1.742  0.2586 -0.5985 -0.3895
 8756TIP3    H126211   3.645   2.456   1.793 -0.2157 -1.6323  0.4987
 8756TIP3    H226212   3.593   2.449   1.651  1.2974 -1.9483 -0.0498
 8757TIP3   OH226213   1.528   1.906   4.349  0.0195  0.2593 -0.3386
 8757TIP3    H126214   1.455   1.944   4.398  1.1890  1.9653  0.1792
 8757TIP3    H226215   1.591   1.881   4.417 -0.2694 -1.7114 -0.7428
 8758TIP3   OH226216   6.894   0.042   3.878  0.2535 -0.2357  0.7635
 8758TIP3    H126217   6.898   0.114   3.941 -0.9914 -1.5738  2.4973
 8758TIP3    H226218   6.802   0.038   3.852  0.6343 -0.1179 -0.6795
 8759TIP3   OH226219   7.176   1.240   0.933  0.2558 -0.0260 -0.2954
 8759TIP3    H126220   7.097   1.213   0.885  0.1605 -1.5059  0.6333
 8759TIP3    H226221   7.243   1.250   0.866 -0.5124  0.4711 -1.0091
 8760TIP3   OH226222   7.095   1.761   6.050 -0.1501  0.2892  0.2272
 8760TIP3    H126223   7.127   1.828   5.990  0.1718  0.8310  0.9867
 8760TIP3    H226224   7.002   1.781   6.062 -0.2484  0.0898 -0.2033
 8761TIP3   OH226225   4.983   7.210   0.112 -0.2522  0.0096 -0.5703
 8761TIP3    H126226   4.957   7.232   0.023 -0.0006  0.9594 -0.4252
 8761TIP3    H226227   4.905   7.170   0.151 -0.3772 -0.3632 -1.1907
 8762TIP3   OH226228   7.240   2.337   4.462 -0.2618  0.4318  0.3999
 8762TIP3    H126229   7.211   2.283   4.388 -0.3799 -0.6585  1.2164
 8762TIP3    H226230   7.276   2.416   4.422 -1.4754  0.4201 -0.7644
 8763TIP3   OH226231   4.287   3.274   1.378 -0.5000  0.2845 -0.1958
 8763TIP3    H126232   4.302   3.316   1.462 -1.3237 -0.0205  0.1203
 8763TIP3    H226233   4.277   3.181   1.398  1.3936 -0.1041 -0.8960
 8764TIP3   OH226234   6.666   3.047   1.624  0.0533  0.0644 -0.0452
 8764TIP3    H126235   6.661   3.097   1.705  0.4968 -0.2525  0.1819
 8764TIP3    H226236   6.676   2.956   1.654 -0.8841 -0.1822 -0.4439
 8765TIP3   OH226237   3.849   0.202   3.919  0.6249  0.6965 -0.5431
 8765TIP3    H126238   3.882   0.289   3.941  0.4099  0.0645  2.8147
 8765TIP3    H226239   3.894   0.143   3.980 -0.9498 -1.2453 -1.1352
 8766TIP3   OH226240   0.549   3.598   5.235 -0.3303 -0.0641  0.1667
 8766TIP3    H126241   0.535   3.690   5.257  0.0574 -0.1290  0.6988
 8766TIP3    H226242   0.464   3.557   5.247 -0.7682  0.4173 -1.0972
 8767TIP3   OH226243   5.319   4.183   4.027  0.4011 -0.1496 -0.5903
 8767TIP3    H126244   5.247   4.136   3.984 -1.1012  0.1487  1.4429
 8767TIP3    H226245   5.302   4.173   4.121  1.8326  1.7266 -0.0633
 8768TIP3   OH226246   0.195   2.426   5.932  0.4820  0.0631  0.2930
 8768TIP3    H126247   0.272   2.479   5.953  1.1059 -1.6833  3.0208
 8768TIP3    H226248   0.222   2.371   5.859  1.6237 -0.0372  0.7702
 8769TIP3   OH226249   7.264   1.857   6.327  0.1204  0.0781  0.5014
 8769TIP3    H126250   7.176   1.871   6.291  0.1994 -0.2425  0.1800
 8769TIP3    H226251   7.249   1.829   6.417 -0.1555 -1.1943  0.0791
 8770TIP3   OH226252   6.064   0.885   5.339 -0.7176 -0.2918 -0.0957
 8770TIP3    H126253   6.124   0.903   5.412 -0.2779  2.0907 -0.9480
 8770TIP3    H226254   5.977   0.887   5.379 -0.4150 -0.7139  0.6239
 8771TIP3   OH226255   5.445   5.759   1.403  0.3950 -0.2280  0.1935
 8771TIP3    H126256   5.512   5.754   1.471  0.6121 -0.7414 -0.0479
 8771TIP3    H226257   5.363   5.740   1.449  0.0813  2.4397  0.9075
 8772TIP3   OH226258   3.718   3.496   0.896 -0.2883 -0.4727  0.3902
 8772TIP3    H126259   3.692   3.549   0.821 -1.1589 -0.4971  0.6584
 8772TIP3    H226260   3.749   3.559   0.961  0.9978 -0.4903 -0.1716
 8773TIP3   OH226261   2.480   2.637   2.559 -0.0883 -0.4019 -0.3126
 8773TIP3    H126262   2.539   2.705   2.527 -0.3105  0.6054  1.2621
 8773TIP3    H226263   2.403   2.686   2.590  0.2879 -1.1802  2.0691
 8774TIP3   OH226264   4.959   4.080   4.282 -0.2074 -0.2238  0.6839
 8774TIP3    H126265   4.935   4.037   4.200  0.2729  1.6950 -0.5386
 8774TIP3    H226266   4.878   4.121   4.312 -0.7302 -2.0694  1.9883
 8775TIP3   OH226267   5.152   0.542   3.106 -0.1079 -0.1419 -0.3853
 8775TIP3    H126268   5.078   0.494   3.068 -1.0345  1.1552 -0.3022
 8775TIP3    H226269   5.132   0.546   3.199  0.0349  0.2551 -0.3694
 8776TIP3   OH226270   3.818   3.697   1.656 -0.1397 -0.1467  0.0040
 8776TIP3    H126271   3.755   3.761   1.623  0.6881  0.2613 -0.8093
 8776TIP3    H226272   3.829   3.720   1.749 -0.3637  0.4612 -0.1161
 8777TIP3   OH226273   6.389   2.911   4.795 -0.1959  0.5719 -0.4834
 8777TIP3    H126274   6.468   2.900   4.848  0.6862 -0.9600 -2.0371
 8777TIP3    H226275   6.402   2.994   4.749  1.2541 -0.3520 -1.8427
 8778TIP3   OH226276   5.999   4.217   4.629 -0.3634 -0.3356 -0.7543
 8778TIP3    H126277   5.917   4.174   4.655  0.1296 -2.2612 -2.2090
 8778TIP3    H226278   6.025   4.267   4.707 -0.9957 -2.6689  1.0776
 8779TIP3   OH226279   2.615   1.068   2.268 -0.1731  0.6270 -0.0403
 8779TIP3    H126280   2.666   1.000   2.311  0.5892  1.0348 -0.2772
 8779TIP3    H226281   2.675   1.143   2.263 -0.2475  0.6156 -1.7359
 8780TIP3   OH226282   0.502   1.974   1.878  0.0298  0.0721 -0.1891
 8780TIP3    H126283   0.431   2.037   1.866  1.2637  1.5161 -0.1644
 8780TIP3    H226284   0.462   1.889   1.860 -1.5199  0.9163 -0.8802
 8781TIP3   OH226285   1.820   4.343   4.561  0.1929  0.4233  0.0663
 8781TIP3    H126286   1.807   4.364   4.468  0.3288  1.7690  0.3239
 8781TIP3    H226287   1.915   4.348   4.573  0.0495  3.2595  0.8630
 8782TIP3   OH226288   0.802   5.170   4.470 -0.3235 -0.0996  0.0901
 8782TIP3    H126289   0.815   5.213   4.555 -0.4549 -0.0985  0.1087
 8782TIP3    H226290   0.883   5.189   4.422 -1.3634  2.4223 -0.8827
 8783TIP3   OH226291   6.707   1.454   4.795 -0.6990  0.4972  0.2329
 8783TIP3    H126292   6.670   1.380   4.747 -2.3262  1.2391  0.2877
 8783TIP3    H226293   6.774   1.415   4.851  0.4399 -0.5481 -1.7477
 8784TIP3   OH226294   1.636   2.719   3.079 -0.1213 -0.1075 -0.3717
 8784TIP3    H126295   1.663   2.628   3.089  1.2551  0.0688 -1.9499
 8784TIP3    H226296   1.651   2.738   2.986  0.3675  1.9326  0.0847
 8785TIP3   OH226297   2.466   4.120   1.621 -0.3391 -0.8117 -0.7513
 8785TIP3    H126298   2.497   4.089   1.706  0.9167 -0.8862 -1.2159
 8785TIP3    H226299   2.515   4.068   1.557  0.4713  0.8249 -1.5222
 8786TIP3   OH226300   2.209   1.954   6.214  0.0869  0.5448 -0.1295
 8786TIP3    H126301   2.277   1.956   6.147  1.8914 -1.9298  1.4528
 8786TIP3    H226302   2.129   1.933   6.166  0.7364  1.7985 -1.8394
 8787TIP3   OH226303   6.777   2.018   1.048  0.0276 -0.5995 -0.0299
 8787TIP3    H126304   6.778   2.008   1.143 -0.0806  1.9550  0.3042
 8787TIP3    H226305   6.868   2.003   1.021  0.3112 -0.0821  0.6335
 8788TIP3   OH226306   3.099   5.092   0.623  0.5309 -0.4253 -0.3305
 8788TIP3    H126307   3.062   5.157   0.563  1.1332  0.3867  0.1738
 8788TIP3    H226308   3.156   5.141   0.681 -0.6494 -1.0664  1.4725
 8789TIP3   OH226309   8.051   7.552   0.765 -0.4075  0.5593  0.4415
 8789TIP3    H126310   8.001   7.624   0.727 -0.0750  0.7756  0.3993
 8789TIP3    H226311   8.083   7.502   0.690  1.1562  1.6059  0.3497
 8790TIP3   OH226312   3.583   1.698   0.477  1.2517  0.2887 -0.7903
 8790TIP3    H126313   3.489   1.714   0.475  1.3600  0.9541 -0.6900
 8790TIP3    H226314   3.605   1.672   0.388  1.2345  1.6837 -1.2164
 8791TIP3   OH226315   6.320   5.286   5.487 -0.0961  0.5707  0.0766
 8791TIP3    H126316   6.310   5.261   5.579 -0.5572  1.0671  0.1661
 8791TIP3    H226317   6.303   5.206   5.438 -0.2076  0.3882  0.4108
 8792TIP3   OH226318   1.291   1.986   5.880 -0.2137  0.3115  0.1375
 8792TIP3    H126319   1.267   1.969   5.971  1.6030  1.5952  0.9342
 8792TIP3    H226320   1.387   1.994   5.882 -0.2869  2.3660 -1.5015
 8793TIP3   OH226321   1.568   1.442   5.194 -0.2098  0.1321 -0.7055
 8793TIP3    H126322   1.565   1.391   5.114  0.0471 -0.6096 -0.2492
 8793TIP3    H226323   1.593   1.380   5.262 -2.3195  0.3132  0.3200
 8794TIP3   OH226324   8.241   5.028   0.005  0.3135  0.2047 -0.2754
 8794TIP3    H126325   8.152   5.011   0.034 -0.4035  1.2253 -1.7239
 8794TIP3    H226326   8.288   4.946   0.019 -1.0785 -0.6163 -0.3122
 8795TIP3   OH226327   1.444   7.537   1.364 -0.4530  0.0704 -0.2863
 8795TIP3    H126328   1.513   7.473   1.375 -0.4789  0.1328  0.2935
 8795TIP3    H226329   1.363   7.485   1.364 -0.5489  0.1725  1.2368
 8796TIP3   OH226330   2.447   4.965   6.718  0.1697  0.0116 -0.1547
 8796TIP3    H126331   2.368   4.926   6.680  0.2436  0.9585 -1.3388
 8796TIP3    H226332   2.422   4.987   6.808 -1.4741  1.7647 -0.9673
 8797TIP3   OH226333   5.071   2.626   6.704  0.2336  0.0035 -0.0663
 8797TIP3    H126334   5.096   2.667   6.622 -1.3047  0.4671 -0.3377
 8797TIP3    H226335   5.129   2.665   6.770  0.9928  0.1540 -0.8194
 8798TIP3   OH226336   7.085   3.130   1.470 -0.2318  0.8416 -0.2290
 8798TIP3    H126337   7.132   3.113   1.552 -0.8956  1.2944  0.2490
 8798TIP3    H226338   6.996   3.100   1.486  0.0033 -0.5187 -1.3191
 8799TIP3   OH226339   3.872   4.545   6.512 -0.3830 -0.6248  0.2037
 8799TIP3    H126340   3.795   4.572   6.463  0.2058 -0.3042 -0.5641
 8799TIP3    H226341   3.841   4.535   6.602 -1.4154 -0.9351 -0.1699
 8800TIP3   OH226342   4.441   7.401   4.357 -0.4132 -0.1137  0.0521
 8800TIP3    H126343   4.529   7.411   4.391 -0.6264  0.3960  0.4832
 8800TIP3    H226344   4.437   7.461   4.282 -0.8663  1.0919  1.0009
 8801TIP3   OH226345   7.270   6.624   3.432 -0.1943 -0.5746 -0.0180
 8801TIP3    H126346   7.206   6.692   3.453  1.4176  1.0485 -0.0974
 8801TIP3    H226347   7.338   6.633   3.499  2.2317  0.8998 -2.4854
 8802TIP3   OH226348   0.806   1.099   6.754 -0.0236 -0.1772 -0.2751
 8802TIP3    H126349   0.749   1.176   6.746 -0.9470 -0.6999  0.8767
 8802TIP3    H226350   0.779   1.042   6.682 -0.1956  0.0516 -0.3957
 8803TIP3   OH226351   5.820   3.139   4.904 -0.2994  0.4691  0.3948
 8803TIP3    H126352   5.782   3.157   4.990  0.1068  1.1891  0.4354
 8803TIP3    H226353   5.914   3.146   4.918 -0.2116  0.1128 -0.0088
 8804TIP3   OH226354   6.201   3.626   5.350 -0.5391 -0.2463 -0.0785
 8804TIP3    H126355   6.224   3.545   5.303  1.4489  0.5891 -0.6550
 8804TIP3    H226356   6.108   3.638   5.333 -0.6266 -1.8224 -0.9095
 8805TIP3   OH226357   3.532   3.356   5.082  0.3005 -0.2091  0.6937
 8805TIP3    H126358   3.499   3.306   5.157  2.2635 -2.4622  0.1776
 8805TIP3    H226359   3.609   3.402   5.117  1.9211 -2.1792 -0.0933
 8806TIP3   OH226360   5.763   2.032   5.141  0.3218 -0.1029  0.6404
 8806TIP3    H126361   5.726   1.949   5.168 -0.1578 -0.2491 -0.4297
 8806TIP3    H226362   5.688   2.091   5.132  0.5690  0.2067  0.5664
 8807TIP3   OH226363   6.793   1.697   5.786 -0.2148  0.0536  0.1781
 8807TIP3    H126364   6.750   1.776   5.818  2.2628  2.1842 -1.3559
 8807TIP3    H226365   6.803   1.642   5.864  2.5501  3.5160  2.5537
 8808TIP3   OH226366   0.666   3.960   0.114 -0.3747  0.6228  0.2646
 8808TIP3    H126367   0.697   4.041   0.074 -1.1495  0.8953  0.1935
 8808TIP3    H226368   0.664   3.979   0.208  2.5437 -0.3829  0.6483
 8809TIP3   OH226369   4.116   5.101   1.853  0.3451 -0.1553  0.2179
 8809TIP3    H126370   4.092   5.173   1.796  0.6800  0.0934  0.3851
 8809TIP3    H226371   4.038   5.045   1.856  1.1523 -1.6814 -2.7306
 8810TIP3   OH226372   1.080   7.343   6.247  0.1835  0.4511  0.5192
 8810TIP3    H126373   1.164   7.297   6.237  0.3121  1.1742 -3.1459
 8810TIP3    H226374   1.016   7.284   6.207 -0.4791  1.3183  0.2795
 8811TIP3   OH226375   4.058   6.822   2.774  0.1500 -0.0254  0.7877
 8811TIP3    H126376   4.049   6.732   2.803 -0.7415  0.9095  3.7573
 8811TIP3    H226377   4.124   6.860   2.832  1.2388  1.0433 -1.0389
 8812TIP3   OH226378   5.016   1.765   3.789 -0.4954  0.0420  0.5852
 8812TIP3    H126379   5.013   1.694   3.853  0.7581 -0.8056 -0.2627
 8812TIP3    H226380   4.935   1.815   3.805 -0.7854 -0.8281  2.0195
 8813TIP3   OH226381   4.015   3.132   5.726 -0.2014 -0.1986 -0.1405
 8813TIP3    H126382   3.982   3.103   5.640 -2.0717  1.3034  0.0191
 8813TIP3    H226383   3.937   3.137   5.781  0.5816  1.5003  0.8764
 8814TIP3   OH226384   7.250   6.585   6.585  0.1683 -0.1801 -0.5140
 8814TIP3    H126385   7.176   6.530   6.611  0.8457 -0.8042  0.1660
 8814TIP3    H226386   7.213   6.649   6.525 -0.6890 -1.2561 -1.1586
 8815TIP3   OH226387   5.686   4.315   1.647 -0.4812  0.3527  0.6356
 8815TIP3    H126388   5.753   4.383   1.653  0.1443  0.1328 -2.2466
 8815TIP3    H226389   5.615   4.355   1.597  0.2497 -1.1978 -1.8775
 8816TIP3   OH226390   4.125   7.144   0.915 -0.3439  0.2948  0.1052
 8816TIP3    H126391   4.207   7.101   0.891 -0.3517 -1.3693  2.6902
 8816TIP3    H226392   4.087   7.170   0.831  1.2703 -1.7784 -1.3930
 8817TIP3   OH226393   7.543   2.396   4.239 -0.0086  0.1243 -0.1553
 8817TIP3    H126394   7.501   2.326   4.189  0.8115 -0.7240  0.3044
 8817TIP3    H226395   7.475   2.462   4.251 -1.0326 -0.9427  0.0685
 8818TIP3   OH226396   2.847   7.626   1.735 -0.0650  0.4257 -0.1121
 8818TIP3    H126397   2.776   7.571   1.767  1.2179  0.0391  2.2650
 8818TIP3    H226398   2.818   7.715   1.754 -1.1720  0.5232 -1.9547
 8819TIP3   OH226399   5.199   4.096   5.043  0.3424 -0.5990 -0.0567
 8819TIP3    H126400   5.294   4.109   5.038  0.5256 -2.0199 -4.6132
 8819TIP3    H226401   5.189   4.002   5.062 -0.1992 -0.3632  0.8736
 8820TIP3   OH226402   4.829   4.291   3.274 -0.1090  0.1163 -0.2013
 8820TIP3    H126403   4.749   4.240   3.258 -0.9146  1.0383  0.7444
 8820TIP3    H226404   4.822   4.366   3.216 -0.2217  0.4989  0.3010
 8821TIP3   OH226405   0.865   7.323   0.960  0.2109  0.0017 -0.4813
 8821TIP3    H126406   0.776   7.301   0.930  0.1771 -0.7948  0.1659
 8821TIP3    H226407   0.896   7.243   1.002  1.5379  0.0316 -1.3812
 8822TIP3   OH226408   6.549   5.059   3.561 -0.1800 -0.2994  0.0073
 8822TIP3    H126409   6.520   4.969   3.580 -0.6905 -0.3225 -0.8076
 8822TIP3    H226410   6.510   5.078   3.476  2.9334 -0.6316 -1.6266
 8823TIP3   OH226411   1.402   4.118   1.112 -0.3665  0.3225 -0.2392
 8823TIP3    H126412   1.422   4.153   1.025  1.4022 -0.5079 -0.2077
 8823TIP3    H226413   1.459   4.042   1.121 -0.9635  0.0277  1.4255
 8824TIP3   OH226414   6.953   7.254   0.152  0.3625 -0.1432  0.2507
 8824TIP3    H126415   6.941   7.164   0.183 -1.1451  0.1682  0.6489
 8824TIP3    H226416   7.040   7.278   0.184 -0.3680 -0.4896  2.6827
 8825TIP3   OH226417   0.969   5.190   0.319  0.6543 -0.3756 -0.1791
 8825TIP3    H126418   0.908   5.237   0.263  0.4917 -0.3261  0.0390
 8825TIP3    H226419   1.056   5.210   0.283  0.5822  0.0360 -0.1261
 8826TIP3   OH226420   4.702   0.667   1.233  0.4267  0.0437  0.3559
 8826TIP3    H126421   4.665   0.739   1.284 -0.3133 -0.4226  0.4976
 8826TIP3    H226422   4.719   0.705   1.146 -2.7774 -0.2789 -0.5605
 8827TIP3   OH226423   1.988   4.624   2.695  0.6771 -0.1778  0.9861
 8827TIP3    H126424   1.933   4.649   2.770 -1.6884  1.3426 -1.0973
 8827TIP3    H226425   2.052   4.695   2.688  0.3596  0.1241  1.0921
 8828TIP3   OH226426   0.090   6.848   1.857  0.0269 -0.6920 -0.0407
 8828TIP3    H126427   0.103   6.939   1.886  2.0606 -1.2108  0.9423
 8828TIP3    H226428  -0.003   6.832   1.869 -0.5557  1.4991 -1.0456
 8829TIP3   OH226429   6.802   2.441   2.440 -0.1158  0.1347  0.4526
 8829TIP3    H126430   6.870   2.414   2.379 -0.1177 -0.4102  0.6788
 8829TIP3    H226431   6.787   2.533   2.421  0.1473  0.0650 -0.1108
 8830TIP3   OH226432   8.012   1.478   2.766  0.4619  0.0234 -0.3075
 8830TIP3    H126433   8.063   1.559   2.773  1.6091 -0.7969  2.4734
 8830TIP3    H226434   8.074   1.413   2.733  1.2409 -0.8491  2.5557
 8831TIP3   OH226435   7.441   5.622   0.738  0.0705 -0.2864  0.5158
 8831TIP3    H126436   7.469   5.602   0.649  3.0261 -1.4197  1.5737
 8831TIP3    H226437   7.465   5.714   0.750 -0.2342 -0.1615  0.1873
 8832TIP3   OH226438   7.228   5.948   3.219  0.3832  0.2862 -0.3299
 8832TIP3    H126439   7.315   5.926   3.254  0.2376 -0.8447 -0.6512
 8832TIP3    H226440   7.200   5.869   3.173 -0.7602  0.6989 -0.3617
 8833TIP3   OH226441   2.384   0.799   6.005  0.6751  0.4781 -0.0573
 8833TIP3    H126442   2.399   0.857   6.079 -1.7660  3.9085 -1.9215
 8833TIP3    H226443   2.299   0.759   6.023  0.5235  0.5767 -0.5365
 8834TIP3   OH226444   5.713   7.242   4.587 -0.2047  0.1211  0.3692
 8834TIP3    H126445   5.724   7.261   4.680 -1.5557 -0.8201  0.7595
 8834TIP3    H226446   5.799   7.256   4.549  0.3756  0.5063  1.7632
 8835TIP3   OH226447   0.094   3.368   3.289  0.1854  0.1239 -0.1035
 8835TIP3    H126448   0.042   3.433   3.335  0.1982 -0.4697  0.7679
 8835TIP3    H226449   0.163   3.343   3.350  0.1575 -0.7367 -0.4050
 8836TIP3   OH226450   5.768   0.681   4.869  0.3205  0.1221  0.2593
 8836TIP3    H126451   5.720   0.625   4.930 -1.9828 -1.1517 -2.5025
 8836TIP3    H226452   5.816   0.742   4.925 -2.3674 -0.3186  3.3169
 8837TIP3   OH226453   0.112   5.362   4.636  0.1356 -0.6233 -0.0748
 8837TIP3    H126454   0.094   5.380   4.729  1.0667  0.0405  0.0015
 8837TIP3    H226455   0.093   5.445   4.592  0.5430 -0.6682 -0.3408
 8838TIP3   OH226456   1.667   2.695   5.829 -0.0256  0.5552 -0.7490
 8838TIP3    H126457   1.631   2.701   5.741  0.7704 -1.9738 -1.3411
 8838TIP3    H226458   1.609   2.635   5.875 -0.3209  1.7005  0.4346
 8839TIP3   OH226459   6.700   5.030   3.986 -0.2590  0.7707 -0.2626
 8839TIP3    H126460   6.776   5.080   3.956  0.0588 -0.3801 -1.4742
 8839TIP3    H226461   6.700   5.041   4.081  1.9904  0.0749 -0.1179
 8840TIP3   OH226462   1.205   2.882   0.074  0.1134  0.5381 -0.2650
 8840TIP3    H126463   1.271   2.826   0.115  0.4805  0.3161 -1.1431
 8840TIP3    H226464   1.131   2.824   0.058  0.0663  0.5667 -0.1540
 8841TIP3   OH226465   4.826   7.721   2.681 -0.2049 -0.4465 -0.2231
 8841TIP3    H126466   4.882   7.797   2.699 -0.3988 -0.2077 -0.6151
 8841TIP3    H226467   4.844   7.661   2.754  0.1296 -0.1301 -0.0361
 8842TIP3   OH226468   5.331   4.186   1.371 -0.0982  0.0002 -0.3337
 8842TIP3    H126469   5.298   4.196   1.460  2.2152  3.2603  0.3155
 8842TIP3    H226470   5.266   4.230   1.316 -0.3157  0.1577  0.0478
 8843TIP3   OH226471   8.064   7.808   1.892 -0.5326 -0.2108  0.3355
 8843TIP3    H126472   7.985   7.796   1.840 -1.5675  0.8375  1.5791
 8843TIP3    H226473   8.078   7.724   1.935 -1.0059 -0.3819  0.1567
 8844TIP3   OH226474   0.986   4.899   5.627 -0.7985  0.0972  0.2560
 8844TIP3    H126475   0.913   4.870   5.571 -0.1976 -2.3001  0.6249
 8844TIP3    H226476   1.064   4.885   5.573 -0.4062  0.0478  0.8286
 8845TIP3   OH226477   7.615   2.079   0.671 -0.4429 -0.0938  0.2718
 8845TIP3    H126478   7.619   2.004   0.731  0.9549  0.7933  1.3349
 8845TIP3    H226479   7.661   2.049   0.593  0.9582 -0.0398  1.0566
 8846TIP3   OH226480   7.949   1.107   4.427  0.3108  0.4675  0.3027
 8846TIP3    H126481   8.023   1.161   4.400  0.8085 -0.9395 -1.3493
 8846TIP3    H226482   7.906   1.081   4.345 -0.3532 -0.9841  1.0599
 8847TIP3   OH226483   0.301   6.313   1.234  0.0291  0.0112  0.3875
 8847TIP3    H126484   0.348   6.327   1.316  0.8354  0.8416 -0.2037
 8847TIP3    H226485   0.209   6.330   1.256  0.2209  0.1437  1.1323
 8848TIP3   OH226486   5.009   0.478   4.987  0.1263 -0.1367 -0.2043
 8848TIP3    H126487   5.058   0.487   4.905  0.4515 -1.3106 -0.1565
 8848TIP3    H226488   5.072   0.443   5.050 -0.0990  0.8292  0.5765
 8849TIP3   OH226489   6.473   7.687   5.761  0.2327 -0.4354  0.2169
 8849TIP3    H126490   6.478   7.779   5.736 -0.9741 -0.6293 -0.8344
 8849TIP3    H226491   6.549   7.647   5.718  0.2930 -0.0726 -0.0242
 8850TIP3   OH226492   6.719   6.544   1.619  0.4090  0.2693  0.2494
 8850TIP3    H126493   6.677   6.574   1.700 -2.1711 -0.2272 -0.7957
 8850TIP3    H226494   6.775   6.472   1.646  0.1995  0.6152  1.6937
 8851TIP3   OH226495   4.381   4.959   0.357  0.4283  0.2225 -0.3237
 8851TIP3    H126496   4.440   4.919   0.293 -2.4727 -2.9781 -1.3249
 8851TIP3    H226497   4.429   4.955   0.440  1.9149 -1.6022 -1.1854
 8852TIP3   OH226498   3.274   6.306   1.956 -0.2178 -0.1339  0.3503
 8852TIP3    H126499   3.195   6.265   1.921 -0.0274  0.4345 -0.8203
 8852TIP3    H226500   3.257   6.400   1.951  0.3185 -0.0181  0.5919
 8853TIP3   OH226501   4.187   2.856   6.218 -0.0316 -0.3951 -0.3873
 8853TIP3    H126502   4.192   2.826   6.309 -1.6472 -0.3676 -0.2589
 8853TIP3    H226503   4.272   2.897   6.202  0.3072 -0.4453  1.0967
 8854TIP3   OH226504   5.563   2.645   2.256 -0.3484  0.2834  0.5083
 8854TIP3    H126505   5.485   2.668   2.305 -0.4902 -1.5831  1.2452
 8854TIP3    H226506   5.634   2.647   2.322 -0.6831 -3.1193  1.1586
 8855TIP3   OH226507   0.665   4.062   2.321  0.1780  0.1649 -0.1546
 8855TIP3    H126508   0.696   4.024   2.238  0.4216 -0.4782  0.2251
 8855TIP3    H226509   0.729   4.130   2.342  0.6390 -0.3128 -0.0123
 8856TIP3   OH226510   6.625   0.257   5.050 -0.8101 -0.0831  0.3424
 8856TIP3    H126511   6.587   0.258   4.962  1.0442  1.2711 -0.5118
 8856TIP3    H226512   6.663   0.344   5.060  0.9168 -0.9275  1.6115
 8857TIP3   OH226513   0.126   3.204   0.019  0.7423 -0.3410  0.3090
 8857TIP3    H126514   0.097   3.214  -0.071 -0.9339  2.7234  1.0427
 8857TIP3    H226515   0.071   3.134   0.055  0.0060 -0.1872 -0.5075
 8858TIP3   OH226516   1.180   3.432   6.206  0.8803  0.5567 -0.5798
 8858TIP3    H126517   1.111   3.461   6.146  2.7274  1.1267 -2.5795
 8858TIP3    H226518   1.244   3.504   6.205  1.8863 -0.2716  0.5571
 8859TIP3   OH226519   5.871   5.581   3.654  0.2003  0.0041  0.4430
 8859TIP3    H126520   5.876   5.586   3.558 -0.4393 -2.5218  0.2262
 8859TIP3    H226521   5.851   5.671   3.681 -0.1157  0.6811 -1.8228
 8860TIP3   OH226522   5.684   1.597   2.728 -0.1444  0.0271 -0.4408
 8860TIP3    H126523   5.753   1.572   2.790  0.2150 -1.4466 -1.3748
 8860TIP3    H226524   5.615   1.634   2.782  0.4254 -0.6353  0.7819
 8861TIP3   OH226525   5.802   2.249   0.641  0.9230 -0.0590 -0.4063
 8861TIP3    H126526   5.712   2.271   0.614  0.3978 -0.9405  0.5353
 8861TIP3    H226527   5.857   2.288   0.574 -0.1347  1.0374 -0.6843
 8862TIP3   OH226528   3.246   6.622   6.177  0.3376 -0.3906 -0.1276
 8862TIP3    H126529   3.267   6.613   6.270  1.2854 -1.9983 -0.4521
 8862TIP3    H226530   3.151   6.634   6.174  0.4866  1.6764  1.1177
 8863TIP3   OH226531   1.182   1.882   2.423  0.0948  0.7848 -0.5268
 8863TIP3    H126532   1.171   1.937   2.500 -0.5809 -0.3410  0.2153
 8863TIP3    H226533   1.272   1.898   2.395  1.1463 -0.4130  1.8537
 8864TIP3   OH226534   7.097   3.388   2.145 -0.6148  0.0361 -0.1859
 8864TIP3    H126535   7.029   3.338   2.098 -0.0228 -0.9047 -0.0777
 8864TIP3    H226536   7.058   3.406   2.230  0.4333 -3.6199  1.2947
 8865TIP3   OH226537   5.289   0.878   0.047  0.0903 -0.1408 -0.1208
 8865TIP3    H126538   5.378   0.867   0.078  0.2632  0.2457 -0.4627
 8865TIP3    H226539   5.264   0.967   0.076 -0.0393 -0.0948 -0.3684
 8866TIP3   OH226540   1.592   4.878   6.734 -0.2764 -0.1278 -0.3165
 8866TIP3    H126541   1.662   4.941   6.752  0.6305 -1.3235  0.4777
 8866TIP3    H226542   1.524   4.930   6.692  1.1045  1.0683 -1.1856
 8867TIP3   OH226543   2.300   3.910   3.351 -0.3585  0.0751  0.6761
 8867TIP3    H126544   2.349   3.944   3.426 -0.4669  0.5847  0.5184
 8867TIP3    H226545   2.223   3.966   3.345 -0.0212  0.4694 -0.2169
 8868TIP3   OH226546   4.634   1.718   4.165 -0.0643  0.1824  0.4162
 8868TIP3    H126547   4.682   1.664   4.227 -0.2403 -2.6834 -1.7149
 8868TIP3    H226548   4.556   1.746   4.212  1.5197  1.2489  2.5536
 8869TIP3   OH226549   0.697   6.608   0.550  0.3685  0.1764  0.0977
 8869TIP3    H126550   0.708   6.535   0.611  1.3314 -0.4344 -0.7814
 8869TIP3    H226551   0.717   6.686   0.603 -2.2506  0.0223  1.4903
 8870TIP3   OH226552   2.096   5.236   6.356 -0.3931  0.5489 -0.5120
 8870TIP3    H126553   2.136   5.258   6.272  0.4091  2.3045  0.2792
 8870TIP3    H226554   2.009   5.204   6.333 -0.0693  0.6715 -2.0225
 8871TIP3   OH226555   6.798   3.202   5.482  0.0186  0.2986  0.2167
 8871TIP3    H126556   6.811   3.191   5.576 -2.2095  1.7815  0.7622
 8871TIP3    H226557   6.737   3.133   5.458  0.0230  0.3673  0.0091
 8872TIP3   OH226558   4.891   5.702   6.692 -0.7320  0.0902 -0.4387
 8872TIP3    H126559   4.980   5.673   6.672 -0.4527  1.7280 -1.8228
 8872TIP3    H226560   4.846   5.623   6.721  0.4618 -1.3631 -2.2854
 8873TIP3   OH226561   2.367   6.019   4.947 -0.0013 -0.1761 -0.4440
 8873TIP3    H126562   2.406   6.097   4.908  0.0809  0.3539  0.6454
 8873TIP3    H226563   2.358   5.957   4.875  0.3461  0.6809 -1.2376
 8874TIP3   OH226564   3.161   1.623   3.091 -0.1377  0.0244 -0.2592
 8874TIP3    H126565   3.155   1.670   3.174 -0.2134 -0.1353 -0.1735
 8874TIP3    H226566   3.070   1.603   3.069  0.0105 -2.9769  1.3713
 8875TIP3   OH226567   6.379   2.987   1.357  0.2991  0.8445 -0.2519
 8875TIP3    H126568   6.331   2.985   1.440 -0.5294 -1.0262 -0.7188
 8875TIP3    H226569   6.444   3.056   1.369 -0.3948  1.2452  1.6142
 8876TIP3   OH226570   0.610   1.931   1.603  0.0195 -0.2564 -0.1735
 8876TIP3    H126571   0.698   1.894   1.595  0.4332  0.6975 -0.2382
 8876TIP3    H226572   0.608   1.968   1.691 -0.1182  0.1993 -0.3640
 8877TIP3   OH226573   3.306   5.673   1.933  0.2198 -0.1098  0.4095
 8877TIP3    H126574   3.319   5.726   1.854 -0.2273  1.0267  1.0770
 8877TIP3    H226575   3.285   5.586   1.900  1.2720  0.0337 -0.7211
 8878TIP3   OH226576   3.741   0.812   5.525  0.1396  0.1328 -1.2030
 8878TIP3    H126577   3.777   0.896   5.495  0.7483  0.2156 -0.2673
 8878TIP3    H226578   3.703   0.774   5.446 -0.7050  1.5645 -1.5285
 8879TIP3   OH226579   2.428   0.025   3.418  0.2711 -0.6681 -0.0767
 8879TIP3    H126580   2.339   0.060   3.422 -0.0467 -1.3599 -0.8125
 8879TIP3    H226581   2.475   0.070   3.488 -0.5919 -0.1089  0.1535
 8880TIP3   OH226582   2.569   2.304   1.736 -0.5739  0.1903 -0.8084
 8880TIP3    H126583   2.642   2.279   1.680  0.1553  2.8712 -1.1901
 8880TIP3    H226584   2.588   2.261   1.820  0.3743 -0.7380 -1.4681
 8881TIP3   OH226585   2.080   3.064   3.961 -0.1136  0.4297  0.2715
 8881TIP3    H126586   2.033   2.986   3.932 -1.6764  1.0003  1.1394
 8881TIP3    H226587   2.172   3.044   3.945 -0.4812 -1.5323  0.3442
 8882TIP3   OH226588   4.980   5.936   1.482 -0.4922  0.1436  0.6083
 8882TIP3    H126589   4.934   5.889   1.552 -2.0223  1.0541  0.2399
 8882TIP3    H226590   4.912   5.983   1.435  0.9450  2.6628  0.8709
 8883TIP3   OH226591   2.281   6.788   3.075 -0.3092  0.4959 -0.3327
 8883TIP3    H126592   2.270   6.838   2.994  3.3037 -0.3180 -1.5002
 8883TIP3    H226593   2.347   6.837   3.124 -2.6074  1.1436  2.4539
 8884TIP3   OH226594   5.030   3.569   1.427 -0.4390  0.4843 -0.3283
 8884TIP3    H126595   4.952   3.558   1.480  1.8207 -1.0937  3.0401
 8884TIP3    H226596   5.031   3.493   1.369 -0.0166 -1.2151  1.7621
 8885TIP3   OH226597   2.654   7.235   1.689  0.2961 -0.3205 -0.1926
 8885TIP3    H126598   2.615   7.174   1.627  1.7769 -0.1186 -1.3884
 8885TIP3    H226599   2.618   7.210   1.774  0.7912 -2.8264 -0.6523
 8886TIP3   OH226600   6.413   7.191   2.760  0.1344  0.1941  0.6148
 8886TIP3    H126601   6.426   7.220   2.670  0.7900  0.5715  0.8229
 8886TIP3    H226602   6.328   7.148   2.759  0.2488 -0.0357 -0.2415
 8887TIP3   OH226603   5.082   3.900   6.521  0.6942 -0.1506 -0.0467
 8887TIP3    H126604   5.055   3.989   6.499  0.4554 -0.1923  0.0700
 8887TIP3    H226605   5.013   3.868   6.578  0.7442 -0.4361 -0.1446
 8888TIP3   OH226606   1.423   6.352   0.329 -0.0920 -0.3540  0.1531
 8888TIP3    H126607   1.470   6.434   0.337 -1.3041  0.2158  2.1379
 8888TIP3    H226608   1.488   6.290   0.296  1.1834  1.0869 -0.1499
 8889TIP3   OH226609   7.474   2.277   0.314 -0.5557  0.0227 -0.2385
 8889TIP3    H126610   7.425   2.335   0.372 -2.1788 -0.5497 -0.9879
 8889TIP3    H226611   7.503   2.205   0.370 -3.7367 -1.5182 -0.3921
 8890TIP3   OH226612   4.225   7.072   6.320 -0.0797 -0.2427  0.2473
 8890TIP3    H126613   4.273   7.007   6.268 -0.2206  2.4625 -3.7482
 8890TIP3    H226614   4.149   7.024   6.354  1.4746 -2.8361  0.3018
 8891TIP3   OH226615   6.086   0.331   5.881 -0.2992  0.3923  0.4375
 8891TIP3    H126616   6.086   0.267   5.952  0.7318 -1.2065 -0.9151
 8891TIP3    H226617   6.172   0.373   5.887 -0.4819  0.7491  0.5545
 8892TIP3   OH226618   6.580   0.704   5.089 -0.1523 -0.2083 -0.0337
 8892TIP3    H126619   6.579   0.797   5.112  0.0967 -0.5024  1.2957
 8892TIP3    H226620   6.493   0.687   5.053 -0.8372  0.1686  1.3771
 8893TIP3   OH226621   4.807   3.899   5.918 -0.1601  0.2358 -0.1589
 8893TIP3    H126622   4.730   3.874   5.969  0.5950 -1.0535  0.3991
 8893TIP3    H226623   4.868   3.826   5.929  0.7012  0.7098 -1.5213
 8894TIP3   OH226624   4.786   7.788   0.438 -0.0609 -0.3595 -0.3032
 8894TIP3    H126625   4.776   7.845   0.361  1.7642  0.1636 -0.2021
 8894TIP3    H226626   4.707   7.804   0.490 -0.9459 -0.1249 -1.6722
 8895TIP3   OH226627   5.012   4.966   3.016  0.0988 -0.2925 -0.0227
 8895TIP3    H126628   4.940   4.954   2.954  1.2146 -0.7049 -1.2678
 8895TIP3    H226629   5.003   5.057   3.045 -0.7895 -0.2735 -0.3155
 8896TIP3   OH226630   5.094   2.993   5.873 -0.6793 -0.1119 -0.1205
 8896TIP3    H126631   5.087   2.949   5.958 -1.8396  0.2112 -0.0251
 8896TIP3    H226632   5.134   2.928   5.816  1.2685  0.0699  0.9300
 8897TIP3   OH226633   3.723   4.105   1.914 -0.1157 -0.4693  0.3062
 8897TIP3    H126634   3.628   4.120   1.914  0.0804  0.9516  0.5002
 8897TIP3    H226635   3.738   4.042   1.984 -0.8076  0.1843  1.0559
 8898TIP3   OH226636   2.735   3.670   4.131 -0.8451  0.6659  0.6461
 8898TIP3    H126637   2.681   3.618   4.190 -0.6708 -0.3706 -0.0769
 8898TIP3    H226638   2.739   3.618   4.051 -0.9199  1.9476 -0.2162
 8899TIP3   OH226639   3.157   3.820   2.531 -0.5505 -0.2019  0.3996
 8899TIP3    H126640   3.217   3.798   2.459 -1.3740 -3.3200  0.5142
 8899TIP3    H226641   3.125   3.908   2.510  2.2709  0.6564 -0.8401
 8900TIP3   OH226642   0.652   4.241   2.910  1.1708  0.4690  0.2491
 8900TIP3    H126643   0.703   4.218   2.987  1.1345  0.4200  0.2583
 8900TIP3    H226644   0.605   4.320   2.935 -0.7749 -0.9042  1.1494
 8901TIP3   OH226645   7.148   6.420   2.130 -0.3612  0.0608 -0.5413
 8901TIP3    H126646   7.236   6.439   2.099 -0.3646 -0.4743 -0.8750
 8901TIP3    H226647   7.135   6.327   2.114 -0.9556  0.1135 -0.4113
 8902TIP3   OH226648   5.749   0.814   3.399 -0.4183 -0.5535  0.0803
 8902TIP3    H126649   5.838   0.817   3.435 -0.1896 -0.8067 -0.4582
 8902TIP3    H226650   5.702   0.884   3.445  0.5377  0.7764 -0.9031
 8903TIP3   OH226651   1.620   6.394   6.357 -0.3170  0.1032 -0.1786
 8903TIP3    H126652   1.527   6.405   6.337 -0.1814  0.9859 -0.3404
 8903TIP3    H226653   1.644   6.312   6.314 -1.0849 -0.2958  0.1193
 8904TIP3   OH226654   7.494   0.171   6.385 -0.4939 -0.3242  0.1650
 8904TIP3    H126655   7.412   0.218   6.397 -0.3436 -0.3328  1.3743
 8904TIP3    H226656   7.530   0.164   6.473  1.7841  1.4257 -0.5423
 8905TIP3   OH226657   1.291   2.081   2.731  0.1402 -0.0236  0.2350
 8905TIP3    H126658   1.332   2.072   2.817  0.7332 -1.3635 -0.1692
 8905TIP3    H226659   1.364   2.095   2.671 -0.0404 -1.4835 -0.3616
 8906TIP3   OH226660   7.328   3.845   1.361 -0.1317 -0.4588 -0.2807
 8906TIP3    H126661   7.411   3.814   1.326  0.7690 -1.1151  2.2357
 8906TIP3    H226662   7.330   3.939   1.346  1.2771 -0.3997  0.1060
 8907TIP3   OH226663   2.099   1.915   5.024 -1.4310  0.1252  0.1293
 8907TIP3    H126664   2.156   1.940   4.951 -0.1464  0.6287  1.2605
 8907TIP3    H226665   2.157   1.911   5.100 -3.1515  2.4217  1.7297
 8908TIP3   OH226666   3.285   0.176   0.654  1.1272 -0.7117  0.0451
 8908TIP3    H126667   3.240   0.117   0.715  2.2640 -0.0168  1.6171
 8908TIP3    H226668   3.325   0.117   0.590  1.1623 -1.5650  0.8336
 8909TIP3   OH226669   0.553   1.527   1.394 -0.1696  0.0315  0.0302
 8909TIP3    H126670   0.567   1.622   1.394  2.8540 -0.2947 -1.6060
 8909TIP3    H226671   0.507   1.510   1.311  1.2061 -0.0846 -0.7378
 8910TIP3   OH226672   3.697   0.985   4.557  0.2983  0.1522 -0.0386
 8910TIP3    H126673   3.611   0.961   4.591 -0.8549  1.7094 -1.6538
 8910TIP3    H226674   3.742   1.025   4.632 -1.2346  1.2960  0.3267
 8911TIP3   OH226675   2.368   1.961   2.276 -0.5025  0.1659  0.0904
 8911TIP3    H126676   2.367   2.048   2.236  1.4886 -0.2282 -0.9562
 8911TIP3    H226677   2.297   1.914   2.233 -2.0815  1.4428  1.1888
 8912TIP3   OH226678   0.628   1.704   4.920 -0.5291  0.3082 -0.2767
 8912TIP3    H126679   0.686   1.775   4.893  0.0809 -0.3051 -0.6159
 8912TIP3    H226680   0.542   1.728   4.884 -0.0205  0.1690 -1.6604
 8913TIP3   OH226681   2.465   6.313   6.529  0.0261 -0.2118 -0.9579
 8913TIP3    H126682   2.490   6.400   6.560 -0.7998  0.2789 -1.6305
 8913TIP3    H226683   2.379   6.297   6.570 -0.2661 -0.2932 -1.5986
 8914TIP3   OH226684   2.172   6.099   0.729 -0.6022  0.1816 -0.2637
 8914TIP3    H126685   2.212   6.031   0.675 -1.7292 -0.4577 -0.3259
 8914TIP3    H226686   2.119   6.150   0.668  0.1879  1.1080 -0.2075
 8915TIP3   OH226687   4.159   4.306   6.134  0.1701 -0.0819 -0.3265
 8915TIP3    H126688   4.145   4.216   6.163  0.1680  0.2158  0.6298
 8915TIP3    H226689   4.194   4.297   6.046  0.0244 -1.0151 -0.3050
 8916TIP3   OH226690   4.884   1.112   5.073  0.1718 -0.0838  0.4243
 8916TIP3    H126691   4.879   1.203   5.043  1.4985 -0.1791 -0.1688
 8916TIP3    H226692   4.794   1.082   5.075 -0.1791  0.8013 -0.7868
 8917TIP3   OH226693   5.785   7.494   6.401 -0.2942 -0.1446 -0.1825
 8917TIP3    H126694   5.827   7.422   6.448 -0.1075 -0.4672 -0.8232
 8917TIP3    H226695   5.857   7.550   6.373 -0.3807 -0.0778 -0.2750
 8918TIP3   OH226696   6.309   0.292   3.432 -0.1165  0.0077  1.0421
 8918TIP3    H126697   6.265   0.294   3.517  1.2340 -0.8188  1.8045
 8918TIP3    H226698   6.396   0.257   3.452  0.4988  0.5573 -0.5684
 8919TIP3   OH226699   5.549   4.185   4.432  0.5447 -0.1690  0.0311
 8919TIP3    H126700   5.575   4.103   4.390  1.0228  0.6623 -1.3712
 8919TIP3    H226701   5.476   4.217   4.379  1.0415  0.8200 -0.0925
 8920TIP3   OH226702   2.186   5.640   6.528  0.2654 -0.2197  0.8035
 8920TIP3    H126703   2.108   5.676   6.487  0.2991  1.3115  1.9900
 8920TIP3    H226704   2.164   5.549   6.548  0.3124 -1.1386 -2.6568
 8921TIP3   OH226705   7.496   6.241   5.575 -0.2222  0.7241 -0.2428
 8921TIP3    H126706   7.511   6.291   5.495  1.4808  1.4586  0.4926
 8921TIP3    H226707   7.483   6.151   5.545 -2.5665  1.4179 -1.5286
 8922TIP3   OH226708   5.313   1.465   6.471 -0.3876 -0.1684 -0.3289
 8922TIP3    H126709   5.279   1.378   6.493  1.9295 -1.1212 -0.1579
 8922TIP3    H226710   5.380   1.481   6.537  1.6178  0.1897 -2.3394
 8923TIP3   OH226711   8.099   7.368   2.577 -0.1108 -0.3960  0.3910
 8923TIP3    H126712   8.151   7.445   2.557 -1.1740  0.6477  1.4711
 8923TIP3    H226713   8.154   7.314   2.634  1.4054 -1.4665 -1.9581
 8924TIP3   OH226714   7.221   1.781   2.810  0.3908  0.3145  0.5716
 8924TIP3    H126715   7.310   1.808   2.833  0.4550  0.6627 -0.0629
 8924TIP3    H226716   7.216   1.688   2.833  0.0820  0.8744  3.0872
 8925TIP3   OH226717   5.609   0.415   1.301  0.0426  0.0467 -0.1936
 8925TIP3    H126718   5.557   0.428   1.222  1.2763 -0.4495 -1.1272
 8925TIP3    H226719   5.677   0.352   1.276  0.4072 -0.2041  1.2933
 8926TIP3   OH226720   5.851   0.666   4.228 -0.4545 -0.5575  0.2464
 8926TIP3    H126721   5.940   0.703   4.227 -1.5029  2.1598  0.3896
 8926TIP3    H226722   5.852   0.606   4.303  1.5899 -1.6339 -0.5411
 8927TIP3   OH226723   5.410   6.147   6.650  0.4385 -0.2823 -0.3849
 8927TIP3    H126724   5.373   6.194   6.575 -0.2891 -1.9316 -1.1069
 8927TIP3    H226725   5.499   6.181   6.658  0.6551 -0.2799 -2.2216
 8928TIP3   OH226726   6.271   4.027   0.371  0.1864 -0.0927  0.8159
 8928TIP3    H126727   6.324   4.107   0.367 -0.1518  0.1313  0.7511
 8928TIP3    H226728   6.194   4.047   0.319  0.6663 -0.9010 -0.2462
 8929TIP3   OH226729   7.703   2.163   4.997  0.4580  0.4307 -0.1506
 8929TIP3    H126730   7.637   2.104   4.960  1.0994  0.8846 -2.1485
 8929TIP3    H226731   7.786   2.115   4.988  0.4855 -0.0603  2.1680
 8930TIP3   OH226732   7.129   0.919   4.905 -0.0020 -0.4563  0.0024
 8930TIP3    H126733   7.079   0.994   4.873 -2.0898 -1.2443  1.2555
 8930TIP3    H226734   7.066   0.847   4.908  1.0755 -1.4050  1.9845
 8931TIP3   OH226735   3.546   6.519   2.028  0.4707 -0.1722  0.2180
 8931TIP3    H126736   3.610   6.522   2.100  0.7309 -1.0167  0.0345
 8931TIP3    H226737   3.507   6.431   2.034  1.2628 -0.6650 -1.3033
 8932TIP3   OH226738   7.044   0.445   2.250  0.2044 -0.3661 -0.5151
 8932TIP3    H126739   6.985   0.421   2.178  0.1055  0.6026 -0.7682
 8932TIP3    H226740   6.994   0.508   2.302  0.4947 -0.6181  0.0707
 8933TIP3   OH226741   0.004   3.193   2.866 -0.2852 -0.0955 -0.4912
 8933TIP3    H126742   0.044   3.162   2.786 -1.3204  0.5546 -1.2914
 8933TIP3    H226743  -0.009   3.287   2.852  0.4618  0.2425  0.8591
 8934TIP3   OH226744   3.053   3.001   5.302 -0.4606 -0.1186 -0.7414
 8934TIP3    H126745   3.010   3.027   5.384  0.4460 -0.2750 -0.2091
 8934TIP3    H226746   2.984   3.010   5.236 -1.2511 -0.1309  0.0527
 8935TIP3   OH226747   6.021   0.192   1.091  0.1106 -0.0037  0.8698
 8935TIP3    H126748   6.012   0.254   1.019 -0.4449 -2.3888 -1.2784
 8935TIP3    H226749   6.080   0.234   1.153  1.8130  1.6000 -1.6728
 8936TIP3   OH226750   6.944   1.038   6.088  0.3554 -0.4148 -0.2503
 8936TIP3    H126751   6.871   1.099   6.078  2.1000  2.1422  1.4394
 8936TIP3    H226752   6.906   0.960   6.128 -1.2336  1.5735  2.4207
 8937TIP3   OH226753   0.460   4.440   2.936 -0.0819  0.0356 -0.4904
 8937TIP3    H126754   0.442   4.472   2.847 -0.3859  0.7084 -0.1886
 8937TIP3    H226755   0.376   4.445   2.981  0.0791 -0.2753 -0.1467
 8938TIP3   OH226756   4.719   6.404   5.512  0.0228  0.3531  0.0286
 8938TIP3    H126757   4.760   6.317   5.506  0.6986  0.6725 -0.0291
 8938TIP3    H226758   4.790   6.462   5.539  0.0065  1.2087 -1.6429
 8939TIP3   OH226759   5.856   1.856   5.394  0.3700 -0.3950  0.4715
 8939TIP3    H126760   5.936   1.802   5.397 -0.3766 -1.5007  1.2679
 8939TIP3    H226761   5.888   1.945   5.404  1.5352 -0.8087  0.6812
 8940TIP3   OH226762   4.220   6.694   1.058  0.0834 -0.0798  0.3372
 8940TIP3    H126763   4.234   6.738   1.142 -0.3761  1.3752 -0.3183
 8940TIP3    H226764   4.303   6.707   1.011 -0.3963  1.0507 -0.2513
 8941TIP3   OH226765   1.484   2.672   1.843 -0.2152 -0.1138  0.3752
 8941TIP3    H126766   1.532   2.692   1.924  0.0845 -0.8955  0.4024
 8941TIP3    H226767   1.501   2.579   1.828  1.6113  0.4877 -1.8044
 8942TIP3   OH226768   2.058   4.437   0.306  0.0219 -0.2796 -0.3034
 8942TIP3    H126769   2.025   4.347   0.301 -0.4253 -0.0654 -1.3688
 8942TIP3    H226770   1.982   4.492   0.286  0.9766  0.2177 -2.8302
 8943TIP3   OH226771   2.605   6.642   1.674  0.2279  0.6179 -0.1708
 8943TIP3    H126772   2.614   6.737   1.682 -1.8342  0.6953  4.0033
 8943TIP3    H226773   2.680   6.607   1.722  0.2407  0.1940 -0.5022
 8944TIP3   OH226774   1.601   0.279   6.519 -0.2512  0.3311 -0.4731
 8944TIP3    H126775   1.696   0.284   6.502 -0.2642  1.1726 -0.3657
 8944TIP3    H226776   1.568   0.364   6.489 -0.6221  0.9876  1.6244
 8945TIP3   OH226777   0.800   3.369   3.111 -0.7079  0.3303 -0.0519
 8945TIP3    H126778   0.879   3.373   3.166  0.1710  1.5690 -1.3235
 8945TIP3    H226779   0.791   3.277   3.089  0.8296  0.2332 -0.4490
 8946TIP3   OH226780   3.265   4.387   0.324 -0.2250 -0.2693  0.1443
 8946TIP3    H126781   3.179   4.345   0.314 -0.5372  0.0863  1.1751
 8946TIP3    H226782   3.254   4.474   0.287 -0.4990 -0.0052  0.8343
 8947TIP3   OH226783   0.743   4.265   4.959  0.3756  0.3194  0.5463
 8947TIP3    H126784   0.812   4.201   4.975 -0.0834 -1.1874 -2.6001
 8947TIP3    H226785   0.669   4.234   5.012  0.1823 -1.8567 -0.8546
 8948TIP3   OH226786   4.961   7.132   3.643 -0.1352  0.2092  0.9633
 8948TIP3    H126787   4.988   7.210   3.595 -0.2121  0.3238  1.1042
 8948TIP3    H226788   4.985   7.150   3.734  0.0700 -0.0352  0.9571
 8949TIP3   OH226789   6.825   6.597   4.186 -0.5315  0.4323 -0.8359
 8949TIP3    H126790   6.734   6.569   4.185 -0.0595 -1.4685  1.5668
 8949TIP3    H226791   6.859   6.570   4.100 -1.5559 -1.3984 -0.7189
 8950TIP3   OH226792   1.845   1.204   0.943 -0.4156 -0.0995 -0.0531
 8950TIP3    H126793   1.836   1.288   0.988  0.7394  0.2700 -0.4744
 8950TIP3    H226794   1.858   1.140   1.013 -1.9813 -0.0504  0.3107
 8951TIP3   OH226795   2.126   7.075   2.764 -0.1455  0.2479  0.0846
 8951TIP3    H126796   2.215   7.048   2.787  0.7364  3.1808  0.6002
 8951TIP3    H226797   2.130   7.095   2.670 -0.1148  0.7949  0.1974
 8952TIP3   OH226798   3.791   1.379   0.254  0.0350 -0.2638  0.1193
 8952TIP3    H126799   3.871   1.330   0.270 -0.0017 -0.3576  0.0167
 8952TIP3    H226800   3.764   1.353   0.166 -0.7197 -1.1190  0.5770
 8953TIP3   OH226801   2.163   7.777   1.804  0.1203 -0.5256 -0.2271
 8953TIP3    H126802   2.143   7.718   1.732 -0.0977 -1.4195  0.5574
 8953TIP3    H226803   2.252   7.755   1.830  0.4950  0.3330 -0.7118
 8954TIP3   OH226804   7.789   7.228   2.092  0.1672 -0.3752 -0.3950
 8954TIP3    H126805   7.705   7.197   2.057 -0.6919  0.5710  0.7385
 8954TIP3    H226806   7.786   7.323   2.080  0.9891 -0.3110 -0.1388
 8955TIP3   OH226807   2.600   7.181   4.807 -0.0950 -0.6465 -0.4335
 8955TIP3    H126808   2.522   7.164   4.861  0.1722 -2.4425 -0.5305
 8955TIP3    H226809   2.565   7.207   4.722 -0.5953 -0.9139 -0.3146
 8956TIP3   OH226810   6.748   6.253   4.813 -0.1166  0.4305  0.2654
 8956TIP3    H126811   6.711   6.207   4.738 -0.2885  1.0906 -0.0582
 8956TIP3    H226812   6.720   6.202   4.889  0.4959 -0.5344 -0.1467
 8957TIP3   OH226813   2.144   4.908   6.081  0.4607 -0.3199  0.0951
 8957TIP3    H126814   2.061   4.883   6.122  0.5873 -0.4898  0.2448
 8957TIP3    H226815   2.118   4.967   6.010  0.3087  1.0468  1.2297
 8958TIP3   OH226816   5.083   7.746   6.719 -0.4389  0.5512  0.0664
 8958TIP3    H126817   5.087   7.782   6.630 -0.8463  0.0760 -0.1476
 8958TIP3    H226818   5.135   7.665   6.715  1.9637  1.9303  0.9763
 8959TIP3   OH226819   4.535   3.990   4.351  0.1474 -0.5456  0.2687
 8959TIP3    H126820   4.615   4.002   4.299  1.0768 -2.0421  1.2925
 8959TIP3    H226821   4.544   4.051   4.424 -0.2433  0.1590 -0.2580
 8960TIP3   OH226822   5.336   5.593   5.427  0.7106  0.0187 -0.0851
 8960TIP3    H126823   5.268   5.583   5.360 -0.6937  1.9409  0.9406
 8960TIP3    H226824   5.294   5.564   5.508  1.8187 -0.6707  0.2683
 8961TIP3   OH226825   3.741   7.252   5.404 -0.1282  0.4153  0.0554
 8961TIP3    H126826   3.669   7.225   5.347  0.0918  0.1700 -0.1096
 8961TIP3    H226827   3.729   7.202   5.485 -0.7573  1.1694  0.4439
 8962TIP3   OH226828   0.365   4.174   1.295 -0.3396 -0.3265  0.4995
 8962TIP3    H126829   0.305   4.237   1.254 -0.7892 -0.7141  0.5624
 8962TIP3    H226830   0.376   4.105   1.230  1.7372  0.7558 -0.4036
 8963TIP3   OH226831   0.407   7.338   0.473  0.4161 -0.6346 -0.3192
 8963TIP3    H126832   0.475   7.397   0.507  0.9715 -0.1639 -2.0946
 8963TIP3    H226833   0.325   7.378   0.498  0.7930 -0.5315  0.7838
 8964TIP3   OH226834   5.354   4.022   5.335  0.0288  0.3456  0.3432
 8964TIP3    H126835   5.401   4.098   5.301 -2.3490  1.1352 -1.4483
 8964TIP3    H226836   5.397   3.947   5.293  0.0136  1.0041 -0.8936
 8965TIP3   OH226837   6.606   0.955   0.542  0.1771 -0.3852  0.0305
 8965TIP3    H126838   6.585   0.934   0.451 -1.7286 -1.3558  0.6390
 8965TIP3    H226839   6.613   1.050   0.545 -0.2775 -0.3128 -1.0371
 8966TIP3   OH226840   0.015   3.707   1.075 -0.3549  0.1727 -0.1928
 8966TIP3    H126841   0.079   3.647   1.113  0.7133  2.3096  1.5831
 8966TIP3    H226842   0.049   3.725   0.987  0.3667 -0.3208 -0.0238
 8967TIP3   OH226843   5.829   6.806   0.226  0.7501 -0.2666  0.5474
 8967TIP3    H126844   5.896   6.865   0.258  0.4663  1.1648 -1.3244
 8967TIP3    H226845   5.763   6.863   0.187 -0.1880 -1.7641 -0.1667
 8968TIP3   OH226846   7.630   6.270   0.146  0.3241  0.0552 -0.1466
 8968TIP3    H126847   7.691   6.203   0.177  0.7094  0.9941  1.1954
 8968TIP3    H226848   7.633   6.262   0.050  0.6174 -1.5937 -0.0260
 8969TIP3   OH226849   6.116   5.982   2.756 -0.8273  0.1813 -0.3615
 8969TIP3    H126850   6.209   5.982   2.733 -0.6269 -0.6377  0.4060
 8969TIP3    H226851   6.073   5.942   2.680 -0.3234 -1.2273  0.0707
 8970TIP3   OH226852   2.027   3.414   6.171  0.0365  0.3017  0.1733
 8970TIP3    H126853   1.976   3.395   6.250 -0.4827  0.5801 -0.0926
 8970TIP3    H226854   1.963   3.445   6.107  0.1244 -1.8712 -1.0571
 8971TIP3   OH226855   8.205   3.001   5.481  0.9337  0.2332 -0.5138
 8971TIP3    H126856   8.190   2.955   5.563 -2.5796 -1.7526 -2.0465
 8971TIP3    H226857   8.251   2.938   5.425 -0.2814  0.0423 -1.3296
 8972TIP3   OH226858   3.730   4.094   4.421  0.0600  0.0284 -0.2725
 8972TIP3    H126859   3.665   4.044   4.471  0.7287 -1.1771 -0.5833
 8972TIP3    H226860   3.786   4.028   4.381 -0.3039  0.9386 -2.4388
 8973TIP3   OH226861   0.402   5.997   5.869 -0.1333 -0.0454  0.2997
 8973TIP3    H126862   0.351   5.968   5.945 -1.7154  0.1688 -0.6284
 8973TIP3    H226863   0.491   5.965   5.886 -0.6887 -0.9424  1.7152
 8974TIP3   OH226864   8.172   0.006   2.691 -0.0246  0.0234  0.0551
 8974TIP3    H126865   8.175   0.062   2.613 -0.5150 -1.4590 -1.0774
 8974TIP3    H226866   8.260   0.013   2.728 -0.6143  3.1144  1.1846
 8975TIP3   OH226867   4.268   0.197   5.868 -0.0252 -0.1682 -0.0505
 8975TIP3    H126868   4.203   0.257   5.904  1.4918  1.0036  0.8677
 8975TIP3    H226869   4.230   0.110   5.879 -1.7744  0.5297 -0.3332
 8976TIP3   OH226870   1.510   7.685   4.679 -0.1564  0.1413  0.5619
 8976TIP3    H126871   1.420   7.699   4.710 -0.0772  2.6185 -0.1272
 8976TIP3    H226872   1.518   7.740   4.601  2.2359  0.7601  1.1511
 8977TIP3   OH226873   5.498   3.957   1.338  0.5001  0.3209  0.0483
 8977TIP3    H126874   5.444   4.034   1.354  0.7276  0.8667 -1.6057
 8977TIP3    H226875   5.587   3.992   1.327  1.0699 -0.4625  1.7380
 8978TIP3   OH226876   5.192   1.986   1.759  0.2268  0.3104  0.5108
 8978TIP3    H126877   5.126   1.971   1.692  0.6712 -0.7286  0.2793
 8978TIP3    H226878   5.144   2.023   1.833 -0.2224  1.7132 -0.4519
 8979TIP3   OH226879   8.198   1.226   5.645 -0.1415  0.0568  0.0955
 8979TIP3    H126880   8.176   1.312   5.608  1.5094  1.3358  1.8653
 8979TIP3    H226881   8.143   1.219   5.723 -0.2724 -0.5054 -0.0461
 8980TIP3   OH226882   7.192   1.540   2.439  0.1045 -0.2880  0.3681
 8980TIP3    H126883   7.186   1.635   2.451 -0.7117 -0.2492 -0.2290
 8980TIP3    H226884   7.117   1.506   2.488 -0.1445 -0.5482 -0.1905
 8981TIP3   OH226885   5.790   4.150   3.469 -0.6054 -0.5251  0.2999
 8981TIP3    H126886   5.788   4.055   3.481  0.0890 -0.4363  1.2891
 8981TIP3    H226887   5.729   4.184   3.534  0.5854 -0.2090  1.2917
 8982TIP3   OH226888   0.982   0.518   0.798 -0.6018 -0.2141 -0.3278
 8982TIP3    H126889   1.012   0.509   0.889 -0.5779 -1.6242 -0.4515
 8982TIP3    H226890   0.953   0.608   0.791  1.5193  0.5964  0.4344
 8983TIP3   OH226891   2.934   2.053   5.254  0.7053 -0.0368  0.1193
 8983TIP3    H126892   2.973   2.047   5.167 -2.0496 -1.4628 -1.1563
 8983TIP3    H226893   2.958   1.970   5.297 -0.1403 -0.5343 -0.3420
 8984TIP3   OH226894   7.232   5.336   1.721 -0.0253  0.1000 -0.7223
 8984TIP3    H126895   7.227   5.351   1.627  0.6830 -0.4407 -0.8498
 8984TIP3    H226896   7.324   5.318   1.739 -0.5271 -2.5233 -0.3647
 8985TIP3   OH226897   1.182   2.172   1.427 -0.7540 -0.5343  0.1224
 8985TIP3    H126898   1.228   2.122   1.495 -1.7350 -0.2775  0.9986
 8985TIP3    H226899   1.253   2.214   1.377 -0.0174 -0.1485  1.4337
 8986TIP3   OH226900   6.705   6.359   5.408 -0.2857  0.5640  0.6705
 8986TIP3    H126901   6.714   6.390   5.318 -1.7895 -0.4262  0.1440
 8986TIP3    H226902   6.626   6.402   5.440 -1.9287 -1.9489  0.2105
 8987TIP3   OH226903   3.887   1.862   5.173 -0.1499 -0.0139 -0.3605
 8987TIP3    H126904   3.859   1.952   5.190  0.5754 -0.2974  3.0609
 8987TIP3    H226905   3.821   1.827   5.114 -0.6296  2.6395 -1.5288
 8988TIP3   OH226906   4.241   2.620   4.576  0.4199 -0.0359 -0.0057
 8988TIP3    H126907   4.260   2.647   4.486  4.0175  0.1326  0.6428
 8988TIP3    H226908   4.169   2.558   4.568 -0.2743  0.9910 -2.8309
 8989TIP3   OH226909   2.252   3.384   5.997  0.5146 -0.2020  0.0734
 8989TIP3    H126910   2.264   3.289   5.996 -2.0515 -0.6140 -1.6482
 8989TIP3    H226911   2.204   3.401   6.078 -1.6523 -0.8716 -0.9933
 8990TIP3   OH226912   1.379   3.542   1.671 -0.2021 -0.5327 -0.0071
 8990TIP3    H126913   1.433   3.470   1.640 -1.7682 -2.1236  0.7546
 8990TIP3    H226914   1.307   3.548   1.607  0.0734  0.5874 -0.2348
 8991TIP3   OH226915   1.663   1.411   0.749 -0.9469 -0.2182 -0.1684
 8991TIP3    H126916   1.753   1.381   0.734 -0.0177  2.0397  0.4561
 8991TIP3    H226917   1.631   1.357   0.821  0.0586 -0.7533 -0.1044
 8992TIP3   OH226918   7.579   3.876   4.210 -0.1903 -0.1103 -0.0446
 8992TIP3    H126919   7.517   3.806   4.227  1.2128 -1.2224  0.6533
 8992TIP3    H226920   7.595   3.916   4.296  1.3816 -1.0056  0.1205
 8993TIP3   OH226921   1.929   6.812   3.049 -0.0091 -0.2694 -0.7219
 8993TIP3    H126922   1.965   6.900   3.039  0.1265 -0.1514  0.5745
 8993TIP3    H226923   2.003   6.754   3.031  0.2635 -0.0746 -0.2599
 8994TIP3   OH226924   1.234   3.311   4.039 -0.2683 -0.3490 -0.4039
 8994TIP3    H126925   1.242   3.297   3.945  0.2878  1.3899 -0.6402
 8994TIP3    H226926   1.155   3.364   4.049  0.8179  1.2919 -0.1284
 8995TIP3   OH226927   1.586   0.110   6.308 -0.1470  0.2375  1.0017
 8995TIP3    H126928   1.646   0.054   6.357  1.5502  1.4886  0.4825
 8995TIP3    H226929   1.560   0.178   6.370  0.0464  0.4377  0.8670
 8996TIP3   OH226930   3.907   2.407   2.396  0.2717 -0.0504 -0.4415
 8996TIP3    H126931   3.967   2.370   2.331 -0.0376 -1.1145 -0.1461
 8996TIP3    H226932   3.964   2.435   2.467  0.4250 -1.2910 -0.0522
 8997TIP3   OH226933   6.525   3.910   2.809 -0.0722  0.2208  0.2299
 8997TIP3    H126934   6.492   3.985   2.760  0.7680 -0.4917 -1.5174
 8997TIP3    H226935   6.618   3.930   2.823  0.6318 -1.2332 -1.8815
 8998TIP3   OH226936   0.806   2.800   3.362  0.5187 -0.3784 -0.1841
 8998TIP3    H126937   0.796   2.895   3.358 -1.3939 -0.5804 -1.7233
 8998TIP3    H226938   0.833   2.775   3.274  0.6622 -1.3168  0.1138
 8999TIP3   OH226939   5.268   1.320   3.123  0.0834  0.0386 -0.0305
 8999TIP3    H126940   5.216   1.305   3.202 -1.9093  0.9035 -1.0793
 8999TIP3    H226941   5.240   1.407   3.094  1.7206  0.2663 -1.0048
 9000TIP3   OH226942   5.650   5.592   4.089  0.2399  0.0389 -0.3422
 9000TIP3    H126943   5.581   5.550   4.038  1.9892 -1.9127 -1.2044
 9000TIP3    H226944   5.652   5.544   4.172  1.3558 -0.7509 -0.8059
 9001TIP3   OH226945   7.457   3.380   5.483  0.3859  0.4235  0.0917
 9001TIP3    H126946   7.516   3.372   5.558  1.4621 -1.3824 -0.8828
 9001TIP3    H226947   7.373   3.347   5.516  0.4096  1.1375  0.9241
 9002TIP3   OH226948   6.135   3.258   1.433 -0.3255  0.1069  0.9370
 9002TIP3    H126949   6.184   3.337   1.457 -1.6076  1.2195  0.0250
 9002TIP3    H226950   6.169   3.191   1.491  3.8347  0.2305 -0.9724
 9003TIP3   OH226951   7.502   6.463   0.838  0.0905 -0.4134  0.3478
 9003TIP3    H126952   7.481   6.394   0.901 -2.0368  0.0744  0.2331
 9003TIP3    H226953   7.435   6.456   0.770 -0.5487  2.0669  0.6118
 9004TIP3   OH226954   4.229   0.326   3.630 -0.1128 -0.0176 -0.7069
 9004TIP3    H126955   4.219   0.383   3.554  0.0091  0.9533 -0.0104
 9004TIP3    H226956   4.226   0.385   3.705  0.7582 -0.8351 -0.0020
 9005TIP3   OH226957   6.202   3.746   4.423  0.1148 -0.4584 -0.0749
 9005TIP3    H126958   6.176   3.793   4.502 -0.0820 -0.9952  0.1833
 9005TIP3    H226959   6.280   3.791   4.393 -0.3431  0.3313 -0.0965
 9006TIP3   OH226960   5.059   4.362   1.539  0.2642 -0.0778  0.7857
 9006TIP3    H126961   5.092   4.352   1.450  1.3703  1.1804  1.0119
 9006TIP3    H226962   5.022   4.451   1.541 -1.8428 -0.8922  0.9759
 9007TIP3   OH226963   5.416   1.075   6.506  0.6634  0.1581  0.2042
 9007TIP3    H126964   5.418   1.113   6.594 -1.3521  1.9306 -0.4279
 9007TIP3    H226965   5.488   1.118   6.460 -0.2943  1.7039  0.1031
 9008TIP3   OH226966   3.599   4.538   5.314  0.3208  0.7853  0.3950
 9008TIP3    H126967   3.523   4.516   5.366 -0.7162  0.4163 -1.2052
 9008TIP3    H226968   3.658   4.463   5.323 -1.4569 -0.9934 -1.8541
 9009TIP3   OH226969   7.377   4.602   3.169 -0.4737 -0.0254 -0.5343
 9009TIP3    H126970   7.454   4.647   3.202 -1.0521 -0.2694  1.2565
 9009TIP3    H226971   7.374   4.520   3.218 -1.9227  0.0334 -0.4828
 9010TIP3   OH226972   0.483   4.865   4.337 -0.1998  0.0802  0.1386
 9010TIP3    H126973   0.510   4.894   4.249  0.3133 -1.5245 -0.2702
 9010TIP3    H226974   0.552   4.896   4.395  0.6181 -0.7741 -0.3636
 9011TIP3   OH226975   1.220   1.828   5.203  0.6881  0.3468  0.6014
 9011TIP3    H126976   1.278   1.766   5.246  0.5903  0.1407  0.4366
 9011TIP3    H226977   1.224   1.805   5.110  0.8593  0.7575  0.5076
 9012TIP3   OH226978   8.207   3.250   5.415  0.4456  0.3692 -0.0019
 9012TIP3    H126979   8.182   3.160   5.436 -1.5219  0.7456 -0.5322
 9012TIP3    H226980   8.301   3.245   5.396  0.5304 -1.4243  0.6993
 9013TIP3   OH226981   4.805   3.290   2.946 -0.7787 -0.5153 -0.0313
 9013TIP3    H126982   4.739   3.292   2.876  0.6646  0.1770 -1.4326
 9013TIP3    H226983   4.799   3.377   2.986  0.6775  0.3313 -1.5589
 9014TIP3   OH226984   2.772   2.592   3.277 -0.1421  0.5679 -0.0298
 9014TIP3    H126985   2.717   2.606   3.354 -2.2941  0.6699 -1.4700
 9014TIP3    H226986   2.838   2.660   3.281  0.6374 -0.2431  2.3779
 9015TIP3   OH226987   1.532   5.233   4.180 -0.6147  0.2642  0.3234
 9015TIP3    H126988   1.586   5.159   4.209 -1.8658 -0.3859  1.0699
 9015TIP3    H226989   1.498   5.271   4.261  1.3520  2.7853  0.0919
 9016TIP3   OH226990   2.776   0.211   1.813  0.0260  0.1944  0.2388
 9016TIP3    H126991   2.823   0.294   1.814 -0.6101  0.5958 -0.9580
 9016TIP3    H226992   2.721   0.216   1.735 -1.0496 -0.7872  0.9133
 9017TIP3   OH226993   2.174   5.941   6.504 -0.0362 -0.1745  0.1363
 9017TIP3    H126994   2.215   5.857   6.482  1.8291  0.0562  2.3265
 9017TIP3    H226995   2.139   5.973   6.421  1.7930 -1.7443 -1.3458
 9018TIP3   OH226996   4.298   6.937   0.811  0.3521  0.1827  0.2484
 9018TIP3    H126997   4.300   6.901   0.722  0.8149  0.6453  0.0602
 9018TIP3    H226998   4.369   6.893   0.857 -0.9309 -1.2767  0.9005
 9019TIP3   OH226999   3.769   4.998   5.531 -0.2051 -0.2637  0.0306
 9019TIP3    H127000   3.857   5.000   5.569  0.7789 -1.4233 -2.0019
 9019TIP3    H227001   3.749   4.904   5.524 -0.9957 -0.0380 -0.8169
 9020TIP3   OH227002   1.933   2.307   5.271  0.3268 -0.3949 -0.5312
 9020TIP3    H127003   1.900   2.255   5.197 -2.2645 -0.2089  0.4010
 9020TIP3    H227004   1.951   2.393   5.234 -0.8997 -0.3165 -0.9771
 9021TIP3   OH227005   0.367   1.232   1.579 -0.4307 -0.4397  0.1893
 9021TIP3    H127006   0.274   1.212   1.578 -0.2696 -1.2703  0.8163
 9021TIP3    H227007   0.409   1.151   1.606  0.3613  0.3505  1.4212
 9022TIP3   OH227008   7.276   2.878   0.305  0.1706 -0.2860  0.2184
 9022TIP3    H127009   7.187   2.843   0.315  0.3739 -1.1734 -0.8565
 9022TIP3    H227010   7.272   2.965   0.345 -1.5809  0.2952 -1.0894
 9023TIP3   OH227011   0.070   5.740   3.698  0.0699 -0.1336 -0.4078
 9023TIP3    H127012   0.079   5.815   3.638 -2.4875 -0.0394 -0.7855
 9023TIP3    H227013   0.047   5.779   3.782 -0.5325 -0.4314 -0.4264
 9024TIP3   OH227014   0.663   7.733   1.571 -0.3969 -0.3230  0.2703
 9024TIP3    H127015   0.734   7.669   1.558 -1.1005 -0.9462 -0.6409
 9024TIP3    H227016   0.706   7.818   1.558 -0.1468 -0.7510 -2.1799
 9025TIP3   OH227017   3.568   1.266   4.581  0.1606  0.0384  0.5717
 9025TIP3    H127018   3.642   1.253   4.641 -1.0251 -0.5294  2.0044
 9025TIP3    H227019   3.533   1.352   4.605 -0.0781 -0.0181  0.4268
 9026TIP3   OH227020   3.224   4.743   0.757 -0.6555  0.2756 -0.1528
 9026TIP3    H127021   3.245   4.658   0.796 -1.4521  0.4775  0.7657
 9026TIP3    H227022   3.248   4.807   0.825  1.1457  0.9138 -1.3039
 9027TIP3   OH227023   4.782   1.313   2.068  0.4651  0.3489 -0.4198
 9027TIP3    H127024   4.796   1.363   2.149  0.5641 -1.7541  0.9394
 9027TIP3    H227025   4.696   1.343   2.036  0.3277  1.0668  0.5679
 9028TIP3   OH227026   3.114   2.225   3.026 -0.3244 -0.1475  0.6043
 9028TIP3    H127027   3.065   2.283   2.969 -1.9149 -1.1945  0.8521
 9028TIP3    H227028   3.199   2.213   2.982  0.6428  3.4112  1.2272
 9029TIP3   OH227029   4.686   4.720   3.679  0.8873  0.7206 -0.0728
 9029TIP3    H127030   4.716   4.663   3.609  3.3368  0.8231  0.8097
 9029TIP3    H227031   4.632   4.663   3.735  1.2884 -0.0905 -0.5053
 9030TIP3   OH227032   3.029   6.873   5.828  0.4424  0.3310 -0.7819
 9030TIP3    H127033   3.026   6.792   5.776 -1.0416 -0.1571  0.0172
 9030TIP3    H227034   2.944   6.914   5.813  1.0110  1.5352 -0.8193
 9031TIP3   OH227035   5.179   4.149   3.472 -0.3456  0.4485 -0.0688
 9031TIP3    H127036   5.188   4.244   3.476  1.5688  0.5572 -3.2428
 9031TIP3    H227037   5.269   4.117   3.466 -0.8468 -1.7816  2.5119
 9032TIP3   OH227038   4.965   0.365   3.755 -0.0760  0.3584 -0.7217
 9032TIP3    H127039   4.968   0.347   3.848  0.6484  0.1293 -0.7832
 9032TIP3    H227040   4.895   0.310   3.721  0.5273 -0.5473 -0.5207
 9033TIP3   OH227041   0.991   2.465   1.952  0.1150  0.5896 -0.2945
 9033TIP3    H127042   0.910   2.478   2.002 -1.1322  0.4563 -2.2128
 9033TIP3    H227043   1.047   2.414   2.011 -0.9097  1.2351  1.3227
 9034TIP3   OH227044   2.311   2.760   1.601  0.0931 -0.2628 -0.1183
 9034TIP3    H127045   2.242   2.738   1.538 -1.4757  0.1237  1.4028
 9034TIP3    H227046   2.265   2.796   1.676  2.0311  0.7248  0.6674
 9035TIP3   OH227047   7.513   3.382   5.755  0.1707 -0.5667  0.2201
 9035TIP3    H127048   7.601   3.384   5.795 -0.7407 -0.0515  2.3336
 9035TIP3    H227049   7.462   3.443   5.808 -1.1233  0.2743 -1.9069
 9036TIP3   OH227050   3.533   6.576   3.814  0.3188  0.3501  0.1501
 9036TIP3    H127051   3.498   6.572   3.903 -2.8253 -0.2424 -0.9892
 9036TIP3    H227052   3.462   6.543   3.759  3.0440 -1.7269 -2.4012
 9037TIP3   OH227053   4.666   5.006   3.691  0.0752 -0.4316 -0.3360
 9037TIP3    H127054   4.660   4.910   3.686  1.3068 -0.5549  0.0138
 9037TIP3    H227055   4.744   5.021   3.745 -0.6538  0.7721  0.4043
 9038TIP3   OH227056   4.976   2.781   1.657  0.2035  0.2720 -0.5971
 9038TIP3    H127057   5.048   2.729   1.692 -1.8222 -2.7536 -0.6324
 9038TIP3    H227058   5.001   2.798   1.566  0.7714 -0.9931 -0.6979
 9039TIP3   OH227059   7.429   1.814   5.725 -0.7607 -0.3207 -0.3305
 9039TIP3    H127060   7.430   1.719   5.738  0.7660 -0.0934  1.8618
 9039TIP3    H227061   7.480   1.828   5.646  0.4033 -1.2762  0.2122
 9040TIP3   OH227062   7.773   7.263   1.043  0.5682  0.1241  0.1174
 9040TIP3    H127063   7.702   7.325   1.027  0.0224  0.1832  2.4621
 9040TIP3    H227064   7.730   7.182   1.069  1.3083 -1.0474 -1.9926
 9041TIP3   OH227065   2.968   5.958   3.349 -0.3058  0.2044 -0.1401
 9041TIP3    H127066   2.968   5.862   3.344  0.8023  0.2333 -1.2524
 9041TIP3    H227067   3.053   5.980   3.388 -1.2650  0.7042  1.7563
 9042TIP3   OH227068   3.653   4.809   1.253  0.2579 -0.4824  0.0797
 9042TIP3    H127069   3.651   4.734   1.312 -0.9815  0.1437  0.8889
 9042TIP3    H227070   3.744   4.812   1.222  0.6211 -1.6120  0.9324
 9043TIP3   OH227071   3.231   3.592   3.512 -0.4830  0.2293 -0.1294
 9043TIP3    H127072   3.150   3.584   3.462 -0.6812  0.8690  0.0920
 9043TIP3    H227073   3.212   3.655   3.580  0.9676  2.4766 -1.6635
 9044TIP3   OH227074   1.364   7.160   0.268 -0.2384 -0.2346 -0.2264
 9044TIP3    H127075   1.320   7.244   0.279 -0.3216 -0.4131  0.9794
 9044TIP3    H227076   1.356   7.140   0.175 -3.1763 -0.5037 -0.0056
 9045TIP3   OH227077   1.615   6.672   3.809 -0.5766  0.1029  0.3012
 9045TIP3    H127078   1.535   6.627   3.782 -0.1365  0.0825 -1.0585
 9045TIP3    H227079   1.683   6.606   3.805  0.5710  1.2082 -4.1506
 9046TIP3   OH227080   4.208   2.338   0.731  0.6811 -0.2620 -0.0264
 9046TIP3    H127081   4.192   2.243   0.726 -0.5506 -0.0329 -1.1636
 9046TIP3    H227082   4.272   2.355   0.661  5.0046 -0.9048  3.3617
 9047TIP3   OH227083   3.781   4.401   0.919  0.0793  0.1637  0.3256
 9047TIP3    H127084   3.806   4.332   0.858 -1.4637  0.5486 -0.8199
 9047TIP3    H227085   3.776   4.358   1.004  1.0688 -0.6691 -0.0212
 9048TIP3   OH227086   4.057   0.114   3.712 -0.1380  0.0869  0.9960
 9048TIP3    H127087   4.115   0.187   3.692 -0.1980  0.5547  2.4369
 9048TIP3    H227088   3.988   0.152   3.767  0.0006 -1.1057  2.0386
 9049TIP3   OH227089   3.993   2.681   1.933  0.3326  0.5917 -0.0202
 9049TIP3    H127090   4.045   2.686   2.013  0.8492 -4.7616  0.2952
 9049TIP3    H227091   4.044   2.626   1.873 -1.5680  1.5742 -2.7689
 9050TIP3   OH227092   1.691   5.046   2.664  0.2403  0.1484  0.4619
 9050TIP3    H127093   1.728   4.961   2.640  0.7526  0.2003  1.0310
 9050TIP3    H227094   1.608   5.051   2.616  0.4426 -0.4551  0.0401
 9051TIP3   OH227095   2.817   5.651   3.127 -0.3261 -0.4363  0.3204
 9051TIP3    H127096   2.880   5.654   3.056 -0.1871 -0.7833  0.4274
 9051TIP3    H227097   2.800   5.743   3.148 -1.9366 -0.2507 -1.5273
 9052TIP3   OH227098   2.303   1.957   2.744  0.0894 -0.0981 -0.0727
 9052TIP3    H127099   2.291   1.899   2.669 -2.2816 -0.4194  0.4489
 9052TIP3    H227100   2.299   2.045   2.708 -2.2049 -0.2220 -0.2815
 9053TIP3   OH227101   3.233   5.687   4.992  0.4361 -0.0296 -0.5903
 9053TIP3    H127102   3.192   5.602   5.005  1.4727 -0.5135 -0.3169
 9053TIP3    H227103   3.260   5.713   5.080  0.2963  0.4912 -0.7014
 9054TIP3   OH227104   1.893   6.282   2.307  0.3185 -0.3285  0.2103
 9054TIP3    H127105   1.915   6.305   2.397  0.7993 -0.9742  0.2666
 9054TIP3    H227106   1.850   6.360   2.272  0.6991  0.1590  0.8011
 9055TIP3   OH227107   0.546   1.109   4.186  0.3912 -0.5331 -0.1038
 9055TIP3    H127108   0.615   1.057   4.226  1.0256  0.8761  0.7302
 9055TIP3    H227109   0.490   1.135   4.259  0.3578  0.3144 -0.4139
 9056TIP3   OH227110   1.966   6.384   3.051  0.1000 -0.1100  0.3336
 9056TIP3    H127111   1.908   6.339   3.113  0.8150  0.9700  1.8525
 9056TIP3    H227112   1.982   6.469   3.091 -0.4099  1.1385 -1.9696
 9057TIP3   OH227113   2.609   5.520   0.125  0.3153  0.0442 -0.7266
 9057TIP3    H127114   2.557   5.485   0.053 -1.1845  0.9737 -0.1532
 9057TIP3    H227115   2.656   5.594   0.087  0.0839  0.0991 -0.9051
 9058TIP3   OH227116   4.024   1.954   3.876 -0.0755  0.0368 -0.5426
 9058TIP3    H127117   3.951   2.016   3.876 -0.6667 -0.6384 -1.0671
 9058TIP3    H227118   4.095   2.000   3.921 -1.3280  0.1315  1.4944
 9059TIP3   OH227119   1.457   5.360   1.110 -0.5331 -0.2874  0.4118
 9059TIP3    H127120   1.495   5.272   1.106  0.5445  0.1112  1.3248
 9059TIP3    H227121   1.387   5.359   1.045 -0.7746 -1.9304  0.6593
 9060TIP3   OH227122   4.277   5.287   3.003 -0.6450 -0.5498  0.5339
 9060TIP3    H127123   4.183   5.270   3.007 -0.8669 -0.5456 -2.5324
 9060TIP3    H227124   4.286   5.381   3.021 -1.3586 -0.3150 -0.3229
 9061TIP3   OH227125   7.910   4.516   3.565  0.2625 -0.5150 -0.3398
 9061TIP3    H127126   7.921   4.424   3.540  0.2117 -0.8638  0.8326
 9061TIP3    H227127   7.816   4.532   3.557 -0.0727 -1.2524  1.5718
 9062TIP3   OH227128   2.870   0.939   1.359  0.0659 -0.1434 -0.0859
 9062TIP3    H127129   2.816   0.864   1.383 -0.2234  0.5166  1.5177
 9062TIP3    H227130   2.918   0.960   1.439  0.5871  1.0024 -0.6675
 9063TIP3   OH227131   2.640   2.429   2.652  0.2631  0.2604  0.2388
 9063TIP3    H127132   2.603   2.517   2.641  1.4964  1.1347  2.4362
 9063TIP3    H227133   2.596   2.395   2.730  1.0839 -0.3508  0.4389
 9064TIP3   OH227134   3.704   4.435   2.134  0.2212  0.1403 -0.0044
 9064TIP3    H127135   3.772   4.482   2.183  0.4541 -0.0342 -0.1593
 9064TIP3    H227136   3.735   4.435   2.044  0.4671 -0.7410  0.0704
 9065TIP3   OH227137   5.353   1.000   3.269  0.6931  0.0964 -0.1115
 9065TIP3    H127138   5.433   0.977   3.223  0.9138 -1.2139  0.8910
 9065TIP3    H227139   5.283   0.964   3.214  0.8187  0.5148 -0.5579
 9066TIP3   OH227140   5.753   0.473   2.750  0.1907 -0.2453 -0.2583
 9066TIP3    H127141   5.696   0.538   2.792  0.0105  0.3268 -1.3635
 9066TIP3    H227142   5.694   0.402   2.725  0.1167 -0.0916 -0.5241
 9067TIP3   OH227143   5.008   5.137   6.505 -0.0787 -0.3528 -0.2992
 9067TIP3    H127144   5.009   5.048   6.469  0.5917 -0.8042  0.7829
 9067TIP3    H227145   4.991   5.125   6.598  0.1566  0.6496 -0.1166
 9068TIP3   OH227146   0.501   6.607   3.822  0.2720  0.0393  0.4077
 9068TIP3    H127147   0.507   6.637   3.913 -1.6056 -0.3893  0.7062
 9068TIP3    H227148   0.503   6.512   3.827  1.2701  0.0125 -0.1266
 9069TIP3   OH227149   8.208   7.021   0.825 -0.6342 -0.2638  0.1100
 9069TIP3    H127150   8.129   6.968   0.833 -0.8481  0.0888  0.3440
 9069TIP3    H227151   8.278   6.966   0.861 -0.6400 -0.8683 -0.7815
 9070TIP3   OH227152   2.564   2.050   1.011 -0.3163 -0.2857  0.7363
 9070TIP3    H127153   2.596   1.960   1.023 -0.0312 -0.1661  0.8798
 9070TIP3    H227154   2.611   2.101   1.077 -0.1269  0.0503  0.3449
 9071TIP3   OH227155   4.402   5.526   1.544 -0.1719 -0.6341  0.2076
 9071TIP3    H127156   4.429   5.613   1.514  2.5243 -1.2130  0.7060
 9071TIP3    H227157   4.311   5.518   1.515  0.1074  1.5635 -1.5556
 9072TIP3   OH227158   4.832   5.079   2.468  0.3270 -0.8279 -0.4102
 9072TIP3    H127159   4.824   5.173   2.484 -0.6500 -0.9362 -0.1879
 9072TIP3    H227160   4.917   5.069   2.426  0.2074  0.2214 -0.9461
 9073TIP3   OH227161   8.169   7.055   4.384 -0.5878 -0.2972  0.2986
 9073TIP3    H127162   8.130   7.071   4.298 -2.1978  0.6207  1.1584
 9073TIP3    H227163   8.236   6.989   4.368 -2.3056 -1.7596 -1.3340
 9074TIP3   OH227164   1.591   3.930   1.136  0.0030 -0.3259  1.0283
 9074TIP3    H127165   1.607   3.844   1.096 -1.0790 -0.4674  0.8712
 9074TIP3    H227166   1.649   3.933   1.212 -0.2648 -1.3790  1.2857
 9075TIP3   OH227167   1.487   7.450   0.056  0.3222 -0.1292  0.2514
 9075TIP3    H127168   1.408   7.402   0.031 -0.0299 -0.1011  1.2515
 9075TIP3    H227169   1.559   7.404   0.012 -0.2785  0.1017 -1.0293
 9076TIP3   OH227170   1.379   3.982   4.059 -0.4033 -0.9598  0.1065
 9076TIP3    H127171   1.403   4.062   4.106  1.6835 -1.7618  0.5445
 9076TIP3    H227172   1.403   3.999   3.968 -2.0949 -0.3090 -0.2478
 9077TIP3   OH227173   1.795   5.190   0.808  0.4167 -0.1846  0.1238
 9077TIP3    H127174   1.827   5.100   0.806  0.8695 -0.0438  0.8184
 9077TIP3    H227175   1.724   5.192   0.744  1.0985 -0.7623 -0.6551
 9078TIP3   OH227176   7.981   5.227   4.894  0.0767  0.1282 -0.2586
 9078TIP3    H127177   7.908   5.257   4.949  2.4006  1.9480  2.0902
 9078TIP3    H227178   8.030   5.307   4.875  1.2235 -0.9748 -2.1763
 9079TIP3   OH227179   0.128   5.468   1.327  0.2299  0.4501  0.8760
 9079TIP3    H127180   0.048   5.520   1.318  0.2350  0.1009 -2.1101
 9079TIP3    H227181   0.196   5.521   1.286  1.2959  0.1577  2.1970
 9080TIP3   OH227182   6.132   3.937   2.517  0.3042  0.1254  0.0730
 9080TIP3    H127183   6.041   3.930   2.487  0.1199 -0.6254  0.7632
 9080TIP3    H227184   6.127   3.927   2.612  1.0967  0.1900  0.1296
 9081TIP3   OH227185   1.576   4.130   6.540 -0.1530  0.2059 -0.5164
 9081TIP3    H127186   1.670   4.124   6.558  0.1673 -0.5442 -2.2765
 9081TIP3    H227187   1.539   4.170   6.619  1.4357 -0.7834  0.7805
 9082TIP3   OH227188   3.626   2.150   1.476  0.6260 -0.2720  0.1799
 9082TIP3    H127189   3.596   2.203   1.402 -0.7304 -1.4648 -0.1688
 9082TIP3    H227190   3.718   2.173   1.486  0.1695  1.9209 -0.1289
 9083TIP3   OH227191   1.222   4.908   1.590  0.4389  0.0364  0.2823
 9083TIP3    H127192   1.174   4.829   1.566  2.1548 -1.5121  1.6291
 9083TIP3    H227193   1.212   4.915   1.685  2.1503  0.1248  0.4892
 9084TIP3   OH227194   0.449   0.897   2.812 -0.0410  0.2606 -0.2656
 9084TIP3    H127195   0.525   0.913   2.757 -1.3877  2.5173 -1.6458
 9084TIP3    H227196   0.441   0.977   2.865 -2.2757  0.8033 -1.2895
 9085TIP3   OH227197   6.144   4.165   2.326  0.4616 -0.2199  0.1486
 9085TIP3    H127198   6.215   4.226   2.348  1.0254 -0.5921 -0.5845
 9085TIP3    H227199   6.151   4.096   2.392 -1.4022  1.4059  2.1914
 9086TIP3   OH227200   5.457   4.252   0.230 -0.2736 -0.7097  0.6809
 9086TIP3    H127201   5.430   4.230   0.319 -0.1513 -0.6695  0.7277
 9086TIP3    H227202   5.435   4.175   0.178 -0.1072 -0.8304  0.7921
 9087TIP3   OH227203   4.155   0.346   1.858 -0.2501  0.5729 -0.0238
 9087TIP3    H127204   4.143   0.261   1.817  0.1026 -0.0265  1.0795
 9087TIP3    H227205   4.070   0.389   1.851 -0.5495 -0.0452 -0.1950
 9088TIP3   OH227206   2.129   7.044   6.116  0.1910  0.1465  0.0631
 9088TIP3    H127207   2.215   7.013   6.143  0.4385  0.3753 -0.4536
 9088TIP3    H227208   2.127   7.032   6.022 -0.3893  0.0406  0.0802
 9089TIP3   OH227209   7.562   0.265   2.709  0.0267 -0.5338  0.2019
 9089TIP3    H127210   7.594   0.212   2.636 -1.1920 -1.6055  0.4129
 9089TIP3    H227211   7.477   0.227   2.731 -1.2973  2.0327 -0.1664
 9090TIP3   OH227212   6.663   5.759   4.456 -0.3096 -0.0275 -0.4102
 9090TIP3    H127213   6.624   5.793   4.537 -1.8323 -1.0106 -0.6886
 9090TIP3    H227214   6.701   5.674   4.482  3.5369  1.6823  0.3028
 9091TIP3   OH227215   2.921   1.629   0.088  0.5479  0.3028 -0.4329
 9091TIP3    H127216   2.873   1.546   0.092  2.6198 -0.9757 -0.4530
 9091TIP3    H227217   2.906   1.669   0.173 -0.9379  0.2021 -0.6219
 9092TIP3   OH227218   3.724   7.757   2.317  0.6837 -0.3732  0.2697
 9092TIP3    H127219   3.783   7.682   2.326 -1.3258 -2.1511 -0.5032
 9092TIP3    H227220   3.664   7.732   2.247 -1.0782  1.2782  1.0942
 9093TIP3   OH227221   5.279   2.288   6.381 -0.1360 -0.4452  0.3236
 9093TIP3    H127222   5.221   2.243   6.319 -0.4303 -0.8142  0.8614
 9093TIP3    H227223   5.270   2.381   6.358 -0.3469 -0.5681 -0.1022
 9094TIP3   OH227224   5.384   3.975   4.588 -0.2791 -0.1379  0.3536
 9094TIP3    H127225   5.407   3.890   4.550 -1.0965  0.4241 -1.5500
 9094TIP3    H227226   5.298   3.996   4.551  0.1531  1.7544  0.2973
 9095TIP3   OH227227   3.993   0.509   0.879 -0.1337  0.3450  0.4420
 9095TIP3    H127228   3.996   0.586   0.936 -0.0029  0.7520 -0.1066
 9095TIP3    H227229   4.054   0.447   0.919 -1.0768  0.0730  1.5179
 9096TIP3   OH227230   3.673   0.903   1.281 -0.2037  0.4899  0.4347
 9096TIP3    H127231   3.729   0.833   1.314 -0.2117 -0.1705 -0.8835
 9096TIP3    H227232   3.612   0.921   1.353  0.6218  0.0597  1.2671
 9097TIP3   OH227233   1.118   6.763   5.945 -0.0429  0.1276  0.0306
 9097TIP3    H127234   1.085   6.785   5.858 -0.5026 -0.0471  0.1594
 9097TIP3    H227235   1.194   6.820   5.957 -0.9948  1.4039  0.2120
 9098TIP3   OH227236   3.383   0.220   1.327  0.7919  0.4664  0.1636
 9098TIP3    H127237   3.435   0.213   1.407 -0.0173  0.6849  0.7145
 9098TIP3    H227238   3.298   0.252   1.356  0.5295  0.6790 -0.8023
 9099TIP3   OH227239   1.554   3.440   2.926 -0.1796 -0.1724  0.4138
 9099TIP3    H127240   1.479   3.492   2.957 -1.2073 -0.5993 -1.2421
 9099TIP3    H227241   1.559   3.458   2.832  0.6264 -1.5859  0.1505
 9100TIP3   OH227242   4.905   1.932   0.902 -0.5755  0.3711  0.0074
 9100TIP3    H127243   4.954   1.947   0.821 -2.7184  0.7872 -1.2855
 9100TIP3    H227244   4.961   1.873   0.953  1.5457  1.3479 -1.0561
 9101TIP3   OH227245   2.340   3.162   1.181 -0.2355  0.7671  0.0237
 9101TIP3    H127246   2.359   3.204   1.097 -1.3415 -1.0036 -1.1797
 9101TIP3    H227247   2.427   3.147   1.219  0.3191  1.1946 -1.0005
 9102TIP3   OH227248   6.812   1.029   1.082  0.2605  0.4717  0.0818
 9102TIP3    H127249   6.717   1.024   1.068  0.2290  2.8261 -0.9585
 9102TIP3    H227250   6.823   1.006   1.175 -1.2448 -0.4237  0.0734
 9103TIP3   OH227251   1.949   2.835   3.183 -0.4846  0.2284  0.4018
 9103TIP3    H127252   2.010   2.906   3.203 -2.4295  1.3958  2.6078
 9103TIP3    H227253   1.874   2.851   3.239 -1.4737 -3.0101  0.2047
 9104TIP3   OH227254   0.894   6.143   4.485 -0.1556  0.2358 -0.5198
 9104TIP3    H127255   0.878   6.060   4.529  0.1769 -0.1023 -1.0250
 9104TIP3    H227256   0.880   6.209   4.552 -0.0502 -0.2498 -0.0161
 9105TIP3   OH227257   0.769   5.923   1.549 -0.8336 -0.2067  0.4960
 9105TIP3    H127258   0.694   5.894   1.496 -1.0990  0.8191  0.2781
 9105TIP3    H227259   0.740   6.007   1.586 -0.5344 -0.7481  2.0308
 9106TIP3   OH227260   3.854   7.398   5.779 -0.0210  0.3114 -0.5288
 9106TIP3    H127261   3.925   7.461   5.790  0.4520 -0.5355  1.9372
 9106TIP3    H227262   3.878   7.325   5.835 -2.8109 -0.0432  0.3600
 9107TIP3   OH227263   6.305   3.980   0.808  0.1380  0.0251  0.0616
 9107TIP3    H127264   6.333   4.072   0.811 -0.2690  0.1592 -0.1585
 9107TIP3    H227265   6.246   3.970   0.882  0.9897 -0.3424  0.7171
 9108TIP3   OH227266   1.906   3.919   4.862  0.0152  0.5007 -0.0764
 9108TIP3    H127267   1.911   3.836   4.910  0.7948  0.3111 -0.4746
 9108TIP3    H227268   1.990   3.925   4.816 -0.6975  0.6740 -1.4061
 9109TIP3   OH227269   6.698   7.721   0.644  0.4289 -1.0855 -0.2107
 9109TIP3    H127270   6.664   7.719   0.555 -1.7899 -1.9266  0.5898
 9109TIP3    H227271   6.696   7.813   0.669 -0.9029 -1.0628 -0.3517
 9110TIP3   OH227272   1.401   0.423   5.675  0.3286 -0.2716 -0.6187
 9110TIP3    H127273   1.334   0.409   5.741  0.4578 -0.7747 -0.5861
 9110TIP3    H227274   1.360   0.396   5.593  0.3175 -0.0839 -0.6739
 9111TIP3   OH227275   7.317   1.660   1.981 -0.2800 -0.1591  0.2285
 9111TIP3    H127276   7.409   1.661   2.010 -0.3088  0.2840  0.3225
 9111TIP3    H227277   7.268   1.686   2.060 -0.5778 -1.4037  0.4695
 9112TIP3   OH227278   5.586   5.394   0.335  0.7062 -0.3422  0.3811
 9112TIP3    H127279   5.522   5.437   0.392  3.1459  1.1128  2.2262
 9112TIP3    H227280   5.612   5.315   0.383  0.6993 -0.6250 -0.0798
 9113TIP3   OH227281   3.016   2.468   6.588 -0.2245 -0.1383 -0.0785
 9113TIP3    H127282   2.973   2.554   6.590 -0.5200 -0.2844  2.0083
 9113TIP3    H227283   3.100   2.483   6.630  0.2914 -0.6174 -0.9172
 9114TIP3   OH227284   2.460   1.935   0.080  0.7061  0.4950 -0.3895
 9114TIP3    H127285   2.491   1.992   0.150  0.4568 -0.5996  0.6313
 9114TIP3    H227286   2.402   1.991   0.028 -0.5866  0.8575  1.3529
 9115TIP3   OH227287   3.862   3.068   3.808 -0.2723  0.0548 -0.5884
 9115TIP3    H127288   3.779   3.101   3.841 -0.1408 -0.7996  0.6443
 9115TIP3    H227289   3.908   3.033   3.885  1.1914  0.4149 -1.2522
 9116TIP3   OH227290   5.810   7.577   0.922 -0.2427 -0.1610 -0.2783
 9116TIP3    H127291   5.717   7.600   0.920 -0.2409 -0.1114  0.0970
 9116TIP3    H227292   5.817   7.513   0.994 -0.2445 -1.3311 -1.2828
 9117TIP3   OH227293   2.433   6.858   3.896 -0.0597  0.1639  0.5002
 9117TIP3    H127294   2.462   6.948   3.885 -0.7091  0.4878  1.3298
 9117TIP3    H227295   2.434   6.821   3.808  0.8713  0.7665  0.2491
 9118TIP3   OH227296   7.607   4.523   3.926  0.0569  0.1626  0.4888
 9118TIP3    H127297   7.578   4.486   4.009  3.1769 -2.1615  0.7230
 9118TIP3    H227298   7.563   4.471   3.859  0.0268 -0.1314  0.7373
 9119TIP3   OH227299   7.555   5.159   2.457 -0.8504  0.1608 -0.0444
 9119TIP3    H127300   7.628   5.148   2.397 -0.2415  1.6724  0.3705
 9119TIP3    H227301   7.545   5.074   2.499  0.1457 -0.2897 -0.6849
 9120TIP3   OH227302   7.075   1.188   4.861  0.1454 -0.2883 -0.8008
 9120TIP3    H127303   7.149   1.246   4.876  1.5521 -2.0956 -0.4282
 9120TIP3    H227304   7.002   1.229   4.907  0.6416  1.9758 -1.8779
 9121TIP3   OH227305   0.455   3.254   6.408  0.7153 -0.5537  0.3838
 9121TIP3    H127306   0.548   3.272   6.396  0.1750  1.4374 -1.5977
 9121TIP3    H227307   0.414   3.341   6.406 -1.0774 -1.2391  2.7396
 9122TIP3   OH227308   2.193   1.079   0.393 -0.9460  0.2074 -0.8913
 9122TIP3    H127309   2.105   1.094   0.426  0.3664 -0.1323  3.3493
 9122TIP3    H227310   2.194   0.987   0.366 -1.5834 -0.1672  0.2879
 9123TIP3   OH227311   0.726   6.310   3.309 -0.1479 -0.3020  0.2970
 9123TIP3    H127312   0.713   6.404   3.317 -0.4501 -0.3334  0.1731
 9123TIP3    H227313   0.819   6.297   3.327 -0.3958 -0.1470  1.7697
 9124TIP3   OH227314   2.901   1.518   4.304  0.5035 -0.1781 -0.2498
 9124TIP3    H127315   2.942   1.569   4.374  0.1486  0.3708 -0.4360
 9124TIP3    H227316   2.893   1.430   4.341  1.7902 -0.2884 -0.1860
 9125TIP3   OH227317   6.097   1.286   5.581 -0.6886 -0.4806  0.0208
 9125TIP3    H127318   6.090   1.288   5.486 -0.0632 -0.7218 -0.0366
 9125TIP3    H227319   6.185   1.317   5.600 -1.7368  2.3516  0.7001
 9126TIP3   OH227320   3.652   5.337   2.437 -0.5276  0.0337 -0.2757
 9126TIP3    H127321   3.600   5.311   2.360 -0.3744  0.8132 -0.6515
 9126TIP3    H227322   3.665   5.431   2.426 -0.2622  0.0989  0.5679
 9127TIP3   OH227323   0.099   6.217   1.536  0.3684 -0.4442  0.3399
 9127TIP3    H127324   0.012   6.193   1.568  0.1204 -1.5963 -1.1112
 9127TIP3    H227325   0.083   6.271   1.459  0.8944 -1.5039 -0.5490
 9128TIP3   OH227326   1.417   3.595   2.523 -0.4313 -0.5750  0.2870
 9128TIP3    H127327   1.346   3.649   2.557  0.2128  0.4531  0.0463
 9128TIP3    H227328   1.396   3.582   2.431  0.0224  0.3008  0.0513
 9129TIP3   OH227329   0.872   1.897   5.629  0.4761 -0.2023  0.7203
 9129TIP3    H127330   0.854   1.900   5.723  1.0810 -1.7150  0.9077
 9129TIP3    H227331   0.966   1.910   5.623  0.5031 -0.5887  0.3463
 9130TIP3   OH227332   6.743   6.636   0.720  0.1831 -0.3344  0.0226
 9130TIP3    H127333   6.666   6.693   0.729  0.2871 -0.1901 -0.0059
 9130TIP3    H227334   6.734   6.572   0.791 -0.4734 -0.9067 -0.5553
 9131TIP3   OH227335   0.191   5.135   0.353  0.4653  0.4765  0.4401
 9131TIP3    H127336   0.159   5.225   0.357  1.6942  0.9594 -0.3726
 9131TIP3    H227337   0.284   5.141   0.375  0.2738 -0.7820  1.7596
 9132TIP3   OH227338   4.841   1.836   1.826  0.2716 -0.0023 -0.0530
 9132TIP3    H127339   4.805   1.750   1.803 -0.1339  0.0990  0.1918
 9132TIP3    H227340   4.899   1.858   1.754  1.4174 -1.0820  0.5092
 9133TIP3   OH227341   4.561   6.338   2.930 -0.1554 -1.0263  0.4342
 9133TIP3    H127342   4.589   6.401   2.863  2.0097 -3.2202 -0.8843
 9133TIP3    H227343   4.491   6.287   2.888 -0.5051 -0.8262  0.7643
 9134TIP3   OH227344   0.108   5.516   6.041 -0.2401 -0.1869 -0.0118
 9134TIP3    H127345   0.035   5.454   6.037 -0.0278 -0.3822 -1.1735
 9134TIP3    H227346   0.173   5.479   5.981  0.0013  1.0144 -0.5025
 9135TIP3   OH227347   3.411   6.919   4.308 -0.4966  0.6103  0.4758
 9135TIP3    H127348   3.490   6.896   4.259 -0.9027  1.3575 -0.5619
 9135TIP3    H227349   3.429   6.889   4.397 -0.3421 -2.1828 -0.3970
 9136TIP3   OH227350   3.600   2.872   6.085 -0.0043 -0.0448  0.3314
 9136TIP3    H127351   3.611   2.962   6.053  0.8332 -0.1123  0.4067
 9136TIP3    H227352   3.517   2.843   6.048  0.2058  0.4148 -0.5304
 9137TIP3   OH227353   4.708   5.760   5.288  0.1834 -0.2088 -0.6062
 9137TIP3    H127354   4.755   5.724   5.362 -1.2585 -0.1744  0.3737
 9137TIP3    H227355   4.625   5.791   5.325  0.1127  1.3310 -1.9448
 9138TIP3   OH227356   6.734   4.000   1.747 -0.2885 -0.1881  0.2593
 9138TIP3    H127357   6.691   3.955   1.820  1.6247 -1.0807  0.8752
 9138TIP3    H227358   6.809   4.043   1.786  0.3375 -0.0346 -1.0630
 9139TIP3   OH227359   5.958   7.337   4.513 -0.2653 -0.5102 -0.3731
 9139TIP3    H127360   5.996   7.326   4.600 -1.9403 -2.3524  0.1975
 9139TIP3    H227361   5.997   7.267   4.460 -0.1211 -0.1121 -0.8030
 9140TIP3   OH227362   7.086   0.063   2.149  0.8820 -0.3734 -0.2691
 9140TIP3    H127363   6.992   0.049   2.140  1.0233 -1.0057 -0.8515
 9140TIP3    H227364   7.113   0.003   2.219  0.8643 -0.2592 -0.1651
 9141TIP3   OH227365   8.128   2.355   6.494  0.2899 -0.4343  0.0052
 9141TIP3    H127366   8.157   2.382   6.581 -0.0042  2.6719 -0.7637
 9141TIP3    H227367   8.206   2.361   6.440 -0.2843  1.4277 -0.6855
 9142TIP3   OH227368   2.445   7.225   5.168  0.1555  0.1567 -0.1877
 9142TIP3    H127369   2.472   7.228   5.259  0.0314  0.2874 -0.1554
 9142TIP3    H227370   2.482   7.304   5.129  0.0308  0.2090 -0.2008
 9143TIP3   OH227371   5.333   3.546   6.299 -0.1457  0.2147 -0.2358
 9143TIP3    H127372   5.288   3.537   6.383  1.0426 -0.2892  0.3757
 9143TIP3    H227373   5.279   3.496   6.237 -0.7608  0.1621  0.3367
 9144TIP3   OH227374   7.259   3.443   0.798  0.5353 -1.0107  0.6815
 9144TIP3    H127375   7.202   3.506   0.754 -0.2241 -1.3144  1.2010
 9144TIP3    H227376   7.202   3.368   0.816  1.1962 -1.4750  0.8901
 9145TIP3   OH227377   1.980   7.475   5.931 -0.0918  0.3093 -0.0175
 9145TIP3    H127378   1.899   7.444   5.973 -0.2232  0.0834 -0.4323
 9145TIP3    H227379   1.994   7.413   5.859 -0.6964  1.5733 -1.2689
 9146TIP3   OH227380   6.512   2.328   3.883 -0.2308  0.3858  0.2430
 9146TIP3    H127381   6.450   2.255   3.877  0.2080 -0.3347  3.0024
 9146TIP3    H227382   6.595   2.287   3.908  1.3167  1.3914 -2.7951
 9147TIP3   OH227383   2.131   6.812   0.098  0.1116 -0.0956  0.1154
 9147TIP3    H127384   2.076   6.832   0.174 -0.7223 -2.6020  0.2672
 9147TIP3    H227385   2.130   6.716   0.092 -0.5631 -0.0196 -3.5506
 9148TIP3   OH227386   0.666   6.854   5.393  0.7117 -0.1278  0.2164
 9148TIP3    H127387   0.636   6.919   5.329 -1.5170 -0.1735  1.1354
 9148TIP3    H227388   0.697   6.781   5.340 -1.3590 -0.2888 -0.8712
 9149TIP3   OH227389   4.845   5.609   5.477 -0.2734 -0.2470  0.0317
 9149TIP3    H127390   4.834   5.599   5.571 -1.6953  1.4420  0.1029
 9149TIP3    H227391   4.844   5.520   5.442 -2.7589 -0.8123  1.3384
 9150TIP3   OH227392   1.612   1.703   6.326  0.0702 -0.2473 -0.8635
 9150TIP3    H127393   1.594   1.781   6.378 -1.2206 -0.8220 -0.3967
 9150TIP3    H227394   1.660   1.736   6.249 -0.5547  1.0238 -0.7372
 9151TIP3   OH227395   1.041   5.024   2.713 -0.4314  0.1632 -0.4754
 9151TIP3    H127396   1.042   5.116   2.687  1.1483 -0.4416 -2.9507
 9151TIP3    H227397   0.961   4.989   2.674 -0.9054  0.4078  0.2574
 9152TIP3   OH227398   7.892   7.681   4.674  0.3458 -0.2405 -0.3980
 9152TIP3    H127399   7.898   7.755   4.734 -0.2288 -0.0935 -0.5133
 9152TIP3    H227400   7.798   7.673   4.656  0.1200 -2.4895  1.4623
 9153TIP3   OH227401   6.254   1.225   6.708 -0.6765  0.2116 -0.3928
 9153TIP3    H127402   6.178   1.200   6.656 -1.1621  1.4595 -0.3082
 9153TIP3    H227403   6.318   1.255   6.645  0.4105 -2.3022 -0.6192
 9154TIP3   OH227404   1.142   7.336   6.784  0.2116 -0.6905 -0.1403
 9154TIP3    H127405   1.147   7.257   6.730 -0.9836 -1.2468  0.5295
 9154TIP3    H227406   1.208   7.395   6.746  0.1904 -1.4833 -1.4909
 9155TIP3   OH227407   4.688   0.715   6.150  0.3667 -0.3489  1.0011
 9155TIP3    H127408   4.663   0.626   6.128  2.2254 -0.7367  0.3179
 9155TIP3    H227409   4.614   0.749   6.200 -0.9467 -1.8035  0.1120
 9156TIP3   OH227410   2.883   7.179   6.002 -0.3605  0.6058  0.5676
 9156TIP3    H127411   2.949   7.185   5.932  0.1281  0.9980  1.0549
 9156TIP3    H227412   2.930   7.205   6.081 -0.9858  0.4338  0.9976
 9157TIP3   OH227413   7.965   0.126   3.145  0.5075  0.5767  0.0043
 9157TIP3    H127414   8.036   0.128   3.082  1.4986  2.0710  1.0999
 9157TIP3    H227415   7.915   0.047   3.123  2.2758 -0.3162 -1.0095
 9158TIP3   OH227416   2.802   4.698   3.564  0.0619 -0.1748 -0.2244
 9158TIP3    H127417   2.891   4.670   3.585  0.2989  0.4656 -0.3718
 9158TIP3    H227418   2.802   4.706   3.468 -0.1757 -0.2356 -0.2300
 9159TIP3   OH227419   0.675   4.913   0.210  0.2621 -0.2002  0.6651
 9159TIP3    H127420   0.651   4.821   0.223  0.9787 -0.3288  1.1185
 9159TIP3    H227421   0.732   4.912   0.133 -0.7394  0.0388 -0.1013
 9160TIP3   OH227422   4.805   0.481   5.627 -0.7806  0.3625  0.5496
 9160TIP3    H127423   4.842   0.554   5.676  0.1909  0.0732  0.2569
 9160TIP3    H227424   4.880   0.435   5.591 -1.2967 -1.3583  1.5269
 9161TIP3   OH227425   0.606   5.787   5.648 -0.4020  0.4442  0.2390
 9161TIP3    H127426   0.548   5.860   5.625 -1.1165  0.3933  1.7390
 9161TIP3    H227427   0.546   5.716   5.671  0.2909 -0.4347 -0.5932
 9162TIP3   OH227428   7.033   6.999   4.211  0.2932  0.2958  0.2763
 9162TIP3    H127429   6.968   6.949   4.262  1.1523 -0.3358  0.7877
 9162TIP3    H227430   7.006   6.987   4.120  1.6118 -2.9434  0.1602
 9163TIP3   OH227431   0.901   7.337   3.562  0.6845  0.4187  0.3507
 9163TIP3    H127432   0.884   7.431   3.550  0.2237  0.5997  2.1368
 9163TIP3    H227433   0.876   7.320   3.653 -1.6879 -1.9707 -0.6160
 9164TIP3   OH227434   5.415   3.499   1.743  0.9502 -0.1590  0.0001
 9164TIP3    H127435   5.351   3.430   1.759  0.4792  0.2684 -0.0046
 9164TIP3    H227436   5.410   3.515   1.649  1.1472 -0.2089 -0.0179
 9165TIP3   OH227437   5.648   4.924   1.677 -0.2694  0.4068  0.5214
 9165TIP3    H127438   5.656   4.844   1.728 -2.1577  0.9793  1.8461
 9165TIP3    H227439   5.629   4.992   1.742 -0.8081  1.5361 -0.7652
 9166TIP3   OH227440   5.510   1.595   4.069 -0.2377 -0.7016 -0.9302
 9166TIP3    H127441   5.486   1.677   4.025 -0.6733 -0.6236 -0.5602
 9166TIP3    H227442   5.591   1.616   4.115 -1.7089  0.3782  1.3935
 9167TIP3   OH227443   4.112   3.740   6.763 -0.1552 -0.0298  0.0574
 9167TIP3    H127444   4.027   3.754   6.721 -0.6496 -0.8634  0.7603
 9167TIP3    H227445   4.121   3.645   6.768  0.8055  0.0483  0.0345
 9168TIP3   OH227446   3.661   5.468   3.224 -0.2802  0.2511  0.2484
 9168TIP3    H127447   3.751   5.438   3.219  0.3976  2.1536  0.2478
 9168TIP3    H227448   3.612   5.394   3.260  1.4740 -0.3979  1.3807
 9169TIP3   OH227449   5.566   7.116   2.777 -0.0222  0.1070  0.1296
 9169TIP3    H127450   5.529   7.066   2.704  0.5849 -0.4942  0.2239
 9169TIP3    H227451   5.500   7.109   2.847  0.1201 -0.6983  0.1938
 9170TIP3   OH227452   0.351   4.075   4.760  0.5585  0.0417  0.0040
 9170TIP3    H127453   0.435   4.120   4.749  0.0498  1.3516  1.2296
 9170TIP3    H227454   0.365   4.016   4.834  0.1873  0.8429  0.7264
 9171TIP3   OH227455   5.658   2.609   4.444  0.1642 -0.0073  0.1284
 9171TIP3    H127456   5.709   2.628   4.366  1.0630  2.3051  1.1895
 9171TIP3    H227457   5.672   2.516   4.460 -2.1775 -1.2652 -3.8668
 9172TIP3   OH227458   3.557   5.693   0.681  0.0105 -0.0245  0.2883
 9172TIP3    H127459   3.545   5.645   0.599 -0.8953 -0.6779  0.7869
 9172TIP3    H227460   3.639   5.658   0.717 -0.0455 -0.3688  0.0927
 9173TIP3   OH227461   1.334   3.119   5.771 -0.0717 -0.2240 -0.5555
 9173TIP3    H127462   1.321   3.169   5.852  0.0790  1.1114 -1.3224
 9173TIP3    H227463   1.354   3.030   5.801  1.4144  0.5428  0.9312
 9174TIP3   OH227464   0.901   5.794   4.474  0.0159 -0.4278  0.2604
 9174TIP3    H127465   0.881   5.719   4.418  0.5208  0.5124 -1.2467
 9174TIP3    H227466   0.989   5.822   4.447  0.2431  0.1134  1.4798
 9175TIP3   OH227467   5.865   1.485   5.440  0.1686 -0.4833  0.0723
 9175TIP3    H127468   5.855   1.400   5.483  1.8015 -0.7310  0.0166
 9175TIP3    H227469   5.786   1.534   5.464 -0.2492 -1.6076  1.0446
 9176TIP3   OH227470   7.524   6.281   1.041  0.2120  0.2506  0.0950
 9176TIP3    H127471   7.585   6.207   1.046  1.2898  1.0312 -1.1119
 9176TIP3    H227472   7.441   6.245   1.075  0.9305 -1.2474  0.3676
 9177TIP3   OH227473   4.410   6.887   5.110 -0.0472  0.0562  0.0782
 9177TIP3    H127474   4.505   6.898   5.107  0.1055 -0.8775  0.8270
 9177TIP3    H227475   4.375   6.972   5.086  0.9326 -0.2769 -2.9868
 9178TIP3   OH227476   2.774   3.853   1.683 -0.1732  0.5776  0.1597
 9178TIP3    H127477   2.836   3.908   1.731  3.0589 -0.6955 -2.1810
 9178TIP3    H227478   2.694   3.855   1.736  1.8836  2.1620  3.5682
 9179TIP3   OH227479   6.501   5.732   0.219  0.1456  0.1789  0.0750
 9179TIP3    H127480   6.436   5.778   0.273 -0.0997 -0.4316  0.3079
 9179TIP3    H227481   6.453   5.659   0.180  0.5409  0.0953 -0.2646
 9180TIP3   OH227482   7.859   6.877   2.273  0.3920  0.1278 -0.2975
 9180TIP3    H127483   7.787   6.887   2.211 -0.2604 -0.4954  0.3356
 9180TIP3    H227484   7.923   6.943   2.247 -0.0353  0.1296 -1.3906
 9181TIP3   OH227485   3.420   2.761   0.643 -0.2109  0.1879  0.0141
 9181TIP3    H127486   3.474   2.837   0.665 -0.2758  0.0541  0.6377
 9181TIP3    H227487   3.386   2.780   0.555  0.1747  0.6500 -0.0358
 9182TIP3   OH227488   0.793   3.055   0.641 -0.6750  0.2383  0.1780
 9182TIP3    H127489   0.883   3.042   0.670 -0.8916 -0.5288  0.5416
 9182TIP3    H227490   0.740   3.013   0.709 -1.2502 -0.4106 -0.6422
 9183TIP3   OH227491   0.926   2.170   4.476 -0.1244 -0.4684 -0.1606
 9183TIP3    H127492   0.985   2.245   4.471  0.1241 -0.3294  2.7603
 9183TIP3    H227493   0.863   2.195   4.543 -0.1823 -2.7481  0.7103
 9184TIP3   OH227494   2.622   5.197   3.698 -0.0106  0.0208 -0.3036
 9184TIP3    H127495   2.547   5.137   3.701 -0.5443  0.6596  2.5439
 9184TIP3    H227496   2.687   5.157   3.756  1.7963 -0.3537 -2.4840
 9185TIP3   OH227497   7.282   1.277   5.234  0.0359 -0.2960 -0.2348
 9185TIP3    H127498   7.295   1.287   5.139  0.0687 -0.8753 -0.2938
 9185TIP3    H227499   7.230   1.354   5.259  0.7386  0.3018 -0.5732
 9186TIP3   OH227500   4.844   3.911   4.086 -0.6295 -0.3307 -0.0261
 9186TIP3    H127501   4.766   3.857   4.100  0.2140 -1.8855 -1.0977
 9186TIP3    H227502   4.824   3.962   4.008 -1.2261  0.5814  0.6960
 9187TIP3   OH227503   0.421   4.011   4.243 -0.5500  0.9717 -0.1853
 9187TIP3    H127504   0.423   4.037   4.151  1.1619  1.7419  0.0422
 9187TIP3    H227505   0.407   4.092   4.291 -0.8530  0.6589  0.2684
 9188TIP3   OH227506   0.220   2.356   2.847 -0.0982 -0.3525 -0.5793
 9188TIP3    H127507   0.313   2.338   2.861 -0.5654 -1.9853  0.7006
 9188TIP3    H227508   0.219   2.427   2.782  2.0979  1.6971  1.4357
 9189TIP3   OH227509   2.056   5.601   4.100 -0.2589 -0.1040 -0.4471
 9189TIP3    H127510   2.041   5.696   4.096 -0.7216 -0.2041 -1.7054
 9189TIP3    H227511   2.034   5.577   4.189 -2.7254  0.5797 -0.7941
 9190TIP3   OH227512   3.586   6.887   3.660 -0.2841  0.1517 -0.3516
 9190TIP3    H127513   3.614   6.975   3.688  1.8189 -0.9200  1.2193
 9190TIP3    H227514   3.665   6.833   3.669 -0.7870 -1.4124 -3.8561
 9191TIP3   OH227515   6.568   0.572   0.238 -0.0393 -0.8222 -0.1900
 9191TIP3    H127516   6.564   0.503   0.172 -0.7258 -0.3442 -0.6584
 9191TIP3    H227517   6.479   0.606   0.244  0.1075 -0.5565  0.6623
 9192TIP3   OH227518   4.874   3.590   6.681  0.8145 -0.2542  0.5700
 9192TIP3    H127519   4.907   3.511   6.639 -2.1404 -0.1212 -2.3932
 9192TIP3    H227520   4.825   3.558   6.758  1.3844 -1.0800  0.6034
 9193TIP3   OH227521   2.482   6.174   4.086  0.5358 -0.5737 -0.5322
 9193TIP3    H127522   2.446   6.255   4.051 -0.9209 -1.5449 -1.3814
 9193TIP3    H227523   2.552   6.203   4.145  0.2855  1.2692 -1.0670
 9194TIP3   OH227524   4.542   1.775   1.781 -0.4116 -0.0064 -0.0341
 9194TIP3    H127525   4.568   1.858   1.822 -0.3041  0.2827 -0.6814
 9194TIP3    H227526   4.561   1.786   1.688  0.1385 -0.9672 -0.0509
 9195TIP3   OH227527   1.927   3.741   1.156 -0.2165 -0.1712  0.3576
 9195TIP3    H127528   1.983   3.737   1.233 -1.0369  3.3467  1.3360
 9195TIP3    H227529   1.970   3.804   1.098 -2.1271  1.2038  0.3291
 9196TIP3   OH227530   5.906   2.638   1.307  0.2359 -0.2950 -0.2689
 9196TIP3    H127531   5.885   2.625   1.215  0.7716  0.7255 -0.5531
 9196TIP3    H227532   5.988   2.687   1.306  0.2485 -0.2710  0.7519
 9197TIP3   OH227533   3.989   3.210   1.363 -0.6010  0.2514  0.4365
 9197TIP3    H127534   4.076   3.250   1.358 -0.2738 -0.5739 -0.8573
 9197TIP3    H227535   3.959   3.231   1.451  0.2329  1.9402  0.3695
 9198TIP3   OH227536   0.049   1.234   5.395  0.0652 -0.1547  0.3590
 9198TIP3    H127537   0.079   1.320   5.366  0.7724 -0.0714  1.2833
 9198TIP3    H227538   0.006   1.251   5.479 -1.1317 -0.5122 -0.1480
 9199TIP3   OH227539   5.497   0.825   0.233  0.0343 -0.0009  0.3932
 9199TIP3    H127540   5.483   0.843   0.326 -0.0657 -1.6309  0.7342
 9199TIP3    H227541   5.542   0.740   0.232  3.2346  1.5782 -0.9580
 9200TIP3   OH227542   6.860   3.928   4.033  0.0261 -0.3263 -0.5783
 9200TIP3    H127543   6.954   3.912   4.021  0.5973  1.3757  1.0005
 9200TIP3    H227544   6.824   3.843   4.058  1.4903 -0.6930  0.4604
 9201TIP3   OH227545   1.377   0.483   3.216 -0.0158  0.2188 -0.1369
 9201TIP3    H127546   1.469   0.464   3.234  0.3679  1.4195 -0.7066
 9201TIP3    H227547   1.373   0.498   3.121 -0.4146  2.0293  0.1268
 9202TIP3   OH227548   4.486   1.360   6.377 -0.9981  0.0516 -0.4792
 9202TIP3    H127549   4.521   1.383   6.292 -0.9459 -0.1582 -0.5146
 9202TIP3    H227550   4.461   1.443   6.416 -1.5366  0.1040 -0.9261
 9203TIP3   OH227551   1.582   0.762   6.464  0.1460 -0.1708 -0.0237
 9203TIP3    H127552   1.656   0.817   6.438 -1.2782  1.1802 -1.4198
 9203TIP3    H227553   1.603   0.735   6.554  2.4091 -0.0285 -0.4597
 9204TIP3   OH227554   1.700   6.153   1.153  0.0708 -0.0324  0.3873
 9204TIP3    H127555   1.720   6.060   1.165  0.1050  0.0795  1.2191
 9204TIP3    H227556   1.737   6.175   1.067 -0.8782 -1.0405 -0.3103
 9205TIP3   OH227557   6.348   6.002   2.596 -0.1770  0.2640  0.0537
 9205TIP3    H127558   6.314   6.061   2.528  1.1394 -1.7806 -2.5520
 9205TIP3    H227559   6.441   6.023   2.601  0.1288 -0.9184 -0.2772
 9206TIP3   OH227560   2.165   2.179   2.488  0.3237 -0.9263 -0.5556
 9206TIP3    H127561   2.192   2.270   2.475  2.1494 -1.3675 -0.1513
 9206TIP3    H227562   2.081   2.172   2.442 -0.7351  1.3764  0.8592
 9207TIP3   OH227563   2.553   3.154   5.194 -0.2257  0.0745  0.2906
 9207TIP3    H127564   2.479   3.109   5.235 -0.2365  0.3052  0.5242
 9207TIP3    H227565   2.601   3.193   5.267  0.5598 -0.7100  0.2143
 9208TIP3   OH227566   2.906   5.111   3.658 -0.4318 -0.0596 -0.1523
 9208TIP3    H127567   2.905   5.154   3.743  0.2545  0.6078 -0.4665
 9208TIP3    H227568   2.893   5.018   3.677  0.3296  0.0030  0.7408
 9209TIP3   OH227569   7.625   4.454   0.073  0.0214 -0.4990 -0.5352
 9209TIP3    H127570   7.577   4.436  -0.007 -2.1083  2.8241 -0.1808
 9209TIP3    H227571   7.716   4.462   0.045 -0.7033  0.8372 -2.7078
 9210TIP3   OH227572   7.435   1.195   3.233  0.7324  0.0697 -0.0793
 9210TIP3    H127573   7.524   1.229   3.235  0.3207  1.1832  0.1701
 9210TIP3    H227574   7.396   1.225   3.315 -0.0702  0.1843 -0.4908
 9211TIP3   OH227575   4.410   2.853   2.444  0.7601 -0.5352  0.1275
 9211TIP3    H127576   4.331   2.879   2.396  1.8556  2.5431 -0.2052
 9211TIP3    H227577   4.478   2.848   2.378  1.4443 -0.3179  0.8073
 9212TIP3   OH227578   0.746   2.065   1.952 -0.2985 -0.2185 -0.0018
 9212TIP3    H127579   0.674   2.008   1.925 -0.8412  0.5742 -0.2631
 9212TIP3    H227580   0.823   2.028   1.909 -0.4054 -1.5127  0.8830
 9213TIP3   OH227581   6.600   4.750   3.369  0.5413  0.1056  0.3359
 9213TIP3    H127582   6.581   4.733   3.461  1.0306 -0.5671  0.3178
 9213TIP3    H227583   6.684   4.797   3.371 -0.3255  1.7253  0.3293
 9214TIP3   OH227584   3.701   7.097   3.790 -0.0272 -0.3357  0.0036
 9214TIP3    H127585   3.760   7.030   3.826  0.4614 -0.6440 -1.3035
 9214TIP3    H227586   3.684   7.156   3.864  1.0457 -0.8505  0.6941
 9215TIP3   OH227587   3.925   4.719   5.118  0.1382 -0.0924 -0.1661
 9215TIP3    H127588   4.020   4.712   5.128  0.2311  0.3682 -0.7021
 9215TIP3    H227589   3.894   4.745   5.205  0.5330  0.0974 -0.0791
 9216TIP3   OH227590   6.452   0.955   5.139  0.2561 -0.2987  0.1045
 9216TIP3    H127591   6.430   0.995   5.055  3.1498 -0.5526 -0.9129
 9216TIP3    H227592   6.400   1.003   5.203 -2.3893 -0.3737 -1.8103
 9217TIP3   OH227593   2.832   6.601   5.928 -0.3404  0.5953 -0.4445
 9217TIP3    H127594   2.741   6.618   5.903 -0.1477  0.3895 -1.3022
 9217TIP3    H227595   2.878   6.589   5.845  0.4995  0.8257 -0.0184
 9218TIP3   OH227596   0.991   7.171   4.720 -0.0288 -0.1559  1.0149
 9218TIP3    H127597   0.906   7.169   4.765 -0.5369  2.1199  0.2822
 9218TIP3    H227598   0.976   7.228   4.644  1.3008 -2.3459 -1.0384
 9219TIP3   OH227599   3.404   6.857   1.695  0.4723  0.2495 -0.1096
 9219TIP3    H127600   3.391   6.766   1.720 -3.1994  0.9104  0.9710
 9219TIP3    H227601   3.387   6.860   1.601  1.7121 -0.2728 -0.3761
 9220TIP3   OH227602   1.867   6.486   0.107  0.0352  0.5854  0.0460
 9220TIP3    H127603   1.906   6.433   0.037 -0.4344 -1.4033  1.2064
 9220TIP3    H227604   1.939   6.499   0.169 -0.1316  0.3525  0.2884
 9221TIP3   OH227605   4.541   2.520   6.118  0.3819  0.1739  0.1014
 9221TIP3    H127606   4.532   2.555   6.206 -3.1788 -0.0213 -0.0480
 9221TIP3    H227607   4.540   2.597   6.061 -0.8093  0.1915  0.1139
 9222TIP3   OH227608   4.550   3.464   5.058  0.3482 -0.3053  0.2452
 9222TIP3    H127609   4.600   3.545   5.067  0.8267 -0.7691  2.0743
 9222TIP3    H227610   4.559   3.420   5.142 -0.9637 -1.6701 -0.2757
 9223TIP3   OH227611   7.579   3.256   2.368  0.3573 -0.3231  0.3814
 9223TIP3    H127612   7.530   3.241   2.287  2.3378  2.1186 -1.4526
 9223TIP3    H227613   7.529   3.324   2.413 -0.6010 -1.4904  1.1368
 9224TIP3   OH227614   7.531   6.336   3.463  0.2065  0.2696 -0.2371
 9224TIP3    H127615   7.468   6.359   3.395 -1.4138 -0.0189  1.1022
 9224TIP3    H227616   7.558   6.419   3.501 -2.6808  0.3087  2.0072
 9225TIP3   OH227617   6.251   6.161   6.383  0.0905  0.3476  0.3070
 9225TIP3    H127618   6.212   6.133   6.300 -0.6734 -0.2888  0.8611
 9225TIP3    H227619   6.314   6.092   6.404  0.0520  0.3444  0.4122
 9226TIP3   OH227620   3.789   3.327   5.228 -0.4549  0.1937 -0.3421
 9226TIP3    H127621   3.857   3.378   5.273  2.1886 -1.2464 -2.3942
 9226TIP3    H227622   3.734   3.293   5.299  2.3240 -0.4245  1.7079
 9227TIP3   OH227623   5.035   4.759   4.003  0.0051  0.0646 -0.3430
 9227TIP3    H127624   4.978   4.696   3.959 -0.2591  1.5383 -2.2350
 9227TIP3    H227625   5.049   4.722   4.091 -3.5581 -0.5183  0.1019
 9228TIP3   OH227626   3.488   0.175   4.580 -0.5772  0.2572 -0.1635
 9228TIP3    H127627   3.443   0.256   4.557 -1.1457  0.3417  1.1856
 9228TIP3    H227628   3.535   0.196   4.661  2.9809  0.5640 -2.1014
 9229TIP3   OH227629   1.876   3.818   2.916  0.2393 -0.7963  0.0708
 9229TIP3    H127630   1.889   3.845   2.825  1.5895  0.5298  0.6378
 9229TIP3    H227631   1.854   3.725   2.910  0.0704 -0.6774 -1.6131
 9230TIP3   OH227632   4.333   3.988   3.278  0.1892 -0.7757 -0.5480
 9230TIP3    H127633   4.321   4.005   3.185 -0.1625 -0.7917 -0.5043
 9230TIP3    H227634   4.368   3.899   3.282 -0.4389 -1.0286 -0.6260
 9231TIP3   OH227635   1.801   2.788   1.454 -0.2992  0.3523  0.0036
 9231TIP3    H127636   1.713   2.821   1.472 -0.1298  0.8366 -0.0329
 9231TIP3    H227637   1.841   2.779   1.540 -0.1608  0.7726 -0.0138
 9232TIP3   OH227638   2.366   2.496   6.437 -0.1656 -0.1503 -0.2748
 9232TIP3    H127639   2.361   2.462   6.526 -0.5195 -1.3245 -0.7353
 9232TIP3    H227640   2.275   2.521   6.416  0.0627  1.0005  0.0064
 9233TIP3   OH227641   7.810   4.478   5.187  0.3092 -0.4135 -0.5097
 9233TIP3    H127642   7.885   4.420   5.170  0.4551  0.1685 -2.0421
 9233TIP3    H227643   7.802   4.530   5.107 -0.8715  0.5109  0.1844
 9234TIP3   OH227644   1.237   2.862   3.684  0.4495 -0.4683  0.2104
 9234TIP3    H127645   1.200   2.774   3.674  1.1677 -0.6466 -1.1429
 9234TIP3    H227646   1.246   2.894   3.594  4.8079 -0.9487  0.2634
 9235TIP3   OH227647   7.540   7.750   4.970 -0.2146 -0.6492 -0.2850
 9235TIP3    H127648   7.480   7.702   5.028  1.5195 -1.0488  1.2553
 9235TIP3    H227649   7.569   7.825   5.022  1.0324 -0.7521 -0.7936
 9236TIP3   OH227650   3.649   2.827   0.015  0.1845 -0.0640 -0.5599
 9236TIP3    H127651   3.610   2.784  -0.061 -2.8705 -0.2203  0.9175
 9236TIP3    H227652   3.707   2.762   0.053  1.9295  0.1011 -2.8018
 9237TIP3   OH227653   3.168   1.698   1.250  0.3428 -0.4677 -0.0833
 9237TIP3    H127654   3.073   1.700   1.236  0.7916  1.6605 -4.3712
 9237TIP3    H227655   3.188   1.783   1.289  0.5215 -0.9778  0.9652
 9238TIP3   OH227656   4.722   3.271   6.040  0.4708 -0.6552 -0.3194
 9238TIP3    H127657   4.629   3.256   6.060  0.0520  3.5171  2.1604
 9238TIP3    H227658   4.768   3.235   6.116  0.5918 -0.4253 -0.2819
 9239TIP3   OH227659   5.550   5.692   1.988 -0.4220  0.3012 -0.2867
 9239TIP3    H127660   5.482   5.673   1.924 -2.2603 -0.8575  1.8545
 9239TIP3    H227661   5.580   5.606   2.017  0.5617  0.7897  0.1937
 9240TIP3   OH227662   5.819   3.790   2.467 -0.1646 -0.5123  0.3723
 9240TIP3    H127663   5.860   3.828   2.544 -0.9639  1.2664 -0.0386
 9240TIP3    H227664   5.850   3.842   2.394 -1.6071 -0.3604 -0.1666
 9241TIP3   OH227665   1.831   3.258   0.517 -0.7822  0.0997 -0.6151
 9241TIP3    H127666   1.740   3.287   0.517 -0.4324  1.6344 -3.6228
 9241TIP3    H227667   1.874   3.312   0.583 -2.0255 -0.7116  0.9039
 9242TIP3   OH227668   5.034   7.328   3.070  0.1607 -0.1118  0.6187
 9242TIP3    H127669   4.984   7.266   3.017 -0.9108  0.2235  1.2058
 9242TIP3    H227670   5.107   7.277   3.104  0.8107 -0.3548 -1.0753
 9243TIP3   OH227671   0.031   3.374   0.487  0.2817  0.2978 -0.4388
 9243TIP3    H127672   0.061   3.462   0.461  0.6184  0.2554 -0.2065
 9243TIP3    H227673   0.111   3.329   0.514  0.0519  0.0660 -0.1370
 9244TIP3   OH227674   4.720   1.020   4.174 -0.0043  0.3469 -0.0872
 9244TIP3    H127675   4.806   1.030   4.216  0.5047 -2.0883 -0.3488
 9244TIP3    H227676   4.737   1.037   4.082 -0.1702  1.4366  0.0750
 9245TIP3   OH227677   1.192   0.143   6.581 -0.1233  0.1492 -0.2538
 9245TIP3    H127678   1.268   0.113   6.631  1.4587  0.1479 -2.4881
 9245TIP3    H227679   1.209   0.112   6.492 -2.6210  0.4453 -0.9102
 9246TIP3   OH227680   4.581   3.090   0.490 -0.5345 -0.3125 -0.2615
 9246TIP3    H127681   4.495   3.072   0.528 -0.9040 -0.8604 -1.3123
 9246TIP3    H227682   4.574   3.058   0.400  0.2902  0.9656 -0.8141
 9247TIP3   OH227683   2.741   4.750   2.376  0.5544 -0.6545 -0.7302
 9247TIP3    H127684   2.709   4.719   2.460 -0.8165  0.2942 -0.8796
 9247TIP3    H227685   2.734   4.675   2.318 -2.3618 -0.2786 -0.9971
 9248TIP3   OH227686   3.626   5.474   4.485  0.0859  0.9355  0.7474
 9248TIP3    H127687   3.619   5.379   4.492 -1.2508  0.9346 -0.2294
 9248TIP3    H227688   3.651   5.502   4.573 -1.0338 -0.1973  1.4675
 9249TIP3   OH227689   8.163   2.544   3.690 -0.5084  0.0549  0.5796
 9249TIP3    H127690   8.095   2.495   3.737 -0.1945 -0.7207  0.2461
 9249TIP3    H227691   8.226   2.477   3.664 -0.4584  0.5347 -0.5645
 9250TIP3   OH227692   6.744   2.958   6.591  0.6479  0.2685  0.4545
 9250TIP3    H127693   6.755   3.018   6.517  2.8251  1.6168  1.7794
 9250TIP3    H227694   6.831   2.922   6.607 -0.3013 -2.0797  0.7363
 9251TIP3   OH227695   7.914   4.327   3.140  0.3325  0.1982  0.3422
 9251TIP3    H127696   8.005   4.352   3.158  0.1149  1.3019 -0.0278
 9251TIP3    H227697   7.900   4.351   3.048 -0.0567 -0.8352  0.1206
 9252TIP3   OH227698   0.306   5.165   5.689  0.3088 -0.0239 -0.3454
 9252TIP3    H127699   0.295   5.109   5.766 -0.4379 -0.6163 -0.8721
 9252TIP3    H227700   0.380   5.126   5.642 -0.7154 -1.0921 -1.1322
 9253TIP3   OH227701   6.528   3.596   6.350 -0.7995 -0.0027  0.1321
 9253TIP3    H127702   6.546   3.612   6.443  1.0640  1.8308 -0.4611
 9253TIP3    H227703   6.569   3.670   6.305 -0.1138 -1.7478 -2.2967
 9254TIP3   OH227704   3.261   7.538   5.197  0.3235 -0.1380 -0.4635
 9254TIP3    H127705   3.209   7.602   5.246  0.3361 -0.7509  0.3787
 9254TIP3    H227706   3.338   7.586   5.169 -0.1572  0.4857 -0.7497
 9255TIP3   OH227707   4.216   4.938   0.791 -0.1071 -0.0261 -0.4517
 9255TIP3    H127708   4.162   4.901   0.861  0.1387 -2.0593 -1.2399
 9255TIP3    H227709   4.199   5.032   0.793 -4.6145 -0.6109 -1.3827
 9256TIP3   OH227710   7.654   4.566   6.006  0.2719 -0.8678 -0.6364
 9256TIP3    H127711   7.655   4.638   5.943 -0.3103  0.6823  1.0535
 9256TIP3    H227712   7.562   4.556   6.030  0.6452 -0.2785  1.1905
 9257TIP3   OH227713   1.840   3.574   0.851 -0.1420  0.2563  0.0188
 9257TIP3    H127714   1.773   3.629   0.810  0.4940  1.7229  0.8696
 9257TIP3    H227715   1.898   3.550   0.778  0.5071  2.1394 -0.1470
 9258TIP3   OH227716   6.348   1.348   3.520 -0.0028 -0.3691  0.4414
 9258TIP3    H127717   6.296   1.288   3.574  1.6714 -0.7041  1.7794
 9258TIP3    H227718   6.328   1.435   3.556 -0.6470 -0.3496  0.0505
 9259TIP3   OH227719   7.333   5.713   5.866 -0.1905  0.3582  0.2791
 9259TIP3    H127720   7.330   5.748   5.777  1.3570  0.5975  0.2985
 9259TIP3    H227721   7.246   5.676   5.880 -0.1676 -0.5564 -1.6791
 9260TIP3   OH227722   1.896   1.965   6.455  0.0048  0.0712  0.0163
 9260TIP3    H127723   1.929   2.055   6.454  0.0902  0.0442  0.2908
 9260TIP3    H227724   1.801   1.975   6.458 -0.0944  0.1522 -1.9514
 9261TIP3   OH227725   7.940   1.260   4.664 -0.0079  0.1998  0.5241
 9261TIP3    H127726   7.907   1.200   4.597 -0.1144  1.0647 -0.2046
 9261TIP3    H227727   8.034   1.265   4.647  0.1263 -0.3166  1.0496
 9262TIP3   OH227728   3.494   2.923   2.164 -0.1591  0.1902 -0.1638
 9262TIP3    H127729   3.567   2.899   2.221 -1.7507 -0.8732  1.5452
 9262TIP3    H227730   3.422   2.868   2.193 -1.6749  1.2371 -1.7514
 9263TIP3   OH227731   4.750   2.641   4.990 -0.6448  0.4209 -0.6780
 9263TIP3    H127732   4.808   2.664   4.917 -0.9299  0.8783 -0.7607
 9263TIP3    H227733   4.715   2.724   5.020  0.5819  0.4051  0.9141
 9264TIP3   OH227734   6.532   1.072   3.473 -0.0177 -0.1134 -0.1922
 9264TIP3    H127735   6.601   1.137   3.453 -0.6756  0.9864  0.9669
 9264TIP3    H227736   6.466   1.085   3.405  0.5380 -0.6252 -0.8429
 9265TIP3   OH227737   3.762   2.585   0.080  0.8464  0.7113  0.6542
 9265TIP3    H127738   3.782   2.493   0.062  1.1077  0.4517  2.1170
 9265TIP3    H227739   3.808   2.603   0.162 -0.4842  1.6896  1.2105
 9266TIP3   OH227740   1.074   0.942   2.104 -0.2218  0.1034  0.2600
 9266TIP3    H127741   1.026   1.006   2.052  1.4168 -0.1391 -1.6817
 9266TIP3    H227742   1.006   0.892   2.149 -1.5967  2.0458  0.4505
 9267TIP3   OH227743   7.522   7.419   3.457 -0.0880  0.2100  0.0833
 9267TIP3    H127744   7.480   7.339   3.426 -0.5801 -0.4024  2.2035
 9267TIP3    H227745   7.449   7.479   3.473 -0.2461 -0.6760  3.2666
 9268TIP3   OH227746   4.319   3.576   3.784 -0.5529 -0.0884  0.0522
 9268TIP3    H127747   4.245   3.579   3.844  0.0275  0.0103  0.7908
 9268TIP3    H227748   4.298   3.640   3.716 -0.8738  0.3761  0.5781
 9269TIP3   OH227749   5.593   0.513   4.374  0.2778  0.5792 -0.4993
 9269TIP3    H127750   5.683   0.507   4.407  0.5158  0.6552 -1.1219
 9269TIP3    H227751   5.540   0.528   4.453  0.6627 -0.6536  0.0294
 9270TIP3   OH227752   5.385   2.940   6.425 -0.0754  0.8179  0.1018
 9270TIP3    H127753   5.388   2.864   6.367  0.8537  1.5516 -0.8562
 9270TIP3    H227754   5.476   2.951   6.454 -0.0523  1.9986 -0.3744
 9271TIP3   OH227755   5.337   0.950   0.838 -0.0352  0.3350 -0.3566
 9271TIP3    H127756   5.245   0.978   0.844  0.1114  0.5215  1.9423
 9271TIP3    H227757   5.379   0.988   0.915  1.6548 -0.9502 -0.5777
 9272TIP3   OH227758   5.563   7.483   4.529  0.5201  0.2108 -0.2902
 9272TIP3    H127759   5.611   7.452   4.606  0.4848 -1.0025 -0.7337
 9272TIP3    H227760   5.632   7.512   4.469  0.5823  0.5605 -0.0490
 9273TIP3   OH227761   8.063   3.628   1.899 -0.5752 -0.0563 -0.2300
 9273TIP3    H127762   7.994   3.673   1.947 -0.9275 -1.0727  0.2441
 9273TIP3    H227763   8.028   3.617   1.811 -1.5259 -1.5836  0.3004
 9274TIP3   OH227764   2.078   5.407   6.609 -0.0486 -0.0230 -0.1323
 9274TIP3    H127765   1.984   5.419   6.601 -0.7674 -2.5719  2.4350
 9274TIP3    H227766   2.100   5.340   6.543 -0.1293  0.2341 -0.4190
 9275TIP3   OH227767   7.924   6.295   3.908  0.2595  0.3328  0.0755
 9275TIP3    H127768   7.878   6.377   3.926 -0.1611  0.1698 -0.2351
 9275TIP3    H227769   7.967   6.309   3.824  0.1237  0.2124 -0.0158
 9276TIP3   OH227770   6.993   1.674   0.944 -0.5146 -0.2262 -0.1711
 9276TIP3    H127771   6.987   1.614   1.019 -0.5799 -0.9316 -0.7292
 9276TIP3    H227772   7.078   1.655   0.905 -0.1087  0.7362  0.2079
 9277TIP3   OH227773   6.238   6.566   0.588  0.3643 -0.2582 -0.5957
 9277TIP3    H127774   6.197   6.580   0.673  0.4551 -1.5119 -0.3127
 9277TIP3    H227775   6.168   6.531   0.533  0.1296  1.2137 -1.2647
 9278TIP3   OH227776   1.339   0.539   4.718  0.1166  0.0586 -0.5957
 9278TIP3    H127777   1.302   0.462   4.760 -0.2483 -0.2167 -1.4013
 9278TIP3    H227778   1.302   0.614   4.765  0.0493 -0.2441 -0.1656
 9279TIP3   OH227779   1.095   1.622   2.448  0.2072  0.0622  0.1423
 9279TIP3    H127780   1.119   1.556   2.382 -0.4244 -0.6918  0.6535
 9279TIP3    H227781   1.130   1.704   2.413 -1.4849 -0.0232 -1.9466
 9280TIP3   OH227782   3.451   0.235   2.243  0.2732  0.3012  0.8950
 9280TIP3    H127783   3.522   0.195   2.194  0.3448  1.2705  0.1734
 9280TIP3    H227784   3.472   0.218   2.335  0.3280 -1.2151  0.6198
 9281TIP3   OH227785   6.714   5.115   5.184  0.0864  0.2038  0.3014
 9281TIP3    H127786   6.651   5.173   5.227 -0.0789  0.0745  0.2316
 9281TIP3    H227787   6.796   5.166   5.183  0.7288 -0.6248  2.8273
 9282TIP3   OH227788   5.921   5.167   2.798 -0.1376  0.1626 -0.9925
 9282TIP3    H127789   5.861   5.203   2.863  0.8041  1.0643 -0.5888
 9282TIP3    H227790   5.929   5.075   2.820 -2.5822 -0.4025 -2.0167
 9283TIP3   OH227791   1.655   4.087   0.179 -0.3997 -1.0820 -0.0214
 9283TIP3    H127792   1.701   4.005   0.195 -2.9543 -2.4301  0.9374
 9283TIP3    H227793   1.713   4.136   0.120  1.9614 -2.8237  0.7016
 9284TIP3   OH227794   7.452   7.024   3.125  0.0778 -0.3273  0.8874
 9284TIP3    H127795   7.405   6.948   3.159  0.2617 -0.2083  1.4080
 9284TIP3    H227796   7.515   6.988   3.063  1.0084 -0.7268  2.0243
 9285TIP3   OH227797   4.683   0.519   2.645 -0.0950  0.2235 -0.1065
 9285TIP3    H127798   4.704   0.451   2.710 -0.7927  0.6358  0.5725
 9285TIP3    H227799   4.591   0.541   2.662 -0.6632 -0.4959 -2.0234
 9286TIP3   OH227800   6.942   6.926   6.712  0.7169  0.1399 -0.4908
 9286TIP3    H127801   6.868   6.882   6.754  0.9267 -0.5138 -0.8044
 9286TIP3    H227802   6.906   6.964   6.632  0.5869  0.3511 -0.3331
 9287TIP3   OH227803   3.043   1.001   6.745 -0.5480 -0.1679  0.3547
 9287TIP3    H127804   2.960   0.964   6.774 -0.7868 -1.4597 -1.7985
 9287TIP3    H227805   3.082   0.933   6.690  0.1603  1.8516 -1.7696
 9288TIP3   OH227806   0.171   0.788   4.765  0.0406 -0.6650 -0.1845
 9288TIP3    H127807   0.194   0.741   4.845 -1.5003  1.1849  1.4213
 9288TIP3    H227808   0.087   0.750   4.738 -1.0004  0.7632  0.8856
 9289TIP3   OH227809   3.418   4.685   2.667 -0.2037  0.0909 -0.1141
 9289TIP3    H127810   3.459   4.666   2.583 -0.7321  0.0195 -0.3533
 9289TIP3    H227811   3.478   4.748   2.709  0.4737 -0.4848 -0.1965
 9290TIP3   OH227812   7.459   7.182   3.330 -0.6482 -0.4990 -0.1345
 9290TIP3    H127813   7.484   7.137   3.250  0.0226 -2.7810  1.2517
 9290TIP3    H227814   7.364   7.169   3.336 -0.5451 -1.2656 -0.0467
 9291TIP3   OH227815   3.199   2.528   0.444  0.3590 -0.1480 -0.3445
 9291TIP3    H127816   3.217   2.613   0.405  0.0245  0.3626  0.5695
 9291TIP3    H227817   3.197   2.545   0.539  1.3118 -1.3555 -0.0698
 9292TIP3   OH227818   7.717   2.099   2.950 -0.2549  0.1239 -0.5825
 9292TIP3    H127819   7.632   2.082   2.990  0.2224  1.6580  1.2584
 9292TIP3    H227820   7.704   2.179   2.899 -0.3844 -0.7763 -2.0166
 9293TIP3   OH227821   6.734   0.091   0.377 -0.1441  0.0214  0.0792
 9293TIP3    H127822   6.758   0.091   0.284  1.1773  0.7477  0.3913
 9293TIP3    H227823   6.679   0.169   0.387 -0.9427 -0.4897 -0.2338
 9294TIP3   OH227824   2.281   4.603   5.020  0.7920  0.1060  0.1034
 9294TIP3    H127825   2.268   4.679   5.078 -1.7085  2.4264 -3.1212
 9294TIP3    H227826   2.194   4.563   5.014  1.0279 -0.1719 -1.8473
 9295TIP3   OH227827   1.117   2.416   4.712 -0.0335 -0.2135  0.3521
 9295TIP3    H127828   1.118   2.320   4.713  0.3019 -0.2089  0.6747
 9295TIP3    H227829   1.177   2.440   4.642  0.8189 -0.2295  1.0669
 9296TIP3   OH227830   4.506   3.854   0.749  0.2788  0.9804 -0.0831
 9296TIP3    H127831   4.568   3.782   0.759 -1.3929 -0.4374  0.6427
 9296TIP3    H227832   4.508   3.875   0.656 -1.2033 -1.9706 -0.9090
 9297TIP3   OH227833   6.713   6.507   5.694  0.1626  0.0599 -0.0173
 9297TIP3    H127834   6.742   6.487   5.783  0.3391 -0.4805 -0.1961
 9297TIP3    H227835   6.623   6.474   5.690 -0.2753  1.1664  0.3358
 9298TIP3   OH227836   6.653   6.639   4.585  0.0314  0.0149  0.4023
 9298TIP3    H127837   6.710   6.612   4.657  4.0944  1.6263 -1.8516
 9298TIP3    H227838   6.660   6.735   4.584 -1.1875  0.1285 -1.2249
 9299TIP3   OH227839   4.736   5.170   2.005 -0.0322 -0.2066  0.2241
 9299TIP3    H127840   4.650   5.162   1.963  0.5392  0.8712 -1.2868
 9299TIP3    H227841   4.719   5.219   2.085 -0.8632 -0.1067 -0.0024
 9300TIP3   OH227842   1.610   5.402   3.593 -0.0869  0.1913  0.2726
 9300TIP3    H127843   1.553   5.329   3.617 -1.5777  0.3571 -2.3620
 9300TIP3    H227844   1.643   5.435   3.676 -2.2981 -1.1654  1.7978
 9301TIP3   OH227845   1.682   1.246   3.848  0.1101  0.8303 -0.3613
 9301TIP3    H127846   1.701   1.340   3.851  2.3875  0.4369 -0.1698
 9301TIP3    H227847   1.665   1.222   3.939 -0.2231  1.0179 -0.3744
 9302TIP3   OH227848   0.801   0.707   1.652 -0.0479  0.6286 -0.7430
 9302TIP3    H127849   0.763   0.622   1.675  3.2144 -0.4265  1.5317
 9302TIP3    H227850   0.793   0.759   1.732  1.0584  1.1943 -0.9820
 9303TIP3   OH227851   6.010   7.006   2.057  0.1170  0.7673  0.6024
 9303TIP3    H127852   6.008   6.910   2.062 -1.4499  0.7264 -0.2938
 9303TIP3    H227853   6.083   7.025   1.997 -1.2413 -0.0360 -1.4375
 9304TIP3   OH227854   3.157   6.080   1.698  0.4016  0.1156 -0.2502
 9304TIP3    H127855   3.199   6.068   1.613  1.1214  2.7551 -0.3682
 9304TIP3    H227856   3.110   5.998   1.715  0.3717 -0.5333 -3.1035
 9305TIP3   OH227857   4.221   4.874   4.591  0.2368 -0.1564  0.8021
 9305TIP3    H127858   4.308   4.848   4.562 -0.4786 -0.2213 -1.4304
 9305TIP3    H227859   4.195   4.807   4.654  0.9038 -1.4172 -0.2250
 9306TIP3   OH227860   6.879   3.854   5.563 -0.4542 -0.2044 -0.5996
 9306TIP3    H127861   6.797   3.904   5.555  0.3209  0.9010 -2.1618
 9306TIP3    H227862   6.937   3.911   5.614 -0.5390 -0.8833  0.2918
 9307TIP3   OH227863   4.541   1.363   1.935  0.5054  0.3942 -0.5126
 9307TIP3    H127864   4.532   1.276   1.896  0.2737 -0.2573  0.9422
 9307TIP3    H227865   4.490   1.420   1.877 -1.1719 -0.8159 -0.3189
 9308TIP3   OH227866   2.846   5.049   1.294  0.2966  0.3047 -0.2752
 9308TIP3    H127867   2.757   5.081   1.304  0.9418  2.1135 -0.0016
 9308TIP3    H227868   2.845   4.961   1.331 -1.1852  0.6157  0.4705
 9309TIP3   OH227869   2.369   4.769   4.512 -0.4766 -0.5907 -0.1549
 9309TIP3    H127870   2.380   4.681   4.478  1.2647 -0.6883  0.5814
 9309TIP3    H227871   2.363   4.758   4.607  0.6889  0.1299  0.0218
 9310TIP3   OH227872   0.315   3.399   2.100 -0.5272 -0.2490  0.4163
 9310TIP3    H127873   0.257   3.454   2.048 -1.1274 -1.1049  0.1642
 9310TIP3    H227874   0.393   3.387   2.046 -0.7442 -0.3304  0.1225
 9311TIP3   OH227875   4.671   6.807   5.756 -0.2183 -0.1812  0.1253
 9311TIP3    H127876   4.665   6.717   5.789  1.3702 -1.1018 -1.8636
 9311TIP3    H227877   4.725   6.853   5.821 -0.1410 -0.9489  0.6154
 9312TIP3   OH227878   1.024   1.265   4.876 -0.6611  0.0847  0.2154
 9312TIP3    H127879   1.016   1.170   4.881  0.7366 -0.0691 -0.0875
 9312TIP3    H227880   1.071   1.281   4.795  0.3495  0.9411  0.9385
 9313TIP3   OH227881   5.030   1.674   0.974  0.0133 -0.1555  0.5613
 9313TIP3    H127882   5.010   1.613   1.046 -0.0285 -1.4626 -0.5177
 9313TIP3    H227883   4.961   1.658   0.910 -0.5607  1.7658  0.6598
 9314TIP3   OH227884   5.001   6.827   4.469 -0.1870 -0.7983 -0.1576
 9314TIP3    H127885   4.980   6.898   4.408 -0.0701 -1.8740 -1.4918
 9314TIP3    H227886   5.078   6.785   4.431  0.3123 -1.0812  1.1124
 9315TIP3   OH227887   6.168   1.855   0.487  0.2287 -0.1643  0.1228
 9315TIP3    H127888   6.219   1.792   0.537 -1.9290 -1.2888  1.0653
 9315TIP3    H227889   6.128   1.803   0.417 -0.1527  0.5326 -0.1892
 9316TIP3   OH227890   1.580   0.770   2.390 -0.5118  0.5168  0.5434
 9316TIP3    H127891   1.498   0.800   2.351 -0.0591  0.3307 -0.5839
 9316TIP3    H227892   1.577   0.675   2.382  1.2760  0.5755 -2.7386
 9317TIP3   OH227893   3.846   5.194   1.668 -0.1492  0.2493 -0.1125
 9317TIP3    H127894   3.917   5.253   1.642 -0.5198  0.4128 -0.7711
 9317TIP3    H227895   3.817   5.228   1.753  1.4188 -0.6043  0.8219
 9318TIP3   OH227896   5.961   7.480   2.928 -0.2145 -0.0466  0.1479
 9318TIP3    H127897   5.972   7.567   2.889 -1.5544 -0.4425 -1.1939
 9318TIP3    H227898   6.002   7.420   2.866  0.2495 -0.4368  0.8158
 9319TIP3   OH227899   6.566   6.492   4.136 -0.2585  0.1624 -0.4579
 9319TIP3    H127900   6.498   6.550   4.169  0.5251 -0.0744  1.7058
 9319TIP3    H227901   6.519   6.412   4.111 -0.9005  0.3708  0.0531
 9320TIP3   OH227902   0.389   0.646   6.084  0.4243 -0.4259  0.8608
 9320TIP3    H127903   0.426   0.565   6.119  1.3858  0.2257  1.3845
 9320TIP3    H227904   0.332   0.679   6.154 -0.3898 -0.9051  0.4433
 9321TIP3   OH227905   4.693   7.300   2.133  0.1980  0.5321 -0.2035
 9321TIP3    H127906   4.777   7.342   2.118  1.4941 -0.8322  2.4550
 9321TIP3    H227907   4.713   7.207   2.137 -1.7935  0.0005 -1.2710
 9322TIP3   OH227908   3.740   6.363   3.903 -0.7227 -0.1102  0.4552
 9322TIP3    H127909   3.735   6.312   3.823  2.0908  0.1974 -0.0319
 9322TIP3    H227910   3.676   6.433   3.891  0.9132  1.0560 -2.4605
 9323TIP3   OH227911   6.313   0.497   5.936  0.1208  0.4427 -0.2157
 9323TIP3    H127912   6.399   0.472   5.904  0.3483  0.2626  0.5221
 9323TIP3    H227913   6.326   0.582   5.977  0.3556 -0.3882  1.5359
 9324TIP3   OH227914   2.594   5.069   4.119 -0.0208  0.1669 -0.7682
 9324TIP3    H127915   2.508   5.095   4.087 -0.2131 -0.7498 -1.0288
 9324TIP3    H227916   2.641   5.041   4.040  0.2050 -0.1720 -0.5186
 9325TIP3   OH227917   6.096   3.846   5.676 -0.6699  0.2856 -0.5533
 9325TIP3    H127918   6.016   3.797   5.658 -1.4446  1.0098  0.7340
 9325TIP3    H227919   6.166   3.782   5.668 -1.5841 -0.8735  0.3507
 9326TIP3   OH227920   0.415   3.234   4.546  0.1611  0.4256  0.0660
 9326TIP3    H127921   0.470   3.309   4.524  1.3651 -0.2918  0.5172
 9326TIP3    H227922   0.415   3.231   4.642  0.3776 -0.3088  0.0535
 9327TIP3   OH227923   8.188   2.655   2.180 -0.1369 -0.0745 -0.9514
 9327TIP3    H127924   8.139   2.662   2.262  0.2711  0.5706 -0.7606
 9327TIP3    H227925   8.188   2.561   2.160  0.7704 -0.3953  0.4107
 9328TIP3   OH227926   6.611   3.844   6.248 -0.3659 -0.2065 -0.4703
 9328TIP3    H127927   6.672   3.912   6.277 -0.1996  0.9006 -3.0845
 9328TIP3    H227928   6.525   3.886   6.252 -0.1593  0.6658 -3.0827
 9329TIP3   OH227929   4.533   2.123   4.604  0.1844  0.0798 -0.4132
 9329TIP3    H127930   4.529   2.180   4.681 -1.7945 -1.3939  0.6633
 9329TIP3    H227931   4.598   2.057   4.626  1.2215  0.8955 -0.9521
 9330TIP3   OH227932   2.693   1.866   6.624 -0.2158 -0.9153  0.6110
 9330TIP3    H127933   2.641   1.945   6.608  0.0730 -0.1636  2.9185
 9330TIP3    H227934   2.775   1.881   6.577 -0.1367  0.2346  1.0740
 9331TIP3   OH227935   7.218   4.256   5.839 -0.2663  0.3746 -0.2248
 9331TIP3    H127936   7.307   4.254   5.875  0.1174  2.2407 -0.9247
 9331TIP3    H227937   7.217   4.333   5.782 -2.5268  0.8145  0.2831
 9332TIP3   OH227938   2.002   4.034   0.416  0.6300  0.0241  0.0391
 9332TIP3    H127939   2.035   4.110   0.464  0.4915  0.3422 -0.3601
 9332TIP3    H227940   1.907   4.037   0.430  0.4799  0.6929 -1.0691
 9333TIP3   OH227941   2.190   3.223   0.558  0.5250  0.2694 -0.4151
 9333TIP3    H127942   2.221   3.220   0.649 -0.3213  0.0994 -0.1249
 9333TIP3    H227943   2.247   3.287   0.516  0.7616  0.5451  0.3028
 9334TIP3   OH227944   1.030   3.961   1.996  0.2009 -0.1042  0.0122
 9334TIP3    H127945   1.021   3.938   1.903  0.0987  1.6340 -0.4338
 9334TIP3    H227946   1.014   4.055   1.999  1.1272  0.0299  1.6683
 9335TIP3   OH227947   6.707   0.433   1.701 -0.0196 -0.2149  0.2062
 9335TIP3    H127948   6.745   0.365   1.756  1.9413 -1.2191 -2.2112
 9335TIP3    H227949   6.727   0.406   1.611 -2.0669  1.9018 -1.0122
 9336TIP3   OH227950   5.268   5.111   4.906  0.2334  0.0670 -0.0289
 9336TIP3    H127951   5.285   5.192   4.858 -0.1629  0.0980 -0.1161
 9336TIP3    H227952   5.177   5.089   4.887 -0.0154  0.2209  0.9261
 9337TIP3   OH227953   2.138   4.144   0.783 -0.2089 -0.4230  0.0371
 9337TIP3    H127954   2.146   4.212   0.851  1.4540 -1.5744  1.0727
 9337TIP3    H227955   2.076   4.081   0.820  0.1470 -0.6915  0.1815
 9338TIP3   OH227956   1.519   4.228   0.881  0.3787  0.3365 -0.1454
 9338TIP3    H127957   1.595   4.287   0.880 -0.4153  1.3746 -0.3354
 9338TIP3    H227958   1.556   4.143   0.856  1.4118  0.9070 -0.6585
 9339TIP3   OH227959   1.782   0.835   5.027 -0.0445 -0.3212  0.4604
 9339TIP3    H127960   1.817   0.822   5.115  0.8378  1.5878  0.4354
 9339TIP3    H227961   1.700   0.882   5.040  0.7538  1.1925  0.2467
 9340TIP3   OH227962   1.268   1.914   0.529  0.1610 -0.0722 -0.7521
 9340TIP3    H127963   1.307   1.874   0.607  0.7049 -0.0946 -1.0356
 9340TIP3    H227964   1.253   1.841   0.469 -1.2265 -0.2112 -0.2780
 9341TIP3   OH227965   6.229   7.474   6.239  0.1450 -0.6242 -0.0979
 9341TIP3    H127966   6.246   7.395   6.290  0.6288 -1.1951 -1.1047
 9341TIP3    H227967   6.304   7.481   6.179  0.1172  0.6063 -0.0321
 9342TIP3   OH227968   7.849   3.689   2.454  0.1011  0.1652 -0.7639
 9342TIP3    H127969   7.785   3.736   2.507  0.9068 -0.9334  1.2582
 9342TIP3    H227970   7.834   3.597   2.475  2.4059 -0.1124 -0.1344
 9343TIP3   OH227971   3.204   6.732   1.262 -0.1658  0.1276 -0.2277
 9343TIP3    H127972   3.216   6.789   1.187 -0.6309 -1.2978 -1.4286
 9343TIP3    H227973   3.138   6.668   1.234 -0.7657 -0.1135  1.5770
 9344TIP3   OH227974   0.712   7.018   5.768 -0.4838  0.2182 -0.2739
 9344TIP3    H127975   0.797   7.038   5.805 -1.3077  0.9781  1.2816
 9344TIP3    H227976   0.684   7.099   5.725 -0.9415  0.3572  0.2770
 9345TIP3   OH227977   3.385   2.874   5.882 -0.2064  0.9234 -0.0627
 9345TIP3    H127978   3.376   2.937   5.811 -1.1719  0.9010  0.0211
 9345TIP3    H227979   3.415   2.793   5.840 -2.8976  0.2370 -0.8420
 9346TIP3   OH227980   5.867   5.621   6.595 -0.2092  0.8427  0.0280
 9346TIP3    H127981   5.848   5.581   6.510 -2.9398  2.9337 -0.4987
 9346TIP3    H227982   5.952   5.663   6.584 -0.3313  0.7406 -1.5589
 9347TIP3   OH227983   7.496   3.517   4.855  0.2209  0.4469  0.2759
 9347TIP3    H127984   7.571   3.463   4.880  1.1184  0.7532 -1.5710
 9347TIP3    H227985   7.491   3.585   4.922  1.6404  0.4470  0.3940
 9348TIP3   OH227986   7.367   0.852   2.134  0.0305  0.0975 -0.3190
 9348TIP3    H127987   7.426   0.784   2.166  0.1219 -0.0252 -0.7505
 9348TIP3    H227988   7.283   0.831   2.174 -0.0102 -0.4378 -0.6788
 9349TIP3   OH227989   1.596   3.280   6.145  0.0205 -0.2776  0.2164
 9349TIP3    H127990   1.666   3.224   6.179  0.9376  0.7903  0.1340
 9349TIP3    H227991   1.555   3.316   6.223  0.7596  0.5208  0.2495
 9350TIP3   OH227992   7.785   7.088   5.037 -0.1232  0.4000 -0.7329
 9350TIP3    H127993   7.876   7.068   5.014 -0.2350 -0.5080 -0.4186
 9350TIP3    H227994   7.790   7.121   5.126  0.3276  4.0584 -1.9625
 9351TIP3   OH227995   6.041   7.289   6.384 -0.0134 -0.1330  0.3562
 9351TIP3    H127996   6.100   7.243   6.325 -0.2370 -0.1794  0.1693
 9351TIP3    H227997   6.065   7.382   6.374  0.5663 -0.2227  0.8788
 9352TIP3   OH227998   1.787   4.262   6.196  1.2679  0.3378 -0.4785
 9352TIP3    H127999   1.813   4.354   6.182  1.7943  0.5038  1.3892
 9352TIP3    H228000   1.717   4.267   6.260  2.8602 -0.6626  1.4346
 9353TIP3   OH228001   0.181   3.405   4.402  0.3984 -0.0477 -0.4694
 9353TIP3    H128002   0.122   3.472   4.366  0.3689 -0.2431 -0.7851
 9353TIP3    H228003   0.268   3.443   4.393  0.2189  0.9465  1.4968
 9354TIP3   OH228004   5.279   6.818   4.670  0.1237 -0.1810 -0.2326
 9354TIP3    H128005   5.188   6.846   4.680  1.0163  2.9475  0.1240
 9354TIP3    H228006   5.285   6.791   4.579 -0.5203  2.6096 -1.2033
 9355TIP3   OH228007   0.551   7.170   6.701  0.1558 -0.2278  0.6061
 9355TIP3    H128008   0.560   7.145   6.609 -1.7685  1.0698 -0.0041
 9355TIP3    H228009   0.613   7.114   6.747  1.5901 -0.5317 -1.5244
 9356TIP3   OH228010   0.359   6.890   0.934 -0.6052 -0.0767 -0.4232
 9356TIP3    H128011   0.397   6.965   0.888 -0.0902  0.1695  0.3819
 9356TIP3    H228012   0.428   6.860   0.993 -1.1589 -0.5424  0.0052
 9357TIP3   OH228013   0.243   1.913   5.020  0.0220 -0.2224 -0.2364
 9357TIP3    H128014   0.289   1.854   5.080 -0.7875 -0.0716  0.5624
 9357TIP3    H228015   0.151   1.906   5.046 -0.0981  1.3752 -0.1235
 9358TIP3   OH228016   0.865   2.982   4.754 -0.0790 -0.1896  0.6622
 9358TIP3    H128017   0.907   3.065   4.774  0.4525 -0.3015  0.0587
 9358TIP3    H228018   0.938   2.923   4.732 -0.5550 -0.3190 -0.6603
 9359TIP3   OH228019   6.596   6.914   4.157  0.7969 -0.4138 -0.6676
 9359TIP3    H128020   6.658   6.959   4.099  1.4977 -0.4458  0.0420
 9359TIP3    H228021   6.578   6.978   4.227 -0.6256 -0.0898 -1.2943
 9360TIP3   OH228022   8.214   4.295   2.223  0.4132  0.0630  0.3460
 9360TIP3    H128023   8.248   4.235   2.157  0.4561  0.3316  0.1226
 9360TIP3    H228024   8.124   4.267   2.237  0.3251  0.1652 -0.0131
 9361TIP3   OH228025   1.597   5.312   0.150 -0.0467 -0.3112  0.1660
 9361TIP3    H128026   1.616   5.336   0.060 -0.0729 -1.4204 -0.1433
 9361TIP3    H228027   1.504   5.330   0.161  0.3092  1.5283  0.5385
 9362TIP3   OH228028   7.572   4.915   4.236 -0.1600  0.6073 -0.2874
 9362TIP3    H128029   7.570   5.010   4.252 -0.1893  0.6811 -0.7056
 9362TIP3    H228030   7.639   4.882   4.295 -0.7705  0.7586  0.5045
 9363TIP3   OH228031   6.218   4.365   3.967  0.7725 -0.4373 -0.3875
 9363TIP3    H128032   6.186   4.293   4.022 -0.3267 -0.1144 -0.5742
 9363TIP3    H228033   6.167   4.441   3.996  0.8788 -0.0545 -1.1833
 9364TIP3   OH228034   2.629   5.861   4.175  0.1731  0.1345 -0.0623
 9364TIP3    H128035   2.637   5.913   4.095  1.9525 -1.7140 -1.1977
 9364TIP3    H228036   2.683   5.907   4.239  2.4756 -0.6489 -1.3110
 9365TIP3   OH228037   8.202   2.582   0.602  0.0767 -0.1985 -0.1004
 9365TIP3    H128038   8.140   2.601   0.531  1.6239 -0.4668 -1.5925
 9365TIP3    H228039   8.146   2.566   0.678 -1.7275 -0.9818 -1.4897
 9366TIP3   OH228040   3.137   3.003   0.588 -0.1212  0.2735 -0.4382
 9366TIP3    H128041   3.210   3.050   0.627 -0.2011  0.6480 -0.7279
 9366TIP3    H228042   3.069   3.005   0.655 -0.0786  0.4646 -0.3989
 9367TIP3   OH228043   3.210   6.009   2.159  0.4865  0.0124  0.3869
 9367TIP3    H128044   3.273   5.954   2.205  1.2564  1.0586  0.6191
 9367TIP3    H228045   3.232   6.099   2.186 -1.1886  0.4017  0.5836
 9368TIP3   OH228046   3.931   2.774   6.090  0.2084 -0.2993 -0.4430
 9368TIP3    H128047   4.023   2.744   6.091  0.4859  0.5454 -0.2362
 9368TIP3    H228048   3.925   2.834   6.163 -1.2856 -2.5247  1.3804
 9369TIP3   OH228049   2.567   3.198   0.509 -0.4500  0.2883  0.4878
 9369TIP3    H128050   2.523   3.236   0.585 -1.8195 -0.4276  0.0941
 9369TIP3    H228051   2.560   3.103   0.523  0.7074  0.1527  0.2421
 9370TIP3   OH228052   4.044   4.881   5.825  0.3701  0.0306  0.1825
 9370TIP3    H128053   4.110   4.840   5.770  1.1124  2.2451 -0.7073
 9370TIP3    H228054   4.086   4.891   5.910  0.4411 -0.3893  0.1984
 9371TIP3   OH228055   4.138   6.887   5.431 -0.3871  0.0080  0.0147
 9371TIP3    H128056   4.211   6.832   5.403 -0.7518 -0.5961  0.2301
 9371TIP3    H228057   4.062   6.852   5.384 -0.6359  0.2896  0.1996
 9372TIP3   OH228058   1.842   4.379   3.849 -0.3307  0.1322 -0.4062
 9372TIP3    H128059   1.860   4.340   3.764  0.8747  1.5682 -0.8560
 9372TIP3    H228060   1.755   4.418   3.840 -0.0103  0.6939 -1.1595
 9373TIP3   OH228061   3.559   3.629   1.206  0.6511  0.7384  0.5529
 9373TIP3    H128062   3.596   3.649   1.121 -0.9894  3.0187  0.2899
 9373TIP3    H228063   3.634   3.629   1.266  1.6520  0.3533 -0.6655
 9374TIP3   OH228064   4.451   1.096   3.303 -0.0850  0.0994  0.1688
 9374TIP3    H128065   4.421   1.083   3.213  0.7032  0.8244 -0.2083
 9374TIP3    H228066   4.434   1.012   3.346  0.3046 -0.5262 -0.8747
 9375TIP3   OH228067   6.441   7.055   3.156  0.0966 -0.0589 -0.0044
 9375TIP3    H128068   6.382   7.131   3.165  0.0568 -0.0487 -0.3481
 9375TIP3    H228069   6.382   6.981   3.145  0.1419 -0.1038  0.0556
 9376TIP3   OH228070   5.632   3.582   4.600  0.0335 -0.0304 -0.4907
 9376TIP3    H128071   5.660   3.534   4.522  0.2314 -1.3086  0.3340
 9376TIP3    H228072   5.640   3.518   4.672 -0.8224  0.8948  0.4661
 9377TIP3   OH228073   8.242   2.807   3.625 -0.1898  0.4349  0.0306
 9377TIP3    H128074   8.224   2.720   3.660  0.1278  0.4041  0.1132
 9377TIP3    H228075   8.157   2.837   3.592  0.0825 -0.7442 -1.8807
 9378TIP3   OH228076   0.432   1.352   4.592 -0.1249 -0.0822 -0.2270
 9378TIP3    H128077   0.459   1.407   4.666  0.1219  0.9747 -1.0808
 9378TIP3    H228078   0.395   1.414   4.529  1.7541 -0.6374 -1.9812
 9379TIP3   OH228079   2.763   7.388   4.847 -0.0603  0.6511  0.0367
 9379TIP3    H128080   2.797   7.403   4.759 -0.1035  1.6543  0.1748
 9379TIP3    H228081   2.738   7.295   4.849  1.7697  0.1208 -0.3726
 9380TIP3   OH228082   2.792   3.896   2.000  0.3720  0.1052 -0.1787
 9380TIP3    H128083   2.867   3.955   1.996 -1.6321  3.0930  1.7916
 9380TIP3    H228084   2.793   3.862   2.089 -0.9542  0.7729  0.1162
 9381TIP3   OH228085   2.020   1.829   4.516 -0.8707  0.2583  0.3604
 9381TIP3    H128086   1.994   1.849   4.606  1.9837  0.6812  1.2047
 9381TIP3    H228087   2.069   1.747   4.523 -1.2495 -0.0990 -0.9367
 9382TIP3   OH228088   4.076   7.180   2.081 -0.5935  0.5901  0.0606
 9382TIP3    H128089   3.996   7.139   2.049 -0.8043  0.7198  0.4249
 9382TIP3    H228090   4.098   7.245   2.014 -0.8116  0.5824 -0.0165
 9383TIP3   OH228091   1.070   6.201   4.822 -0.3809 -0.5518 -0.4468
 9383TIP3    H128092   1.160   6.169   4.810  0.2626  0.7056  0.7330
 9383TIP3    H228093   1.052   6.187   4.915 -0.9012  0.4302 -0.3824
 9384TIP3   OH228094   0.001   7.642   0.194 -0.2830  0.7052  0.0130
 9384TIP3    H128095   0.074   7.604   0.145  1.2545 -0.3935  2.9202
 9384TIP3    H228096  -0.015   7.726   0.151  1.9724  0.5002 -1.4021
 9385TIP3   OH228097   4.664   0.426   0.294  0.3201 -0.5681 -0.0044
 9385TIP3    H128098   4.638   0.469   0.213  0.7112  0.3118  0.3212
 9385TIP3    H228099   4.587   0.375   0.320 -1.0407  1.7440  0.7848
 9386TIP3   OH228100   5.132   0.356   1.768 -0.5577  0.3165  0.5679
 9386TIP3    H128101   5.109   0.352   1.675 -0.7731 -1.0145  0.6583
 9386TIP3    H228102   5.187   0.434   1.776 -1.8146  1.3411 -0.3807
 9387TIP3   OH228103   3.701   2.737   3.794 -0.3041  0.5132 -0.0169
 9387TIP3    H128104   3.629   2.704   3.739  0.8019 -0.7529 -0.7435
 9387TIP3    H228105   3.737   2.810   3.743  0.3140 -0.2571 -0.7194
 9388TIP3   OH228106   0.559   3.568   6.649  0.3424  0.5315  0.1505
 9388TIP3    H128107   0.467   3.563   6.626  0.1202 -0.9458  1.2078
 9388TIP3    H228108   0.559   3.580   6.744  1.2527  2.0745  0.0017
 9389TIP3   OH228109   8.081   7.777   2.742 -0.0970  0.2034 -0.4158
 9389TIP3    H128110   8.108   7.816   2.825  0.1623  0.2515 -0.5190
 9389TIP3    H228111   8.136   7.821   2.676 -0.8529  0.7321 -0.7033
 9390TIP3   OH228112   4.109   0.829   0.273 -0.4120 -0.4625  0.5709
 9390TIP3    H128113   4.036   0.891   0.275 -0.6371 -0.7006  2.7899
 9390TIP3    H228114   4.123   0.806   0.365  1.3391 -1.7568  0.0375
 9391TIP3   OH228115   2.261   4.270   1.357 -0.2384 -0.2152  0.3638
 9391TIP3    H128116   2.240   4.189   1.310  0.0734  0.2582 -0.6427
 9391TIP3    H228117   2.257   4.246   1.449  1.7521 -1.9088  0.1002
 9392TIP3   OH228118   4.720   6.992   4.563  0.4526 -0.4381 -0.1668
 9392TIP3    H128119   4.712   6.923   4.628 -0.1183  1.0724  1.4430
 9392TIP3    H228120   4.805   7.033   4.582 -0.6375  1.3662  1.0946
 9393TIP3   OH228121   1.269   6.086   5.461  0.0826  0.0058  0.0006
 9393TIP3    H128122   1.296   6.090   5.553  1.4216  0.1433 -0.3797
 9393TIP3    H228123   1.265   5.992   5.441  1.4163 -0.0194 -0.2361
 9394TIP3   OH228124   5.488   5.887   3.773  0.2428 -0.5305 -0.3778
 9394TIP3    H128125   5.547   5.917   3.842  1.4493 -1.2470 -1.0809
 9394TIP3    H228126   5.403   5.926   3.796  0.6327 -0.6887  1.4513
 9395TIP3   OH228127   0.945   1.164   0.424  0.6014  0.0982  0.0773
 9395TIP3    H128128   0.926   1.073   0.444  1.1839  0.1326  0.8428
 9395TIP3    H228129   0.921   1.212   0.503  1.1795  0.4835  0.0279
 9396TIP3   OH228130   6.251   0.724   1.253  0.4019  0.3799 -0.2696
 9396TIP3    H128131   6.251   0.807   1.205  0.6443 -0.2305 -1.3550
 9396TIP3    H228132   6.288   0.661   1.192 -1.8386 -1.0208 -0.2786
 9397TIP3   OH228133   7.740   4.794   6.775 -0.3064  0.4209  0.0451
 9397TIP3    H128134   7.814   4.795   6.714 -0.5818  0.6697 -0.2925
 9397TIP3    H228135   7.686   4.721   6.747 -1.0883  1.3036 -0.8232
 9398TIP3   OH228136   3.031   3.907   6.485  0.4519 -0.4445 -0.3760
 9398TIP3    H128137   2.945   3.865   6.478  0.0488 -0.4522  2.9833
 9398TIP3    H228138   3.086   3.862   6.421 -1.3968 -2.1818 -0.8184
 9399TIP3   OH228139   0.141   1.011   3.605  0.6468  0.3511  0.1866
 9399TIP3    H128140   0.135   0.946   3.535  0.4506  1.2450 -0.6499
 9399TIP3    H228141   0.079   0.982   3.671  1.6287 -1.1109  0.5158
 9400TIP3   OH228142   2.488   6.661   4.944 -0.0575 -0.3235  0.2679
 9400TIP3    H128143   2.446   6.578   4.965 -0.0534 -0.0570  1.4056
 9400TIP3    H228144   2.548   6.677   5.017  1.3043 -0.2089 -0.8294
 9401TIP3   OH228145   4.453   0.476   5.291 -0.1875 -0.4935 -0.5659
 9401TIP3    H128146   4.543   0.501   5.313  0.1387 -2.0705  0.0896
 9401TIP3    H228147   4.399   0.526   5.352  0.2225  0.5585 -1.0406
 9402TIP3   OH228148   0.514   4.280   1.896 -0.1433 -0.4745  0.3869
 9402TIP3    H128149   0.486   4.337   1.968 -0.4206  1.4032 -1.1190
 9402TIP3    H228150   0.466   4.312   1.820  1.0606 -1.5931 -0.9046
 9403TIP3   OH228151   3.825   3.009   2.509 -0.3958  0.2131  0.0144
 9403TIP3    H128152   3.756   3.065   2.475 -0.1674  0.4968  0.0098
 9403TIP3    H228153   3.864   2.968   2.431 -0.1074  0.5872 -0.0421
 9404TIP3   OH228154   7.967   3.369   2.763  0.2439  0.1183 -0.3048
 9404TIP3    H128155   7.899   3.428   2.794 -0.4595  0.2190 -1.9237
 9404TIP3    H228156   8.048   3.419   2.771  0.0021  0.3686  0.6931
 9405TIP3   OH228157   5.949   0.863   3.163 -0.3537  0.1794  0.0912
 9405TIP3    H128158   5.922   0.795   3.101  1.6532 -2.4145  1.8319
 9405TIP3    H228159   5.881   0.862   3.231 -0.2349 -0.2821  0.2103
 9406TIP3   OH228160   3.107   3.416   0.479  0.4638 -0.8120 -0.1136
 9406TIP3    H128161   3.050   3.349   0.517  0.6010 -0.6531  0.3740
 9406TIP3    H228162   3.183   3.368   0.446  0.5674 -0.9001  0.2478
 9407TIP3   OH228163   1.216   5.953   3.464 -0.0213 -0.3997  0.0409
 9407TIP3    H128164   1.212   6.013   3.390 -0.6063  0.6247  0.8707
 9407TIP3    H228165   1.307   5.922   3.464  0.4309  0.8367 -0.1658
 9408TIP3   OH228166   3.909   1.743   3.678 -0.6782  0.2936 -0.1127
 9408TIP3    H128167   3.856   1.679   3.724  0.1111 -1.4039 -1.4531
 9408TIP3    H228168   3.949   1.795   3.747 -0.2565 -1.5470  1.0971
 9409TIP3   OH228169   4.592   1.869   1.515  0.5003 -0.1766 -0.0519
 9409TIP3    H128170   4.653   1.800   1.485 -0.3922 -1.6132  1.2944
 9409TIP3    H228171   4.548   1.898   1.435  1.1657 -0.9053 -0.7036
 9410TIP3   OH228172   3.489   7.347   0.572  0.0600 -0.6077  0.8131
 9410TIP3    H128173   3.555   7.414   0.590 -0.8311  0.5090  0.0202
 9410TIP3    H228174   3.493   7.289   0.649  1.1835  0.0639  1.2871
 9411TIP3   OH228175   1.294   0.989   4.402  0.1087 -0.2552 -0.4582
 9411TIP3    H128176   1.260   0.961   4.487  0.9051 -1.0309 -0.3744
 9411TIP3    H228177   1.377   1.033   4.423  0.2704 -0.3780 -0.8244
 9412TIP3   OH228178   5.377   4.323   5.289  0.3282 -0.1559  0.4408
 9412TIP3    H128179   5.457   4.329   5.236  0.3601 -1.6985  0.2763
 9412TIP3    H228180   5.393   4.382   5.362  1.6058 -0.3714  0.3736
 9413TIP3   OH228181   5.508   1.194   0.684  0.3209  0.7860 -0.1551
 9413TIP3    H128182   5.520   1.288   0.672 -0.1087  1.0145  1.0476
 9413TIP3    H228183   5.530   1.178   0.776  1.0081 -0.4012 -0.4962
 9414TIP3   OH228184   4.572   0.827   3.333 -0.7719 -0.3342 -0.4237
 9414TIP3    H128185   4.524   0.784   3.262 -0.8617  2.5975 -2.3163
 9414TIP3    H228186   4.663   0.823   3.305 -0.4324 -1.6220  0.7636
 9415TIP3   OH228187   7.990   6.412   0.333 -0.1339  0.2192  0.4547
 9415TIP3    H128188   8.018   6.359   0.259 -2.0080 -0.4993  0.2153
 9415TIP3    H228189   7.992   6.502   0.300  2.5657  0.3147  0.7094
 9416TIP3   OH228190   0.688   6.169   1.619 -0.2782  0.5956  0.8639
 9416TIP3    H128191   0.755   6.237   1.632  0.2342  0.8597 -2.4304
 9416TIP3    H228192   0.628   6.206   1.555 -1.6738 -0.9925  1.1840
 9417TIP3   OH228193   3.940   6.890   5.250 -0.1906  0.1317 -0.3117
 9417TIP3    H128194   3.962   6.981   5.234 -0.6216  0.7364  2.1283
 9417TIP3    H228195   3.859   6.893   5.302 -0.8291 -1.6910 -1.0981
 9418TIP3   OH228196   2.112   6.780   2.479  0.2412  0.0540 -0.3591
 9418TIP3    H128197   2.115   6.864   2.523  1.3654 -0.9574  1.6386
 9418TIP3    H228198   2.083   6.718   2.546  0.8851 -1.3841 -1.3395
 9419TIP3   OH228199   1.453   5.997   3.716  0.0869 -0.2273 -0.0242
 9419TIP3    H128200   1.434   5.974   3.625 -0.4233  0.1117 -0.0097
 9419TIP3    H228201   1.476   6.090   3.713 -1.1489  0.1110  0.3438
 9420TIP3   OH228202   8.212   2.029   4.892  0.4067  0.4084 -0.0436
 9420TIP3    H128203   8.230   1.964   4.959 -1.6156  0.3946  0.5771
 9420TIP3    H228204   8.159   1.983   4.827 -1.9211  1.5787  0.9029
 9421TIP3   OH228205   3.820   4.046   6.515 -0.1421 -0.4116 -0.0831
 9421TIP3    H128206   3.882   4.119   6.516  0.4087 -0.7676 -2.5484
 9421TIP3    H228207   3.760   4.065   6.588  0.4816  2.0371 -0.1071
 9422TIP3   OH228208   3.113   6.942   2.128  0.0739  0.0129  0.0859
 9422TIP3    H128209   3.153   6.971   2.046  0.3320  0.2677  0.3013
 9422TIP3    H228210   3.184   6.901   2.177 -0.4615 -1.8653 -0.5952
 9423TIP3   OH228211   3.972   1.253   2.080 -0.1454 -0.2000  0.8157
 9423TIP3    H128212   3.894   1.201   2.059 -1.2347 -0.0354  3.8598
 9423TIP3    H228213   4.043   1.210   2.033 -1.5314 -2.4479  0.6029
 9424TIP3   OH228214   2.832   3.299   4.632 -0.1642  0.4381  0.0193
 9424TIP3    H128215   2.784   3.342   4.561 -1.4594  0.2542  0.7614
 9424TIP3    H228216   2.780   3.222   4.654  0.3506  0.3574  1.0204
 9425TIP3   OH228217   4.887   6.495   5.002 -0.1985 -0.3064  0.1922
 9425TIP3    H128218   4.937   6.482   4.921 -1.1148  0.9336 -0.5996
 9425TIP3    H228219   4.795   6.487   4.975 -0.5244 -2.7137  1.6512
 9426TIP3   OH228220   6.029   3.815   3.500  0.3654  0.9813  0.5287
 9426TIP3    H128221   6.021   3.754   3.574  1.6740 -2.0766 -1.6441
 9426TIP3    H228222   5.981   3.773   3.429 -1.0136  3.9162 -0.4472
 9427TIP3   OH228223   0.364   2.768   4.164  0.1029 -0.3505  0.1694
 9427TIP3    H128224   0.275   2.798   4.145  0.7107  1.4838 -0.0364
 9427TIP3    H228225   0.367   2.678   4.131 -2.7337 -1.8669  3.4943
 9428TIP3   OH228226   3.517   0.342   1.078  0.4190 -0.2305 -0.1542
 9428TIP3    H128227   3.519   0.397   1.157 -0.2265  0.5826 -0.6918
 9428TIP3    H228228   3.467   0.265   1.104 -1.7288  1.0243 -0.3676
 9429TIP3   OH228229   7.621   5.610   1.826  0.0720  0.4130 -0.0331
 9429TIP3    H128230   7.557   5.592   1.757 -0.9240 -0.2425  1.0173
 9429TIP3    H228231   7.633   5.704   1.823 -0.7875  0.5216 -0.3941
 9430TIP3   OH228232   1.367   6.626   5.217 -0.1499  0.1866 -0.0392
 9430TIP3    H128233   1.334   6.652   5.131  1.3988 -1.4524 -1.2024
 9430TIP3    H228234   1.455   6.664   5.221 -0.0925 -0.0160  0.6983
 9431TIP3   OH228235   5.155   7.513   1.177 -0.6017  0.2980 -0.6478
 9431TIP3    H128236   5.125   7.584   1.120 -0.1207  1.0321 -0.0111
 9431TIP3    H228237   5.125   7.433   1.134 -3.4109  0.9686 -0.1038
 9432TIP3   OH228238   5.052   3.463   5.866  0.3212  0.3144 -0.1820
 9432TIP3    H128239   5.100   3.391   5.908  0.5335  0.2474 -0.5358
 9432TIP3    H228240   5.035   3.432   5.777 -3.3176 -1.0420  0.8254
 9433TIP3   OH228241   2.584   3.151   2.994 -0.1876  0.0343  0.3409
 9433TIP3    H128242   2.505   3.195   3.027  0.2559  0.9292  0.2398
 9433TIP3    H228243   2.565   3.135   2.902  0.7743  2.7901 -0.4388
 9434TIP3   OH228244   4.893   3.881   0.272 -0.3456 -0.2278 -0.1044
 9434TIP3    H128245   4.893   3.874   0.368 -0.5030 -0.1204 -0.0961
 9434TIP3    H228246   4.979   3.917   0.251  0.6250 -2.4646 -0.1744
 9435TIP3   OH228247   4.692   4.081   3.539  0.0049  0.5472 -0.3121
 9435TIP3    H128248   4.658   4.104   3.625  1.1928 -2.9553  1.2697
 9435TIP3    H228249   4.779   4.120   3.536 -0.4917  1.6924 -0.4985
 9436TIP3   OH228250   4.596   5.438   3.144 -0.3683 -0.5767 -0.3895
 9436TIP3    H128251   4.660   5.441   3.215  1.6048  1.7062 -2.0964
 9436TIP3    H228252   4.648   5.448   3.064 -2.7659  1.0512 -1.8914
 9437TIP3   OH228253   3.331   0.451   1.630 -0.2623  0.1434 -0.2255
 9437TIP3    H128254   3.242   0.482   1.612 -0.2098  0.3996 -0.0449
 9437TIP3    H228255   3.367   0.516   1.690 -0.4384 -0.6916  0.8156
 9438TIP3   OH228256   4.255   4.090   3.929  0.2614 -0.5510  0.6377
 9438TIP3    H128257   4.235   4.005   3.966 -0.4042 -1.2122 -1.1489
 9438TIP3    H228258   4.201   4.152   3.978  0.8187 -1.1166  2.0016
 9439TIP3   OH228259   4.211   5.645   4.074 -0.3968  0.6963 -0.3919
 9439TIP3    H128260   4.210   5.550   4.082  4.0739  0.4375 -0.4565
 9439TIP3    H228261   4.221   5.660   3.980 -1.4899  1.3218 -0.4283
 9440TIP3   OH228262   2.666   2.638   3.020 -0.2500 -0.2105  0.1115
 9440TIP3    H128263   2.681   2.623   3.114 -2.1721 -1.6984  0.2561
 9440TIP3    H228264   2.624   2.724   3.016 -0.4886 -0.2932  0.6712
 9441TIP3   OH228265   8.162   4.488   3.691 -0.6107  0.1781 -0.3771
 9441TIP3    H128266   8.206   4.519   3.611  0.5657  2.5723  1.0921
 9441TIP3    H228267   8.074   4.526   3.685 -0.2790  1.0036 -0.2075
 9442TIP3   OH228268   5.397   5.745   0.202  0.1572 -0.6517 -0.1355
 9442TIP3    H128269   5.335   5.785   0.141 -0.9799 -0.9790  0.7638
 9442TIP3    H228270   5.390   5.798   0.282  0.5831 -1.0641  0.1820
 9443TIP3   OH228271   6.990   1.466   0.654 -0.6565  0.4032 -0.6533
 9443TIP3    H128272   7.024   1.378   0.671  0.4208  0.6611 -1.3678
 9443TIP3    H228273   6.902   1.465   0.691 -0.2216 -0.5917  0.4130
 9444TIP3   OH228274   4.716   7.446   0.434 -0.5397  0.4499  0.0693
 9444TIP3    H128275   4.690   7.489   0.515  0.6384  0.6180  0.3641
 9444TIP3    H228276   4.633   7.415   0.396 -1.1973  1.2284  0.8316
 9445TIP3   OH228277   6.717   3.723   0.618  0.9064 -0.5897 -0.0980
 9445TIP3    H128278   6.657   3.796   0.599  1.6684 -0.4491 -2.3657
 9445TIP3    H228279   6.718   3.716   0.713 -1.0294  0.7992  0.0869
 9446TIP3   OH228280   7.769   3.563   5.663 -0.2806 -0.0097 -0.0813
 9446TIP3    H128281   7.744   3.516   5.743  0.6931 -0.7227 -0.1723
 9446TIP3    H228282   7.799   3.494   5.604 -1.6981  0.4312 -1.3554
 9447TIP3   OH228283   4.273   0.985   4.794 -0.3536  0.7442 -0.4566
 9447TIP3    H128284   4.362   0.978   4.829  0.3246  0.2492 -2.1915
 9447TIP3    H228285   4.217   0.985   4.872  1.1625  1.3765  0.6951
 9448TIP3   OH228286   1.349   0.811   3.968  0.4403 -0.1210  0.0487
 9448TIP3    H128287   1.324   0.903   3.958  0.7624 -0.0786 -0.4327
 9448TIP3    H228288   1.377   0.803   4.059 -0.8614 -0.0612  0.4822
 9449TIP3   OH228289   0.480   1.949   2.590 -0.3168  0.6807 -0.1327
 9449TIP3    H128290   0.556   1.937   2.647 -1.2706 -1.0375  0.8402
 9449TIP3    H228291   0.513   1.931   2.502  0.5172  0.5257  0.2024
 9450TIP3   OH228292   5.669   3.599   0.612  0.0104  0.2696 -0.4724
 9450TIP3    H128293   5.630   3.562   0.533 -1.0437 -1.8778  0.9524
 9450TIP3    H228294   5.763   3.587   0.600 -0.1107  0.3296 -1.5485
 9451TIP3   OH228295   5.597   4.130   5.234  0.0182  0.3060 -0.4934
 9451TIP3    H128296   5.691   4.132   5.216 -0.3034  0.9431 -2.2895
 9451TIP3    H228297   5.591   4.123   5.330  1.8870  1.5993 -0.2251
 9452TIP3   OH228298   5.949   7.757   0.261 -0.4265  0.3371 -1.1539
 9452TIP3    H128299   6.037   7.718   0.267 -0.1369  1.0060 -0.9732
 9452TIP3    H228300   5.897   7.691   0.216  0.0901 -0.2058 -0.9760
 9453TIP3   OH228301   0.977   5.964   5.183 -0.0093 -0.1331 -0.7142
 9453TIP3    H128302   1.046   5.933   5.124  0.1978  0.2491 -0.6800
 9453TIP3    H228303   0.968   6.057   5.162  1.5347  0.5495  1.2469
 9454TIP3   OH228304   2.298   7.358   4.551 -0.5002 -0.0556  0.1588
 9454TIP3    H128305   2.371   7.313   4.507 -0.0304 -0.9052  1.7225
 9454TIP3    H228306   2.302   7.326   4.642 -1.2186  1.8655  0.9061
 9455TIP3   OH228307   5.945   0.606   6.013  0.0216  0.4618  0.1674
 9455TIP3    H128308   6.010   0.567   6.072  0.6378  0.4855 -0.4792
 9455TIP3    H228309   5.929   0.538   5.947 -0.7766  0.3767  0.4331
 9456TIP3   OH228310   6.987   0.458   5.772  0.1733  0.0074 -0.0368
 9456TIP3    H128311   6.956   0.546   5.795 -1.3319 -0.7347  0.9940
 9456TIP3    H228312   6.985   0.456   5.677 -1.5218  0.5619 -0.0589
 9457TIP3   OH228313   0.208   2.330   3.125 -0.2034  0.3655  0.3022
 9457TIP3    H128314   0.116   2.356   3.114 -0.5118 -1.1443 -1.1688
 9457TIP3    H228315   0.245   2.337   3.037  1.2686  1.4546  0.9730
 9458TIP3   OH228316   4.980   4.650   1.487  0.2174  0.0111 -0.1607
 9458TIP3    H128317   5.064   4.686   1.512 -0.3796  2.1442 -1.0522
 9458TIP3    H228318   4.915   4.708   1.527 -0.8322 -0.8865 -0.4800
 9459TIP3   OH228319   7.858   5.420   4.286 -0.3921  0.3948 -0.1002
 9459TIP3    H128320   7.832   5.431   4.377  0.0203  1.8160 -0.1360
 9459TIP3    H228321   7.776   5.425   4.237 -0.9282 -2.5659  0.2893
 9460TIP3   OH228322   4.957   3.244   2.627  0.1384 -0.5386 -0.0036
 9460TIP3    H128323   4.862   3.257   2.634  0.2543 -0.4635  1.7442
 9460TIP3    H228324   4.970   3.150   2.642  0.4327 -0.3213  1.2287
 9461TIP3   OH228325   7.413   2.468   5.821 -0.6458  0.4543  0.2447
 9461TIP3    H128326   7.464   2.390   5.844 -0.2204  0.1818 -1.5127
 9461TIP3    H228327   7.342   2.436   5.765 -0.5013  1.3034 -0.4592
 9462TIP3   OH228328   3.635   3.687   0.655 -1.0169 -0.4082 -0.3274
 9462TIP3    H128329   3.665   3.633   0.583  0.3971 -0.6761  0.4246
 9462TIP3    H228330   3.550   3.721   0.626 -1.0328 -1.4575 -1.6013
 9463TIP3   OH228331   7.497   4.515   5.743 -0.1214 -0.0914  0.0451
 9463TIP3    H128332   7.547   4.591   5.770 -1.9225  0.9350  0.6949
 9463TIP3    H228333   7.503   4.515   5.647  1.3174 -0.1796  0.1207
 9464TIP3   OH228334   7.038   1.992   0.971  0.3325  0.2806 -0.2412
 9464TIP3    H128335   7.127   2.019   0.995 -0.3308  1.5096  0.9943
 9464TIP3    H228336   7.042   1.897   0.968  1.9246  0.3257 -1.2590
 9465TIP3   OH228337   5.334   7.316   4.647 -0.3112 -0.3535 -0.0934
 9465TIP3    H128338   5.413   7.347   4.602 -0.6013 -1.5511 -1.4972
 9465TIP3    H228339   5.262   7.362   4.605 -0.4319  0.5219  0.9981
 9466TIP3   OH228340   0.713   3.320   6.382 -0.2011  0.1691 -0.2376
 9466TIP3    H128341   0.719   3.409   6.348  0.5566  0.0675 -0.3850
 9466TIP3    H228342   0.796   3.279   6.357  0.0109 -0.1792  0.9826
 9467TIP3   OH228343   3.993   4.542   6.167 -0.2657  0.0494  0.5572
 9467TIP3    H128344   3.938   4.498   6.101  1.1976 -0.4666 -0.3865
 9467TIP3    H228345   4.072   4.488   6.170  0.1093  0.6555  2.0277
 9468TIP3   OH228346   2.811   6.979   4.312  0.1828  0.1982  0.4837
 9468TIP3    H128347   2.855   7.008   4.392  2.2619  0.1550 -0.5704
 9468TIP3    H228348   2.881   6.943   4.258 -1.3237 -0.6958 -0.9660
 9469TIP3   OH228349   0.181   7.544   6.176 -0.4807  0.0736 -0.2065
 9469TIP3    H128350   0.090   7.517   6.191 -0.4471  0.6925  1.3225
 9469TIP3    H228351   0.233   7.474   6.214 -0.3544  0.5406  0.5020
 9470TIP3   OH228352   1.738   1.253   1.411 -0.2221  0.2071  0.4182
 9470TIP3    H128353   1.654   1.208   1.414 -0.6059  0.7342 -1.1886
 9470TIP3    H228354   1.803   1.184   1.421 -0.7982 -0.7348 -1.7424
 9471TIP3   OH228355   3.316   0.659   0.174 -0.1621 -0.2136 -0.0411
 9471TIP3    H128356   3.329   0.753   0.186 -0.0541  0.1199 -2.3277
 9471TIP3    H228357   3.228   0.643   0.209  0.6454  0.2503  2.3988
 9472TIP3   OH228358   3.518   4.313   3.009 -0.4752 -0.1092  0.2914
 9472TIP3    H128359   3.536   4.368   2.932  1.1248 -0.7347  0.1761
 9472TIP3    H228360   3.472   4.237   2.973 -1.6198  0.5730  0.2768
 9473TIP3   OH228361   6.109   3.214   4.215  0.5271  0.2648  0.0292
 9473TIP3    H128362   6.190   3.179   4.252  0.8488 -0.7144 -1.4662
 9473TIP3    H228363   6.061   3.136   4.186 -0.0692  0.9148 -0.7997
 9474TIP3   OH228364   7.501   1.471   3.908  0.4304  0.5181  0.0403
 9474TIP3    H128365   7.558   1.497   3.835  0.4443 -1.1276 -0.6057
 9474TIP3    H228366   7.547   1.501   3.986  1.1706  1.0150 -0.5610
 9475TIP3   OH228367   2.868   7.459   0.548  0.2630 -0.0103  0.3771
 9475TIP3    H128368   2.855   7.549   0.578 -0.9365  0.2763 -0.9219
 9475TIP3    H228369   2.830   7.457   0.460 -1.6592 -2.2909  1.1428
 9476TIP3   OH228370   1.940   1.613   1.953  0.3631 -0.2767 -0.3970
 9476TIP3    H128371   1.865   1.590   1.897  0.4016 -1.4571  0.0074
 9476TIP3    H228372   1.905   1.610   2.042  1.1005 -1.8981 -0.1143
 9477TIP3   OH228373   4.468   1.379   3.351 -0.1257  0.2820  0.1884
 9477TIP3    H128374   4.420   1.413   3.276  0.8162  0.9276 -0.1387
 9477TIP3    H228375   4.464   1.284   3.341 -1.0416  0.3349 -0.0095
 9478TIP3   OH228376   4.624   3.139   6.329 -0.0932  0.3289  0.2843
 9478TIP3    H128377   4.714   3.144   6.298 -0.5959  0.3539 -1.2465
 9478TIP3    H228378   4.632   3.140   6.425  1.3927  3.0817  0.2517
 9479TIP3   OH228379   2.272   5.069   5.225 -0.2629  0.0705 -0.1020
 9479TIP3    H128380   2.304   5.007   5.160  1.2062  0.7929 -0.1038
 9479TIP3    H228381   2.278   5.154   5.183 -0.5668  0.4106  0.5213
 9480TIP3   OH228382   0.771   5.247   2.928 -0.1623  0.7716 -0.7348
 9480TIP3    H128383   0.754   5.279   2.840 -0.2129  0.9564 -0.6599
 9480TIP3    H228384   0.704   5.290   2.982 -0.2825  0.4749 -0.6463
 9481TIP3   OH228385   0.612   1.085   2.382 -0.1391 -0.0307  0.2600
 9481TIP3    H128386   0.705   1.077   2.360 -0.3494 -0.8391 -0.3707
 9481TIP3    H228387   0.578   1.150   2.321 -0.6943 -2.1725 -1.8757
 9482TIP3   OH228388   5.389   0.691   1.342  0.0431 -0.3004 -0.0204
 9482TIP3    H128389   5.431   0.615   1.381  1.6577  0.0313 -1.0167
 9482TIP3    H228390   5.380   0.669   1.249  1.6529  1.1551 -0.5626
 9483TIP3   OH228391   4.015   1.450   3.492 -0.1630 -0.7602  0.1747
 9483TIP3    H128392   3.998   1.487   3.406 -1.3453  0.5722  0.9306
 9483TIP3    H228393   4.090   1.499   3.526  0.0125 -0.9646  0.0797
 9484TIP3   OH228394   6.539   4.470   6.075  0.3944  0.1762  0.1153
 9484TIP3    H128395   6.590   4.539   6.032 -0.6471  0.4789 -0.7009
 9484TIP3    H228396   6.594   4.392   6.071  2.2545  1.2503  2.4353
 9485TIP3   OH228397   3.583   1.809   3.267 -0.1952 -0.0495  0.4702
 9485TIP3    H128398   3.545   1.723   3.285 -0.4124  0.0119  0.2905
 9485TIP3    H228399   3.512   1.871   3.282  0.1775  0.1766  1.4373
 9486TIP3   OH228400   5.798   6.944   2.883  0.2945  0.2396  0.3653
 9486TIP3    H128401   5.767   7.033   2.867 -0.1884 -0.2323 -1.4950
 9486TIP3    H228402   5.803   6.903   2.797  3.0681 -0.7441  0.8742
 9487TIP3   OH228403   7.416   4.584   0.458  0.0738 -0.2871  0.1790
 9487TIP3    H128404   7.360   4.570   0.535  1.4125 -2.5057  0.8345
 9487TIP3    H228405   7.504   4.562   0.488  0.8292  0.0797 -1.6597
 9488TIP3   OH228406   6.675   4.495   2.059 -0.0858  0.1529 -0.3433
 9488TIP3    H128407   6.678   4.402   2.035  1.1041 -0.0771  0.5748
 9488TIP3    H228408   6.595   4.504   2.110 -0.2498 -0.3473 -0.4966
 9489TIP3   OH228409   7.214   1.482   6.620  0.1487  0.2880  0.5152
 9489TIP3    H128410   7.252   1.570   6.624 -1.1421  0.8286  1.6869
 9489TIP3    H228411   7.171   1.478   6.535  1.7409  0.1047 -0.3119
 9490TIP3   OH228412   2.018   3.655   5.481 -0.6921 -0.0408  0.0417
 9490TIP3    H128413   1.941   3.649   5.425 -0.5031 -0.8181 -0.1554
 9490TIP3    H228414   2.081   3.594   5.442  0.7536  1.9191 -0.8876
 9491TIP3   OH228415   1.229   5.962   5.078  0.0348 -0.0991  0.3167
 9491TIP3    H128416   1.290   6.034   5.095  0.7670 -0.5844 -0.2270
 9491TIP3    H228417   1.223   5.956   4.983 -1.6662  0.5926  0.3378
 9492TIP3   OH228418   6.753   6.466   5.122  0.0145 -0.9667  0.2692
 9492TIP3    H128419   6.808   6.394   5.153  0.9038 -0.6385 -0.4941
 9492TIP3    H228420   6.815   6.535   5.098 -0.8160  0.0281  0.9003
 9493TIP3   OH228421   5.978   2.272   4.327 -0.1739  0.7392  0.0738
 9493TIP3    H128422   6.027   2.203   4.371 -0.0844  0.0615 -1.0406
 9493TIP3    H228423   6.040   2.310   4.265 -0.8563  0.2757 -0.9240
 9494TIP3   OH228424   2.590   4.050   2.182  0.4777  0.3066  0.0790
 9494TIP3    H128425   2.561   4.046   2.091 -2.3924 -0.1059  0.9196
 9494TIP3    H228426   2.575   4.141   2.208  3.0204  0.9086 -0.2935
 9495TIP3   OH228427   5.098   1.537   2.197 -0.4091 -0.1589  0.1060
 9495TIP3    H128428   5.156   1.501   2.264  0.2305  0.4438 -0.1002
 9495TIP3    H228429   5.052   1.609   2.240  0.2695  0.4639 -0.1781
 9496TIP3   OH228430   1.084   1.115   6.741 -0.0217  0.3147 -0.9340
 9496TIP3    H128431   1.136   1.077   6.670  1.2119 -0.3370  0.2603
 9496TIP3    H228432   0.996   1.079   6.728  0.1794  0.2254 -2.1356
 9497TIP3   OH228433   3.764   6.281   1.327 -0.5085 -0.1461 -0.4470
 9497TIP3    H128434   3.700   6.254   1.393 -0.9157 -1.2443 -1.2630
 9497TIP3    H228435   3.840   6.310   1.378 -0.7660 -1.0811  0.5064
 9498TIP3   OH228436   6.355   5.658   0.565  0.0841 -0.8542  0.3445
 9498TIP3    H128437   6.324   5.571   0.592  1.4376 -1.8521 -1.1490
 9498TIP3    H228438   6.448   5.645   0.547  0.1726  0.7800 -0.4918
 9499TIP3   OH228439   7.645   4.533   1.417 -0.0585 -0.0857  0.2284
 9499TIP3    H128440   7.688   4.452   1.446 -0.9580  0.2398  2.7878
 9499TIP3    H228441   7.714   4.584   1.376  0.5055 -2.1545 -1.5399
 9500TIP3   OH228442   5.049   2.935   5.043 -0.1359  0.4651 -1.0981
 9500TIP3    H128443   4.956   2.941   5.062  0.0453 -0.6059  0.3015
 9500TIP3    H228444   5.056   2.869   4.974 -0.5471  2.0749 -2.7474
 9501TIP3   OH228445   2.892   1.837   5.810  0.4650 -0.3535 -0.1833
 9501TIP3    H128446   2.956   1.903   5.785  0.3808 -0.3881 -0.4865
 9501TIP3    H228447   2.902   1.829   5.905 -1.2253  1.8634  0.2522
 9502TIP3   OH228448   6.529   5.261   2.141 -0.3166 -0.0247  0.0953
 9502TIP3    H128449   6.487   5.181   2.173 -2.6467  1.2039  0.3254
 9502TIP3    H228450   6.571   5.299   2.218 -2.2665  0.7462  0.8348
 9503TIP3   OH228451   7.661   1.880   3.196  0.0623  0.6905 -0.2597
 9503TIP3    H128452   7.660   1.866   3.102 -0.4655  1.5896 -0.3969
 9503TIP3    H228453   7.747   1.918   3.214  0.4548 -0.1893 -0.2668
 9504TIP3   OH228454   5.050   3.335   4.152  0.1414 -0.7005  0.0831
 9504TIP3    H128455   5.095   3.261   4.110  0.8942  0.1656 -0.6801
 9504TIP3    H228456   4.983   3.294   4.206 -1.0354 -1.8596 -2.1314
 9505TIP3   OH228457   0.325   1.796   1.661  0.5123 -0.2382  0.0319
 9505TIP3    H128458   0.334   1.718   1.606 -1.1160  0.0982 -0.7614
 9505TIP3    H228459   0.378   1.862   1.618  2.0642 -0.9088  0.8143
 9506TIP3   OH228460   6.195   7.035   2.766  0.2958  0.5085  0.0675
 9506TIP3    H128461   6.145   6.974   2.711 -1.1939  1.9835 -0.2919
 9506TIP3    H228462   6.194   6.996   2.853 -0.2083 -0.2172 -0.2595
 9507TIP3   OH228463   1.267   0.417   6.012  0.0180 -0.0725 -0.0839
 9507TIP3    H128464   1.299   0.398   6.100  1.8593 -0.6933 -0.8429
 9507TIP3    H228465   1.232   0.506   6.019  2.5324  0.9319  0.7074
 9508TIP3   OH228466   6.899   0.146   3.574  0.7989  0.3386  0.1365
 9508TIP3    H128467   6.988   0.133   3.540  0.4307 -0.2750 -0.6217
 9508TIP3    H228468   6.908   0.133   3.668  0.8879 -3.5198 -0.2548
 9509TIP3   OH228469   0.352   5.189   4.555 -0.7299 -0.2398  0.0094
 9509TIP3    H128470   0.383   5.108   4.593 -0.8188 -0.6090 -0.6802
 9509TIP3    H228471   0.427   5.249   4.558 -0.8393 -0.1449  1.0637
 9510TIP3   OH228472   7.782   4.541   1.071  0.1447  0.8374 -0.6738
 9510TIP3    H128473   7.708   4.481   1.062  0.3777 -0.0719  2.4503
 9510TIP3    H228474   7.859   4.487   1.052  0.3260  0.1225  1.7618
 9511TIP3   OH228475   2.260   7.004   0.417  0.0573  0.8330 -0.1428
 9511TIP3    H128476   2.182   6.948   0.409 -0.1394  0.8384  1.3088
 9511TIP3    H228477   2.334   6.945   0.406 -0.1508  0.6987 -0.8373
 9512TIP3   OH228478   3.468   2.112   4.782 -0.1242 -0.1623  0.5290
 9512TIP3    H128479   3.480   2.142   4.692  0.8828  1.6752  1.2131
 9512TIP3    H228480   3.380   2.075   4.784 -0.8355  1.3330 -0.8317
 9513TIP3   OH228481   0.131   1.513   4.377 -0.0096 -0.8099 -0.1218
 9513TIP3    H128482   0.167   1.440   4.325  0.7869 -0.4306 -0.1243
 9513TIP3    H228483   0.207   1.568   4.396 -0.7085  0.4234 -0.7635
 9514TIP3   OH228484   5.843   0.944   5.973  0.0632 -0.1726  0.1944
 9514TIP3    H128485   5.806   0.857   5.960  1.2473 -0.7403  0.4962
 9514TIP3    H228486   5.929   0.928   6.010  1.2597  1.0381 -1.9049
 9515TIP3   OH228487   5.035   2.533   6.025 -0.2097  0.1481  0.6118
 9515TIP3    H128488   4.988   2.463   6.069 -0.6524  0.3085  0.4010
 9515TIP3    H228489   5.053   2.498   5.937 -1.6483  0.7923  0.0286
 9516TIP3   OH228490   2.063   6.826   0.361 -0.2590  0.0400 -0.0679
 9516TIP3    H128491   1.981   6.782   0.386  0.2678  0.4849  2.8318
 9516TIP3    H228492   2.131   6.760   0.374  0.0664  0.3141 -0.3514
 9517TIP3   OH228493   4.783   1.664   3.293 -0.1278 -0.4254  0.3435
 9517TIP3    H128494   4.691   1.658   3.320 -0.2130 -1.6112 -0.1905
 9517TIP3    H228495   4.828   1.600   3.348  0.0975 -1.0911 -0.6152
 9518TIP3   OH228496   7.980   6.941   3.690 -0.0925  0.1489 -0.0882
 9518TIP3    H128497   8.053   6.895   3.649  0.0577  1.5253 -1.4659
 9518TIP3    H228498   7.924   6.967   3.617  0.2875  2.8804  0.4730
 9519TIP3   OH228499   8.074   0.487   1.711 -0.3338 -0.5479 -0.0667
 9519TIP3    H128500   8.075   0.581   1.725  2.5329 -0.7640  2.0855
 9519TIP3    H228501   8.015   0.474   1.636 -3.1552  2.6067  1.3381
 9520TIP3   OH228502   8.256   6.885   5.001  0.5091 -0.1000 -0.4385
 9520TIP3    H128503   8.308   6.956   5.039  0.7077 -0.6321  0.3052
 9520TIP3    H228504   8.179   6.929   4.964 -0.3216  0.3568  1.6524
 9521TIP3   OH228505   5.690   4.890   3.423  0.2914 -0.2326 -0.5676
 9521TIP3    H128506   5.778   4.899   3.386  0.5764  1.9187  0.4327
 9521TIP3    H228507   5.652   4.814   3.379  2.4468 -0.8971 -1.4118
 9522TIP3   OH228508   4.409   7.420   3.797 -0.7289  0.7515  0.0574
 9522TIP3    H128509   4.406   7.516   3.805 -2.0696  0.8848 -1.4808
 9522TIP3    H228510   4.423   7.405   3.704  0.0959 -0.5700  0.3760
 9523TIP3   OH228511   4.128   6.452   0.926 -0.4947  0.4673  0.5654
 9523TIP3    H128512   4.218   6.419   0.921 -0.5659  0.2587  0.6865
 9523TIP3    H228513   4.138   6.541   0.960 -0.2915  0.6363  0.0669
 9524TIP3   OH228514   6.431   3.518   4.475  0.0659 -0.1916 -0.3445
 9524TIP3    H128515   6.486   3.443   4.496 -0.5668 -0.7233 -0.5454
 9524TIP3    H228516   6.392   3.544   4.559 -0.2539 -0.5253 -0.3900
 9525TIP3   OH228517   2.317   7.109   4.812 -0.0020 -0.2443 -0.0306
 9525TIP3    H128518   2.285   7.025   4.845 -1.6803  0.0874 -0.7166
 9525TIP3    H228519   2.262   7.174   4.856 -0.0246  0.3776 -0.9534
 9526TIP3   OH228520   2.427   5.308   5.490 -0.5156  0.1007 -0.4855
 9526TIP3    H128521   2.477   5.389   5.486 -0.6303  0.2047  0.0482
 9526TIP3    H228522   2.357   5.327   5.553 -0.6500 -0.3519 -0.4981
 9527TIP3   OH228523   3.470   5.104   5.410  0.4681  0.4296  0.1252
 9527TIP3    H128524   3.541   5.054   5.369  1.4763  1.9415 -0.0287
 9527TIP3    H228525   3.491   5.195   5.392 -1.9078  0.9047 -0.4969
 9528TIP3   OH228526   0.232   7.710   3.072  0.0751 -0.1517  0.3436
 9528TIP3    H128527   0.189   7.650   3.132  0.6145  1.1696  2.1352
 9528TIP3    H228528   0.299   7.753   3.125  1.6621 -0.0496 -1.6118
 9529TIP3   OH228529   5.586   6.957   3.492  0.1659  0.1910 -0.0394
 9529TIP3    H128530   5.571   6.979   3.583  1.0150 -0.9108  0.3855
 9529TIP3    H228531   5.580   6.862   3.488 -1.7505  0.3058 -1.5081
 9530TIP3   OH228532   6.974   2.675   0.969  0.1828 -0.2763 -0.1558
 9530TIP3    H128533   6.937   2.632   1.046  0.6759  0.1215  0.3117
 9530TIP3    H228534   7.046   2.728   1.003  0.1911  0.1729 -0.8470
 9531TIP3   OH228535   6.810   3.089   5.739 -0.2513 -0.3861  0.1944
 9531TIP3    H128536   6.759   3.120   5.815 -0.0972 -0.1278  0.1928
 9531TIP3    H228537   6.883   3.042   5.778  0.3090  0.4910  0.2303
 9532TIP3   OH228538   0.481   7.423   5.790  0.3790  0.5313 -0.0424
 9532TIP3    H128539   0.467   7.457   5.878  0.2874  1.3557 -0.3637
 9532TIP3    H228540   0.393   7.406   5.756  0.4274 -0.1277  0.1481
 9533TIP3   OH228541   0.671   4.652   3.963  0.2335 -0.5548 -0.8623
 9533TIP3    H128542   0.733   4.611   4.022 -1.6084 -0.1341  1.5158
 9533TIP3    H228543   0.724   4.707   3.906  2.0327  0.3957  1.5643
 9534TIP3   OH228544   2.994   3.003   4.865  0.1381  0.2212 -0.5519
 9534TIP3    H128545   3.043   3.066   4.812  0.5675 -0.1492 -0.6094
 9534TIP3    H228546   2.929   3.056   4.911  1.4706  0.9606  0.5745
 9535TIP3   OH228547   6.239   6.434   3.873  0.4931 -0.0927 -0.4095
 9535TIP3    H128548   6.283   6.392   3.946  1.9967 -1.3600 -1.9538
 9535TIP3    H228549   6.310   6.477   3.824 -0.6080  1.6060 -0.5979
 9536TIP3   OH228550   3.495   6.039   6.367  0.1960  0.1607  0.1590
 9536TIP3    H128551   3.536   5.954   6.349  1.9572  1.2134 -1.1616
 9536TIP3    H228552   3.431   6.049   6.297  0.8464  0.4107 -0.4205
 9537TIP3   OH228553   1.291   1.374   3.362 -0.1925  0.1655 -0.6635
 9537TIP3    H128554   1.255   1.461   3.350  2.4106  1.3607 -0.4956
 9537TIP3    H228555   1.252   1.343   3.444  0.0757  1.8734  0.1592
 9538TIP3   OH228556   7.069   0.152   0.807  0.7083  0.2069  0.1004
 9538TIP3    H128557   7.048   0.096   0.732 -0.0054  1.6754 -0.8478
 9538TIP3    H228558   7.067   0.241   0.771  0.4906  0.9352  1.8445
 9539TIP3   OH228559   7.506   4.560   4.188 -0.1123  0.2091 -0.0635
 9539TIP3    H128560   7.426   4.508   4.184  1.2160 -2.0352  0.6600
 9539TIP3    H228561   7.492   4.620   4.262 -1.1304 -0.1166  0.0282
 9540TIP3   OH228562   3.190   6.803   3.570  0.5519 -0.2172  0.2233
 9540TIP3    H128563   3.274   6.811   3.523  0.7672  2.4592  0.8639
 9540TIP3    H228564   3.204   6.731   3.631  2.5530  0.3227  0.5085
 9541TIP3   OH228565   4.345   1.414   3.125  0.0509  0.6389 -0.4996
 9541TIP3    H128566   4.296   1.336   3.152 -0.2002  0.2592 -1.9558
 9541TIP3    H228567   4.290   1.455   3.058  1.5506  0.3623 -1.9624
 9542TIP3   OH228568   6.062   3.908   1.320 -0.1482  0.1433  0.0369
 9542TIP3    H128569   6.005   3.834   1.300 -0.7006  0.5490  0.0970
 9542TIP3    H228570   6.087   3.943   1.234  0.1439 -0.1300  0.0077
 9543TIP3   OH228571   4.288   6.125   3.748  0.1345 -0.4667  0.1009
 9543TIP3    H128572   4.379   6.126   3.779  0.8885  1.4891 -1.9564
 9543TIP3    H228573   4.260   6.216   3.753 -1.3688 -0.8798 -0.3209
 9544TIP3   OH228574   1.215   4.292   1.262  0.1226 -0.1764  0.0807
 9544TIP3    H128575   1.162   4.218   1.292 -2.7446 -0.0315 -3.9209
 9544TIP3    H228576   1.263   4.258   1.186  1.7847  1.1698  0.4596
 9545TIP3   OH228577   1.368   6.483   5.898  0.0414 -0.6362 -0.4582
 9545TIP3    H128578   1.378   6.390   5.917 -0.1888 -0.6101 -0.1986
 9545TIP3    H228579   1.427   6.526   5.960 -1.1548 -0.5182  0.6476
 9546TIP3   OH228580   6.406   3.345   3.269 -0.2628  0.1317 -0.2315
 9546TIP3    H128581   6.417   3.440   3.262 -0.3083  0.3254  1.6501
 9546TIP3    H228582   6.487   3.309   3.233  0.0173  0.9158 -0.4084
 9547TIP3   OH228583   1.215   5.786   1.132 -0.4845  0.5151 -0.0236
 9547TIP3    H128584   1.210   5.877   1.100  1.3010  0.3658 -0.8373
 9547TIP3    H228585   1.208   5.794   1.228 -0.3750  1.4992 -0.0887
 9548TIP3   OH228586   1.515   1.101   2.639  0.0965  0.2537 -0.4031
 9548TIP3    H128587   1.505   1.050   2.720 -1.0036  0.0250 -0.6631
 9548TIP3    H228588   1.426   1.105   2.603  0.9567 -2.4518 -3.3076
 9549TIP3   OH228589   4.680   3.327   2.667  0.2030  0.0929  0.2596
 9549TIP3    H128590   4.627   3.265   2.716  0.5326 -1.0265 -0.7459
 9549TIP3    H228591   4.618   3.393   2.637 -0.2593 -0.0681  0.8567
 9550TIP3   OH228592   4.738   5.796   1.400  0.0888 -0.1419 -0.0601
 9550TIP3    H128593   4.792   5.753   1.334 -0.0628 -0.4869  0.0374
 9550TIP3    H228594   4.783   5.778   1.483  1.8365  2.6083 -0.2650
 9551TIP3   OH228595   5.291   6.623   6.114  0.4935  0.4004  0.4490
 9551TIP3    H128596   5.210   6.614   6.165  0.1632 -1.3229 -0.3382
 9551TIP3    H228597   5.276   6.572   6.035  1.7576  1.4157 -0.4931
 9552TIP3   OH228598   0.653   4.649   5.578 -0.6348 -0.4636  0.4238
 9552TIP3    H128599   0.660   4.677   5.487 -0.4189  2.7179  1.2978
 9552TIP3    H228600   0.672   4.728   5.629  1.1347 -2.5217  3.2864
 9553TIP3   OH228601   3.288   7.152   1.649 -0.3731 -0.5093  0.0253
 9553TIP3    H128602   3.285   7.106   1.566  1.9573 -0.2460 -0.2495
 9553TIP3    H228603   3.280   7.245   1.626 -1.0390 -0.5048  0.2372
 9554TIP3   OH228604   2.639   0.910   0.089  0.2064  0.0666  0.1207
 9554TIP3    H128605   2.596   0.988   0.054 -1.4377 -1.3966 -1.2902
 9554TIP3    H228606   2.730   0.919   0.062  0.6309  2.5599  1.9682
 9555TIP3   OH228607   1.954   2.890   4.755  0.1053  0.0783 -0.5984
 9555TIP3    H128608   1.866   2.925   4.742  0.0669 -0.8278 -3.4229
 9555TIP3    H228609   2.004   2.963   4.790 -1.4099  1.0444 -0.3415
 9556TIP3   OH228610   4.076   2.795   1.568  0.3955  0.3083  0.1939
 9556TIP3    H128611   4.057   2.840   1.485 -1.8178  0.6130  0.8183
 9556TIP3    H228612   3.998   2.745   1.587  1.1802 -0.3990  1.7255
 9557TIP3   OH228613   1.377   4.578   6.416  0.0367  0.4667 -0.1198
 9557TIP3    H128614   1.311   4.581   6.347  0.2746 -0.4095 -0.3996
 9557TIP3    H228615   1.372   4.488   6.450  1.6754  0.0917 -0.7581
 9558TIP3   OH228616   7.066   0.564   3.699 -0.5123 -0.1453  0.5577
 9558TIP3    H128617   7.140   0.623   3.685 -0.9989  0.2186 -0.6133
 9558TIP3    H228618   7.046   0.530   3.612 -0.1839 -2.1384  1.2197
 9559TIP3   OH228619   4.757   4.261   2.143 -0.4258  0.2009 -0.4866
 9559TIP3    H128620   4.715   4.325   2.086  1.0224  0.3927 -1.4218
 9559TIP3    H228621   4.719   4.177   2.117 -1.3677  0.5205 -0.1815
 9560TIP3   OH228622   4.792   1.599   1.673 -0.0097  0.2754  0.2104
 9560TIP3    H128623   4.791   1.555   1.588 -1.1065  2.0327 -0.7240
 9560TIP3    H228624   4.706   1.580   1.711 -0.4739  1.5242 -0.1787
 9561TIP3   OH228625   7.685   3.893   0.628 -0.4211 -0.2199  0.2006
 9561TIP3    H128626   7.630   3.942   0.566  2.0438  2.1505 -0.2857
 9561TIP3    H228627   7.704   3.811   0.582 -0.8994  0.3039 -0.9828
 9562TIP3   OH228628   4.454   6.703   6.354  0.2865  0.0274 -0.1186
 9562TIP3    H128629   4.435   6.763   6.282  1.3271 -0.0615 -0.4916
 9562TIP3    H228630   4.374   6.701   6.406  0.2037  1.6893 -0.1289
 9563TIP3   OH228631   1.029   4.636   6.440  0.8029 -0.0266  0.1072
 9563TIP3    H128632   0.986   4.720   6.426  1.7307  0.5627  0.6785
 9563TIP3    H228633   0.986   4.577   6.378 -2.0881  0.0516  1.8397
 9564TIP3   OH228634   7.522   5.287   4.905 -0.5768 -0.6929  0.1795
 9564TIP3    H128635   7.545   5.195   4.919  0.6448 -0.5301 -0.5615
 9564TIP3    H228636   7.489   5.290   4.815  0.3479 -0.2751 -0.1698
 9565TIP3   OH228637   3.190   4.905   2.543  0.6186 -0.7287 -0.6966
 9565TIP3    H128638   3.121   4.904   2.477  0.9876 -1.1563 -1.0884
 9565TIP3    H228639   3.173   4.828   2.597  0.4627 -0.5181 -0.4442
 9566TIP3   OH228640   0.521   1.170   0.481  0.7533  0.3607 -0.1127
 9566TIP3    H128641   0.493   1.088   0.441  1.2110  1.1156 -2.1050
 9566TIP3    H228642   0.616   1.172   0.470  1.1170 -0.0616  2.4299
 9567TIP3   OH228643   3.240   4.689   3.567  0.5732 -0.0640 -0.1218
 9567TIP3    H128644   3.287   4.614   3.603 -0.9642 -0.6592  0.7360
 9567TIP3    H228645   3.306   4.736   3.516  1.4679 -2.2992 -1.1845
 9568TIP3   OH228646   2.284   5.460   4.062 -0.3297  0.0117 -0.4546
 9568TIP3    H128647   2.199   5.499   4.084 -0.1139 -0.3620  1.2082
 9568TIP3    H228648   2.342   5.535   4.049 -0.7530  0.2607 -0.9627
 9569TIP3   OH228649   6.067   1.924   5.699 -0.0891 -0.0659 -0.6032
 9569TIP3    H128650   6.069   1.981   5.622 -0.8062 -1.0322 -1.3541
 9569TIP3    H228651   6.147   1.948   5.748 -0.8287  2.2363 -0.3730
 9570TIP3   OH228652   1.313   5.140   3.597 -0.1745 -0.0651 -0.4925
 9570TIP3    H128653   1.323   5.046   3.615 -1.0172  0.1688  1.3996
 9570TIP3    H228654   1.220   5.150   3.578 -0.1809  0.4553 -0.1866
 9571TIP3   OH228655   0.896   1.204   3.663  0.4204 -0.4486  0.0372
 9571TIP3    H128656   0.954   1.276   3.690 -0.9606  0.6780  0.1357
 9571TIP3    H228657   0.929   1.128   3.711  0.8281  0.5187  1.3713
 9572TIP3   OH228658   1.062   4.743   1.887  0.1336  0.1008 -0.0783
 9572TIP3    H128659   1.021   4.787   1.813 -0.3341 -0.9162 -0.4375
 9572TIP3    H228660   1.129   4.805   1.917  0.2939  0.5529 -1.3068
 9573TIP3   OH228661   8.282   6.709   6.013  0.3555  0.2577  0.3141
 9573TIP3    H128662   8.371   6.675   6.014 -0.2171 -1.3281  0.9000
 9573TIP3    H228663   8.240   6.665   5.939 -0.3146 -0.0537  0.8667
 9574TIP3   OH228664   1.256   6.123   1.840  0.3392  0.0767 -0.0971
 9574TIP3    H128665   1.257   6.168   1.924  1.7866  0.8066 -0.4738
 9574TIP3    H228666   1.297   6.038   1.857  0.8990  0.3404 -0.1185
 9575TIP3   OH228667   3.406   5.044   0.706 -0.6277  0.1595 -0.0347
 9575TIP3    H128668   3.363   4.988   0.771 -0.7967  0.6530  0.2842
 9575TIP3    H228669   3.490   5.002   0.690 -0.1763  0.5438  1.2216
 9576TIP3   OH228670   1.746   7.802   5.181  0.6766 -0.2398  0.7565
 9576TIP3    H128671   1.685   7.759   5.241 -0.8303  1.9528  0.9208
 9576TIP3    H228672   1.762   7.888   5.220  1.9511  0.1633 -0.5469
 9577TIP3   OH228673   6.986   6.281   4.649 -0.0807  0.6365  0.0956
 9577TIP3    H128674   6.966   6.372   4.624 -0.7006  0.6952  0.7692
 9577TIP3    H228675   6.915   6.257   4.708  2.5249  1.3536  3.8475
 9578TIP3   OH228676   4.038   4.090   2.642  0.0659  0.8649 -0.2839
 9578TIP3    H128677   3.948   4.095   2.675  0.8852 -1.1012  2.6333
 9578TIP3    H228678   4.030   4.049   2.556 -1.8623  1.7419 -0.5828
 9579TIP3   OH228679   7.648   4.636   0.300  0.1614  0.5306 -0.5618
 9579TIP3    H128680   7.565   4.659   0.342  0.2698  0.9087 -0.5565
 9579TIP3    H228681   7.623   4.594   0.218 -0.0281  0.8644 -0.6716
 9580TIP3   OH228682   1.780   2.676   6.307 -0.3229  0.2482 -0.1315
 9580TIP3    H128683   1.737   2.758   6.331  1.3881  0.8442  1.1073
 9580TIP3    H228684   1.809   2.690   6.217  0.7198  1.4007  0.3435
 9581TIP3   OH228685   3.007   2.365   6.296 -0.1088  0.9659 -0.6479
 9581TIP3    H128686   3.101   2.352   6.285 -0.0784  0.2574  0.3212
 9581TIP3    H228687   2.975   2.382   6.207  0.7756  0.1766 -1.1439
 9582TIP3   OH228688   0.009   5.986   1.356  1.0859 -0.3966  0.7065
 9582TIP3    H128689   0.054   5.973   1.439  0.9906  1.0613  1.0145
 9582TIP3    H228690   0.078   5.980   1.290  1.2586 -0.9496  0.9288
 9583TIP3   OH228691   3.455   6.590   2.459 -0.4531 -0.4839  0.0100
 9583TIP3    H128692   3.433   6.562   2.370  1.3799  1.3409 -1.1290
 9583TIP3    H228693   3.374   6.628   2.493 -0.8366  0.1051 -1.4677
 9584TIP3   OH228694   5.519   6.429   3.869  0.4501  0.1076  0.2856
 9584TIP3    H128695   5.491   6.375   3.942 -0.9997  0.2931 -0.1171
 9584TIP3    H228696   5.593   6.480   3.904  0.4337 -0.5411  1.2953
 9585TIP3   OH228697   4.577   3.524   2.138 -0.1787 -0.0118 -0.0246
 9585TIP3    H128698   4.637   3.450   2.135 -1.3916 -1.0301  0.0642
 9585TIP3    H228699   4.608   3.583   2.069  1.7378  0.1791  0.9300
 9586TIP3   OH228700   7.576   1.289   2.611  0.0471  0.3920  0.2026
 9586TIP3    H128701   7.663   1.327   2.594  1.1573 -0.2156  3.6948
 9586TIP3    H228702   7.521   1.325   2.542  2.5803  2.5917 -0.8846
 9587TIP3   OH228703   4.837   4.236   2.693  0.2657  0.4178  0.1869
 9587TIP3    H128704   4.815   4.207   2.604  0.2948  0.8008  0.0560
 9587TIP3    H228705   4.810   4.328   2.696 -0.4488  0.2059  0.8159
 9588TIP3   OH228706   0.905   1.200   4.083 -0.0321  0.0280  0.0293
 9588TIP3    H128707   0.898   1.149   4.164 -0.7144  0.0259 -0.0240
 9588TIP3    H228708   0.829   1.258   4.086 -0.3887 -0.3784 -0.8867
 9589TIP3   OH228709   7.868   2.907   5.194  0.4425  0.5504 -0.7602
 9589TIP3    H128710   7.864   2.962   5.273  0.6037  1.7624 -1.5761
 9589TIP3    H228711   7.776   2.891   5.172  0.3960  0.1207 -0.2758
 9590TIP3   OH228712   7.952   2.421   0.177 -0.4016 -0.1765  0.4861
 9590TIP3    H128713   7.883   2.356   0.166  0.0470 -0.4331 -1.1464
 9590TIP3    H228714   8.033   2.372   0.168 -0.0563  0.6255 -1.1003
 9591TIP3   OH228715   1.728   5.066   0.233 -0.0409  0.4510  0.3588
 9591TIP3    H128716   1.817   5.102   0.230  0.2748 -0.3369 -0.0894
 9591TIP3    H228717   1.672   5.137   0.202  0.2422  1.4563  2.0079
 9592TIP3   OH228718   6.606   0.197   2.198  0.4328  0.1190  0.2234
 9592TIP3    H128719   6.665   0.230   2.266 -0.8307  0.3992  1.2272
 9592TIP3    H228720   6.569   0.117   2.235  1.9452 -1.4163 -1.3822
 9593TIP3   OH228721   0.649   6.746   3.555  0.2806 -0.0327 -0.0264
 9593TIP3    H128722   0.699   6.786   3.484  1.7188  0.9568  1.4763
 9593TIP3    H228723   0.705   6.675   3.587 -0.9402 -1.3573 -0.7030
 9594TIP3   OH228724   6.098   0.149   0.735  0.0105 -0.2170  0.2672
 9594TIP3    H128725   6.142   0.212   0.677 -0.9272 -0.9524 -1.3240
 9594TIP3    H228726   6.169   0.105   0.780  0.9195 -0.8187 -1.6342
 9595TIP3   OH228727   6.453   7.331   1.493  0.1223  0.4574  0.1227
 9595TIP3    H128728   6.437   7.258   1.552  0.1221 -1.1200 -1.7318
 9595TIP3    H228729   6.547   7.348   1.501  0.3333 -0.4782 -0.2051
 9596TIP3   OH228730   1.991   1.587   3.901 -0.6177 -0.3540 -0.2987
 9596TIP3    H128731   1.966   1.679   3.905  1.9672  0.5262 -1.6304
 9596TIP3    H228732   1.928   1.547   3.841 -1.7253  0.5605  0.2377
 9597TIP3   OH228733   3.254   0.988   6.503 -0.1561  0.2588  0.1069
 9597TIP3    H128734   3.277   0.895   6.501 -0.0162  0.2929  0.1207
 9597TIP3    H228735   3.300   1.022   6.580  1.5418  0.8030 -1.1186
 9598TIP3   OH228736   6.924   3.269   0.363  0.5402 -0.0238 -0.2242
 9598TIP3    H128737   6.873   3.339   0.404  0.8588 -0.3291  0.7108
 9598TIP3    H228738   6.886   3.188   0.398  0.9097 -0.2877 -0.4240
 9599TIP3   OH228739   1.814   4.903   0.478 -0.2141 -0.0681  0.3999
 9599TIP3    H128740   1.814   4.928   0.570  1.0120  0.6859  0.2294
 9599TIP3    H228741   1.767   4.974   0.434 -3.4838 -1.8599  0.7085
 9600TIP3   OH228742   2.585   7.464   1.535 -0.0966 -0.4101 -0.6851
 9600TIP3    H128743   2.515   7.495   1.593 -0.5012 -0.3600 -1.1854
 9600TIP3    H228744   2.630   7.396   1.585 -0.2949 -0.2120 -0.2305
 9601TIP3   OH228745   5.611   6.726   1.077  0.2796 -0.6888 -0.0598
 9601TIP3    H128746   5.687   6.746   1.021  1.6144 -3.7831  0.4546
 9601TIP3    H228747   5.627   6.777   1.157  2.3566 -1.9209  0.3837
 9602TIP3   OH228748   0.501   4.145   5.061 -0.0371 -0.5796 -0.4396
 9602TIP3    H128749   0.480   4.057   5.027 -1.0989 -0.6875  0.4442
 9602TIP3    H228750   0.422   4.196   5.043  0.7785  0.3645 -1.4402
 9603TIP3   OH228751   6.748   4.273   6.610 -0.5810 -0.2243  0.1281
 9603TIP3    H128752   6.743   4.266   6.515 -2.1707 -0.4692  0.2107
 9603TIP3    H228753   6.659   4.294   6.637 -0.0031  0.5851  1.5156
 9604TIP3   OH228754   3.686   6.208   4.566  0.2081 -0.4590  1.0595
 9604TIP3    H128755   3.746   6.134   4.568 -2.2180 -2.6333 -0.3210
 9604TIP3    H228756   3.703   6.250   4.482 -0.6642 -1.5782  0.2858
 9605TIP3   OH228757   3.442   3.261   3.705  0.1911 -0.3083 -0.4316
 9605TIP3    H128758   3.502   3.191   3.680  0.0999 -1.0200  1.1881
 9605TIP3    H228759   3.431   3.313   3.626  1.8596 -0.9517 -1.1345
 9606TIP3   OH228760   4.109   0.999   6.171  0.8224 -0.0720  0.3445
 9606TIP3    H128761   4.128   0.922   6.225 -3.1930  0.1615  2.5400
 9606TIP3    H228762   4.132   1.073   6.226 -0.9210  0.1680  0.8336
 9607TIP3   OH228763   7.486   3.748   5.006  0.1756 -0.1683 -0.3223
 9607TIP3    H128764   7.554   3.735   5.073 -0.2656 -0.1436  0.1308
 9607TIP3    H228765   7.518   3.822   4.954  0.3528  0.0393  0.0732
 9608TIP3   OH228766   6.789   3.212   3.387 -0.0303 -0.4210  0.4751
 9608TIP3    H128767   6.866   3.184   3.437  0.5984 -0.7542 -0.6525
 9608TIP3    H228768   6.820   3.288   3.337 -0.0113 -1.3739 -1.0314
 9609TIP3   OH228769   1.583   6.605   1.680  0.4019 -0.2643 -0.2395
 9609TIP3    H128770   1.604   6.516   1.709  1.3213 -0.2480 -0.8291
 9609TIP3    H228771   1.617   6.610   1.591 -1.3626  0.0591 -0.9311
 9610TIP3   OH228772   7.661   4.320   5.512 -0.0849  0.1909 -0.4956
 9610TIP3    H128773   7.757   4.329   5.510 -0.0787  0.2012 -0.1424
 9610TIP3    H228774   7.645   4.258   5.583 -0.3408  0.1734 -0.5706
 9611TIP3   OH228775   3.097   7.528   3.142 -0.2018 -0.1268 -0.2138
 9611TIP3    H128776   3.032   7.594   3.166 -0.6827 -1.1033  1.3654
 9611TIP3    H228777   3.050   7.445   3.151  0.8802 -0.7725 -0.4061
 9612TIP3   OH228778   0.687   5.177   5.717 -0.4366 -0.5883  0.0437
 9612TIP3    H128779   0.626   5.184   5.790 -0.6439 -0.4332 -0.1456
 9612TIP3    H228780   0.641   5.124   5.652 -0.0808 -1.1040  0.2046
 9613TIP3   OH228781   3.901   1.443   2.502  0.0244  0.2798 -0.0680
 9613TIP3    H128782   3.879   1.350   2.508  2.3161 -0.3824 -0.7542
 9613TIP3    H228783   3.834   1.481   2.445 -1.1136 -0.8583  0.4571
 9614TIP3   OH228784   0.837   0.549   2.161 -0.6383 -0.5388  0.3214
 9614TIP3    H128785   0.776   0.479   2.185 -1.2203  0.1058  0.7362
 9614TIP3    H228786   0.832   0.553   2.065 -0.9728 -0.7372  0.3290
 9615TIP3   OH228787   0.764   2.455   6.513  0.2308 -0.7154  0.4295
 9615TIP3    H128788   0.839   2.490   6.465  0.1027  0.2852  0.9364
 9615TIP3    H228789   0.783   2.475   6.604 -1.4342  1.1329  0.4283
 9616TIP3   OH228790   4.247   2.662   0.845  0.3783  0.0044  0.3021
 9616TIP3    H128791   4.157   2.660   0.878 -0.5494  1.2412 -1.8869
 9616TIP3    H228792   4.282   2.575   0.864 -1.8909 -1.1325 -0.2752
 9617TIP3   OH228793   0.919   4.945   1.392 -0.0171  0.1700 -0.0230
 9617TIP3    H128794   0.982   4.874   1.384  0.0707 -0.0475  1.9293
 9617TIP3    H228795   0.965   5.012   1.443 -0.7283  0.8062 -0.1920
 9618TIP3   OH228796   6.357   4.867   0.737  0.2034 -0.0510  0.0649
 9618TIP3    H128797   6.263   4.876   0.724 -0.0417 -0.0220  1.7107
 9618TIP3    H228798   6.384   4.949   0.778  1.1216  0.3002 -1.1706
 9619TIP3   OH228799   7.634   0.559   2.537  0.7123 -0.4463  0.4686
 9619TIP3    H128800   7.541   0.561   2.561  0.2899 -2.5736 -0.8216
 9619TIP3    H228801   7.672   0.492   2.593  1.2229 -0.4712  0.0966
 9620TIP3   OH228802   3.163   1.182   5.126 -0.3027 -0.2057  0.0014
 9620TIP3    H128803   3.247   1.184   5.171 -0.2094  0.6825 -0.1873
 9620TIP3    H228804   3.113   1.254   5.165 -0.8211 -0.4595 -0.1811
 9621TIP3   OH228805   7.808   5.903   2.591 -0.5413 -0.1520 -0.3029
 9621TIP3    H128806   7.902   5.890   2.603 -0.1558  1.0638 -1.6710
 9621TIP3    H228807   7.776   5.821   2.555  0.2608 -0.1444 -1.0622
 9622TIP3   OH228808   8.102   1.514   0.821 -0.3201 -0.0022  0.2107
 9622TIP3    H128809   8.134   1.449   0.883  1.6988  0.3180 -0.4384
 9622TIP3    H228810   8.073   1.587   0.876  0.2481 -0.2334  0.8288
 9623TIP3   OH228811   0.914   1.584   3.913  0.3235  0.2306  0.5402
 9623TIP3    H128812   0.973   1.520   3.872  0.1157 -0.6986  1.6260
 9623TIP3    H228813   0.832   1.574   3.866  0.4639  0.1133  0.3191
 9624TIP3   OH228814   4.899   7.163   2.531 -0.0578  0.3248  0.2460
 9624TIP3    H128815   4.878   7.069   2.534  3.0982 -0.5038  2.8993
 9624TIP3    H228816   4.822   7.206   2.570 -1.5375 -1.0958 -0.9506
 9625TIP3   OH228817   6.101   6.914   0.227 -0.2385 -0.1100  0.4530
 9625TIP3    H128818   6.142   6.888   0.309  1.2237  1.7414  0.3545
 9625TIP3    H228819   6.163   6.888   0.159 -0.5120  0.1724  0.0874
 9626TIP3   OH228820   0.441   3.722   1.806  0.6086 -0.5773  0.0257
 9626TIP3    H128821   0.464   3.703   1.897  1.1885  1.5011  0.3758
 9626TIP3    H228822   0.410   3.813   1.808  0.0313 -0.6985 -1.7596
 9627TIP3   OH228823   6.281   7.483   4.364 -0.2772  0.1034 -0.4899
 9627TIP3    H128824   6.205   7.483   4.305 -0.5421  1.1710 -0.1680
 9627TIP3    H228825   6.278   7.568   4.407  0.0072 -0.5958  0.9637
 9628TIP3   OH228826   6.228   7.513   3.802  0.2338 -0.0033  0.8495
 9628TIP3    H128827   6.195   7.596   3.835  1.1675  0.7804 -0.1179
 9628TIP3    H228828   6.310   7.535   3.758  0.3678 -1.3951  0.3325
 9629TIP3   OH228829   3.057   5.067   5.746  0.5638 -0.3187 -0.1548
 9629TIP3    H128830   3.135   5.013   5.758 -0.9472 -2.5980 -0.0572
 9629TIP3    H228831   3.007   5.023   5.677 -0.4220  1.3443 -0.5519
 9630TIP3   OH228832   4.138   1.052   2.405  0.5662  0.4576 -0.4476
 9630TIP3    H128833   4.226   1.062   2.441  0.5104 -1.2094  0.3004
 9630TIP3    H228834   4.120   0.958   2.414 -2.4411  1.1060  2.2954
 9631TIP3   OH228835   7.686   5.681   2.486 -0.1931 -0.0024  0.0238
 9631TIP3    H128836   7.661   5.625   2.560 -0.4804  0.2449  0.1184
 9631TIP3    H228837   7.616   5.668   2.422  0.7105 -1.2075 -0.7560
 9632TIP3   OH228838   5.373   7.204   3.509 -0.1845  1.4063  0.2117
 9632TIP3    H128839   5.457   7.169   3.539 -0.9897 -0.8022  0.0095
 9632TIP3    H228840   5.364   7.287   3.557  1.9883  1.6044  0.3873
 9633TIP3   OH228841   1.659   3.875   4.701 -0.0685 -0.5007 -0.3234
 9633TIP3    H128842   1.643   3.962   4.665 -0.6918 -0.2133  0.6279
 9633TIP3    H228843   1.745   3.882   4.742 -2.1016  1.2578  4.2462
 9634TIP3   OH228844   4.297   0.532   5.928  0.4856 -0.5617 -0.1828
 9634TIP3    H128845   4.261   0.585   6.000 -0.9600 -0.9849 -0.5654
 9634TIP3    H228846   4.390   0.557   5.925  0.1014  1.1147  0.3812
 9635TIP3   OH228847   6.563   7.113   1.664 -0.3548 -0.4091 -0.3222
 9635TIP3    H128848   6.648   7.156   1.667 -0.5547 -0.0124 -0.2408
 9635TIP3    H228849   6.557   7.067   1.748 -0.4273 -0.0312 -0.1174
 9636TIP3   OH228850   2.205   7.022   3.994 -0.6139  0.8095 -0.0487
 9636TIP3    H128851   2.292   6.982   3.997 -1.0097 -0.0099  0.9271
 9636TIP3    H228852   2.144   6.948   4.000 -1.3697  1.5405  2.0882
 9637TIP3   OH228853   6.755   2.891   2.109 -0.0397  0.1727  0.0248
 9637TIP3    H128854   6.714   2.827   2.051 -2.7906  1.0568  0.8229
 9637TIP3    H228855   6.738   2.975   2.066  0.6952  0.5992  0.5594
 9638TIP3   OH228856   3.181   0.360   4.324  0.2220 -0.1054  0.7567
 9638TIP3    H128857   3.092   0.395   4.329  0.8299  1.6810 -0.0694
 9638TIP3    H228858   3.170   0.270   4.293 -1.2162  0.5673 -0.8082
 9639TIP3   OH228859   4.006   4.691   2.855 -0.3826  0.5034  0.4689
 9639TIP3    H128860   4.098   4.690   2.827 -0.7092  1.6410 -0.7337
 9639TIP3    H228861   4.003   4.628   2.928  1.3267  0.4001  0.5021
 9640TIP3   OH228862   3.061   3.477   2.126 -0.2131 -0.4833  0.4113
 9640TIP3    H128863   3.146   3.521   2.116  0.5376 -1.6498  1.3820
 9640TIP3    H228864   3.026   3.512   2.208 -0.1108 -0.8676  0.6230
 9641TIP3   OH228865   7.512   6.112   2.710 -0.0501  0.3917  0.2392
 9641TIP3    H128866   7.475   6.077   2.791 -0.0538  0.2095  0.1582
 9641TIP3    H228867   7.480   6.202   2.706  1.0945  0.8818  1.1756
 9642TIP3   OH228868   2.806   6.875   0.285 -0.0570  0.1319  0.4523
 9642TIP3    H128869   2.811   6.879   0.189 -1.2803 -2.2756  0.2145
 9642TIP3    H228870   2.896   6.856   0.312  0.1428 -0.0647 -0.3155
 9643TIP3   OH228871   7.694   3.085   3.369  0.4598  0.5684 -0.0726
 9643TIP3    H128872   7.746   3.005   3.358  1.2034  0.8761  0.9910
 9643TIP3    H228873   7.615   3.056   3.415  0.7879  0.4512  0.4291
 9644TIP3   OH228874   0.233   0.739   4.436 -0.4834  0.0410  0.1398
 9644TIP3    H128875   0.306   0.718   4.495 -0.1287  2.0530  0.4730
 9644TIP3    H228876   0.172   0.666   4.447  0.5883 -0.7218  1.3344
 9645TIP3   OH228877   7.268   0.277   2.225 -0.3404  0.0162 -0.0905
 9645TIP3    H128878   7.230   0.202   2.179 -0.8015  0.5472 -0.5928
 9645TIP3    H228879   7.197   0.341   2.229 -0.4031 -0.1043  1.6117
 9646TIP3   OH228880   1.222   7.583   3.654  0.2306 -0.2910 -0.1002
 9646TIP3    H128881   1.293   7.523   3.628 -0.3442 -1.6435  1.2863
 9646TIP3    H228882   1.199   7.555   3.743 -2.2055 -0.0290 -0.5973
 9647TIP3   OH228883   2.507   4.041   3.169  0.1360  0.5355 -0.2081
 9647TIP3    H128884   2.505   4.136   3.163  1.3246  0.6522  0.8292
 9647TIP3    H228885   2.455   4.020   3.247 -1.8002  0.1622 -1.5343
 9648TIP3   OH228886   6.902   7.565   4.663  0.0348 -0.6053  0.0276
 9648TIP3    H128887   6.845   7.536   4.734 -0.1257 -0.9479 -0.2395
 9648TIP3    H228888   6.844   7.581   4.589  0.2889 -0.9971 -0.2599
 9649TIP3   OH228889   4.767   1.504   4.788 -0.3692  0.0432  0.2064
 9649TIP3    H128890   4.698   1.519   4.724 -0.5678 -0.7681  0.2165
 9649TIP3    H228891   4.848   1.526   4.742 -0.5755  0.1991 -0.0782
 9650TIP3   OH228892   5.397   7.281   1.350 -0.5265  0.7092 -0.5946
 9650TIP3    H128893   5.330   7.229   1.394 -0.9154 -0.1463 -2.1179
 9650TIP3    H228894   5.465   7.294   1.416 -1.4911  0.2950  0.5220
 9651TIP3   OH228895   3.671   6.943   2.801  0.4355 -0.4198  0.0038
 9651TIP3    H128896   3.722   7.004   2.748  0.0380 -0.2782 -0.2241
 9651TIP3    H228897   3.613   7.000   2.852 -0.3133 -0.6245 -0.6036
 9652TIP3   OH228898   5.044   0.444   0.676 -0.1356  0.4545  0.0818
 9652TIP3    H128899   5.131   0.417   0.705  0.2414  1.0521 -0.4432
 9652TIP3    H228900   4.993   0.451   0.757  0.7410  1.5745  0.5814
 9653TIP3   OH228901   6.615   3.645   4.302 -0.2871  0.0767 -0.5419
 9653TIP3    H128902   6.580   3.672   4.387  0.6796  0.6880 -0.3164
 9653TIP3    H228903   6.560   3.571   4.276 -1.1086  0.3829  0.2351
 9654TIP3   OH228904   6.619   4.726   6.780 -0.0838 -0.0607  0.1297
 9654TIP3    H128905   6.685   4.720   6.712 -0.4073  0.3360 -0.2272
 9654TIP3    H228906   6.629   4.814   6.816  1.3925 -0.9260  1.9602
 9655TIP3   OH228907   5.154   4.213   4.543  0.1518  0.0227  0.1953
 9655TIP3    H128908   5.152   4.264   4.462  0.3905 -0.9229 -0.4283
 9655TIP3    H228909   5.123   4.126   4.517 -0.0137 -0.2173  1.1762
 9656TIP3   OH228910   6.396   6.396   2.111 -0.1806  0.0710 -0.2403
 9656TIP3    H128911   6.488   6.411   2.092 -0.4753 -0.0684 -1.9126
 9656TIP3    H228912   6.362   6.483   2.135  0.4383  0.0580  0.7473
 9657TIP3   OH228913   4.521   2.505   1.514 -0.1403  0.0390  0.0156
 9657TIP3    H128914   4.572   2.576   1.553 -2.7866  1.2085  1.6046
 9657TIP3    H228915   4.515   2.439   1.584 -1.5102  0.3332  0.1977
 9658TIP3   OH228916   2.991   4.213   3.214 -0.6880  0.1285 -0.3897
 9658TIP3    H128917   3.062   4.228   3.151 -0.5069  0.9906  0.0051
 9658TIP3    H228918   2.950   4.132   3.185 -0.5383  0.4515 -1.5553
 9659TIP3   OH228919   3.679   1.253   6.379  0.3628 -0.1208  0.1230
 9659TIP3    H128920   3.667   1.314   6.305 -1.5526  0.9971  1.2673
 9659TIP3    H228921   3.770   1.265   6.404  0.2512  1.7883 -0.1651
 9660TIP3   OH228922   7.845   0.204   1.510  0.0006 -0.9081 -0.0119
 9660TIP3    H128923   7.881   0.164   1.589  1.2232 -0.2292 -0.1934
 9660TIP3    H228924   7.914   0.195   1.444 -0.1306  0.4231 -0.3773
 9661TIP3   OH228925   4.638   6.812   4.759 -0.6728  0.1022 -0.6489
 9661TIP3    H128926   4.705   6.743   4.761 -0.9141 -0.1512  2.5591
 9661TIP3    H228927   4.557   6.766   4.737 -0.5892 -0.4047  0.0877
 9662TIP3   OH228928   2.832   1.078   4.820 -0.3713  0.4159 -0.5002
 9662TIP3    H128929   2.853   1.004   4.877 -2.1115  0.9216  0.9088
 9662TIP3    H228930   2.911   1.131   4.818  0.0510 -0.1436  0.6449
 9663TIP3   OH228931   6.628   5.164   4.270  0.3301  0.1751 -0.6274
 9663TIP3    H128932   6.647   5.240   4.215  0.6957  1.0886  0.7007
 9663TIP3    H228933   6.709   5.149   4.319 -0.1185 -0.3366 -0.0248
 9664TIP3   OH228934   1.832   0.897   4.729 -0.1701  0.2148 -0.1565
 9664TIP3    H128935   1.743   0.922   4.704  0.4880  4.4428  0.9859
 9664TIP3    H228936   1.822   0.857   4.816 -0.9362  1.4547  0.3573
 9665TIP3   OH228937   5.957   1.325   1.757 -0.2612 -0.6212  0.2223
 9665TIP3    H128938   5.956   1.312   1.852 -3.9985 -1.8785  0.1539
 9665TIP3    H228939   5.912   1.248   1.722  2.4716 -1.0571 -2.8190
 9666TIP3   OH228940   6.053   0.876   0.729  0.5626  0.0329  0.2388
 9666TIP3    H128941   5.963   0.855   0.704  0.6486 -0.3025  0.2047
 9666TIP3    H228942   6.093   0.908   0.648  1.1707 -2.1315 -0.3702
 9667TIP3   OH228943   6.514   4.025   3.060 -0.4867 -0.2431 -0.2405
 9667TIP3    H128944   6.573   3.954   3.034 -0.2683 -0.2843  0.3572
 9667TIP3    H228945   6.535   4.097   3.000  0.4886 -0.1036  0.2481
 9668TIP3   OH228946   5.669   6.080   4.233  0.1305 -0.1131 -0.2007
 9668TIP3    H128947   5.756   6.039   4.226 -0.3220 -0.7653 -2.6599
 9668TIP3    H228948   5.687   6.173   4.243  1.1112 -0.3600  0.5064
 9669TIP3   OH228949   3.281   2.438   2.615  0.3617 -0.1923  0.0081
 9669TIP3    H128950   3.309   2.501   2.682 -0.9685 -0.1692  0.5588
 9669TIP3    H228951   3.358   2.383   2.601  0.9165  0.3014  0.9756
 9670TIP3   OH228952   6.546   2.884   2.878 -0.8453 -0.0558  0.1274
 9670TIP3    H128953   6.522   2.877   2.970 -0.4667  1.8872  0.4210
 9670TIP3    H228954   6.466   2.859   2.831 -1.0914 -0.9155  0.9636
 9671TIP3   OH228955   2.533   5.836   1.687 -0.1287 -0.7745  0.1176
 9671TIP3    H128956   2.622   5.801   1.690  0.5737  0.7742 -0.9521
 9671TIP3    H228957   2.507   5.844   1.778  1.4064  0.0240  0.5277
 9672TIP3   OH228958   1.930   2.550   3.191  0.4064  0.0113  0.5025
 9672TIP3    H128959   1.930   2.645   3.179  0.1961 -0.0227  0.2353
 9672TIP3    H228960   1.848   2.521   3.152  0.3388 -0.2503  0.8396
 9673TIP3   OH228961   1.808   7.098   5.557 -0.7573 -0.4317 -0.0705
 9673TIP3    H128962   1.870   7.026   5.571 -0.1429  0.2444  0.8112
 9673TIP3    H228963   1.816   7.118   5.464 -1.7406 -2.2033 -0.5930
 9674TIP3   OH228964   5.499   0.828   6.143  0.6271 -0.3338  0.0825
 9674TIP3    H128965   5.459   0.789   6.065  0.0851  1.3603 -0.5425
 9674TIP3    H228966   5.456   0.784   6.216  0.7040 -1.5316 -0.5700
 9675TIP3   OH228967   4.437   5.341   2.082 -0.1407  0.1146  0.4517
 9675TIP3    H128968   4.399   5.259   2.050  1.1327 -0.0174 -0.8589
 9675TIP3    H228969   4.495   5.314   2.153 -0.7178  0.0426  0.8994
 9676TIP3   OH228970   5.824   6.440   4.635  0.0395 -0.4766  0.3458
 9676TIP3    H128971   5.844   6.370   4.697  0.6608  0.1773  0.9067
 9676TIP3    H228972   5.733   6.425   4.611 -0.4081 -0.4234  1.8709
 9677TIP3   OH228973   3.579   0.379   3.390  0.1840  0.2514  0.2793
 9677TIP3    H128974   3.618   0.466   3.397 -0.6539  0.7222 -0.6275
 9677TIP3    H228975   3.631   0.325   3.449  2.1753  0.8658 -0.8125
 9678TIP3   OH228976   1.946   7.642   0.606  0.5462  0.4310  0.4453
 9678TIP3    H128977   1.996   7.629   0.687  1.0667  0.3858  0.1264
 9678TIP3    H228978   1.861   7.675   0.635  0.5304 -0.1002  1.0442
 9679TIP3   OH228979   1.817   0.762   5.279  0.1927  0.2273 -0.0500
 9679TIP3    H128980   1.829   0.818   5.355 -0.1011  0.3595 -0.1018
 9679TIP3    H228981   1.804   0.674   5.315 -1.0075  0.4495  0.0996
 9680TIP3   OH228982   6.384   2.079   2.681  0.2598  0.5001 -0.0940
 9680TIP3    H128983   6.454   2.141   2.700 -0.1705  0.4471  1.9760
 9680TIP3    H228984   6.343   2.111   2.601 -0.1677  3.1159  1.0882
 9681TIP3   OH228985   4.116   6.116   2.226  0.1122  0.0531  0.2712
 9681TIP3    H128986   4.095   6.100   2.318  0.4034 -0.9230  0.1801
 9681TIP3    H228987   4.039   6.086   2.178 -0.0849  0.6647  0.1936
 9682TIP3   OH228988   3.752   2.041   3.381  0.4868  0.1223 -0.2918
 9682TIP3    H128989   3.694   2.037   3.457  1.7985  2.2388  0.8860
 9682TIP3    H228990   3.744   1.954   3.341 -0.4141 -0.9892  2.1082
 9683TIP3   OH228991   7.943   7.268   6.488  0.0068  0.0976 -0.0520
 9683TIP3    H128992   8.005   7.321   6.538  1.2570 -0.2836 -1.1512
 9683TIP3    H228993   7.994   7.232   6.416 -1.4067 -0.5673 -0.7678
 9684TIP3   OH228994   1.823   3.026   2.989 -0.6782 -0.1128  0.8243
 9684TIP3    H128995   1.802   2.947   2.939 -0.0420  0.4519 -0.4041
 9684TIP3    H228996   1.813   3.001   3.080 -0.7769 -1.5243  0.4464
 9685TIP3   OH228997   2.395   5.768   4.493 -0.2268 -0.3324 -0.0826
 9685TIP3    H128998   2.384   5.680   4.457  3.3592 -1.3204  0.8255
 9685TIP3    H228999   2.407   5.824   4.416  0.9082 -1.2698 -0.6134
 9686TIP3   OH229000   0.577   1.611   0.585 -0.4833  0.5165  0.6379
 9686TIP3    H129001   0.532   1.640   0.506  0.4639  0.8856  0.2225
 9686TIP3    H229002   0.621   1.689   0.618  1.9907 -0.3476 -0.4198
 9687TIP3   OH229003   0.979   1.138   6.428 -0.1055 -0.0413 -0.1620
 9687TIP3    H129004   1.073   1.138   6.447  0.1763  0.7981 -1.4436
 9687TIP3    H229005   0.944   1.065   6.480  1.2757 -0.4637  0.2147
 9688TIP3   OH229006   5.211   5.853   4.814 -0.0002 -0.1727  0.0454
 9688TIP3    H129007   5.185   5.896   4.896  1.3090 -0.1555  0.4680
 9688TIP3    H229008   5.211   5.923   4.749  0.5366  0.1582  0.3874
 9689TIP3   OH229009   2.378   7.404   2.595 -0.2974  0.0272 -0.2440
 9689TIP3    H129010   2.321   7.475   2.565 -1.3084 -0.4217  0.5476
 9689TIP3    H229011   2.340   7.377   2.679  1.0784 -0.3172  0.2834
 9690TIP3   OH229012   1.336   3.611   5.016  0.1358  0.2035 -0.1565
 9690TIP3    H129013   1.276   3.678   4.982  1.3473  1.3817 -0.0573
 9690TIP3    H229014   1.354   3.555   4.941 -1.1575 -0.2511 -0.1625
 9691TIP3   OH229015   2.219   7.649   5.908 -0.0369  0.3140 -0.1211
 9691TIP3    H129016   2.152   7.581   5.916  0.8027 -0.5520 -0.3158
 9691TIP3    H229017   2.235   7.656   5.814 -0.0798  0.7583 -0.0999
 9692TIP3   OH229018   1.441   5.396   2.603 -0.1285 -0.2109  0.2889
 9692TIP3    H129019   1.430   5.301   2.608  1.0280 -0.3439  0.7582
 9692TIP3    H229020   1.531   5.411   2.634 -0.3098  1.0383  0.2608
 9693TIP3   OH229021   1.260   1.548   1.662  0.1129  0.4509  0.3190
 9693TIP3    H129022   1.228   1.461   1.686 -1.4270  0.9059  0.0211
 9693TIP3    H229023   1.355   1.536   1.650  0.1251 -0.9018  1.4844
 9694TIP3   OH229024   2.300   1.293   3.274 -0.2845  0.7394  0.0506
 9694TIP3    H129025   2.245   1.317   3.349 -1.4330  1.4128 -0.9911
 9694TIP3    H229026   2.354   1.221   3.307 -2.0145 -0.1896  1.0070
 9695TIP3   OH229027   0.553   5.391   4.583 -0.0593 -0.1910  0.4508
 9695TIP3    H129028   0.637   5.429   4.609 -0.3911  1.6123 -0.8509
 9695TIP3    H229029   0.488   5.454   4.614 -0.8261 -0.8358  0.1974
 9696TIP3   OH229030   0.996   0.163   3.191 -0.1006 -0.4600  0.3581
 9696TIP3    H129031   1.077   0.182   3.142  0.3234 -1.0349  0.8208
 9696TIP3    H229032   0.971   0.247   3.229 -0.4167 -0.0083 -0.7969
 9697TIP3   OH229033   3.877   0.198   6.286  0.1695 -0.9715 -0.2159
 9697TIP3    H129034   3.938   0.211   6.359  0.6563 -2.1849 -0.3754
 9697TIP3    H229035   3.795   0.235   6.317  0.2864 -1.7225  1.0980
 9698TIP3   OH229036   0.959   4.056   0.542  0.5900  0.0286 -0.4807
 9698TIP3    H129037   0.870   4.087   0.559  0.7335  0.3430 -0.2931
 9698TIP3    H229038   0.987   4.107   0.467  1.6632  2.0580  1.2012
 9699TIP3   OH229039   2.083   6.607   4.851  0.0172 -0.0521  0.1281
 9699TIP3    H129040   2.146   6.678   4.837  0.0730  0.0182  0.7046
 9699TIP3    H229041   2.133   6.527   4.837  0.1746  0.0082  0.3389
 9700TIP3   OH229042   4.215   3.544   4.639 -0.4714 -0.6346  0.3796
 9700TIP3    H129043   4.216   3.608   4.711 -0.7233  0.4409 -0.5401
 9700TIP3    H229044   4.283   3.481   4.662  2.4507  1.9644 -0.4156
 9701TIP3   OH229045   1.396   7.788   5.161  0.4909 -0.0566  0.3578
 9701TIP3    H129046   1.437   7.833   5.087 -2.2161  1.9311 -0.1004
 9701TIP3    H229047   1.430   7.833   5.238 -1.0257  1.9188 -0.0360
 9702TIP3   OH229048   0.554   0.591   0.133 -0.9545  0.5911 -0.1451
 9702TIP3    H129049   0.512   0.508   0.156 -0.4110  0.1301 -0.7877
 9702TIP3    H229050   0.497   0.629   0.066 -1.0610  0.6193 -0.0404
 9703TIP3   OH229051   5.281   6.934   3.685 -0.8061 -0.1677 -0.4535
 9703TIP3    H129052   5.269   7.015   3.734 -3.3642 -1.4423  1.2689
 9703TIP3    H229053   5.369   6.905   3.707 -1.0513  0.4806  1.5911
 9704TIP3   OH229054   0.582   1.338   1.047  0.6452  0.7662  0.4829
 9704TIP3    H129055   0.597   1.387   0.966 -0.8195  0.4849  0.0218
 9704TIP3    H229056   0.552   1.252   1.017  1.9771 -0.0262  1.3044
 9705TIP3   OH229057   4.668   5.627   0.770  0.2807 -0.0616  0.6441
 9705TIP3    H129058   4.598   5.623   0.835  0.7460 -1.1026  1.1014
 9705TIP3    H229059   4.700   5.537   0.763  0.1345 -0.0102 -1.1624
 9706TIP3   OH229060   3.764   2.529   4.067 -0.3713  0.3633  0.4806
 9706TIP3    H129061   3.851   2.490   4.067 -0.7219 -0.4275  0.3808
 9706TIP3    H229062   3.773   2.606   4.009  0.0276 -0.2420 -0.2831
 9707TIP3   OH229063   4.599   4.564   0.881  0.4820  0.2776  0.1301
 9707TIP3    H129064   4.509   4.595   0.885  0.0006 -0.3440 -2.8418
 9707TIP3    H229065   4.613   4.517   0.963 -1.8437  0.5295  0.7317
 9708TIP3   OH229066   2.346   7.655   0.608 -0.2227 -0.0482 -0.3343
 9708TIP3    H129067   2.253   7.677   0.612 -0.1117  0.2411  1.3940
 9708TIP3    H229068   2.376   7.659   0.699  1.6710  0.6298 -0.9402
 9709TIP3   OH229069   4.874   6.095   2.383 -0.0131  0.1236  0.2235
 9709TIP3    H129070   4.843   6.027   2.444  0.8074 -1.8444 -1.4599
 9709TIP3    H229071   4.965   6.111   2.410 -0.2002  0.5736  0.6074
 9710TIP3   OH229072   4.078   6.666   3.832 -0.0586 -0.4716 -0.7125
 9710TIP3    H129073   4.121   6.607   3.893  0.5657 -2.0363 -2.5431
 9710TIP3    H229074   4.136   6.742   3.826 -0.9906  0.5332  1.8479
 9711TIP3   OH229075   7.765   7.817   1.847 -0.2081 -0.0876  0.2127
 9711TIP3    H129076   7.749   7.892   1.904  1.4142  0.2713  0.2436
 9711TIP3    H229077   7.722   7.743   1.891 -0.8722  0.5957  0.7433
 9712TIP3   OH229078   3.416   7.213   3.250  0.2432  0.2070  0.5085
 9712TIP3    H129079   3.368   7.176   3.324 -1.2039 -0.2258 -0.5910
 9712TIP3    H229080   3.508   7.194   3.268 -0.0345  0.3978  2.3273
 9713TIP3   OH229081   3.616   6.922   3.177  0.3087  0.0634  0.2521
 9713TIP3    H129082   3.568   6.863   3.119 -0.9795  0.8800  0.4377
 9713TIP3    H229083   3.701   6.880   3.189 -0.6026 -1.8225  0.4960
 9714TIP3   OH229084   7.342   1.799   1.398 -0.0514 -0.2081  1.0224
 9714TIP3    H129085   7.353   1.890   1.373  1.5909 -0.8877 -0.9945
 9714TIP3    H229086   7.359   1.798   1.492 -2.5028  1.8519  1.6063
 9715TIP3   OH229087   4.858   7.767   3.371 -0.0688 -0.0501 -0.3319
 9715TIP3    H129088   4.894   7.744   3.285  0.6095  1.5079 -0.4903
 9715TIP3    H229089   4.935   7.784   3.426 -0.4838 -1.3997  0.7217
 9716TIP3   OH229090   5.673   3.536   1.030  0.2739 -0.5356  0.7379
 9716TIP3    H129091   5.663   3.491   1.114  1.1532 -0.0894  1.0959
 9716TIP3    H229092   5.629   3.620   1.043 -0.5381 -0.8963  0.3828
 9717TIP3   OH229093   6.540   2.624   5.992  0.3880 -0.3801  0.0951
 9717TIP3    H129094   6.462   2.575   5.966 -0.8624  0.4269  2.0586
 9717TIP3    H229095   6.613   2.579   5.950 -1.0535 -1.7152 -1.0553
 9718TIP3   OH229096   3.697   2.191   4.276 -0.4127  0.9626 -0.1331
 9718TIP3    H129097   3.646   2.178   4.196 -0.6574 -0.6595  0.2474
 9718TIP3    H229098   3.728   2.103   4.298  2.8809  1.8844 -0.5428
 9719TIP3   OH229099   4.571   0.706   4.649  0.2986 -0.2175  0.4817
 9719TIP3    H129100   4.553   0.679   4.559 -0.2705  1.5138  0.0386
 9719TIP3    H229101   4.641   0.648   4.678 -1.8294 -3.1829  0.1674
 9720TIP3   OH229102   0.798   2.741   2.261 -0.2447  0.6127  0.0811
 9720TIP3    H129103   0.877   2.772   2.218  0.1530  1.0374  1.0813
 9720TIP3    H229104   0.772   2.813   2.319 -0.3774 -0.1777  1.0379
 9721TIP3   OH229105   2.318   6.691   6.257 -0.3205  0.4025 -0.5593
 9721TIP3    H129106   2.313   6.694   6.161  0.3545 -1.7840 -0.7112
 9721TIP3    H229107   2.290   6.603   6.280  2.9286 -0.3981  0.9653
 9722TIP3   OH229108   1.874   0.092   2.906 -0.6805  0.5023  0.0897
 9722TIP3    H129109   1.797   0.121   2.858 -1.6871  1.2094  2.0030
 9722TIP3    H229110   1.916   0.173   2.935  0.0216  0.1056  0.2147
 9723TIP3   OH229111   6.180   2.270   1.711 -0.1891 -0.0467 -0.3707
 9723TIP3    H129112   6.175   2.212   1.787 -4.3023  1.3284  0.7069
 9723TIP3    H229113   6.164   2.214   1.636  2.6065 -1.2145 -0.2035
 9724TIP3   OH229114   6.025   4.128   0.203  0.7010 -0.9780 -0.4470
 9724TIP3    H129115   5.957   4.097   0.143 -0.9002  1.0256  0.2101
 9724TIP3    H229116   5.985   4.123   0.290  0.4812  2.2256 -0.2407
 9725TIP3   OH229117   6.711   0.237   2.709  0.6458  0.3157  0.2367
 9725TIP3    H129118   6.802   0.239   2.737  0.2356 -0.8394  1.8332
 9725TIP3    H229119   6.682   0.147   2.727 -0.5908  0.4156 -1.0130
 9726TIP3   OH229120   7.942   1.394   1.927 -0.4238  0.0165 -0.6569
 9726TIP3    H129121   7.965   1.462   1.990 -0.9489  0.3122 -0.7813
 9726TIP3    H229122   7.846   1.391   1.928 -0.4569  0.2527 -1.6744
 9727TIP3   OH229123   2.429   7.219   6.132  0.7030  0.3667 -1.0290
 9727TIP3    H129124   2.482   7.170   6.069  0.9904  0.2928 -0.7295
 9727TIP3    H229125   2.357   7.256   6.080 -1.4478 -3.0634 -0.7918
 9728TIP3   OH229126   3.099   5.048   1.190  0.3853  0.2425  0.2509
 9728TIP3    H129127   3.146   5.051   1.274  0.0872  0.1645  0.4220
 9728TIP3    H229128   3.008   5.066   1.213  0.5427  1.8542 -0.2628
 9729TIP3   OH229129   1.168   1.894   5.609  0.9483  0.2143 -0.4944
 9729TIP3    H129130   1.175   1.803   5.579 -0.1436 -0.6724  1.6678
 9729TIP3    H229131   1.218   1.896   5.691  0.8695  1.5310 -0.4553
 9730TIP3   OH229132   5.954   7.094   6.539  0.1520  0.8518 -0.2003
 9730TIP3    H129133   6.018   7.025   6.553 -0.7186 -0.2126 -1.2714
 9730TIP3    H229134   6.001   7.161   6.490  0.8372  0.7485  0.3096
 9731TIP3   OH229135   7.785   7.831   1.560 -0.2060  0.4651  0.7389
 9731TIP3    H129136   7.776   7.839   1.655 -0.4993 -0.4840  0.8008
 9731TIP3    H229137   7.726   7.759   1.536 -1.5096  1.8606 -0.4030
 9732TIP3   OH229138   8.080   5.115   2.147  0.1632  0.6984 -0.1475
 9732TIP3    H129139   8.013   5.055   2.118 -0.2835  0.8711  0.4963
 9732TIP3    H229140   8.163   5.077   2.117 -0.2580  0.7839 -1.4416
 9733TIP3   OH229141   1.782   6.514   4.057 -0.0233  0.3218  0.3384
 9733TIP3    H129142   1.773   6.600   4.098  0.3596 -0.1755  1.5136
 9733TIP3    H229143   1.801   6.455   4.130  1.1646 -0.5311 -0.6244
 9734TIP3   OH229144   5.813   4.659   4.600 -0.1427 -0.0560 -0.5944
 9734TIP3    H129145   5.726   4.686   4.571 -0.1219 -0.2002 -0.7904
 9734TIP3    H229146   5.816   4.565   4.584 -0.2919 -0.2228  0.2841
 9735TIP3   OH229147   1.601   4.992   4.746 -0.1360  0.1912  0.1877
 9735TIP3    H129148   1.549   4.960   4.672 -4.8292  1.6350  2.4547
 9735TIP3    H229149   1.591   5.087   4.742  1.5996  0.4593  1.3599
 9736TIP3   OH229150   0.812   0.319   6.536 -0.1113  0.2042  0.8165
 9736TIP3    H129151   0.827   0.264   6.612  0.5385 -0.0109  0.5367
 9736TIP3    H229152   0.789   0.405   6.572  3.4704  1.0988  1.3422
 9737TIP3   OH229153   0.251   0.160   2.162  0.1779 -0.6440 -0.0001
 9737TIP3    H129154   0.244   0.249   2.129  2.3104 -1.3747 -2.8166
 9737TIP3    H229155   0.171   0.117   2.134  0.3241 -0.2781 -1.0065
 9738TIP3   OH229156   4.367   6.295   4.188 -0.0464  0.6290 -0.3431
 9738TIP3    H129157   4.275   6.272   4.195  0.5047 -2.0464 -1.0176
 9738TIP3    H229158   4.396   6.302   4.279 -0.9672  2.0073 -0.1148
 9739TIP3   OH229159   1.618   5.503   4.029  0.2548 -0.5948  0.6908
 9739TIP3    H129160   1.622   5.530   3.938  2.5297  1.6757  1.3391
 9739TIP3    H229161   1.546   5.440   4.033 -0.1580 -0.4715 -2.5485
 9740TIP3   OH229162   3.221   3.878   2.194 -0.0470 -0.6641  0.1654
 9740TIP3    H129163   3.201   3.785   2.200 -2.1581 -0.4797 -2.3487
 9740TIP3    H229164   3.304   3.882   2.147 -0.8293 -1.2995 -1.3279
 9741TIP3   OH229165   3.129   1.790   4.225  0.3592 -0.2664  0.1486
 9741TIP3    H129166   3.142   1.841   4.305  1.1964  0.3720 -0.3916
 9741TIP3    H229167   3.139   1.853   4.154 -2.2545 -0.4198 -0.4467
 9742TIP3   OH229168   7.283   4.125   3.641 -0.0309  0.5978  0.3917
 9742TIP3    H129169   7.359   4.110   3.585  0.3432  1.1317  0.7482
 9742TIP3    H229170   7.227   4.185   3.591 -0.3937 -0.0727 -0.0202
 9743TIP3   OH229171   4.565   1.009   5.776  0.1091 -0.1673  0.3320
 9743TIP3    H129172   4.574   1.013   5.680 -0.2334 -0.3407  0.2912
 9743TIP3    H229173   4.585   1.098   5.805  0.7855 -0.2582  0.1499
 9744TIP3   OH229174   4.274   3.503   5.062 -0.3513  0.4164  0.0750
 9744TIP3    H129175   4.356   3.478   5.018 -1.3177 -0.8859 -1.1139
 9744TIP3    H229176   4.301   3.558   5.135  1.7043 -1.1235  0.5679
 9745TIP3   OH229177   6.318   4.543   1.532 -0.1908 -0.1778 -0.1677
 9745TIP3    H129178   6.248   4.550   1.596  0.3905  0.9800  0.3632
 9745TIP3    H229179   6.324   4.631   1.493 -0.2204 -0.7344 -1.4739
 9746TIP3   OH229180   7.370   0.042   3.435  0.1280  0.4046  0.0252
 9746TIP3    H129181   7.346   0.088   3.355  0.0894 -0.2791 -0.3531
 9746TIP3    H229182   7.457   0.006   3.417 -0.0355 -0.0590  0.1624
 9747TIP3   OH229183   7.712   0.462   6.533  0.1114 -0.1472 -0.6098
 9747TIP3    H129184   7.653   0.518   6.583  0.7995 -0.0138  0.0570
 9747TIP3    H229185   7.792   0.513   6.524  0.4278 -0.6674 -0.7753
 9748TIP3   OH229186   8.096   2.949   2.657 -0.6223  0.3359  0.0604
 9748TIP3    H129187   8.127   2.914   2.573  2.2201  1.3095  0.6044
 9748TIP3    H229188   8.045   3.027   2.633 -0.7764 -0.0048 -0.7826
 9749TIP3   OH229189   7.911   6.507   5.717 -0.5732 -1.0651  0.4319
 9749TIP3    H129190   7.979   6.488   5.652 -0.0380 -0.8728  0.9248
 9749TIP3    H229191   7.880   6.421   5.745 -1.4063 -1.1395 -0.6891
 9750TIP3   OH229192   2.453   1.294   0.373  0.3937 -0.3179  0.1615
 9750TIP3    H129193   2.495   1.376   0.348  1.1438 -0.6858  0.1914
 9750TIP3    H229194   2.385   1.321   0.435  1.2512  0.2053  0.9066
 9751TIP3   OH229195   7.637   6.401   1.755 -0.0736 -0.0314 -0.0470
 9751TIP3    H129196   7.727   6.367   1.757  0.6738  1.7982 -0.1829
 9751TIP3    H229197   7.643   6.482   1.704 -1.6557  0.5267  0.5741
 9752TIP3   OH229198   0.061   5.500   0.102  0.1715 -0.1378 -0.2727
 9752TIP3    H129199   0.046   5.471   0.012 -1.0732 -1.3917  0.2896
 9752TIP3    H229200  -0.015   5.468   0.150  1.1999 -0.2288  1.3878
 9753TIP3   OH229201   6.151   5.221   0.472  0.6119  0.5731 -0.1115
 9753TIP3    H129202   6.086   5.285   0.501 -0.1088  0.6009 -1.6469
 9753TIP3    H229203   6.110   5.136   0.486  1.4918  0.4175  1.7449
 9754TIP3   OH229204   6.639   6.344   3.080 -0.5403 -0.5997 -0.1075
 9754TIP3    H129205   6.722   6.329   3.034 -1.1911 -0.6437 -1.2939
 9754TIP3    H229206   6.577   6.367   3.012 -0.9204  2.1552  1.0223
 9755TIP3   OH229207   6.432   0.506   1.548 -0.2356 -0.4068  0.1217
 9755TIP3    H129208   6.461   0.434   1.491  0.0304 -0.0148 -0.2448
 9755TIP3    H229209   6.465   0.482   1.635  0.7718 -0.2150 -0.1910
 9756TIP3   OH229210   1.021   0.646   5.779  0.1882 -0.2070  0.5280
 9756TIP3    H129211   1.022   0.588   5.855 -0.5621  0.3276  0.9457
 9756TIP3    H229212   1.076   0.721   5.805  0.7714 -0.4926  0.1583
 9757TIP3   OH229213   2.384   0.275   4.259 -0.5458 -0.0693 -0.2726
 9757TIP3    H129214   2.357   0.333   4.330  0.6536 -0.1379  0.2689
 9757TIP3    H229215   2.454   0.222   4.298  0.2883  0.0533 -1.5826
 9758TIP3   OH229216   6.440   4.537   5.539  0.1009 -0.3559 -0.1535
 9758TIP3    H129217   6.354   4.502   5.565 -0.1201  0.6760  0.5845
 9758TIP3    H229218   6.419   4.614   5.485  0.5532 -0.1165  0.0105
 9759TIP3   OH229219   0.614   0.670   5.516  0.5752  0.5652  0.0576
 9759TIP3    H129220   0.552   0.739   5.538 -0.2971  0.1827 -1.1582
 9759TIP3    H229221   0.663   0.656   5.597 -0.5330  1.2599  0.8751
 9760TIP3   OH229222   6.446   2.209   2.971  0.0611 -0.0209 -0.0642
 9760TIP3    H129223   6.495   2.128   2.961  1.0421  0.6598 -0.9259
 9760TIP3    H229224   6.490   2.272   2.913  0.6318  1.7197  2.1009
 9761TIP3   OH229225   0.257   3.483   6.704  0.6224  0.1855  0.3086
 9761TIP3    H129226   0.276   3.396   6.740  1.5036  0.6338  0.9570
 9761TIP3    H229227   0.162   3.488   6.703  0.5721 -0.4946  0.9778
 9762TIP3   OH229228   0.099   4.094   0.143  0.8086 -0.5019 -0.4311
 9762TIP3    H129229   0.035   4.034   0.106 -0.9295  0.8464  0.2224
 9762TIP3    H229230   0.060   4.181   0.133  2.1635  0.3014  0.7398
 9763TIP3   OH229231   5.999   2.760   1.590  0.2691  0.2703  0.0756
 9763TIP3    H129232   5.973   2.852   1.600  0.6336  0.2481  1.3263
 9763TIP3    H229233   6.028   2.754   1.499  0.2315  1.3959 -0.0286
 9764TIP3   OH229234   4.209   4.910   5.161 -0.1794  0.1510  0.1025
 9764TIP3    H129235   4.289   4.865   5.189  0.2286  0.6174 -0.2933
 9764TIP3    H229236   4.240   4.988   5.116 -0.7397 -1.0027 -2.4723
 9765TIP3   OH229237   3.793   5.904   3.360 -0.5402  0.2005  0.4760
 9765TIP3    H129238   3.787   5.815   3.395  1.9124  0.2131  1.0972
 9765TIP3    H229239   3.840   5.953   3.427  0.7082  1.2267 -1.0800
 9766TIP3   OH229240   1.824   3.163   6.228  0.1379  0.3337  0.0857
 9766TIP3    H129241   1.916   3.182   6.208  0.1200 -0.6693 -1.0845
 9766TIP3    H229242   1.828   3.094   6.293  0.2380 -0.3358 -0.6134
 9767TIP3   OH229243   2.990   0.173   1.572 -0.4353 -0.1442 -0.3546
 9767TIP3    H129244   2.957   0.085   1.593 -0.0790 -0.2215 -0.1071
 9767TIP3    H229245   3.057   0.189   1.639 -0.6940  0.4273 -0.2318
 9768TIP3   OH229246   3.115   5.458   1.839 -0.1591 -0.2143  0.2215
 9768TIP3    H129247   3.088   5.493   1.754 -2.7336 -2.2488  0.0540
 9768TIP3    H229248   3.093   5.527   1.901  2.1182  1.4606 -0.7110
 9769TIP3   OH229249   7.900   7.662   0.411  0.2083 -0.1757  0.3311
 9769TIP3    H129250   7.885   7.694   0.499  2.4169 -0.2490  0.7950
 9769TIP3    H229251   7.977   7.606   0.418  0.3448 -0.3287 -1.6065
 9770TIP3   OH229252   3.224   2.943   2.560 -0.5992 -0.8202  0.7128
 9770TIP3    H129253   3.181   2.981   2.637 -0.3360  2.0374 -0.4419
 9770TIP3    H229254   3.182   2.985   2.486  2.4671  0.3209 -0.5408
 9771TIP3   OH229255   0.857   3.230   4.104  0.0846  0.4465 -0.6926
 9771TIP3    H129256   0.777   3.270   4.139 -1.0043 -1.3217 -1.0534
 9771TIP3    H229257   0.900   3.191   4.180 -0.4930 -0.4071 -0.7951
 9772TIP3   OH229258   6.442   2.394   1.805 -0.0521 -0.2943  0.6042
 9772TIP3    H129259   6.440   2.480   1.762  2.2233  0.2269  1.3895
 9772TIP3    H229260   6.433   2.331   1.733 -0.7914  0.5788 -0.0945
 9773TIP3   OH229261   5.375   0.275   3.754  0.3057  0.4412  0.2276
 9773TIP3    H129262   5.356   0.350   3.809 -0.1223  0.1565  0.4703
 9773TIP3    H229263   5.326   0.292   3.673  2.3153  1.7242 -0.8030
 9774TIP3   OH229264   8.170   5.436   4.867  0.7900 -0.2566  0.1544
 9774TIP3    H129265   8.214   5.511   4.828 -1.1040  0.2376 -1.1215
 9774TIP3    H229266   8.238   5.369   4.872  2.2310  1.1392  0.2779
 9775TIP3   OH229267   1.701   2.514   1.380  0.0384 -0.5505 -0.1198
 9775TIP3    H129268   1.764   2.485   1.314  1.5567 -1.5821  1.6900
 9775TIP3    H229269   1.720   2.607   1.393  0.3296 -0.5579 -0.4915
 9776TIP3   OH229270   4.500   4.392   4.705 -0.2809 -0.2684  0.2337
 9776TIP3    H129271   4.524   4.299   4.695  0.3201 -0.1514  0.5823
 9776TIP3    H229272   4.544   4.420   4.785 -0.3848  0.3460  0.0786
 9777TIP3   OH229273   5.350   1.040   5.210  0.0933 -0.1132 -0.0746
 9777TIP3    H129274   5.373   0.975   5.277  1.7346  0.9982  0.4821
 9777TIP3    H229275   5.306   1.109   5.258 -0.7193 -0.3063 -0.5155
 9778TIP3   OH229276   5.887   1.271   0.579  0.4208 -0.0214  0.3799
 9778TIP3    H129277   5.958   1.221   0.619  1.1243  0.9641  0.3885
 9778TIP3    H229278   5.844   1.208   0.521  1.9939 -0.3775 -0.4748
 9779TIP3   OH229279   6.658   5.939   6.323 -0.7423  0.6496  0.1605
 9779TIP3    H129280   6.734   5.982   6.360 -0.1572 -0.1692 -0.0605
 9779TIP3    H229281   6.672   5.846   6.341 -2.0890  0.5561  0.8471
 9780TIP3   OH229282   3.583   7.784   0.023 -0.0293 -0.0628  0.3330
 9780TIP3    H129283   3.571   7.839   0.100  0.1912 -1.6249  1.5156
 9780TIP3    H229284   3.673   7.802  -0.006 -0.1264  0.5518  0.3919
 9781TIP3   OH229285   3.105   1.777   3.931 -0.1318  0.1053  0.3284
 9781TIP3    H129286   3.023   1.736   3.903  0.0881 -1.3664  1.6931
 9781TIP3    H229287   3.095   1.869   3.906 -1.1304 -0.5192 -1.7940
 9782TIP3   OH229288   6.190   5.187   6.436  0.8831 -0.2575 -0.1185
 9782TIP3    H129289   6.183   5.102   6.392 -1.6701 -0.3468  0.3197
 9782TIP3    H229290   6.164   5.251   6.369  1.9621  0.1213 -0.1917
 9783TIP3   OH229291   4.065   6.940   2.346 -0.1758 -0.3786 -0.3540
 9783TIP3    H129292   3.976   6.970   2.326  0.1612 -0.3896 -2.0047
 9783TIP3    H229293   4.119   6.979   2.277  1.4544  1.2582  1.7201
 9784TIP3   OH229294   6.557   2.616   4.039  0.0407 -0.9335 -0.1220
 9784TIP3    H129295   6.612   2.554   3.991  1.5182  0.2902 -0.1092
 9784TIP3    H229296   6.535   2.683   3.974 -0.6156 -0.8941  0.1330
 9785TIP3   OH229297   2.352   0.724   3.311  0.1521  0.1492 -0.1004
 9785TIP3    H129298   2.437   0.765   3.293  0.9722 -0.5117  1.9423
 9785TIP3    H229299   2.366   0.631   3.292  0.7990 -0.4311  2.7375
 9786TIP3   OH229300   8.262   3.946   5.184 -0.1699 -0.0363  0.2685
 9786TIP3    H129301   8.175   3.943   5.224 -0.8551 -1.2414 -1.1977
 9786TIP3    H229302   8.301   4.027   5.217 -2.1067  0.8865  0.4300
 9787TIP3   OH229303   4.238   4.638   2.679  0.2617  0.0162  0.5137
 9787TIP3    H129304   4.308   4.622   2.616  0.5879 -1.4932  1.2099
 9787TIP3    H229305   4.171   4.573   2.658  0.4124 -0.5717  1.7387
 9788TIP3   OH229306   0.418   1.884   6.451 -0.6986  0.5662 -0.0779
 9788TIP3    H129307   0.386   1.863   6.363 -1.9939  0.1280  0.4600
 9788TIP3    H229308   0.452   1.801   6.484 -0.1816  0.7383 -0.1798
 9789TIP3   OH229309   0.091   5.868   1.582 -0.4367  0.4297 -0.1251
 9789TIP3    H129310  -0.002   5.871   1.605 -0.1898  0.4387  0.9224
 9789TIP3    H229311   0.136   5.892   1.663  0.5107 -0.4623 -0.3663
 9790TIP3   OH229312   3.850   4.068   6.194  0.3172 -0.4129  0.4464
 9790TIP3    H129313   3.912   4.082   6.266  0.8818  0.8949 -0.2593
 9790TIP3    H229314   3.767   4.049   6.238  0.8545 -0.5881  1.4306
 9791TIP3   OH229315   2.427   2.183   4.377  0.3208  0.1358  0.3003
 9791TIP3    H129316   2.406   2.189   4.470 -0.6240 -0.5256  0.1506
 9791TIP3    H229317   2.404   2.092   4.354 -0.8144  0.6941 -0.8855
 9792TIP3   OH229318   5.553   6.618   3.069 -0.3187  0.0325 -0.4036
 9792TIP3    H129319   5.519   6.532   3.094 -0.1628 -0.5192 -1.9697
 9792TIP3    H229320   5.490   6.651   3.005 -0.2457  1.0007  0.0037
 9793TIP3   OH229321   4.194   3.845   4.091  0.1948 -0.5696  0.6825
 9793TIP3    H129322   4.245   3.873   4.166  0.8121  1.1988 -0.3316
 9793TIP3    H229323   4.200   3.750   4.091  2.4599 -0.4816  1.3174
 9794TIP3   OH229324   7.825   0.060   2.606  0.5099 -0.5310 -0.2241
 9794TIP3    H129325   7.870  -0.020   2.579  1.8488  0.5349 -1.3226
 9794TIP3    H229326   7.849   0.125   2.539 -0.9471  0.6714  0.3476
 9795TIP3   OH229327   7.844   5.188   3.882  0.2894  0.5521  0.2980
 9795TIP3    H129328   7.794   5.262   3.917  0.3710  0.0934  1.4266
 9795TIP3    H229329   7.804   5.111   3.922 -0.9223 -0.2104 -2.1769
 9796TIP3   OH229330   0.659   3.812   6.593 -0.5373  0.0850 -0.3850
 9796TIP3    H129331   0.724   3.835   6.661 -0.9692 -0.5399  0.2537
 9796TIP3    H229332   0.665   3.717   6.585 -0.3196  0.1790 -1.4172
 9797TIP3   OH229333   7.621   0.760   5.753 -0.2653  0.5201 -0.1296
 9797TIP3    H129334   7.589   0.767   5.843  0.0788 -0.5311  0.0846
 9797TIP3    H229335   7.549   0.718   5.706 -0.1112  0.2917 -0.1597
 9798TIP3   OH229336   8.169   3.179   0.615  0.5362  0.0203 -0.0568
 9798TIP3    H129337   8.176   3.114   0.545  2.5253 -0.6165  0.6579
 9798TIP3    H229338   8.230   3.248   0.590 -0.1398  0.7021  0.1360
 9799TIP3   OH229339   0.177   5.725   2.725 -0.0719 -0.3423  0.2036
 9799TIP3    H129340   0.265   5.762   2.718 -0.0356 -0.4987 -0.1907
 9799TIP3    H229341   0.124   5.776   2.664 -0.1030 -0.6933 -0.0667
 9800TIP3   OH229342   3.205   1.232   5.975  0.3826  0.0424  0.3524
 9800TIP3    H129343   3.263   1.244   6.050  0.8716 -0.9172  0.1414
 9800TIP3    H229344   3.212   1.314   5.926  0.6237  0.3927  0.9568
 9801TIP3   OH229345   1.014   6.091   5.871 -0.4064  0.2097  0.4226
 9801TIP3    H129346   0.971   6.123   5.950 -1.4105  2.2422 -0.8386
 9801TIP3    H229347   1.052   6.170   5.831  0.4094 -0.8095 -0.9206
 9802TIP3   OH229348   4.701   0.648   3.802  0.0426  0.1674 -0.2817
 9802TIP3    H129349   4.668   0.736   3.816 -0.8635  0.0400 -1.4870
 9802TIP3    H229350   4.743   0.651   3.716  1.0626 -0.2907  0.1822
 9803TIP3   OH229351   5.548   6.536   5.398  0.5451  0.6501 -0.1831
 9803TIP3    H129352   5.598   6.462   5.430  1.1242  0.7884 -0.7575
 9803TIP3    H229353   5.571   6.543   5.305 -1.5978 -0.1552 -0.8468
 9804TIP3   OH229354   3.318  -0.028   4.734  0.5357 -0.3285 -0.2880
 9804TIP3    H129355   3.351   0.002   4.819  0.0415  1.8375 -0.7792
 9804TIP3    H229356   3.358   0.031   4.670  0.2752 -1.3971 -1.4936
 9805TIP3   OH229357   1.157   2.640   5.536  0.2928  0.2834 -0.1754
 9805TIP3    H129358   1.147   2.648   5.630 -0.2306  0.1179 -0.2140
 9805TIP3    H229359   1.146   2.730   5.503  1.2893  0.4818 -0.0190
 9806TIP3   OH229360   1.739   4.872   5.260 -0.2570  0.1022  0.2866
 9806TIP3    H129361   1.720   4.953   5.213  1.2017  0.4762  0.2898
 9806TIP3    H229362   1.677   4.808   5.224  0.5634  0.4716 -1.9167
 9807TIP3   OH229363   7.014   6.838   4.522  0.2391 -0.1166 -0.3282
 9807TIP3    H129364   6.952   6.849   4.450 -0.1958  0.5840  0.1478
 9807TIP3    H229365   7.004   6.917   4.575  1.3309 -0.1229 -0.0889
 9808TIP3   OH229366   6.755   2.990   2.354  0.1097  0.4286 -0.3110
 9808TIP3    H129367   6.765   2.962   2.263 -1.5996 -3.4998  0.5113
 9808TIP3    H229368   6.664   3.017   2.361  0.4093  1.3668  0.1288
 9809TIP3   OH229369   4.722   5.884   6.084  0.3618 -0.1006  0.5506
 9809TIP3    H129370   4.667   5.850   6.154  0.0972  0.1661  0.4760
 9809TIP3    H229371   4.726   5.978   6.100 -2.9796  0.6554 -1.9991
 9810TIP3   OH229372   0.228   0.341   4.417 -0.1849 -0.0828 -0.0082
 9810TIP3    H129373   0.240   0.350   4.323  0.3215 -0.4410  0.0169
 9810TIP3    H229374   0.217   0.247   4.431 -2.1621  0.1222  0.0823
 9811TIP3   OH229375   1.152   3.772   1.648  0.2569  0.5704 -0.2055
 9811TIP3    H129376   1.133   3.689   1.604 -1.9608  1.0803 -0.3423
 9811TIP3    H229377   1.080   3.784   1.710  1.5003  1.5419  1.1238
 9812TIP3   OH229378   5.800   5.136   5.732 -0.0688 -0.0250  0.5645
 9812TIP3    H129379   5.745   5.165   5.659  0.7957  1.8237  0.5720
 9812TIP3    H229380   5.842   5.056   5.700  0.1152  0.6184 -0.8974
 9813TIP3   OH229381   6.143   1.040   5.078  0.0606  0.5323  0.0755
 9813TIP3    H129382   6.185   1.025   5.163  0.3942 -0.1584 -0.2035
 9813TIP3    H229383   6.084   0.965   5.066  0.2715  0.4439 -0.4512
 9814TIP3   OH229384   7.896   4.062   2.827 -0.3216 -0.5425 -0.1323
 9814TIP3    H129385   7.984   4.045   2.861 -0.0953  0.0276 -0.4313
 9814TIP3    H229386   7.901   4.040   2.734 -0.5694 -0.7494 -0.1003
 9815TIP3   OH229387   3.385   6.314   6.609 -0.2245  0.0181 -0.0948
 9815TIP3    H129388   3.477   6.335   6.624 -0.3305  0.5800 -0.2145
 9815TIP3    H229389   3.357   6.376   6.542 -0.1952 -1.3729 -1.4722
 9816TIP3   OH229390   7.229   4.409   4.891 -0.2102 -0.1406 -0.4867
 9816TIP3    H129391   7.227   4.342   4.960  0.1843 -2.2708 -2.4454
 9816TIP3    H229392   7.294   4.473   4.922  0.3471 -1.3086  0.8646
 9817TIP3   OH229393   2.551   5.699   5.010 -0.4475  0.2549  0.1916
 9817TIP3    H129394   2.530   5.765   4.943  0.2024 -2.3583 -2.8205
 9817TIP3    H229395   2.646   5.690   5.007 -0.4799 -0.4675  0.9194
 9818TIP3   OH229396   5.771   1.877   6.348  0.2245 -0.0457  0.0036
 9818TIP3    H129397   5.851   1.906   6.303  0.3482 -2.7473 -1.7358
 9818TIP3    H229398   5.802   1.825   6.422  0.0493  0.5029  0.4664
 9819TIP3   OH229399   4.057   1.294   5.758  0.2049  0.5068 -0.8098
 9819TIP3    H129400   4.033   1.254   5.841 -1.7707  0.4489 -1.3557
 9819TIP3    H229401   4.122   1.235   5.721  0.4584  0.0724  0.2993
 9820TIP3   OH229402   4.309   0.814   5.353 -0.2334  0.1518  0.0964
 9820TIP3    H129403   4.395   0.845   5.382 -1.3499  1.8672  1.8024
 9820TIP3    H229404   4.321   0.794   5.260  2.5081 -1.7216  0.7034
 9821TIP3   OH229405   6.975   4.854   1.305  0.6303  0.0201  0.4088
 9821TIP3    H129406   7.061   4.824   1.332  0.0186 -1.1439  1.1739
 9821TIP3    H229407   6.926   4.774   1.286 -0.0128  0.6900 -0.9242
 9822TIP3   OH229408   3.036   7.276   6.264 -0.6582 -0.1060  0.0457
 9822TIP3    H129409   3.040   7.183   6.284  0.9977 -0.0746  0.0016
 9822TIP3    H229410   3.075   7.319   6.341  0.6312  0.3742 -0.8248
 9823TIP3   OH229411   7.201   4.684   2.957  0.1557 -0.1066  0.1733
 9823TIP3    H129412   7.271   4.645   3.010 -0.1943  0.2609  0.9263
 9823TIP3    H229413   7.248   4.736   2.891  0.6004 -0.6706  0.0314
 9824TIP3   OH229414   0.272   4.901   0.604 -0.5056  0.5354 -0.3201
 9824TIP3    H129415   0.204   4.967   0.622  0.9540  1.7332  1.0954
 9824TIP3    H229416   0.231   4.818   0.630 -1.7206  1.1250 -0.2830
 9825TIP3   OH229417   0.606   7.466   3.819 -0.6635  0.2101  0.0355
 9825TIP3    H129418   0.628   7.519   3.742  1.9896  0.0217  0.5443
 9825TIP3    H229419   0.592   7.530   3.889  0.6071  0.3453  0.1995
 9826TIP3   OH229420   3.388   1.042   2.218  0.3734  0.0212  0.3199
 9826TIP3    H129421   3.413   0.950   2.218 -0.3795 -0.2381 -1.6548
 9826TIP3    H229422   3.371   1.062   2.310  3.5063 -0.9185  1.2344
 9827TIP3   OH229423   6.563   6.660   5.194  0.4522 -0.5753 -0.1644
 9827TIP3    H129424   6.641   6.613   5.166  1.3709  0.2715  0.9113
 9827TIP3    H229425   6.584   6.753   5.179 -0.1111 -0.3030  0.6821
 9828TIP3   OH229426   1.914   5.836   6.734 -0.0788  0.1425 -0.0398
 9828TIP3    H129427   1.918   5.852   6.640 -0.2659  1.8026  0.2127
 9828TIP3    H229428   1.824   5.805   6.749 -0.0600 -0.0883 -0.3885
 9829TIP3   OH229429   3.753   5.174   3.200 -0.1231 -0.4775  0.1736
 9829TIP3    H129430   3.804   5.255   3.192  1.4172 -1.4312 -0.1094
 9829TIP3    H229431   3.677   5.199   3.252  0.3277  1.1445  0.1210
 9830TIP3   OH229432   5.268   0.137   1.685 -0.3280 -0.3996 -0.4348
 9830TIP3    H129433   5.212   0.214   1.697  0.2122  0.0471 -0.7884
 9830TIP3    H229434   5.220   0.082   1.623  0.5803  0.9439 -2.4039
 9831TIP3   OH229435   0.621   6.635   0.896 -0.7765  0.0093 -0.0475
 9831TIP3    H129436   0.637   6.594   0.811  0.8888 -2.2007  1.2397
 9831TIP3    H229437   0.569   6.571   0.944  0.6344 -0.0157  1.5232
 9832TIP3   OH229438   0.762   7.383   2.518  0.0753  0.2577  0.2198
 9832TIP3    H129439   0.707   7.459   2.499 -1.4005 -0.3389  1.8238
 9832TIP3    H229440   0.819   7.411   2.589 -1.2571 -0.4184  1.6055
 9833TIP3   OH229441   5.014   5.110   2.002  0.2210 -0.4347  0.2248
 9833TIP3    H129442   5.019   5.029   2.052 -0.7658 -0.4296  0.3405
 9833TIP3    H229443   4.921   5.123   1.985  0.2107  1.4031  1.4160
 9834TIP3   OH229444   7.456   5.456   6.118 -0.1031 -0.1135  0.0358
 9834TIP3    H129445   7.534   5.502   6.149  0.6930 -0.8146 -0.8663
 9834TIP3    H229446   7.383   5.504   6.157  0.7227  1.3867 -0.1982
 9835TIP3   OH229447   1.444   0.350   0.146 -0.2478  0.0175  0.6834
 9835TIP3    H129448   1.401   0.268   0.121 -2.6376  1.2268  0.5295
 9835TIP3    H229449   1.518   0.323   0.200 -1.1809 -2.2118  0.9523
 9836TIP3   OH229450   3.648   2.177   4.991  0.3358  0.1852 -0.2902
 9836TIP3    H129451   3.589   2.166   4.917  1.2667 -0.9798 -0.9031
 9836TIP3    H229452   3.593   2.164   5.068 -0.4862  0.5873 -0.8070
 9837TIP3   OH229453   1.903   4.976   1.604 -0.2115  0.3331  0.0771
 9837TIP3    H129454   1.859   5.036   1.544 -0.3410  1.1989  1.0077
 9837TIP3    H229455   1.854   4.985   1.686  0.7025  0.0922  0.6616
 9838TIP3   OH229456   7.692   0.878   0.355  0.1813  0.0198 -0.4209
 9838TIP3    H129457   7.609   0.893   0.401  0.4920  0.1603  0.1032
 9838TIP3    H229458   7.757   0.923   0.408  0.7512 -0.9683 -0.2646
 9839TIP3   OH229459   7.154   2.867   4.877 -0.3730 -0.1210  0.1901
 9839TIP3    H129460   7.060   2.884   4.872 -0.3719 -0.3722 -1.0590
 9839TIP3    H229461   7.161   2.777   4.908 -0.5122  0.2462  1.3085
 9840TIP3   OH229462   6.802   3.737   2.441 -0.0468 -0.0655 -0.3393
 9840TIP3    H129463   6.759   3.812   2.399 -0.4940 -0.8573 -1.3385
 9840TIP3    H229464   6.737   3.704   2.502 -0.4790 -0.6149 -1.0804
 9841TIP3   OH229465   1.212   7.060   2.725  0.4577  0.0392 -0.1447
 9841TIP3    H129466   1.182   7.026   2.641  1.6278  0.7790 -0.8842
 9841TIP3    H229467   1.295   7.017   2.741  0.0328 -0.4322  0.8723
 9842TIP3   OH229468   3.985   2.914   4.174  0.1076  0.3495  0.3383
 9842TIP3    H129469   4.017   2.997   4.139 -0.9144  0.5943 -0.0646
 9842TIP3    H229470   4.024   2.909   4.261  0.9477  0.7805  0.0034
 9843TIP3   OH229471   2.832   4.384   0.472 -0.4544 -0.1695 -0.0701
 9843TIP3    H129472   2.839   4.332   0.392  1.0960 -0.4248  0.1848
 9843TIP3    H229473   2.839   4.475   0.443 -2.4238 -0.0979 -0.4417
 9844TIP3   OH229474   3.583   4.487   1.144 -0.4173 -0.3827 -0.3759
 9844TIP3    H129475   3.653   4.543   1.176 -0.8983 -0.2932  0.5566
 9844TIP3    H229476   3.609   4.399   1.172 -0.7107 -0.3402  0.0299
 9845TIP3   OH229477   2.202   2.473   4.865 -0.1724  0.1829 -0.6545
 9845TIP3    H129478   2.160   2.557   4.882 -0.5215  0.2452 -1.7615
 9845TIP3    H229479   2.171   2.448   4.778  0.5368 -0.7222 -0.6581
 9846TIP3   OH229480   1.016   7.666   2.647  0.3077 -0.0445 -0.2947
 9846TIP3    H129481   1.054   7.740   2.695  0.7008  1.3032 -2.5652
 9846TIP3    H229482   1.090   7.623   2.605 -0.1574 -0.3939 -0.7746
 9847TIP3   OH229483   8.048   5.755   2.240 -0.3879 -1.1492 -0.1789
 9847TIP3    H129484   8.049   5.791   2.151  0.0395  0.3840  0.3976
 9847TIP3    H229485   8.052   5.833   2.297  0.1512 -2.1206  1.1675
 9848TIP3   OH229486   5.767   5.527   2.105 -0.1698 -0.9340 -0.0965
 9848TIP3    H129487   5.848   5.574   2.084  0.9285 -2.4678  0.5515
 9848TIP3    H229488   5.758   5.463   2.035 -1.2540 -0.2956 -0.5689
 9849TIP3   OH229489   7.248   6.939   3.896  0.3683  0.1306  0.5350
 9849TIP3    H129490   7.156   6.964   3.906  0.3079  0.4277 -0.6957
 9849TIP3    H229491   7.294   7.022   3.884  0.4304 -0.1678 -1.5459
 9850TIP3   OH229492   2.629   6.211   5.445  0.0729 -0.0528 -0.0991
 9850TIP3    H129493   2.695   6.246   5.385  0.5408 -0.7502 -0.0155
 9850TIP3    H229494   2.676   6.200   5.528 -0.9900  2.4910  0.9354
 9851TIP3   OH229495   5.598   1.054   2.331  0.7129 -0.5214 -0.0608
 9851TIP3    H129496   5.626   0.966   2.306  0.6620 -0.5148 -0.1424
 9851TIP3    H229497   5.666   1.085   2.389  0.2920 -0.9604  0.6884
 9852TIP3   OH229498   1.924   6.203   0.610 -0.2594 -0.2534  0.1206
 9852TIP3    H129499   1.900   6.159   0.692 -1.1427 -0.2798 -0.1399
 9852TIP3    H229500   1.845   6.197   0.556  0.4554 -0.6106 -0.9060
 9853TIP3   OH229501   6.945   1.587   4.654 -0.2979 -0.1662  0.1899
 9853TIP3    H129502   6.961   1.538   4.574  0.0775 -0.0289  0.1775
 9853TIP3    H229503   6.873   1.541   4.698  0.0236 -0.6972  0.1590
 9854TIP3   OH229504   8.062   4.981   4.193 -0.8274  0.0388  0.2437
 9854TIP3    H129505   8.112   4.932   4.259 -2.5827  0.8540  2.3128
 9854TIP3    H229506   8.074   5.073   4.217 -1.7260  0.3387 -0.3936
 9855TIP3   OH229507   7.708   2.313   5.243  0.6379  0.1218  0.2709
 9855TIP3    H129508   7.735   2.388   5.189  1.6714 -0.2726  0.2234
 9855TIP3    H229509   7.673   2.250   5.181  2.4465 -0.6112 -0.0660
 9856TIP3   OH229510   7.111   5.294   0.623  0.0987  0.3051 -0.7037
 9856TIP3    H129511   7.022   5.281   0.655  0.1146  2.8148  0.6665
 9856TIP3    H229512   7.164   5.231   0.671 -0.5292  1.0131  0.9892
 9857TIP3   OH229513   2.441   0.353   6.536 -0.3608 -0.4377 -0.3157
 9857TIP3    H129514   2.520   0.325   6.491 -0.7947 -3.5005  0.6159
 9857TIP3    H229515   2.374   0.291   6.509 -1.9298  0.7789  0.5858
 9858TIP3   OH229516   8.017   2.617   1.349  0.5252 -0.2502 -0.4246
 9858TIP3    H129517   8.076   2.693   1.350  0.0774  0.1218 -1.2084
 9858TIP3    H229518   8.055   2.556   1.413 -0.0861  1.3662  1.6166
 9859TIP3   OH229519   1.577   3.726   3.813  0.2159  0.5005  0.0453
 9859TIP3    H129520   1.562   3.821   3.812 -2.9356  0.3860  4.5984
 9859TIP3    H229521   1.660   3.715   3.858 -1.4378  1.3405  3.6916
 9860TIP3   OH229522   4.543   7.419   5.038 -0.4018 -0.0115  0.2856
 9860TIP3    H129523   4.603   7.379   5.102 -1.6942 -2.1124  0.2932
 9860TIP3    H229524   4.476   7.461   5.092 -1.1140 -1.1863  0.3511
 9861TIP3   OH229525   6.539   0.286   3.642  0.0292  0.2780 -0.0954
 9861TIP3    H129526   6.598   0.317   3.711 -1.6079  0.1081  1.4697
 9861TIP3    H229527   6.571   0.327   3.562  2.7197 -0.4319  0.5251
 9862TIP3   OH229528   3.574   7.678   2.104 -0.3012  0.2114  0.4461
 9862TIP3    H129529   3.500   7.739   2.095 -0.7538 -0.4603 -0.5030
 9862TIP3    H229530   3.628   7.693   2.026  0.3350  0.3797  0.9112
 9863TIP3   OH229531   0.491   0.920   0.360 -0.2202 -0.0794 -0.4375
 9863TIP3    H129532   0.533   0.894   0.278  0.5428  0.9079 -0.3660
 9863TIP3    H229533   0.400   0.893   0.349  0.0086 -0.5351 -1.3486
 9864TIP3   OH229534   3.139   6.658   4.685 -0.0687 -0.0400 -0.1836
 9864TIP3    H129535   3.087   6.579   4.701 -1.1690  0.8377  0.8251
 9864TIP3    H229536   3.230   6.629   4.691 -0.4446 -1.0177  1.4315
 9865TIP3   OH229537   7.755   4.167   4.101 -0.5523 -0.6090 -0.0469
 9865TIP3    H129538   7.845   4.141   4.084 -0.3397 -0.0908  0.2688
 9865TIP3    H229539   7.735   4.130   4.187 -0.1532  0.4772  0.5351
 9866TIP3   OH229540   1.236   0.523   0.183 -0.6614 -0.6121  0.5028
 9866TIP3    H129541   1.318   0.484   0.155 -1.2103 -0.7276 -1.0326
 9866TIP3    H229542   1.262   0.598   0.236  0.4423 -0.4503 -0.2407
 9867TIP3   OH229543   7.538   0.615   0.309  0.2668 -0.2900  0.0687
 9867TIP3    H129544   7.613   0.671   0.329  0.2898  0.1469 -1.1664
 9867TIP3    H229545   7.575   0.544   0.256  0.0028 -0.7245  0.4564
 9868TIP3   OH229546   4.426   5.865   5.452  0.4383 -0.3192  0.5602
 9868TIP3    H129547   4.382   5.874   5.368 -1.2688 -1.6360  1.2445
 9868TIP3    H229548   4.374   5.918   5.512  0.9602 -0.3235  1.0215
 9869TIP3   OH229549   6.342   5.165   5.746 -0.2476  0.6122 -0.2109
 9869TIP3    H129550   6.321   5.072   5.752 -0.6272  0.7745  1.9262
 9869TIP3    H229551   6.263   5.210   5.776  0.3010  1.5777 -0.1686
 9870TIP3   OH229552   6.550   6.064   1.726 -0.2473 -0.0254 -0.8737
 9870TIP3    H129553   6.487   6.023   1.667 -0.9214  0.4564 -0.5110
 9870TIP3    H229554   6.500   6.133   1.770  0.7432  0.8778 -1.1351
 9871TIP3   OH229555   3.472   0.625   5.451 -0.0220  0.5472  0.3668
 9871TIP3    H129556   3.381   0.596   5.455  0.7802 -2.1340  1.7272
 9871TIP3    H229557   3.503   0.618   5.541  1.5980  1.2152 -0.1014
 9872TIP3   OH229558   0.013   0.763   5.177 -0.0353  0.1181  0.6850
 9872TIP3    H129559   0.087   0.763   5.238 -0.4955  0.5599  1.2630
 9872TIP3    H229560  -0.045   0.831   5.211  1.0485  2.5437 -1.9064
 9873TIP3   OH229561   4.350   3.486   2.290 -0.3674 -1.2778 -0.0994
 9873TIP3    H129562   4.386   3.453   2.373  1.2694 -0.8528 -0.6007
 9873TIP3    H229563   4.426   3.490   2.231 -1.2139 -0.1707 -1.1680
 9874TIP3   OH229564   3.290   3.615   2.014  0.2483  0.1847 -0.7542
 9874TIP3    H129565   3.317   3.560   1.940  1.4536 -0.5573  0.1934
 9874TIP3    H229566   3.367   3.668   2.033  0.5805 -0.8659  1.0384
 9875TIP3   OH229567   2.425   5.295   0.825 -0.0983  0.3705  0.0718
 9875TIP3    H129568   2.355   5.311   0.888 -0.8377  3.2505 -1.2668
 9875TIP3    H229569   2.389   5.325   0.742  2.0148 -0.0626 -1.0698
 9876TIP3   OH229570   2.764   5.991   1.922  0.2729  0.3932  0.4219
 9876TIP3    H129571   2.843   5.977   1.973 -0.6318  0.9283  2.0458
 9876TIP3    H229572   2.715   5.909   1.931  0.2059  0.4135  0.2407
 9877TIP3   OH229573   7.091   1.957   2.264 -0.2784 -0.5450 -0.0977
 9877TIP3    H129574   7.058   1.970   2.175 -0.8688  0.0472  0.1996
 9877TIP3    H229575   7.174   2.006   2.266 -1.0802  0.8648  0.1540
 9878TIP3   OH229576   8.279   1.822   6.761 -0.5783 -0.8292  1.3319
 9878TIP3    H129577   8.271   1.895   6.700 -1.9775 -0.4717  1.9040
 9878TIP3    H229578   8.314   1.750   6.708  0.6014  0.1619  0.7101
 9879TIP3   OH229579   2.470   5.271   1.623 -0.6092 -0.0468  0.1723
 9879TIP3    H129580   2.497   5.204   1.561  2.5471  0.5183  0.7783
 9879TIP3    H229581   2.476   5.228   1.709 -0.6802  0.3812  0.3980
 9880TIP3   OH229582   3.505   4.799   5.330  1.0152  0.3240  0.5488
 9880TIP3    H129583   3.557   4.868   5.289  0.2388  0.7251  0.2153
 9880TIP3    H229584   3.569   4.731   5.352  1.6329  0.6605 -0.1475
 9881TIP3   OH229585   7.176   6.127   2.695 -0.5200 -0.2304 -0.4528
 9881TIP3    H129586   7.179   6.106   2.789 -0.7992 -1.4964 -0.7115
 9881TIP3    H229587   7.239   6.199   2.685 -2.0307  1.4282  1.0457
 9882TIP3   OH229588   0.517   1.186   1.348 -0.1455 -0.3101  0.0185
 9882TIP3    H129589   0.456   1.218   1.415 -0.5844  0.2296 -0.6313
 9882TIP3    H229590   0.475   1.108   1.312 -0.6351  0.2570 -0.6702
 9883TIP3   OH229591   2.273   0.573   6.515  0.1131 -0.2658  0.2702
 9883TIP3    H129592   2.336   0.504   6.536  1.9719  0.6302 -1.9556
 9883TIP3    H229593   2.232   0.594   6.599  4.3728  0.6249  2.3729
 9884TIP3   OH229594   5.832   1.085   3.972 -0.3500 -0.3659 -0.3913
 9884TIP3    H129595   5.888   1.028   4.025 -0.9302  0.6481  1.3909
 9884TIP3    H229596   5.748   1.041   3.970 -0.6082  0.0753  0.4091
 9885TIP3   OH229597   0.542   2.910   2.943  0.0074 -0.3465 -0.2309
 9885TIP3    H129598   0.457   2.866   2.951  0.2202 -1.1837 -2.1516
 9885TIP3    H229599   0.606   2.841   2.957  0.3889  0.0966  0.2506
 9886TIP3   OH229600   5.821   6.169   5.063  0.0558  0.3698 -0.1773
 9886TIP3    H129601   5.892   6.138   5.119  0.6488  0.8225 -0.6686
 9886TIP3    H229602   5.744   6.123   5.095  0.2030  1.2880  1.5979
 9887TIP3   OH229603   1.410   3.316   3.742  0.0688 -0.2821  0.3680
 9887TIP3    H129604   1.318   3.292   3.748 -0.0953  0.1681 -0.1671
 9887TIP3    H229605   1.421   3.389   3.803  0.2443 -0.8091  0.9709
 9888TIP3   OH229606   5.658   7.147   3.670  0.1711  0.1234 -0.2221
 9888TIP3    H129607   5.679   7.113   3.756 -1.9587 -0.2645  0.1991
 9888TIP3    H229608   5.704   7.231   3.666  3.3941 -1.4849 -0.2764
 9889TIP3   OH229609   3.929   3.476   0.659 -0.3720  0.4320 -0.1722
 9889TIP3    H129610   4.014   3.519   0.658  0.0432 -0.3273 -1.8020
 9889TIP3    H229611   3.922   3.436   0.746  0.6108  1.1124  0.2257
 9890TIP3   OH229612   5.634   4.113   1.806  0.1801 -0.2875 -0.0053
 9890TIP3    H129613   5.700   4.053   1.773  0.7449 -0.0576  0.6939
 9890TIP3    H229614   5.654   4.197   1.765  0.6206 -0.1033  0.5821
 9891TIP3   OH229615   0.366   5.248   0.142 -0.6042  0.0061  0.0564
 9891TIP3    H129616   0.371   5.181   0.074 -0.1913 -2.7545  2.5501
 9891TIP3    H229617   0.275   5.243   0.173 -1.1754  2.2031 -1.0734
 9892TIP3   OH229618   2.247   4.708   2.245  0.1014  0.0442 -0.6021
 9892TIP3    H129619   2.163   4.664   2.259  0.2718 -0.3446 -0.8047
 9892TIP3    H229620   2.223   4.794   2.209 -0.1716 -0.3955 -1.4836
 9893TIP3   OH229621   0.923   0.060   2.910 -0.4038 -0.7500  0.1873
 9893TIP3    H129622   0.951   0.055   3.001  0.4499 -1.6895 -0.1030
 9893TIP3    H229623   0.872  -0.020   2.897  0.6740 -1.3609 -0.5135
 9894TIP3   OH229624   6.212   0.039   2.854 -0.6568  0.1488 -0.2256
 9894TIP3    H129625   6.273   0.043   2.928 -1.1036 -1.4356  0.2591
 9894TIP3    H229626   6.172   0.126   2.852  0.2762  0.6211  0.5921
 9895TIP3   OH229627   5.768   5.403   1.833 -0.4251  0.2322  0.2361
 9895TIP3    H129628   5.723   5.327   1.795 -0.6473  1.2090 -1.5944
 9895TIP3    H229629   5.787   5.459   1.758  1.5694  1.0532  1.2940
 9896TIP3   OH229630   8.272   1.850   5.096 -0.0968 -0.2539  0.0531
 9896TIP3    H129631   8.221   1.778   5.058 -0.4316 -0.2552  0.4851
 9896TIP3    H229632   8.243   1.853   5.187  1.2855 -0.7863  0.5299
 9897TIP3   OH229633   4.874   6.167   5.015  0.3870 -0.0582 -0.0377
 9897TIP3    H129634   4.879   6.224   5.093 -1.2262 -0.6533  0.5455
 9897TIP3    H229635   4.890   6.079   5.049 -1.4728 -0.4740 -0.1243
 9898TIP3   OH229636   1.472   4.835   6.376 -0.1052  0.2708  0.1308
 9898TIP3    H129637   1.385   4.872   6.393 -1.3961 -1.5358 -2.0339
 9898TIP3    H229638   1.458   4.741   6.375  1.8270 -0.0582 -0.6163
 9899TIP3   OH229639   3.212   5.990   1.453 -0.3424  0.0058 -0.0113
 9899TIP3    H129640   3.218   5.901   1.419 -2.7643 -1.0469  1.9094
 9899TIP3    H229641   3.162   6.038   1.387  0.4711 -0.2230 -0.7970
 9900TIP3   OH229642   1.130   2.302   2.113  0.5302 -0.5769  0.8490
 9900TIP3    H129643   1.146   2.368   2.180 -1.8194  3.2118 -1.8898
 9900TIP3    H229644   1.050   2.257   2.141 -0.0665  0.5215  0.9504
 9901TIP3   OH229645   7.723   2.992   5.916  0.1712  0.4567  0.2969
 9901TIP3    H129646   7.782   3.013   5.844 -0.1398  2.2328  0.5210
 9901TIP3    H229647   7.650   2.945   5.874  1.7053 -1.8716  0.0342
 9902TIP3   OH229648   3.165   6.724   0.164 -0.0707  0.7144 -0.1447
 9902TIP3    H129649   3.135   6.646   0.116  1.0424  0.9501 -1.2902
 9902TIP3    H229650   3.260   6.719   0.160  0.1380  0.2171  2.9894
 9903TIP3   OH229651   6.910   7.271   4.005  0.7042 -0.3029 -0.2533
 9903TIP3    H129652   6.946   7.291   4.091 -0.2368  0.8518 -0.1090
 9903TIP3    H229653   6.858   7.348   3.982  0.1348 -1.0083 -1.4243
 9904TIP3   OH229654   0.218   4.608   2.422  0.3442 -0.5900  0.4153
 9904TIP3    H129655   0.147   4.568   2.372 -0.9082  0.7517  1.0586
 9904TIP3    H229656   0.279   4.536   2.439 -0.4750 -1.6108 -0.7922
 9905TIP3   OH229657   8.304   2.883   2.880 -0.0027  0.4119 -0.0915
 9905TIP3    H129658   8.246   2.901   2.954 -3.0293 -0.5187 -2.0604
 9905TIP3    H229659   8.287   2.954   2.818  0.5104 -0.2041 -0.9653
 9906TIP3   OH229660   3.550   5.524   0.415 -0.0886 -0.4889  0.0775
 9906TIP3    H129661   3.488   5.489   0.479  1.8241 -0.0548  2.2857
 9906TIP3    H229662   3.595   5.446   0.381 -0.4934 -0.6498 -0.1056
 9907TIP3   OH229663   2.166   5.636   2.880  0.1001  0.1585 -0.4789
 9907TIP3    H129664   2.208   5.557   2.845  1.9773  0.1691  1.5406
 9907TIP3    H229665   2.222   5.708   2.851  1.3631  0.2185  1.8216
 9908TIP3   OH229666   1.901   6.294   2.627  0.2459  0.3403  0.2971
 9908TIP3    H129667   1.927   6.369   2.680 -2.0672  0.3135  1.6240
 9908TIP3    H229668   1.980   6.240   2.620  0.9929  1.0112  2.6195
 9909TIP3   OH229669   6.717   5.692   6.443 -0.0543 -0.1283 -0.2248
 9909TIP3    H129670   6.728   5.715   6.535 -0.8401  0.0239 -0.1656
 9909TIP3    H229671   6.730   5.597   6.440  0.1116 -0.1135  0.0168
 9910TIP3   OH229672   3.554   2.328   4.008 -0.0056  0.4460  0.0118
 9910TIP3    H129673   3.473   2.373   4.034  0.4210  1.3386 -0.1798
 9910TIP3    H229674   3.618   2.398   3.995  0.5331 -0.1780 -0.8149
 9911TIP3   OH229675   4.333   7.549   4.118 -0.0216  0.0213 -0.0438
 9911TIP3    H129676   4.357   7.593   4.037 -0.5610  1.0291  0.3344
 9911TIP3    H229677   4.238   7.558   4.123 -0.0744 -0.6525  0.3529
 9912TIP3   OH229678   2.085   0.641   1.176  0.4115 -0.5989  0.2025
 9912TIP3    H129679   2.023   0.569   1.165  1.5965 -1.4625 -1.3278
 9912TIP3    H229680   2.153   0.605   1.234  0.7452 -0.5508 -0.1516
 9913TIP3   OH229681   6.194   7.239   0.364 -0.5116  0.1146 -0.4074
 9913TIP3    H129682   6.264   7.290   0.324 -0.0298 -1.3366 -1.4921
 9913TIP3    H229683   6.126   7.233   0.297 -0.5008 -0.7718 -0.3498
 9914TIP3   OH229684   7.201   5.473   5.660 -0.5034 -0.1901  0.3326
 9914TIP3    H129685   7.240   5.415   5.725  1.0132  1.6764  1.1847
 9914TIP3    H229686   7.107   5.452   5.662 -0.3392 -0.9515  2.3395
 9915TIP3   OH229687   4.299   2.232   5.173  0.0495  0.0134 -0.1573
 9915TIP3    H129688   4.339   2.168   5.114  2.6299 -0.8121  2.2491
 9915TIP3    H229689   4.283   2.183   5.253 -0.3438  1.7957  0.8934
 9916TIP3   OH229690   4.969   0.688   1.186  0.0300 -0.5473  0.0245
 9916TIP3    H129691   4.922   0.709   1.267 -2.1433 -2.2986 -0.6890
 9916TIP3    H229692   5.028   0.617   1.210  1.8198  1.0762  0.7209
 9917TIP3   OH229693   2.909   1.567   1.783  0.1466  0.2093  0.2381
 9917TIP3    H129694   2.945   1.529   1.703 -0.6094  0.1462 -0.0862
 9917TIP3    H229695   2.842   1.504   1.811  0.0322  0.4980  0.6173
 9918TIP3   OH229696   3.846   5.364   0.845  0.3040  0.3634 -0.2349
 9918TIP3    H129697   3.937   5.366   0.814  0.2557  0.6185 -0.3595
 9918TIP3    H229698   3.839   5.437   0.906 -0.3121  1.5077 -1.6137
 9919TIP3   OH229699   6.420   5.268   3.117  0.5239 -0.1347 -0.0095
 9919TIP3    H129700   6.326   5.286   3.110  0.3372 -1.0658  0.0002
 9919TIP3    H229701   6.461   5.353   3.100 -0.2962  0.1549 -0.6844
 9920TIP3   OH229702   2.831   5.618   4.927 -0.0326 -0.3754 -0.5810
 9920TIP3    H129703   2.913   5.633   4.880  1.4856 -1.2087  1.6291
 9920TIP3    H229704   2.766   5.602   4.858  1.4036  1.3134 -2.4302
 9921TIP3   OH229705   1.079   6.976   0.333 -0.4139 -0.0936 -0.0794
 9921TIP3    H129706   1.025   7.054   0.323 -1.1740 -0.7204 -1.0601
 9921TIP3    H229707   1.090   6.943   0.244 -0.3006 -1.2267  0.3363
 9922TIP3   OH229708   4.939   3.470   6.257  0.1809  0.2229 -0.1421
 9922TIP3    H129709   5.003   3.426   6.202  0.4656  1.0963 -0.5407
 9922TIP3    H229710   4.981   3.553   6.281 -0.4097  0.3707  0.4082
 9923TIP3   OH229711   4.872   2.488   3.173 -0.0658 -0.1961 -0.3497
 9923TIP3    H129712   4.782   2.517   3.191  1.1164  2.3333  2.3593
 9923TIP3    H229713   4.916   2.567   3.139  2.0314 -0.0935  2.2458
 9924TIP3   OH229714   6.699   5.656   3.304  0.4468  0.2474  0.0711
 9924TIP3    H129715   6.634   5.629   3.239  1.8606  0.5153 -1.5177
 9924TIP3    H229716   6.673   5.745   3.329  0.0906  0.2696 -0.3771
 9925TIP3   OH229717   2.373   6.398   6.279 -0.7031 -0.8479 -0.1217
 9925TIP3    H129718   2.282   6.379   6.258 -0.4174 -0.9505 -1.3289
 9925TIP3    H229719   2.380   6.381   6.373 -1.6866 -1.8208 -0.2101
 9926TIP3   OH229720   4.215   3.599   5.756  0.4201 -0.1517 -0.2833
 9926TIP3    H129721   4.131   3.626   5.793  0.5666  2.4405 -1.6111
 9926TIP3    H229722   4.213   3.631   5.666  2.1909 -1.5379 -0.8780
 9927TIP3   OH229723   5.202   3.541   5.515  0.8387  0.0586 -0.4112
 9927TIP3    H129724   5.168   3.629   5.533  0.5460 -0.3639  1.2010
 9927TIP3    H229725   5.224   3.544   5.422 -0.5047  1.3993 -0.7416
 9928TIP3   OH229726   3.083   0.658   0.310 -0.0151  0.0061 -0.2187
 9928TIP3    H129727   3.085   0.748   0.343 -2.1755  0.3156 -0.7577
 9928TIP3    H229728   2.995   0.627   0.332  0.1239 -1.3913 -1.5265
 9929TIP3   OH229729   7.187   1.924   0.097 -0.3617  0.7246  0.5819
 9929TIP3    H129730   7.199   1.871   0.176  0.5450 -0.2359 -0.1821
 9929TIP3    H229731   7.221   2.010   0.122  1.0393  0.1132  0.8840
 9930TIP3   OH229732   7.540   2.256   2.185 -0.2470  0.0997  0.0000
 9930TIP3    H129733   7.508   2.277   2.097 -0.9469 -2.5406 -0.4843
 9930TIP3    H229734   7.526   2.335   2.236  0.0483  1.6608 -2.2301
 9931TIP3   OH229735   8.026   4.245   1.958  0.0060  0.3184 -0.1659
 9931TIP3    H129736   8.015   4.331   1.918 -1.0352 -0.2808 -1.2235
 9931TIP3    H229737   8.117   4.221   1.938  0.7125  1.6668  1.2223
 9932TIP3   OH229738   0.869   1.033   5.388  0.0675  0.3241 -0.0054
 9932TIP3    H129739   0.836   1.110   5.434  0.6242 -0.3666  1.6314
 9932TIP3    H229740   0.947   1.063   5.342  1.5535  0.3555  2.3602
 9933TIP3   OH229741   5.058   1.273   0.055 -0.0752  0.5660 -0.5402
 9933TIP3    H129742   5.115   1.349   0.043 -0.2410  0.5151 -1.7909
 9933TIP3    H229743   5.101   1.203   0.005 -0.5354  0.1589 -0.3677
 9934TIP3   OH229744   0.329   4.328   2.472  0.3661  1.4421 -0.0539
 9934TIP3    H129745   0.314   4.317   2.566  1.1715 -0.9434 -0.1385
 9934TIP3    H229746   0.424   4.319   2.462  0.0925 -0.8009 -1.2936
 9935TIP3   OH229747   0.166   0.210   3.841  0.4552 -0.0548  0.1525
 9935TIP3    H129748   0.109   0.272   3.796  1.0505  0.8086  0.5639
 9935TIP3    H229749   0.255   0.235   3.814  0.6894 -0.8751  0.1474
 9936TIP3   OH229750   1.975   6.615   1.368 -0.8948 -0.7536 -0.0751
 9936TIP3    H129751   2.033   6.630   1.293 -2.0241  2.2056 -0.4593
 9936TIP3    H229752   1.891   6.590   1.328 -1.7520  1.6925  0.0662
 9937TIP3   OH229753   6.913   7.355   6.693  0.3080  0.2380 -0.6670
 9937TIP3    H129754   6.861   7.411   6.751  0.6107  0.2155 -0.3706
 9937TIP3    H229755   6.850   7.322   6.629 -0.1574 -0.2772  0.0488
 9938TIP3   OH229756   5.383   1.550   5.561 -0.1017 -0.1337  0.4895
 9938TIP3    H129757   5.333   1.553   5.643  0.0479  0.9187  0.5640
 9938TIP3    H229758   5.316   1.550   5.492 -0.2792 -2.5863  0.5731
 9939TIP3   OH229759   3.596   6.149   1.510 -0.1701 -0.4229  0.5180
 9939TIP3    H129760   3.639   6.132   1.594 -0.2213 -0.5567  0.5179
 9939TIP3    H229761   3.550   6.068   1.490 -2.5610  0.5064  1.7829
 9940TIP3   OH229762   6.397   0.313   3.043 -0.3122  0.0735  0.1072
 9940TIP3    H129763   6.451   0.362   2.982 -0.0953  1.0874  1.0866
 9940TIP3    H229764   6.415   0.351   3.128 -0.7249 -1.2125  0.8014
 9941TIP3   OH229765   5.683   7.687   4.912 -1.1139  0.1403 -0.1578
 9941TIP3    H129766   5.633   7.644   4.981  0.3389  0.6037  1.2338
 9941TIP3    H229767   5.669   7.781   4.927  0.1079  0.2702  0.2063
 9942TIP3   OH229768   1.993   1.688   1.582  0.3917  0.1125 -0.4890
 9942TIP3    H129769   1.953   1.775   1.591  0.9266  0.4185 -1.0021
 9942TIP3    H229770   1.989   1.651   1.671  0.3341  0.7383 -0.2221
 9943TIP3   OH229771   2.093   6.698   6.418  0.0842 -0.2604  0.2040
 9943TIP3    H129772   2.099   6.776   6.473 -0.9554 -0.8661  1.2150
 9943TIP3    H229773   2.149   6.718   6.343  1.0464  0.8398  1.1681
 9944TIP3   OH229774   1.460   6.922   5.610  0.1534 -0.2930 -0.6037
 9944TIP3    H129775   1.454   6.841   5.559  1.4496  0.4807 -2.0729
 9944TIP3    H229776   1.526   6.903   5.677  0.0176 -0.6483 -0.5714
 9945TIP3   OH229777   0.482   4.422   4.611 -0.1355  0.0070 -0.2959
 9945TIP3    H129778   0.526   4.493   4.564 -0.9394  1.3112  0.8578
 9945TIP3    H229779   0.396   4.457   4.631 -0.4851 -1.2525  0.4602
 9946TIP3   OH229780   7.856   0.567   4.710 -0.5855 -0.1456  0.0935
 9946TIP3    H129781   7.949   0.556   4.730  0.2657  1.5127 -2.4304
 9946TIP3    H229782   7.837   0.657   4.736 -1.1333 -0.0837 -0.5070
 9947TIP3   OH229783   5.737   4.022   2.865 -0.3040 -0.2288  0.0069
 9947TIP3    H129784   5.758   3.953   2.927 -1.4505 -0.9647 -0.3847
 9947TIP3    H229785   5.754   4.104   2.913  1.6064 -0.7484  0.2820
 9948TIP3   OH229786   4.509   4.022   1.519 -0.2788 -0.2445 -0.0518
 9948TIP3    H129787   4.532   3.972   1.440  0.6754 -0.7897  0.5583
 9948TIP3    H229788   4.424   4.061   1.498 -1.2714 -2.4369 -0.4238
 9949TIP3   OH229789   2.955   7.416   2.893 -0.3144 -0.6211  0.1658
 9949TIP3    H129790   3.016   7.360   2.940  2.1662  1.0083 -0.9366
 9949TIP3    H229791   3.010   7.469   2.836 -2.8605  0.3567 -1.5381
 9950TIP3   OH229792   2.082   0.866   3.150  0.1606  0.8662  0.4236
 9950TIP3    H129793   2.118   0.920   3.220 -0.4230  2.3494 -0.3787
 9950TIP3    H229794   2.023   0.924   3.102 -0.2949 -0.4159 -0.6474
 9951TIP3   OH229795   1.571   0.506   6.359  0.4462 -0.1146  0.5146
 9951TIP3    H129796   1.538   0.596   6.364  2.3336  0.5593  1.6288
 9951TIP3    H229797   1.646   0.511   6.300 -0.4004 -1.3198 -0.7438
 9952TIP3   OH229798   7.035   7.461   2.145  0.3649 -0.2397 -0.0766
 9952TIP3    H129799   7.129   7.478   2.145 -0.0784  3.1839  1.8570
 9952TIP3    H229800   7.002   7.516   2.073 -0.3484  0.5531  0.8335
 9953TIP3   OH229801   4.482   3.805   3.863  0.0680 -0.5349  0.0060
 9953TIP3    H129802   4.419   3.735   3.846  1.3851 -1.6006 -0.7385
 9953TIP3    H229803   4.530   3.775   3.940  1.4679 -1.1196 -1.0381
 9954TIP3   OH229804   0.009   4.039   4.120 -0.5364  0.0116  0.0337
 9954TIP3    H129805   0.025   3.990   4.040 -2.7308 -0.4357 -0.1834
 9954TIP3    H229806   0.064   3.997   4.186  1.3816  0.4472 -1.1905
 9955TIP3   OH229807   7.739   1.166   3.943 -0.4955 -0.2597 -0.2072
 9955TIP3    H129808   7.654   1.126   3.962  0.7010 -3.0259 -0.3142
 9955TIP3    H229809   7.758   1.141   3.852  0.3699  0.4596 -0.2419
 9956TIP3   OH229810   0.841   1.955   4.958 -0.2480  0.0722 -0.0348
 9956TIP3    H129811   0.773   2.022   4.961  0.1477  0.5356 -0.8790
 9956TIP3    H229812   0.888   1.964   5.041 -0.7538  0.2480  0.2315
 9957TIP3   OH229813   2.659   2.322   1.362 -0.0974 -0.4533 -0.8797
 9957TIP3    H129814   2.737   2.371   1.387 -0.7170  0.3379 -0.4544
 9957TIP3    H229815   2.676   2.295   1.272  0.3773  0.3051 -1.0254
 9958TIP3   OH229816   5.260   5.697   4.391  0.4586 -0.4927 -0.3054
 9958TIP3    H129817   5.310   5.755   4.449 -0.8425 -0.5543  0.9423
 9958TIP3    H229818   5.320   5.627   4.370  1.0498 -0.3455  0.8099
 9959TIP3   OH229819   5.446   1.997   6.694  0.0114  0.1991 -0.0082
 9959TIP3    H129820   5.407   1.911   6.680  0.8377 -0.2547  0.3962
 9959TIP3    H229821   5.514   1.982   6.759 -0.1614  1.2593  0.4284
 9960TIP3   OH229822   1.154   1.610   6.319  0.0484 -0.6151 -0.3688
 9960TIP3    H129823   1.104   1.603   6.238  0.1780 -0.9230 -0.4232
 9960TIP3    H229824   1.088   1.602   6.388  0.2377 -3.1273 -0.4058
 9961TIP3   OH229825   1.292   5.438   5.829  0.0863  0.0046  0.6249
 9961TIP3    H129826   1.262   5.391   5.752 -2.1857  1.9362  0.2221
 9961TIP3    H229827   1.317   5.525   5.797 -0.6700  0.7659  2.0045
 9962TIP3   OH229828   3.563   3.461   5.502 -0.1577 -0.2408 -0.5089
 9962TIP3    H129829   3.569   3.443   5.596 -0.3927  0.1877 -0.4099
 9962TIP3    H229830   3.610   3.389   5.461  0.5519 -0.0547 -0.0344
 9963TIP3   OH229831   1.740   6.010   2.275  0.0490 -0.0829 -0.5253
 9963TIP3    H129832   1.670   6.074   2.289 -1.0235 -0.2116 -4.1472
 9963TIP3    H229833   1.821   6.062   2.275 -0.4061  0.6463  0.1306
 9964TIP3   OH229834   5.837   7.280   2.617 -0.0927  0.2126  0.3679
 9964TIP3    H129835   5.848   7.362   2.569 -0.7130 -0.4673 -1.0000
 9964TIP3    H229836   5.758   7.242   2.581 -0.0376 -0.8063  1.2721
 9965TIP3   OH229837   2.581   1.226   3.851  0.3454  0.0600 -0.1795
 9965TIP3    H129838   2.494   1.231   3.890  0.0808  0.4904 -0.7978
 9965TIP3    H229839   2.636   1.184   3.917 -1.0232 -3.2723 -0.9695
 9966TIP3   OH229840   7.208   1.940   0.382  0.2443  0.1964  0.4554
 9966TIP3    H129841   7.146   2.007   0.352  0.2620 -0.0717 -0.1969
 9966TIP3    H229842   7.156   1.859   0.383  0.7133 -0.1372 -0.6407
 9967TIP3   OH229843   1.662   1.905   5.518  0.0206  0.1862  0.6215
 9967TIP3    H129844   1.704   1.941   5.440 -0.8166  0.3289  0.2244
 9967TIP3    H229845   1.686   1.812   5.517 -0.1952  0.1326  0.0479
 9968TIP3   OH229846   4.011   1.796   3.130 -0.2572 -0.5323  0.4864
 9968TIP3    H129847   3.973   1.883   3.117  1.9959  0.7331  1.7685
 9968TIP3    H229848   3.994   1.776   3.222  0.9316 -0.5690  0.7052
 9969TIP3   OH229849   5.448   0.772   2.004  0.7531 -0.3328 -0.0420
 9969TIP3    H129850   5.492   0.762   2.088  0.5396  1.7554  0.3766
 9969TIP3    H229851   5.464   0.863   1.979 -1.3460 -0.1597 -1.0000
 9970TIP3   OH229852   5.251   3.925   3.896  0.2031  0.3030  0.4284
 9970TIP3    H129853   5.232   3.923   3.990  1.5792  0.7646  0.7323
 9970TIP3    H229854   5.291   3.840   3.878  1.3885  0.8102  0.5978
 9971TIP3   OH229855   3.397   0.509   4.207 -0.0525 -0.4926 -0.3340
 9971TIP3    H129856   3.335   0.457   4.258 -0.4209  0.6747  0.4493
 9971TIP3    H229857   3.346   0.584   4.177  1.0785  0.7266  0.7062
 9972TIP3   OH229858   4.623   0.386   1.282 -0.3707  0.7057 -0.2811
 9972TIP3    H129859   4.676   0.463   1.261  1.5869 -0.1660  1.1005
 9972TIP3    H229860   4.643   0.324   1.212  0.3037  0.4692  0.1054
 9973TIP3   OH229861   6.011   4.459   6.489  0.1066  0.2304  0.3262
 9973TIP3    H129862   6.086   4.433   6.543 -0.0981 -0.3145  0.3518
 9973TIP3    H229863   5.979   4.377   6.451 -1.0610  0.3186  1.0704
 9974TIP3   OH229864   0.059   5.850   6.710 -0.4518  0.6785 -0.8668
 9974TIP3    H129865  -0.013   5.869   6.770 -0.3033  0.3351 -0.5800
 9974TIP3    H229866   0.117   5.926   6.719  0.1807  0.0763  0.3429
 9975TIP3   OH229867   5.949   7.514   2.463  0.0016  0.3508  0.2939
 9975TIP3    H129868   5.881   7.571   2.501  0.3732  0.7480  0.3742
 9975TIP3    H229869   6.031   7.563   2.476  0.4215 -0.4989  0.9694
 9976TIP3   OH229870   0.077   6.785   2.432 -0.0321  0.5659  0.2516
 9976TIP3    H129871   0.158   6.751   2.471  0.8006  2.4006  0.2335
 9976TIP3    H229872   0.082   6.761   2.340  0.0967 -0.0286  0.4115
 9977TIP3   OH229873   1.662   1.817   6.740 -0.2509  0.1265  0.0406
 9977TIP3    H129874   1.645   1.863   6.658 -0.3390 -0.4577 -0.2747
 9977TIP3    H229875   1.632   1.878   6.808 -1.8542 -0.0812 -0.4221
 9978TIP3   OH229876   1.539   5.760   1.364  0.3077 -0.2993  0.3473
 9978TIP3    H129877   1.477   5.832   1.373  0.9134  0.6072 -1.8365
 9978TIP3    H229878   1.501   5.704   1.296  1.9433  0.4389 -1.2507
 9979TIP3   OH229879   7.272   0.728   6.411  0.5409 -0.6552 -0.0122
 9979TIP3    H129880   7.277   0.780   6.492  0.9533 -0.6229 -0.0573
 9979TIP3    H229881   7.185   0.748   6.376  0.7625  0.1506 -0.1199
 9980TIP3   OH229882   2.860   1.915   1.635 -0.0393 -0.3434  0.0808
 9980TIP3    H129883   2.872   1.945   1.725 -0.5279  0.4296 -0.1002
 9980TIP3    H229884   2.781   1.861   1.638  1.2239 -2.2541  0.5399
 9981TIP3   OH229885   1.450   4.312   4.489 -0.4517 -0.8607  0.0817
 9981TIP3    H129886   1.473   4.316   4.396  2.1850  2.2455  0.6943
 9981TIP3    H229887   1.371   4.366   4.497  1.0405  1.4483 -0.0374
 9982TIP3   OH229888   7.036   3.321   4.608 -0.0200  0.1282  0.2750
 9982TIP3    H129889   7.109   3.331   4.670 -0.2029  1.5374  0.3064
 9982TIP3    H229890   7.069   3.360   4.526  0.2688 -1.8314 -0.5861
 9983TIP3   OH229891   1.201   0.100   4.510 -0.5543 -0.4566 -0.0868
 9983TIP3    H129892   1.277   0.073   4.560 -1.9428 -0.6567  2.0309
 9983TIP3    H229893   1.176   0.023   4.460 -0.0422 -0.7369  0.0819
 9984TIP3   OH229894   3.114   5.252   0.868  0.0256 -0.0868  0.4692
 9984TIP3    H129895   3.040   5.191   0.875 -0.5347  0.3333 -1.1249
 9984TIP3    H229896   3.138   5.272   0.958 -0.1008 -2.2480  1.0343
 9985TIP3   OH229897   7.140   0.683   2.189 -0.2997 -0.4386 -0.0896
 9985TIP3    H129898   7.071   0.749   2.193 -1.2492 -1.4026 -0.2363
 9985TIP3    H229899   7.098   0.603   2.218  0.5289 -1.2314 -1.0192
 9986TIP3   OH229900   4.451   1.995   5.057  0.3665  0.3365  0.4655
 9986TIP3    H129901   4.374   2.014   5.003  2.4548  0.7766 -2.6398
 9986TIP3    H229902   4.458   1.900   5.058 -0.2186  0.2914  0.8284
 9987TIP3   OH229903   0.466   6.517   0.426  0.0789 -0.0778  0.0294
 9987TIP3    H129904   0.429   6.603   0.447 -2.0633 -0.9993  0.2839
 9987TIP3    H229905   0.556   6.520   0.460 -0.6148  1.3453  1.8803
 9988TIP3   OH229906   0.435   5.548   0.406  0.4110 -0.2668 -0.2292
 9988TIP3    H129907   0.526   5.541   0.379  0.4848 -0.4110  0.0526
 9988TIP3    H229908   0.396   5.608   0.342  0.8807  0.3899  0.0761
 9989TIP3   OH229909   5.254   0.781   5.685  1.0061  0.1418  0.3634
 9989TIP3    H129910   5.242   0.842   5.612  1.5218  1.7331  1.5404
 9989TIP3    H229911   5.212   0.701   5.657  0.0876  1.1165 -1.1710
 9990TIP3   OH229912   0.106   2.052   5.935 -0.1793 -0.7747  0.3934
 9990TIP3    H129913   0.201   2.056   5.950  0.0656  1.0792 -1.2536
 9990TIP3    H229914   0.082   1.963   5.961  2.4365 -2.1041 -1.2314
 9991TIP3   OH229915   6.033   7.199   2.256 -0.5166 -0.0065  0.2041
 9991TIP3    H129916   6.033   7.113   2.215  3.2172 -0.1654  0.2086
 9991TIP3    H229917   6.030   7.181   2.350 -2.7753  0.1098  0.2220
 9992TIP3   OH229918   6.047   1.315   5.305 -0.0321  0.3259  0.2364
 9992TIP3    H129919   5.970   1.364   5.334 -0.5126 -0.9590  1.2364
 9992TIP3    H229920   6.018   1.267   5.228 -0.0603  0.2709  0.2817
 9993TIP3   OH229921   3.454   7.148   5.492 -0.5151  0.4112 -0.1915
 9993TIP3    H129922   3.372   7.187   5.462 -0.5149  0.0363 -0.6815
 9993TIP3    H229923   3.471   7.191   5.576 -1.8718 -0.4221  0.5463
 9994TIP3   OH229924   0.221   3.044   6.301  0.0472  0.1457 -0.1852
 9994TIP3    H129925   0.274   3.075   6.227  1.2408 -0.7926  0.2380
 9994TIP3    H229926   0.223   3.116   6.364  2.0967 -0.3848  0.4416
 9995TIP3   OH229927   4.494   0.031   6.678 -0.4270 -0.3459  0.1565
 9995TIP3    H129928   4.533  -0.010   6.601  1.1060 -2.5263  1.9746
 9995TIP3    H229929   4.561   0.090   6.711 -1.0999  0.6281 -0.1849
 9996TIP3   OH229930   4.824   3.425   4.006  0.2179  1.2229  0.9128
 9996TIP3    H129931   4.812   3.340   3.962  0.0812  1.8726 -0.3608
 9996TIP3    H229932   4.912   3.421   4.042  1.2327  1.4607 -1.3569
 9997TIP3   OH229933   7.040   3.769   1.297  0.0922  0.0066 -0.0995
 9997TIP3    H129934   7.098   3.818   1.355 -0.7157  0.1840  0.5933
 9997TIP3    H229935   7.088   3.761   1.215  1.7852 -1.2916  0.9414
 9998TIP3   OH229936   1.561   7.206   3.241  0.3568 -0.4041 -0.2356
 9998TIP3    H129937   1.575   7.167   3.155 -1.4149 -1.3061 -0.1815
 9998TIP3    H229938   1.465   7.209   3.250  0.4847  1.1610  1.0443
 9999TIP3   OH229939   3.985   2.378   3.933 -0.3610 -0.6125  0.0722
 9999TIP3    H129940   3.945   2.300   3.971  2.3601 -2.3737 -0.3821
 9999TIP3    H229941   3.973   2.367   3.839 -0.1087 -0.3851  0.0131
10000TIP3   OH229942   3.101   4.652   2.613  0.3168  0.1059  0.2775
10000TIP3    H129943   3.017   4.609   2.599  0.8171 -1.2140  1.1195
10000TIP3    H229944   3.166   4.586   2.591  1.1107  0.2743  1.9022
10001TIP3   OH229945   4.386   6.177   3.328 -0.5783  0.3105 -0.0589
10001TIP3    H129946   4.414   6.252   3.380 -0.0529 -0.3377  0.6286
10001TIP3    H229947   4.331   6.126   3.387  1.7705 -1.5618  0.6750
10002TIP3   OH229948   3.606   7.699   3.234 -0.0749  0.5237  0.1007
10002TIP3    H129949   3.525   7.736   3.270 -0.0213  0.2493  0.5065
10002TIP3    H229950   3.642   7.645   3.305  2.6033  3.8165  1.5729
10003TIP3   OH229951   7.974   0.311   2.814  0.2502 -0.0223  0.3627
10003TIP3    H129952   7.949   0.268   2.732  0.2472  0.8627 -0.1102
10003TIP3    H229953   7.919   0.389   2.818  2.2584  1.4930 -0.2569
10004TIP3   OH229954   5.004   1.520   2.675  0.3539  0.3372  0.0512
10004TIP3    H129955   5.007   1.439   2.624  0.3743  1.3253 -1.5837
10004TIP3    H229956   4.912   1.530   2.698 -0.1791  1.2730 -2.2172
10005TIP3   OH229957   1.596   2.479   2.105  0.1049  0.4678 -0.0970
10005TIP3    H129958   1.522   2.424   2.081 -0.1964  0.8346 -0.0287
10005TIP3    H229959   1.664   2.458   2.041 -0.0299  0.0652 -0.1073
10006TIP3   OH229960   6.015   1.582   0.956 -0.4499  0.3866 -0.1680
10006TIP3    H129961   6.069   1.629   1.020 -0.9255  1.5273 -0.5669
10006TIP3    H229962   5.973   1.652   0.904  0.8993 -0.4576 -2.5695
10007TIP3   OH229963   5.563   1.428   5.254  0.1330 -0.0663 -0.4369
10007TIP3    H129964   5.511   1.392   5.326  0.2957 -1.0974 -0.8278
10007TIP3    H229965   5.557   1.363   5.184  0.5403  0.6035 -1.1120
10008TIP3   OH229966   4.337   6.078   2.059 -1.1589  0.3903 -0.1870
10008TIP3    H129967   4.283   6.079   2.138 -0.7142 -2.0409  0.2154
10008TIP3    H229968   4.278   6.045   1.991 -0.5465 -1.1423 -0.0061
10009TIP3   OH229969   4.049   6.811   1.527  0.4288 -0.3515 -0.1846
10009TIP3    H129970   4.037   6.741   1.591  0.3568 -0.0556  0.1279
10009TIP3    H229971   4.039   6.892   1.577  0.1630 -0.1158 -0.6090
10010TIP3   OH229972   3.559   1.790   2.240 -0.2666  0.4554 -0.1782
10010TIP3    H129973   3.628   1.795   2.174 -0.2096 -0.4558 -0.1989
10010TIP3    H229974   3.484   1.753   2.193  0.0220 -0.9798  0.4337
10011TIP3   OH229975   3.917   3.816   2.066  0.0622  0.2397  0.9345
10011TIP3    H129976   3.860   3.751   2.027  0.2618  0.5100  0.1729
10011TIP3    H229977   4.001   3.771   2.076  0.2036  0.3814  0.3975
10012TIP3   OH229978   2.159   0.560   0.575  0.2447  0.6265  0.4378
10012TIP3    H129979   2.229   0.495   0.585  0.8403  0.7992 -1.9868
10012TIP3    H229980   2.105   0.526   0.504 -0.5512  1.8426  0.4410
10013TIP3   OH229981   0.866   2.720   1.887 -0.6220 -0.3872  0.1335
10013TIP3    H129982   0.850   2.767   1.804  1.3617 -0.3452 -0.2787
10013TIP3    H229983   0.919   2.644   1.861 -1.0875 -1.0903  1.2126
10014TIP3   OH229984   7.858   6.064   0.185 -0.0128  0.1609  0.7452
10014TIP3    H129985   7.935   6.116   0.161  0.1409 -0.8574 -1.2027
10014TIP3    H229986   7.893   5.979   0.209 -0.4898 -0.2961 -0.1129
10015TIP3   OH229987   5.207   2.679   1.758 -0.3479  0.0772  0.1022
10015TIP3    H129988   5.258   2.696   1.837 -0.8254 -1.2442  0.7139
10015TIP3    H229989   5.273   2.665   1.689  0.0999 -0.3069  0.6008
10016TIP3   OH229990   6.849   2.339   1.396 -0.2157  0.1570 -0.0844
10016TIP3    H129991   6.768   2.383   1.422 -0.8379 -1.0780  0.1528
10016TIP3    H229992   6.822   2.251   1.371  1.3020 -1.1596  2.4467
10017TIP3   OH229993   0.850   0.168   3.595 -0.2850 -0.4972  0.3172
10017TIP3    H129994   0.946   0.163   3.590 -0.3370 -0.7693 -0.6252
10017TIP3    H229995   0.834   0.248   3.646  0.4439 -0.1467  0.0271
10018TIP3   OH229996   6.319   6.242   4.359 -0.2748 -0.3960 -0.2826
10018TIP3    H129997   6.337   6.336   4.353 -4.4414  0.7065  0.7213
10018TIP3    H229998   6.378   6.211   4.428  1.2622  1.4348 -0.6784
10019TIP3   OH229999   4.767   7.107   6.587  0.3725  0.0918 -0.5061
10019TIP3    H130000   4.811   7.169   6.528  0.3627  1.3347  0.7296
10019TIP3    H230001   4.770   7.150   6.673 -0.2205 -1.3547  0.2697
10020TIP3   OH230002   6.717   2.433   4.832  0.5110  0.4628 -0.6916
10020TIP3    H130003   6.798   2.390   4.802  1.9808  2.4218  0.2814
10020TIP3    H230004   6.718   2.424   4.927  2.2755  4.6488 -0.0847
10021TIP3   OH230005   0.236   3.645   3.859  0.6791 -0.2200 -0.0133
10021TIP3    H130006   0.251   3.675   3.769  0.8993 -0.6979 -0.1412
10021TIP3    H230007   0.243   3.550   3.854 -0.5233 -0.3447  0.2888
10022TIP3   OH230008   1.991   1.412   4.183 -0.2156 -0.2260  0.0349
10022TIP3    H130009   1.959   1.404   4.272 -2.1216 -0.1365 -0.5958
10022TIP3    H230010   1.979   1.504   4.160  0.7031 -0.1443 -0.1730
10023TIP3   OH230011   0.039   6.101   2.447 -0.3896 -0.0381 -0.2029
10023TIP3    H130012  -0.030   6.167   2.440 -0.8933 -0.3270  1.5690
10023TIP3    H230013   0.051   6.089   2.541  0.8681 -1.2668 -0.4924
10024TIP3   OH230014   1.989   5.111   3.559  0.6353 -0.1565 -0.1223
10024TIP3    H130015   2.048   5.179   3.592  0.9880 -0.6182  0.2100
10024TIP3    H230016   1.920   5.104   3.625  1.0620 -0.7171  0.2722
10025TIP3   OH230017   6.109   4.982   6.262 -0.3954  0.5658 -0.0771
10025TIP3    H130018   6.117   4.889   6.283 -1.2305  0.6835  0.8244
10025TIP3    H230019   6.034   5.012   6.313  0.4483  1.9521  0.4065
10026TIP3   OH230020   4.781   5.369   2.940 -0.7388  0.1881 -0.4077
10026TIP3    H130021   4.846   5.407   2.881  0.9750  0.0839  1.3281
10026TIP3    H230022   4.744   5.296   2.890 -0.2167  0.8378 -1.7915
10027TIP3   OH230023   3.909   1.656   2.197  0.2217 -0.7123  0.1705
10027TIP3    H130024   3.876   1.624   2.113  1.4926 -1.0283 -0.2275
10027TIP3    H230025   3.833   1.654   2.255 -0.8942  0.3381 -1.1869
10028TIP3   OH230026   1.116   3.981   4.136  0.5812  0.1460  0.4450
10028TIP3    H130027   1.188   3.920   4.154 -0.0502 -0.8368 -0.2754
10028TIP3    H230028   1.156   4.049   4.082  0.8623 -0.7216 -0.4752
10029TIP3   OH230029   5.442   1.916   2.915  0.1012 -0.2494  0.2568
10029TIP3    H130030   5.465   2.008   2.927 -0.6038  0.0822 -0.8032
10029TIP3    H230031   5.430   1.906   2.821 -1.1431 -1.1027  0.4834
10030TIP3   OH230032   1.263   4.349   2.564  1.0674  0.2045 -0.0189
10030TIP3    H130033   1.190   4.287   2.559  1.9118 -0.9703  1.4411
10030TIP3    H230034   1.306   4.342   2.479 -0.4444  0.8752 -0.8872
10031TIP3   OH230035   2.241   1.304   0.548 -0.0296 -0.1011  0.2024
10031TIP3    H130036   2.216   1.234   0.488 -1.8852  0.3607  0.3517
10031TIP3    H230037   2.180   1.294   0.622 -1.0628  2.2573 -0.2510
10032TIP3   OH230038   1.866   3.439   2.308 -0.2010  0.5555  0.5451
10032TIP3    H130039   1.852   3.356   2.355 -0.0518  0.6919  0.8328
10032TIP3    H230040   1.792   3.444   2.247  0.0068  0.0172  0.2435
10033TIP3   OH230041   2.887   7.503   6.321 -0.2851 -0.5257  0.3709
10033TIP3    H130042   2.804   7.492   6.367 -1.9382 -0.9868 -2.4295
10033TIP3    H230043   2.907   7.416   6.286  0.8084 -0.1918  0.1157
10034TIP3   OH230044   7.287   6.742   4.682 -0.0077  0.6115  0.3416
10034TIP3    H130045   7.231   6.801   4.631 -1.4930 -1.2735 -0.3316
10034TIP3    H230046   7.353   6.712   4.619 -0.8953 -0.5067 -0.0770
10035TIP3   OH230047   5.067   6.869   1.108  0.2555  0.7583 -0.0293
10035TIP3    H130048   5.056   6.845   1.200  0.2224  2.0292  0.3205
10035TIP3    H230049   5.147   6.824   1.081 -0.0291 -0.0528  0.4625
10036TIP3   OH230050   5.528   0.695   5.692 -0.2985 -0.0803  0.3161
10036TIP3    H130051   5.560   0.710   5.781 -0.6087  0.5457  0.3272
10036TIP3    H230052   5.435   0.718   5.696 -0.1082  0.8518 -0.3860
10037TIP3   OH230053   6.321   1.982   5.556  0.3214 -0.0804  0.5522
10037TIP3    H130054   6.294   2.027   5.636 -1.4283  0.9835 -0.5541
10037TIP3    H230055   6.334   2.053   5.492 -0.0187 -0.9869 -0.5548
10038TIP3   OH230056   6.251   6.926   1.897  0.1769  0.0764 -0.0192
10038TIP3    H130057   6.210   6.865   1.836 -1.0099  1.3816 -0.5985
10038TIP3    H230058   6.340   6.937   1.865  0.5596 -1.6828  0.3766
10039TIP3   OH230059   6.101   0.665   1.476 -0.0356  0.5167  0.1402
10039TIP3    H130060   6.139   0.663   1.388 -0.3582  1.6591 -0.0425
10039TIP3    H230061   6.080   0.573   1.495 -0.3399  0.2956 -1.1430
10040TIP3   OH230062   1.241   0.417   6.623  0.3297  0.2812  0.4726
10040TIP3    H130063   1.214   0.469   6.547 -0.9607 -0.8240  0.1266
10040TIP3    H230064   1.228   0.327   6.596  0.4457 -0.1631  1.8113
10041TIP3   OH230065   2.087   5.986   5.683  0.0679 -0.2266  0.0548
10041TIP3    H130066   2.026   5.923   5.644  1.0995 -1.2174 -0.0122
10041TIP3    H230067   2.095   5.958   5.774  2.3641 -1.7482 -0.5238
10042TIP3   OH230068   2.083   4.887   0.446  0.2438  0.2406  0.1088
10042TIP3    H130069   1.988   4.883   0.453  0.1493  0.4261 -0.8425
10042TIP3    H230070   2.107   4.968   0.490  0.0473 -0.2109  1.0608
10043TIP3   OH230071   5.974   5.948   2.521 -0.1019  0.3629  0.2814
10043TIP3    H130072   5.898   5.898   2.492 -0.3748  0.3205  1.0582
10043TIP3    H230073   6.027   5.958   2.442 -1.7216  1.8606 -0.6854
10044TIP3   OH230074   1.899   0.949   2.003 -0.6005 -0.1372  0.7584
10044TIP3    H130075   1.935   0.893   1.934 -1.7042 -0.2254  0.2343
10044TIP3    H230076   1.932   0.910   2.084  0.5861 -0.1232  0.3041
10045TIP3   OH230077   0.833   2.280   1.647 -0.9088 -0.3618  0.3978
10045TIP3    H130078   0.865   2.189   1.644 -1.3988 -0.5525  0.7737
10045TIP3    H230079   0.886   2.326   1.582  0.4216 -0.5650  1.2921
10046TIP3   OH230080   0.112   5.558   5.433 -0.1594  0.2976  0.0472
10046TIP3    H130081   0.017   5.548   5.430 -0.0095 -1.0567 -2.1278
10046TIP3    H230082   0.126   5.649   5.460 -2.0441  0.4297  0.7122
10047TIP3   OH230083   6.251   5.676   2.165  0.5748 -0.0234  0.1782
10047TIP3    H130084   6.307   5.754   2.163  1.2093 -0.4792 -0.3545
10047TIP3    H230085   6.313   5.603   2.159  0.0180 -0.5886  1.1418
10048TIP3   OH230086   0.220   3.681   3.565  0.3245  0.2336 -0.1361
10048TIP3    H130087   0.160   3.665   3.492 -0.5297  2.8226 -0.1235
10048TIP3    H230088   0.301   3.635   3.541  0.0108  0.8555 -2.6469
10049TIP3   OH230089   5.248   1.401   2.385  0.8886 -0.6471  0.2493
10049TIP3    H130090   5.249   1.322   2.331 -0.7368 -1.2150  0.9738
10049TIP3    H230091   5.191   1.379   2.459  3.7716 -0.2463  2.7960
10050TIP3   OH230092   2.766   5.020   3.905  0.5068  0.3725 -0.2043
10050TIP3    H130093   2.857   5.005   3.933  0.3650 -1.0439 -0.4429
10050TIP3    H230094   2.747   4.946   3.847 -0.6056  0.9917 -0.6374
10051TIP3   OH230095   7.297   0.529   5.741 -0.0981 -0.2944  0.3051
10051TIP3    H130096   7.339   0.559   5.661 -2.8144 -0.7035 -1.3976
10051TIP3    H230097   7.232   0.464   5.712 -1.0374 -0.6275  2.8503
10052TIP3   OH230098   2.978   7.010   0.852  0.3543  0.1532  0.1306
10052TIP3    H130099   3.001   6.991   0.943  0.4981 -1.5993 -0.2368
10052TIP3    H230100   2.915   7.081   0.858  0.5097  0.2088  1.5859
10053TIP3   OH230101   1.036   4.644   5.332  0.2825  0.2688  0.8739
10053TIP3    H130102   1.056   4.723   5.382  0.7727  0.9556 -0.3425
10053TIP3    H230103   1.006   4.677   5.247  1.2757 -0.8435  0.0549
10054TIP3   OH230104   7.711   3.942   5.548  0.0573 -0.7453  0.1136
10054TIP3    H130105   7.668   3.863   5.516  0.0623 -0.8787  0.4332
10054TIP3    H230106   7.641   4.006   5.556  0.4335  0.1860 -2.8218
10055TIP3   OH230107   7.930   2.557   5.691 -0.0206  0.4274  0.4707
10055TIP3    H130108   7.978   2.605   5.623 -0.1902 -2.1258 -1.6133
10055TIP3    H230109   7.838   2.563   5.664  0.0732 -2.1805 -0.7430
10056TIP3   OH230110   6.318   6.689   6.541 -0.1241  0.2862  0.5800
10056TIP3    H130111   6.378   6.702   6.468  1.2825 -0.8640  1.4627
10056TIP3    H230112   6.267   6.612   6.516 -1.7379  1.6334 -0.4482
10057TIP3   OH230113   2.558   7.333   2.392 -0.1349 -0.1656  0.0594
10057TIP3    H130114   2.527   7.398   2.328 -0.9154 -1.0749 -0.5138
10057TIP3    H230115   2.496   7.340   2.465 -0.6833 -0.7713 -0.3327
10058TIP3   OH230116   7.582   4.725   6.304  0.5176  0.5615  0.0897
10058TIP3    H130117   7.677   4.715   6.302  0.6473  1.5872  0.4750
10058TIP3    H230118   7.551   4.646   6.349  1.3863  1.3037  2.1480
10059TIP3   OH230119   1.524   4.004   3.800  0.0172 -0.0366  0.1853
10059TIP3    H130120   1.588   3.987   3.869 -0.2440 -1.5419  0.0811
10059TIP3    H230121   1.536   4.097   3.780  2.9351 -0.4735 -0.5962
10060TIP3   OH230122   5.184   7.203   4.371  0.2156  0.1946  0.9538
10060TIP3    H130123   5.202   7.220   4.279  2.6603  0.8024  1.4723
10060TIP3    H230124   5.140   7.282   4.402 -2.3342 -0.7225 -0.0152
10061TIP3   OH230125   0.507   6.422   1.042 -0.1664  0.0093 -0.1032
10061TIP3    H130126   0.446   6.421   1.116 -1.7117 -0.7626 -1.3187
10061TIP3    H230127   0.529   6.330   1.028  0.3840  0.1822 -0.3940
10062TIP3   OH230128   3.321   3.185   4.414  0.3907 -0.2660  0.1032
10062TIP3    H130129   3.354   3.102   4.448  0.2485  0.0696  1.1204
10062TIP3    H230130   3.227   3.183   4.434  0.4716  0.3274  0.5738
10063TIP3   OH230131   2.992   3.361   4.214  0.2354 -0.1404  0.3730
10063TIP3    H130132   3.023   3.293   4.273  1.0160 -0.1832 -0.0805
10063TIP3    H230133   3.065   3.422   4.205  0.0845 -0.0682 -0.4474
10064TIP3   OH230134   3.003   1.481   3.679 -0.1916 -0.0960  0.5249
10064TIP3    H130135   3.000   1.425   3.756 -1.2727 -0.9166 -0.0942
10064TIP3    H230136   2.917   1.471   3.638  0.3410  0.3581 -0.7610
10065TIP3   OH230137   1.019   7.351   0.735 -0.0726  0.1245 -0.2031
10065TIP3    H130138   0.984   7.342   0.824  0.0038 -2.4104 -0.3450
10065TIP3    H230139   1.062   7.267   0.719  0.3391  0.7215 -2.4712
10066TIP3   OH230140   5.931   4.260   5.670 -0.7330  0.2466  0.0655
10066TIP3    H130141   5.864   4.313   5.628  1.0062  2.1896 -0.4525
10066TIP3    H230142   5.936   4.293   5.759 -0.0911  0.5106 -0.0636
10067TIP3   OH230143   7.732   0.455   2.778 -0.3746 -0.0968  0.7252
10067TIP3    H130144   7.658   0.397   2.762 -1.2463  1.3504 -0.8544
10067TIP3    H230145   7.696   0.529   2.827 -0.5224  1.5722 -1.7142
10068TIP3   OH230146   5.733   5.234   2.979 -0.1061  0.1755 -0.4856
10068TIP3    H130147   5.672   5.175   3.023  1.3387 -1.5854 -0.7213
10068TIP3    H230148   5.777   5.281   3.050  0.4598 -0.8450 -0.1415
10069TIP3   OH230149   4.465   1.050   0.348  0.0537 -0.1885 -0.3452
10069TIP3    H130150   4.400   0.981   0.362  0.3013 -0.2075  0.7445
10069TIP3    H230151   4.534   1.008   0.297 -0.0530 -0.5973 -0.1540
10070TIP3   OH230152   2.060   2.460   5.675 -0.2105  0.1402 -0.0526
10070TIP3    H130153   2.130   2.501   5.625 -0.0072 -1.3299 -1.0270
10070TIP3    H230154   2.103   2.425   5.753  0.0397 -0.2891 -0.3840
10071TIP3   OH230155   3.239   4.215   3.522  0.2806 -0.3978  0.0535
10071TIP3    H130156   3.279   4.155   3.585 -0.5435 -0.3867  0.5974
10071TIP3    H230157   3.189   4.158   3.463  1.1014 -0.4145 -0.6400
10072TIP3   OH230158   7.750   3.288   3.520  0.2329  0.0695  0.2023
10072TIP3    H130159   7.715   3.212   3.474 -2.6343 -0.1989  2.5232
10072TIP3    H230160   7.819   3.252   3.577 -0.5651 -0.6985  0.7053
10073TIP3   OH230161   0.117   4.495   5.283  0.4722  0.1457  0.1037
10073TIP3    H130162   0.184   4.433   5.309 -0.6090 -0.7231  0.9413
10073TIP3    H230163   0.146   4.529   5.199  0.9317 -1.7573 -0.5513
10074TIP3   OH230164   2.400   6.373   5.323 -0.1147 -0.2311 -0.3074
10074TIP3    H130165   2.443   6.321   5.390  0.1369  1.6833  1.0967
10074TIP3    H230166   2.307   6.350   5.331  0.1009 -1.1236 -0.3356
10075TIP3   OH230167   3.720   1.206   3.885 -0.5597  1.0332  0.3088
10075TIP3    H130168   3.803   1.160   3.898 -1.3843 -0.8301 -0.7009
10075TIP3    H230169   3.724   1.235   3.793 -2.4425 -2.3149 -1.0070
10076TIP3   OH230170   3.144   5.745   1.362  0.1699  0.5467 -0.3426
10076TIP3    H130171   3.136   5.650   1.354  0.0711  0.3845  1.2274
10076TIP3    H230172   3.120   5.779   1.276 -0.5470 -0.8118 -0.7094
10077TIP3   OH230173   8.134   2.761   1.094 -0.1575  0.3829 -0.0227
10077TIP3    H130174   8.124   2.758   1.189 -0.3156 -0.1153 -0.0480
10077TIP3    H230175   8.214   2.810   1.079  2.4080 -3.2004  0.5698
10078TIP3   OH230176   7.440   6.032   5.444 -0.2240 -0.2830 -0.4905
10078TIP3    H130177   7.496   5.961   5.474  1.2677  0.9726 -0.1717
10078TIP3    H230178   7.490   6.074   5.373 -0.1178  1.6521  0.6557
10079TIP3   OH230179   7.904   6.387   3.466  0.5037 -0.0749 -1.1066
10079TIP3    H130180   7.842   6.330   3.420 -0.9076 -0.0153  0.5973
10079TIP3    H230181   7.948   6.435   3.397 -0.2433 -1.2532 -2.4667
10080TIP3   OH230182   3.440   6.480   3.112 -0.4508  0.2266 -0.1812
10080TIP3    H130183   3.464   6.397   3.072  2.7594  0.1453  1.5708
10080TIP3    H230184   3.475   6.475   3.201 -2.3994  2.4903  0.8255
10081TIP3   OH230185   7.653   3.908   3.508  0.1547  0.5613  0.7924
10081TIP3    H130186   7.743   3.940   3.502  0.3344  0.3096  1.9634
10081TIP3    H230187   7.653   3.830   3.451  0.4676  0.9788  0.2036
10082TIP3   OH230188   2.687   3.060   2.270  0.5093 -0.2937  0.6231
10082TIP3    H130189   2.697   3.152   2.245 -1.5670  0.0843  0.9664
10082TIP3    H230190   2.723   3.011   2.196  0.4462  0.7969 -0.1559
10083TIP3   OH230191   2.747   4.892   6.426  0.3250  0.3044  0.0999
10083TIP3    H130192   2.792   4.962   6.379  0.5257  0.2139  0.1542
10083TIP3    H230193   2.726   4.931   6.511 -0.3578  0.5823 -0.1893
10084TIP3   OH230194   1.766   0.550   5.039  0.0173  0.0754 -0.2085
10084TIP3    H130195   1.778   0.645   5.043 -0.3911  0.0945  1.5825
10084TIP3    H230196   1.672   0.538   5.049  0.1824 -0.5310  0.7640
10085TIP3   OH230197   2.645   3.243   6.369  0.4288  0.2788  0.3990
10085TIP3    H130198   2.692   3.230   6.451  3.0173  1.0734 -0.8497
10085TIP3    H230199   2.629   3.338   6.365  3.4898  0.8678 -1.4616
10086TIP3   OH230200   7.608   1.787   2.697 -0.3932 -0.1367  0.0991
10086TIP3    H130201   7.699   1.813   2.712 -0.6474  0.8681  0.0320
10086TIP3    H230202   7.569   1.864   2.655 -0.9858 -0.9787 -0.9161
10087TIP3   OH230203   5.071   2.880   0.828  0.2037 -0.4992 -0.3780
10087TIP3    H130204   5.096   2.970   0.850  0.2757 -0.5706 -0.1622
10087TIP3    H230205   5.098   2.870   0.736 -0.1251 -0.1880 -0.5104
10088TIP3   OH230206   4.360   4.470   5.062  0.5916  0.1671  0.4969
10088TIP3    H130207   4.300   4.431   4.999  1.1842  0.7335 -0.4316
10088TIP3    H230208   4.446   4.436   5.038  0.9669  1.1980  0.3461
10089TIP3   OH230209   4.765   5.510   6.027 -0.2521  0.5909  0.2102
10089TIP3    H130210   4.688   5.517   6.084 -0.4262 -0.4108  0.1097
10089TIP3    H230211   4.812   5.434   6.060 -0.4357 -0.1042 -1.0814
10090TIP3   OH230212   6.754   1.242   3.397 -0.3714  0.1488 -0.3325
10090TIP3    H130213   6.824   1.220   3.459  0.7631 -0.4822 -1.7921
10090TIP3    H230214   6.786   1.210   3.313 -3.4907 -2.5009 -0.7040
10091TIP3   OH230215   6.654   1.219   0.520  0.6016  0.0713  0.0217
10091TIP3    H130216   6.622   1.244   0.434 -0.6264 -0.8506  0.1839
10091TIP3    H230217   6.630   1.292   0.577  0.8211  0.3857 -0.2869
10092TIP3   OH230218   6.611   5.034   4.553  0.0799  0.0849  0.2273
10092TIP3    H130219   6.627   4.947   4.516  0.4240 -1.0751  2.8667
10092TIP3    H230220   6.517   5.035   4.572 -0.0542  0.5858 -0.4208
10093TIP3   OH230221   0.659   1.023   2.652  0.2013 -0.3348 -0.0239
10093TIP3    H130222   0.748   1.055   2.636  0.2350 -1.1238 -1.5647
10093TIP3    H230223   0.614   1.032   2.568 -0.9376 -0.7330  0.5138
10094TIP3   OH230224   4.477   7.383   0.272  0.0449  0.5405 -0.4218
10094TIP3    H130225   4.443   7.425   0.193 -0.0327  0.5367 -0.3908
10094TIP3    H230226   4.511   7.299   0.243  1.2942  1.1175 -0.6898
10095TIP3   OH230227   8.235   5.698   3.122 -0.3684  0.1771  0.3922
10095TIP3    H130228   8.201   5.610   3.142  0.2834 -0.0872  0.3562
10095TIP3    H230229   8.278   5.726   3.202 -0.5620  0.4604  0.3978
10096TIP3   OH230230   6.213   2.470   4.504  0.1592  0.5906 -0.7579
10096TIP3    H130231   6.302   2.486   4.535  0.9459 -3.1420 -0.6500
10096TIP3    H230232   6.159   2.477   4.582  0.8182 -0.0709 -0.2360
10097TIP3   OH230233   4.858   3.219   3.815 -0.4367  0.4623 -0.1310
10097TIP3    H130234   4.863   3.216   3.719 -1.6921  0.5054 -0.2189
10097TIP3    H230235   4.802   3.145   3.838 -1.2364  1.2280  0.4581
10098TIP3   OH230236   1.955   7.343   2.496  0.2647  0.2025 -0.2256
10098TIP3    H130237   1.861   7.359   2.484  0.6458  3.1536 -0.1896
10098TIP3    H230238   1.973   7.371   2.586  0.8214 -2.8397  0.7234
10099TIP3   OH230239   6.224   7.629   6.775  0.2379 -0.0879 -0.4297
10099TIP3    H130240   6.214   7.691   6.703 -0.5509 -0.6653 -0.8199
10099TIP3    H230241   6.174   7.668   6.847  2.7638  1.5891  0.5662
10100TIP3   OH230242   5.354   2.331   3.126  0.3113  0.1616 -0.2135
10100TIP3    H130243   5.419   2.270   3.092  1.4753  1.0846  0.2729
10100TIP3    H230244   5.405   2.405   3.160 -1.0338  1.4939 -0.9238
10101TIP3   OH230245   1.969   1.998   0.622  0.0942 -0.2747 -0.7406
10101TIP3    H130246   1.887   2.036   0.591 -0.9404 -0.4233  1.5928
10101TIP3    H230247   2.022   2.074   0.647 -0.8281 -0.1886  1.1669
10102TIP3   OH230248   6.962   6.718   1.083  0.6158 -0.5772  0.1123
10102TIP3    H130249   6.961   6.623   1.078 -0.3711 -0.5886  0.3900
10102TIP3    H230250   6.884   6.741   1.134  1.3674  0.3262  0.9066
10103TIP3   OH230251   1.132   3.656   4.260  0.4552 -0.2322 -0.3076
10103TIP3    H130252   1.042   3.667   4.231 -0.0103 -1.6436  0.5189
10103TIP3    H230253   1.183   3.652   4.179 -0.6440 -2.6647 -0.9835
10104TIP3   OH230254   6.121   1.302   3.990 -0.1228 -1.0205 -0.0546
10104TIP3    H130255   6.101   1.354   3.912  1.2082  1.5606  1.1953
10104TIP3    H230256   6.043   1.311   4.046 -0.0481 -0.6860 -0.0036
10105TIP3   OH230257   0.363   3.118   6.073  0.0530 -0.1664  0.2569
10105TIP3    H130258   0.422   3.175   6.025 -0.3250  0.0801  0.0746
10105TIP3    H230259   0.372   3.032   6.032 -0.0016 -0.0391 -0.0208
10106TIP3   OH230260   5.117   1.648   6.356  0.3917  0.3401 -0.0751
10106TIP3    H130261   5.165   1.583   6.408 -0.8646 -0.9594 -0.4455
10106TIP3    H230262   5.099   1.603   6.273 -0.1181  1.3462 -0.5302
10107TIP3   OH230263   3.608   3.675   6.536 -0.3455  0.5949  0.2977
10107TIP3    H130264   3.557   3.595   6.552  0.2901  0.5180  2.3201
10107TIP3    H230265   3.604   3.722   6.620  1.6229  1.3052  0.0403
10108TIP3   OH230266   6.854   0.980   0.174  0.5219 -0.4484 -0.2588
10108TIP3    H130267   6.847   1.032   0.094  2.1725  0.4895  0.1465
10108TIP3    H230268   6.926   1.021   0.223  0.3984 -1.7713  1.1193
10109TIP3   OH230269   6.340   0.405   5.555  0.2005  0.2717  1.3318
10109TIP3    H130270   6.380   0.393   5.469 -1.6651 -0.5605  0.5203
10109TIP3    H230271   6.343   0.500   5.569  2.3117  0.2462  1.2921
10110TIP3   OH230272   5.909   4.893   5.962  0.7362 -0.4115  0.4547
10110TIP3    H130273   5.857   4.967   5.992  1.4966 -0.4523  1.9840
10110TIP3    H230274   5.845   4.827   5.938  0.0618  0.3117  0.2406
10111TIP3   OH230275   1.103   2.060   3.808  0.2002 -0.7879  0.0316
10111TIP3    H130276   1.071   2.007   3.881 -0.4804  1.0949  1.2075
10111TIP3    H230277   1.190   2.088   3.835 -0.7954  1.5216  1.1447
10112TIP3   OH230278   8.183   5.166   0.375  0.4862 -0.0089 -0.5046
10112TIP3    H130279   8.222   5.115   0.305 -1.7926 -0.6487 -1.3858
10112TIP3    H230280   8.179   5.106   0.450 -0.1284 -0.4063 -0.8542
10113TIP3   OH230281   4.648   2.371   5.028 -0.2694  0.5659 -0.2426
10113TIP3    H130282   4.671   2.460   5.000  2.1648  0.1168  0.1423
10113TIP3    H230283   4.678   2.366   5.119  0.9809 -1.0747 -0.7043
10114TIP3   OH230284   7.572   4.797   2.241  1.2151 -0.2269 -0.0325
10114TIP3    H130285   7.621   4.729   2.288  1.6514  0.2942  0.2901
10114TIP3    H230286   7.614   4.879   2.269  1.9512  0.0786 -1.8649
10115TIP3   OH230287   1.595   1.415   0.165 -0.1054  0.4817 -0.7408
10115TIP3    H130288   1.571   1.408   0.258 -0.3290 -4.1556 -0.9266
10115TIP3    H230289   1.630   1.504   0.157 -1.1037  1.5111  3.4899
10116TIP3   OH230290   1.111   3.562   1.272 -0.1490 -0.3628  0.1915
10116TIP3    H130291   1.069   3.638   1.231  1.7481 -0.0363 -1.3237
10116TIP3    H230292   1.093   3.489   1.212 -0.4739 -0.7217  0.7221
10117TIP3   OH230293   4.525   6.178   2.499  0.3292 -0.2731  0.3110
10117TIP3    H130294   4.539   6.162   2.406 -0.7222  3.8160 -0.7736
10117TIP3    H230295   4.613   6.186   2.537  0.7820 -3.0859  0.0333
10118TIP3   OH230296   3.184   2.241   5.822  0.2016  0.4665 -0.6841
10118TIP3    H130297   3.131   2.243   5.742 -1.2689  0.1763  0.2389
10118TIP3    H230298   3.271   2.271   5.795 -0.2076  0.1626 -2.4213
10119TIP3   OH230299   3.709   2.323   6.352  0.8915 -0.7153  0.2010
10119TIP3    H130300   3.799   2.343   6.379  1.3340 -1.4490 -0.6512
10119TIP3    H230301   3.697   2.373   6.272  0.7632 -1.1066 -0.0251
10120TIP3   OH230302   7.778   5.108   4.257 -0.3310  0.1481  0.0902
10120TIP3    H130303   7.863   5.137   4.224 -0.3844  0.4021  0.1737
10120TIP3    H230304   7.788   5.109   4.353 -0.2944 -0.2298  0.0933
10121TIP3   OH230305   1.900   4.872   5.007  0.2239 -0.2226 -0.3238
10121TIP3    H130306   1.811   4.881   5.040  0.2712  1.0111 -0.5164
10121TIP3    H230307   1.939   4.804   5.063 -0.1877  0.6850  1.1101
10122TIP3   OH230308   1.384   7.200   1.234  0.3720  0.1784 -0.7457
10122TIP3    H130309   1.360   7.279   1.186 -1.6012  0.2047  0.1791
10122TIP3    H230310   1.448   7.229   1.299  0.4992  0.7821 -1.1342
10123TIP3   OH230311   7.424   7.473   5.580  0.1205  0.5799  0.1540
10123TIP3    H130312   7.416   7.457   5.674  0.7888 -0.3285  0.0682
10123TIP3    H230313   7.468   7.558   5.574  2.0592 -0.3266  0.7058
10124TIP3   OH230314   5.865   6.818   1.785  0.1370  0.4885 -0.0447
10124TIP3    H130315   5.897   6.892   1.733  1.7495 -0.0491  0.1279
10124TIP3    H230316   5.942   6.763   1.799 -0.8782 -0.8755  0.4391
10125TIP3   OH230317   2.560   3.742   0.096 -0.4857 -0.0895 -0.1015
10125TIP3    H130318   2.564   3.836   0.082  0.7305  0.0440  0.9887
10125TIP3    H230319   2.625   3.706   0.035  0.6372  0.0000  0.9908
10126TIP3   OH230320   7.661   4.835   3.034 -0.0548 -0.1596 -0.5741
10126TIP3    H130321   7.670   4.926   3.063  1.0503 -0.5175  0.2652
10126TIP3    H230322   7.638   4.786   3.113  2.0916 -1.0103 -0.4137
10127TIP3   OH230323   3.780   2.252   2.709 -0.1469  0.4025 -0.0387
10127TIP3    H130324   3.785   2.328   2.650 -0.7557  1.0849  0.7644
10127TIP3    H230325   3.842   2.190   2.673 -0.1803  0.9858 -1.1523
10128TIP3   OH230326   6.482   5.905   0.665 -0.2365  0.5378  0.3073
10128TIP3    H130327   6.401   5.951   0.686 -0.0948  0.0213  2.1126
10128TIP3    H230328   6.454   5.817   0.640 -0.3219  0.8287 -0.6751
10129TIP3   OH230329   7.813   6.150   5.092  0.1105  0.2868 -0.1910
10129TIP3    H130330   7.823   6.063   5.055 -0.4151  0.2815 -0.3372
10129TIP3    H230331   7.900   6.174   5.123  0.2382 -0.3276 -0.0642
10130TIP3   OH230332   0.458   3.220   0.791 -0.0200 -0.0949 -0.4830
10130TIP3    H130333   0.424   3.142   0.748  1.5429 -1.3452  0.4365
10130TIP3    H230334   0.523   3.256   0.730  1.8974 -1.6348  0.5443
10131TIP3   OH230335   1.007   6.003   0.031  0.5993 -0.3832 -0.4469
10131TIP3    H130336   1.067   5.930   0.045 -0.5594 -1.6693 -1.8563
10131TIP3    H230337   0.964   6.015   0.116 -1.5683 -3.6212 -0.9098
10132TIP3   OH230338   4.575   0.415   2.114 -0.2244 -0.4289  0.0710
10132TIP3    H130339   4.484   0.408   2.142 -0.2587  1.7320  0.6890
10132TIP3    H230340   4.625   0.422   2.195  0.2099  0.8289 -0.2781
10133TIP3   OH230341   6.017   1.002   2.444  0.0418 -0.4441  0.4404
10133TIP3    H130342   5.981   1.087   2.418  0.9027 -0.2089 -0.0278
10133TIP3    H230343   6.060   1.019   2.527  0.8659 -0.2392 -0.0203
10134TIP3   OH230344   7.131   4.228   6.108 -0.0929  0.0494  0.5735
10134TIP3    H130345   7.217   4.215   6.150 -0.1064  0.0410  0.5995
10134TIP3    H230346   7.151   4.249   6.017 -0.0668 -0.0764  0.5500
10135TIP3   OH230347   6.731   4.994   2.848 -0.2920 -0.1336  0.2263
10135TIP3    H130348   6.772   5.067   2.801  0.6431 -0.3376  0.6954
10135TIP3    H230349   6.685   5.035   2.921  3.4106 -0.1425  2.8590
10136TIP3   OH230350   7.641   4.612   5.472 -0.3990  0.5163 -0.3022
10136TIP3    H130351   7.594   4.538   5.433  0.2798 -0.2276  0.2546
10136TIP3    H230352   7.733   4.593   5.454 -0.2545  1.6166 -0.8053
10137TIP3   OH230353   1.328   2.649   0.910  0.0444  0.2009  0.1398
10137TIP3    H130354   1.272   2.605   0.974  1.5832 -0.1240  1.3466
10137TIP3    H230355   1.273   2.660   0.832 -1.4507 -0.6839  1.0285
10138TIP3   OH230356   1.522   7.035   6.190  0.5969 -0.2640  0.5986
10138TIP3    H130357   1.554   7.048   6.280 -0.7293  1.1537  0.9186
10138TIP3    H230358   1.456   6.966   6.198 -0.6606  0.9424  1.0467
10139TIP3   OH230359   2.348   3.347   5.455 -0.1417  0.1939  0.0560
10139TIP3    H130360   2.375   3.439   5.464  0.2567  0.1281 -0.4078
10139TIP3    H230361   2.291   3.347   5.378 -0.8935  0.2082  0.6106
10140TIP3   OH230362   0.191   1.849   2.175 -0.2087  0.2728  0.9750
10140TIP3    H130363   0.192   1.782   2.244  0.9597  0.9274  1.6338
10140TIP3    H230364   0.195   1.932   2.223  2.4631  0.7072  0.1416
10141TIP3   OH230365   3.203   4.284   2.234  0.5005 -0.1377  0.2154
10141TIP3    H130366   3.257   4.357   2.205  0.1853  0.3522  0.8251
10141TIP3    H230367   3.115   4.305   2.203  0.2829  0.0774  0.9611
10142TIP3   OH230368   4.738   2.898   1.934  0.0910 -0.0720 -0.1179
10142TIP3    H130369   4.777   2.919   1.849 -1.5257 -1.7705 -1.3595
10142TIP3    H230370   4.678   2.971   1.951 -0.0233 -0.0111 -0.7379
10143TIP3   OH230371   6.984   7.046   3.581 -0.1422  0.5780 -0.0351
10143TIP3    H130372   6.928   7.082   3.650  0.4695  1.2833  0.1020
10143TIP3    H230373   6.928   7.043   3.504 -0.2466  1.7125 -0.0202
10144TIP3   OH230374   5.263   5.182   2.138  0.1690  0.6541 -0.1311
10144TIP3    H130375   5.319   5.252   2.106 -0.2245  1.2596  0.4763
10144TIP3    H230376   5.179   5.194   2.093  0.1854  0.4018 -0.2336
10145TIP3   OH230377   1.800   3.876   0.583 -0.1630  0.4042  0.3362
10145TIP3    H130378   1.824   3.967   0.566  3.6126 -0.9345 -3.2784
10145TIP3    H230379   1.871   3.843   0.639  1.3927 -1.3482 -2.4471
10146TIP3   OH230380   8.103   6.851   1.748 -0.6027 -0.0154  0.3288
10146TIP3    H130381   8.039   6.800   1.797  0.8665 -0.9667  1.3598
10146TIP3    H230382   8.058   6.877   1.668 -1.4135 -3.1241 -0.3687
10147TIP3   OH230383   4.802   3.939   0.853 -0.1237 -0.4755  0.4682
10147TIP3    H130384   4.763   3.866   0.805 -0.6862 -0.3614  0.7469
10147TIP3    H230385   4.839   3.900   0.932 -1.5342 -0.3019  1.2488
10148TIP3   OH230386   4.024   2.405   3.393  0.2771  0.0793  0.5612
10148TIP3    H130387   4.061   2.488   3.424  1.2461  1.0961 -2.9393
10148TIP3    H230388   4.097   2.343   3.395  0.7969  0.6052 -1.1807
10149TIP3   OH230389   2.697   5.029   0.419 -0.2813  0.3429 -0.5600
10149TIP3    H130390   2.722   4.952   0.368  0.5925 -1.2458  2.0760
10149TIP3    H230391   2.780   5.073   0.439 -0.2783 -0.5001  1.5364
10150TIP3   OH230392   4.293   1.498   6.626  0.7390 -0.5019  0.3435
10150TIP3    H130393   4.300   1.584   6.667  0.2433 -0.4937  0.4219
10150TIP3    H230394   4.249   1.516   6.542  0.0058 -0.7624  0.6651
10151TIP3   OH230395   6.578   1.498   1.400 -0.4076  0.0674  0.0522
10151TIP3    H130396   6.545   1.430   1.459 -1.0554 -0.3431 -0.7711
10151TIP3    H230397   6.572   1.459   1.313  2.2719 -0.0369 -0.1727
10152TIP3   OH230398   1.715   4.719   4.394 -0.0250 -0.5512  0.6355
10152TIP3    H130399   1.776   4.703   4.466 -0.2721 -1.9917  0.5490
10152TIP3    H230400   1.736   4.652   4.330 -0.8313 -0.2348  0.0255
10153TIP3   OH230401   2.924   5.178   1.938 -0.4434  0.6304 -0.0231
10153TIP3    H130402   2.861   5.158   1.868 -0.2281 -0.2771  0.0295
10153TIP3    H230403   3.005   5.200   1.891 -0.8947  2.2561 -0.1051
10154TIP3   OH230404   5.675   3.982   5.806  0.4074 -0.0463 -0.4042
10154TIP3    H130405   5.727   3.906   5.833 -0.9686 -0.7470  0.3588
10154TIP3    H230406   5.585   3.959   5.828 -0.4503  0.5774 -2.8811
10155TIP3   OH230407   6.118   4.559   3.556  0.5799 -0.3964 -0.0395
10155TIP3    H130408   6.116   4.477   3.606  2.8833 -0.0607  0.6907
10155TIP3    H230409   6.084   4.625   3.617  1.2806 -0.3663  0.3251
10156TIP3   OH230410   4.975   5.051   1.696  0.5583  0.1683 -0.4968
10156TIP3    H130411   4.936   5.131   1.732  0.5455 -0.1833  0.2950
10156TIP3    H230412   4.905   5.010   1.646  0.6476  0.7908 -1.1451
10157TIP3   OH230413   8.142   7.097   3.135 -0.0170  0.0483 -0.6367
10157TIP3    H130414   8.052   7.128   3.129  0.1410  0.3251 -2.1052
10157TIP3    H230415   8.163   7.099   3.228 -1.8703 -1.0402 -0.1646
10158TIP3   OH230416   5.850   0.961   2.029 -0.7070 -0.2438 -0.0505
10158TIP3    H130417   5.855   0.919   2.115 -2.6463 -0.2333  0.1102
10158TIP3    H230418   5.936   0.946   1.990  0.3219  0.0224  2.0004
10159TIP3   OH230419   4.504   6.482   2.579  0.1710 -0.2329 -0.3977
10159TIP3    H130420   4.488   6.529   2.498 -0.9176 -0.0592 -0.1013
10159TIP3    H230421   4.523   6.392   2.551  1.2380  0.1377 -0.9064
10160TIP3   OH230422   5.644   7.541   3.790 -0.5699 -0.5128  0.1382
10160TIP3    H130423   5.705   7.514   3.722 -0.7859  0.3068 -0.3952
10160TIP3    H230424   5.670   7.491   3.868  2.2750  1.4521  0.5978
10161TIP3   OH230425   4.576   1.418   6.099 -0.6225 -0.2548 -0.3066
10161TIP3    H130426   4.578   1.495   6.042  0.3360 -0.0217  0.0210
10161TIP3    H230427   4.498   1.370   6.071  0.0545 -0.3854 -2.1256
10162TIP3   OH230428   1.642   0.428   3.211  0.5337 -0.2216 -0.0198
10162TIP3    H130429   1.705   0.388   3.152 -0.5416  0.3058 -1.5844
10162TIP3    H230430   1.693   0.493   3.260  1.1728  0.3748 -1.4333
10163TIP3   OH230431   0.397   1.481   1.762  0.2939 -0.3540 -0.3937
10163TIP3    H130432   0.376   1.388   1.771 -0.9054 -0.4045 -2.8632
10163TIP3    H230433   0.487   1.489   1.793  0.2436 -2.2246  0.3574
10164TIP3   OH230434   2.272   5.765   1.573  0.1522  0.8251  0.0086
10164TIP3    H130435   2.364   5.784   1.596  0.6972  0.0801 -1.4432
10164TIP3    H230436   2.258   5.813   1.491 -0.5670  0.4433 -0.0924
10165TIP3   OH230437   5.391   3.175   4.215  0.3675  0.0078 -0.0816
10165TIP3    H130438   5.375   3.206   4.126  1.3381  0.2859 -0.1706
10165TIP3    H230439   5.487   3.175   4.224  0.3003 -0.5391  0.7768
10166TIP3   OH230440   2.516   3.775   2.360 -0.1887 -0.3864  0.0549
10166TIP3    H130441   2.584   3.806   2.300  0.6336 -0.9809  0.6458
10166TIP3    H230442   2.492   3.689   2.328 -0.9564 -0.0176 -0.3756
10167TIP3   OH230443   7.871   4.350   2.859 -0.3244 -0.4534  0.6057
10167TIP3    H130444   7.941   4.388   2.806 -0.7153  0.2391  0.5736
10167TIP3    H230445   7.875   4.256   2.840  0.8606 -0.4839  0.9306
10168TIP3   OH230446   6.555   2.305   6.085 -0.5193  0.5108  0.5045
10168TIP3    H130447   6.475   2.331   6.130 -0.8262  1.0568 -0.3409
10168TIP3    H230448   6.620   2.371   6.111 -0.7974  1.0495 -0.1385
10169TIP3   OH230449   7.121   5.930   2.122 -0.0195  0.4160  0.1020
10169TIP3    H130450   7.208   5.890   2.121 -1.0699 -2.0643  0.5991
10169TIP3    H230451   7.116   5.974   2.207  0.1886 -0.8623  0.8056
10170TIP3   OH230452   0.934   6.492   4.465 -0.4817  0.1880  0.1527
10170TIP3    H130453   0.926   6.426   4.534  0.5802  1.2755  1.3973
10170TIP3    H230454   0.996   6.556   4.502 -0.5511  1.2430 -1.4886
10171TIP3   OH230455   4.873   2.855   2.468  0.0432  0.3365 -0.3008
10171TIP3    H130456   4.860   2.939   2.422 -1.5382 -0.5917 -1.6625
10171TIP3    H230457   4.919   2.800   2.404  0.3548 -0.1064  0.2963
10172TIP3   OH230458   1.026   0.007   5.444  0.4627  0.5180  0.8530
10172TIP3    H130459   0.963  -0.058   5.412  1.3786 -0.1521  0.3594
10172TIP3    H230460   0.973   0.084   5.464 -0.6158 -0.2755  1.1702
10173TIP3   OH230461   7.906   4.090   1.140 -0.5530 -0.4807 -0.3556
10173TIP3    H130462   7.859   4.010   1.166 -0.2205 -0.3013  0.8339
10173TIP3    H230463   7.846   4.161   1.163 -0.0545 -0.2943  0.3768
10174TIP3   OH230464   7.298   6.974   4.157  0.1701  0.0338  0.0602
10174TIP3    H130465   7.212   6.993   4.193  0.9706 -1.5847  3.1520
10174TIP3    H230466   7.280   6.944   4.068 -2.3975  0.1055  0.4761
10175TIP3   OH230467   0.225   0.808   2.117  0.4303  0.5553 -0.0334
10175TIP3    H130468   0.212   0.832   2.209  0.6168 -0.8946  0.3960
10175TIP3    H230469   0.147   0.757   2.095  1.4571 -1.1577  0.0819
10176TIP3   OH230470   3.060   4.188   6.536 -0.0289  0.2398 -0.0961
10176TIP3    H130471   3.002   4.216   6.466 -0.5112  1.5959  0.8152
10176TIP3    H230472   3.049   4.092   6.539 -2.0401  0.4193 -0.1221
10177TIP3   OH230473   2.221   0.269   5.676 -0.3528 -0.6191 -0.2327
10177TIP3    H130474   2.296   0.213   5.656 -0.5454 -0.2053 -2.3279
10177TIP3    H230475   2.146   0.210   5.678 -0.3869 -0.6196 -1.2230
10178TIP3   OH230476   2.300   1.246   4.720  0.2878 -0.1518 -0.2225
10178TIP3    H130477   2.216   1.205   4.700 -0.5708  1.3083  0.2713
10178TIP3    H230478   2.365   1.185   4.686 -0.9983 -0.3430 -2.4973
10179TIP3   OH230479   4.991   7.102   4.615  0.1128 -0.1597  0.3524
10179TIP3    H130480   5.022   7.048   4.541 -1.2683 -2.5190  1.3713
10179TIP3    H230481   5.027   7.059   4.692 -1.5734 -0.0428  1.2444
10180TIP3   OH230482   7.447   7.293   4.121  0.2382  0.3846 -0.2483
10180TIP3    H130483   7.419   7.241   4.197 -0.0431  0.1325 -0.5225
10180TIP3    H230484   7.542   7.281   4.117  0.0313 -1.3010 -1.1704
10181TIP3   OH230485   5.819   6.313   3.306 -0.0777 -0.5503  0.2369
10181TIP3    H130486   5.841   6.338   3.395  0.5168 -0.7669  0.1565
10181TIP3    H230487   5.882   6.360   3.251 -0.6156 -0.1977 -0.0932
10182TIP3   OH230488   7.848   5.118   1.927  0.1971  0.2237 -0.4134
10182TIP3    H130489   7.773   5.107   1.869 -1.0006 -0.5715  1.2267
10182TIP3    H230490   7.854   5.035   1.975 -0.0657  1.4941  1.9545
10183TIP3   OH230491   5.423   3.590   5.678  0.2016 -0.0572  0.0104
10183TIP3    H130492   5.340   3.570   5.635  1.3379 -0.8238 -1.9653
10183TIP3    H230493   5.408   3.568   5.770 -1.7569 -0.1725 -0.2814
10184TIP3   OH230494   0.089   6.826   0.919  0.2291  0.0229  0.0771
10184TIP3    H130495   0.183   6.845   0.916  0.6377 -1.5609  1.4003
10184TIP3    H230496   0.078   6.771   0.996 -1.3721 -1.9454 -1.4413
10185TIP3   OH230497   1.097   1.997   5.360 -0.4392 -0.7559  0.1436
10185TIP3    H130498   1.136   1.982   5.446 -0.1760 -0.4492  0.0791
10185TIP3    H230499   1.123   1.920   5.309  0.9225 -0.1109 -0.1884
10186TIP3   OH230500   0.331   2.480   0.801  0.2957 -1.0705  0.3653
10186TIP3    H130501   0.296   2.407   0.853  0.8927  0.0175  2.4133
10186TIP3    H230502   0.371   2.538   0.866  2.0316 -0.1255 -1.4611
10187TIP3   OH230503   6.703   2.440   4.466 -1.0155 -0.7100  0.1022
10187TIP3    H130504   6.651   2.368   4.431 -0.2890 -0.2702 -2.0999
10187TIP3    H230505   6.703   2.505   4.395 -1.2561  1.2684  1.8188
10188TIP3   OH230506   7.036   5.291   6.336  0.2744  0.3279 -0.2169
10188TIP3    H130507   7.107   5.245   6.291  2.0145  2.1091  0.5357
10188TIP3    H230508   6.999   5.227   6.395  0.1947 -1.0867 -1.7276
10189TIP3   OH230509   8.044   2.183   1.024  0.2885 -0.7166  0.4462
10189TIP3    H130510   7.983   2.189   0.950  0.7722  1.3786  0.1332
10189TIP3    H230511   8.098   2.107   1.004  0.2758 -0.3197 -1.2878
10190TIP3   OH230512   0.575   4.215   4.746 -0.0407 -0.8141 -0.5854
10190TIP3    H130513   0.632   4.266   4.804  2.1717 -1.5505 -1.9928
10190TIP3    H230514   0.534   4.281   4.690  0.6352 -0.3557 -0.5590
10191TIP3   OH230515   4.225   2.056   4.911 -0.3776 -0.0979 -0.3766
10191TIP3    H130516   4.193   2.131   4.860 -1.4131  1.0475  1.8109
10191TIP3    H230517   4.154   1.993   4.907 -0.3955 -0.0735 -0.4610
10192TIP3   OH230518   1.815   7.288   6.155  0.3561  0.2805  0.3057
10192TIP3    H130519   1.785   7.236   6.080 -1.4911  1.3907  0.2259
10192TIP3    H230520   1.831   7.223   6.224 -1.3114 -0.4727  0.0237
10193TIP3   OH230521   4.207   4.205   2.198  0.0229 -0.7636 -0.3354
10193TIP3    H130522   4.118   4.170   2.193 -0.0931 -0.4072 -0.8167
10193TIP3    H230523   4.234   4.214   2.107  0.3292 -0.3037 -0.1982
10194TIP3   OH230524   4.298   3.995   2.998  0.3345 -0.1606  0.1696
10194TIP3    H130525   4.223   3.937   3.010  1.0042 -1.0478  0.2830
10194TIP3    H230526   4.296   4.019   2.906  1.5981 -2.6973 -0.6343
10195TIP3   OH230527   2.465   0.138   5.689 -0.2034 -0.4643  0.5102
10195TIP3    H130528   2.518   0.062   5.665 -1.6233 -1.3079 -0.0596
10195TIP3    H230529   2.527   0.211   5.689  1.0660 -1.4940  0.4338
10196TIP3   OH230530   0.533   6.352   3.979  0.1223 -0.6514  0.5858
10196TIP3    H130531   0.557   6.428   4.032  0.7028 -2.0621  2.4486
10196TIP3    H230532   0.616   6.320   3.943 -0.1119 -0.4852 -0.1279
10197TIP3   OH230533   2.784   1.628   1.413  0.1801  0.5950  0.0100
10197TIP3    H130534   2.734   1.685   1.472 -0.7471 -0.0326 -0.1535
10197TIP3    H230535   2.835   1.571   1.471 -0.3023  0.3563  0.2024
10198TIP3   OH230536   7.993   0.448   5.502  0.0987 -0.1834  0.0680
10198TIP3    H130537   7.906   0.486   5.499 -0.4966 -1.3751  1.2412
10198TIP3    H230538   7.978   0.353   5.505  1.4205 -0.4048  0.3338
10199TIP3   OH230539   1.391   2.566   4.786 -0.0673  0.5921 -0.1451
10199TIP3    H130540   1.356   2.517   4.712 -1.8291  0.0676  0.9522
10199TIP3    H230541   1.332   2.545   4.858  1.4423  1.2565  1.3648
10200TIP3   OH230542   7.057   6.011   5.525  0.8118  0.1715  0.5501
10200TIP3    H130543   7.095   6.099   5.532 -0.7128  0.9350 -0.1195
10200TIP3    H230544   6.977   6.015   5.577  0.1653 -0.4678 -0.3530
10201TIP3   OH230545   2.691   0.665   5.975 -0.5701  0.0177  0.1537
10201TIP3    H130546   2.684   0.573   6.000 -1.8624 -0.1062 -0.5448
10201TIP3    H230547   2.605   0.685   5.937  0.6492  0.6926 -2.4325
10202TIP3   OH230548   4.297   3.647   0.282 -0.3927 -0.9030 -0.2951
10202TIP3    H130549   4.219   3.702   0.275 -0.9138 -1.5975 -0.1018
10202TIP3    H230550   4.270   3.563   0.244 -0.3975 -1.8166  1.6020
10203TIP3   OH230551   8.060   4.696   3.197 -0.0904  0.1297  0.2453
10203TIP3    H130552   8.119   4.623   3.181 -0.5008  0.1009 -1.3266
10203TIP3    H230553   8.001   4.697   3.121 -0.0116  2.1591  0.1452
10204TIP3   OH230554   7.647   3.795   5.240  0.4038 -0.1480 -0.0520
10204TIP3    H130555   7.729   3.838   5.264  0.4132 -1.2857  2.2104
10204TIP3    H230556   7.632   3.731   5.309 -3.1965  1.0675  0.5167
10205TIP3   OH230557   7.930   0.234   5.733  0.4110 -0.1962 -0.3485
10205TIP3    H130558   7.911   0.162   5.794 -0.5844 -0.6014 -1.1202
10205TIP3    H230559   7.949   0.309   5.790  2.7956 -1.3353  0.5102
10206TIP3   OH230560   2.936   2.136   3.782 -0.0209  0.0026 -0.4636
10206TIP3    H130561   3.013   2.137   3.839  0.7509 -0.0143 -1.4760
10206TIP3    H230562   2.950   2.208   3.721 -2.0202  1.5977  0.8501
10207TIP3   OH230563   3.055   1.452   5.100  0.1393 -0.4589  0.3903
10207TIP3    H130564   2.971   1.474   5.140 -0.2730  2.3449 -1.6476
10207TIP3    H230565   3.115   1.519   5.132  0.5795 -0.1125 -1.0670
10208TIP3   OH230566   4.770   2.520   6.581  0.5230 -0.2179 -0.5239
10208TIP3    H130567   4.847   2.472   6.611  0.1842 -1.3752 -1.4078
10208TIP3    H230568   4.712   2.523   6.657  1.4895  0.8429  0.2112
10209TIP3   OH230569   5.879   2.376   6.544  0.3204  0.1071 -0.4994
10209TIP3    H130570   5.909   2.294   6.583 -1.0133 -0.2395 -0.1203
10209TIP3    H230571   5.909   2.444   6.604  1.6474 -0.0595 -0.9412
10210TIP3   OH230572   0.719   7.404   1.670  0.5938 -0.4223 -0.5081
10210TIP3    H130573   0.728   7.325   1.617 -0.3029 -0.8501 -0.0461
10210TIP3    H230574   0.776   7.468   1.628  1.2994 -1.2944 -0.9219
10211TIP3   OH230575   7.674   1.061   2.036  0.0800 -0.0153 -0.0428
10211TIP3    H130576   7.678   1.002   2.111  0.7319 -1.7063 -1.3373
10211TIP3    H230577   7.742   1.127   2.052  0.7371 -0.8104  0.4884
10212TIP3   OH230578   4.759   2.636   1.362 -0.2741 -0.1952  0.3429
10212TIP3    H130579   4.701   2.649   1.288  0.3259 -1.7380 -0.4391
10212TIP3    H230580   4.837   2.688   1.342 -0.0673 -0.6977 -0.1785
10213TIP3   OH230581   5.815   2.939   4.249  0.4880  0.2992  0.6477
10213TIP3    H130582   5.765   2.989   4.184  0.2438 -0.0906  0.5319
10213TIP3    H230583   5.794   2.981   4.333  1.2180  1.1378  0.4267
10214TIP3   OH230584   2.171   0.834   0.294  0.5434  0.1849 -0.6034
10214TIP3    H130585   2.078   0.818   0.308  0.9234 -0.4986  1.6500
10214TIP3    H230586   2.192   0.787   0.213 -0.7840 -0.9397 -0.3431
10215TIP3   OH230587   5.072   5.931   5.317  0.3955  0.5660 -0.2737
10215TIP3    H130588   5.077   5.993   5.389  2.6784 -1.2249  1.2828
10215TIP3    H230589   5.161   5.929   5.281 -0.1363 -0.2921 -1.6437
10216TIP3   OH230590   3.988   4.737   6.324  0.2062  0.2791 -0.1461
10216TIP3    H130591   3.962   4.696   6.406 -4.1368 -0.2507 -1.5184
10216TIP3    H230592   3.978   4.668   6.258  1.5763  1.2147 -1.3944
10217TIP3   OH230593   0.049   7.118   4.657 -0.1431 -0.2807 -0.0372
10217TIP3    H130594  -0.030   7.122   4.603 -1.1056 -0.3411  1.3332
10217TIP3    H230595   0.106   7.186   4.621 -0.7716 -0.2898 -1.0906
10218TIP3   OH230596   5.785   2.919   3.340 -0.1843 -0.7011 -0.3630
10218TIP3    H130597   5.698   2.952   3.362  0.1001  0.1116 -0.4062
10218TIP3    H230598   5.773   2.825   3.330 -0.9268 -0.6847  0.2656
10219TIP3   OH230599   3.190   2.320   4.812 -0.2191 -0.2866  0.5381
10219TIP3    H130600   3.124   2.324   4.742  0.7030 -0.6612 -0.3881
10219TIP3    H230601   3.222   2.409   4.820 -0.7595 -0.1244  0.9127
10220TIP3   OH230602   1.520   7.592   2.362  0.7449  0.2012 -0.4035
10220TIP3    H130603   1.454   7.523   2.359  1.0490 -0.1127  0.0872
10220TIP3    H230604   1.472   7.671   2.337 -0.1563  0.2322  1.2499
10221TIP3   OH230605   0.771   6.915   4.714 -0.2517 -0.1890  0.2417
10221TIP3    H130606   0.683   6.948   4.696 -2.2256 -3.1821  3.3735
10221TIP3    H230607   0.790   6.943   4.804  1.0427 -1.4333  0.4018
10222TIP3   OH230608   1.799   2.153   3.695  0.0104 -0.0548  0.0865
10222TIP3    H130609   1.738   2.125   3.626  0.3706 -0.3935 -0.1007
10222TIP3    H230610   1.775   2.243   3.713  1.2901  0.7929 -2.0406
10223TIP3   OH230611   1.178   3.824   4.946 -0.1860  0.2932 -0.3752
10223TIP3    H130612   1.134   3.875   4.878  0.5101  2.1290  0.4836
10223TIP3    H230613   1.217   3.889   5.004  2.1145 -1.2196 -0.0651
10224TIP3   OH230614   6.718   7.552   4.456 -0.0586 -0.4710  0.0526
10224TIP3    H130615   6.784   7.554   4.387  1.7453 -1.3031  1.6512
10224TIP3    H230616   6.662   7.477   4.435  1.7676 -2.0482  0.5701
10225TIP3   OH230617   1.550   1.964   5.054 -0.0469 -0.0504 -0.1714
10225TIP3    H130618   1.627   1.917   5.023  0.0480  0.5427 -0.8576
10225TIP3    H230619   1.482   1.897   5.061  0.1678 -0.3417 -0.8367
10226TIP3   OH230620   3.752   3.401   2.339 -0.5071 -0.1052  0.6386
10226TIP3    H130621   3.790   3.438   2.418 -0.0469 -0.0028  0.3728
10226TIP3    H230622   3.823   3.350   2.300 -0.5676  0.2758  0.0156
10227TIP3   OH230623   0.368   4.731   6.060 -0.4805  0.0202 -0.0610
10227TIP3    H130624   0.354   4.715   5.967 -1.3163  0.2323  0.0191
10227TIP3    H230625   0.300   4.680   6.104 -0.3365  0.2224  0.4081
10228TIP3   OH230626   0.392   0.951   1.272 -0.2630 -0.0737 -0.1772
10228TIP3    H130627   0.348   0.892   1.333 -0.0051  1.6789  1.8532
10228TIP3    H230628   0.327   0.967   1.203 -1.3396 -0.5819  0.6875
10229TIP3   OH230629   0.057   2.633   1.422  0.0317 -0.2699 -0.1445
10229TIP3    H130630   0.052   2.684   1.341 -0.2185 -1.6431 -1.0295
10229TIP3    H230631   0.038   2.696   1.491  0.0805  0.9033 -1.1657
10230TIP3   OH230632   2.138   7.233   3.810  0.2290  0.1089 -0.0769
10230TIP3    H130633   2.065   7.223   3.748  0.2500 -0.6510  0.0155
10230TIP3    H230634   2.157   7.144   3.839  0.2206  0.4564  1.0245
10231TIP3   OH230635   2.212   5.995   2.756 -0.6977 -0.4977 -0.2656
10231TIP3    H130636   2.228   6.050   2.833 -0.0178 -2.4351  1.0619
10231TIP3    H230637   2.253   5.912   2.778 -1.7720 -1.5828 -2.1493
10232TIP3   OH230638   5.451   1.176   2.854 -0.1528 -0.4986 -0.0843
10232TIP3    H130639   5.420   1.249   2.908  1.3197 -1.1365  1.6980
10232TIP3    H230640   5.534   1.206   2.818  1.4352 -1.9174  2.2119
10233TIP3   OH230641   2.302   2.278   1.331 -0.4424 -0.4472  0.8575
10233TIP3    H130642   2.351   2.301   1.252 -0.9245  0.3164  0.7726
10233TIP3    H230643   2.369   2.249   1.393 -0.1479 -2.0698 -0.1614
10234TIP3   OH230644   1.747   2.214   4.233  0.1627 -0.8819 -0.7926
10234TIP3    H130645   1.805   2.152   4.277  1.1871  0.0473 -0.7813
10234TIP3    H230646   1.725   2.279   4.301 -0.4100 -0.8959 -0.9579
10235TIP3   OH230647   3.759   7.277   0.955 -0.0249 -0.3896  0.4118
10235TIP3    H130648   3.666   7.292   0.938  0.2293  1.2428  0.2110
10235TIP3    H230649   3.767   7.183   0.965 -1.2016 -0.9141 -2.6167
10236TIP3   OH230650   0.522   1.586   3.476 -0.2995  0.1928 -0.7177
10236TIP3    H130651   0.517   1.536   3.557  1.2394  1.9409  0.5479
10236TIP3    H230652   0.489   1.527   3.409 -1.9399 -1.2053  1.2072
10237TIP3   OH230653   4.132   5.862   1.585  0.1375 -0.2543 -0.3648
10237TIP3    H130654   4.085   5.852   1.668  0.2174 -2.6360 -0.5217
10237TIP3    H230655   4.082   5.927   1.537 -1.9259 -1.3027  0.2413
10238TIP3   OH230656   5.511   2.193   0.522  0.2623  0.0609 -0.3874
10238TIP3    H130657   5.478   2.185   0.612  0.6935  1.4471 -0.0776
10238TIP3    H230658   5.442   2.154   0.468 -0.0243 -0.7525  0.5383
10239TIP3   OH230659   7.208   0.160   3.106  0.1548 -0.1498 -0.7502
10239TIP3    H130660   7.248   0.202   3.182 -0.3512 -1.4560  0.2691
10239TIP3    H230661   7.167   0.232   3.058 -1.2592  0.5032  1.2940
10240TIP3   OH230662   1.095   6.802   5.190 -0.3652 -0.0580 -0.0714
10240TIP3    H130663   1.044   6.872   5.148  0.0181 -0.3604 -1.0732
10240TIP3    H230664   1.183   6.812   5.153  0.5493  0.9179  2.1573
10241TIP3   OH230665   4.501   4.291   2.815  0.1121 -0.2460 -0.2200
10241TIP3    H130666   4.407   4.292   2.835  0.0124 -2.9314 -0.2184
10241TIP3    H230667   4.542   4.273   2.900  0.4730 -1.0838 -0.5717
10242TIP3   OH230668   4.368   7.694   2.922 -0.1354 -0.4989  0.7575
10242TIP3    H130669   4.356   7.600   2.933 -2.1698 -0.0249  3.7618
10242TIP3    H230670   4.394   7.726   3.008 -1.2529  1.8665  0.3135
10243TIP3   OH230671   0.160   4.782   2.140 -0.2525 -0.4699  0.2731
10243TIP3    H130672   0.118   4.816   2.061  4.4008 -3.2622 -3.9650
10243TIP3    H230673   0.108   4.706   2.166 -0.4398 -1.1239 -1.8926
10244TIP3   OH230674   7.491   4.345   5.021  0.1626  0.5077  0.3742
10244TIP3    H130675   7.461   4.264   5.061 -1.2175  2.2237  3.0767
10244TIP3    H230676   7.583   4.328   4.999 -0.5707 -2.3331 -0.9641
10245TIP3   OH230677   4.776   0.433   3.421  0.0158 -0.0971 -0.2018
10245TIP3    H130678   4.797   0.342   3.438  0.1796 -0.2551 -1.1941
10245TIP3    H230679   4.697   0.450   3.474  0.0848 -0.7520  0.1215
10246TIP3   OH230680   0.238   7.405   5.667  0.1131  0.0794 -0.1920
10246TIP3    H130681   0.214   7.391   5.575 -1.7049  0.4262  0.1797
10246TIP3    H230682   0.160   7.377   5.716  1.2316 -0.5783  1.2925
10247TIP3   OH230683   2.022   1.363   1.694 -0.0448  0.0346  0.2414
10247TIP3    H130684   2.077   1.392   1.622 -1.1019 -0.3496 -0.7455
10247TIP3    H230685   2.082   1.355   1.768  0.7234  2.3883 -0.0238
10248TIP3   OH230686   4.040   6.879   0.458 -0.5080  0.4164 -0.2996
10248TIP3    H130687   4.092   6.959   0.470 -0.1727  0.0293  0.9338
10248TIP3    H230688   4.088   6.829   0.392  0.3448  0.3534  0.3562
10249TIP3   OH230689   5.476   2.920   3.473  0.1852  0.2922  0.3074
10249TIP3    H130690   5.438   3.004   3.497  0.4979  0.3145  0.7467
10249TIP3    H230691   5.458   2.910   3.380 -0.5309  0.4858  0.4204
10250TIP3   OH230692   4.760   2.130   1.025  1.0299 -0.2260  0.1243
10250TIP3    H130693   4.717   2.192   0.966  0.3115 -0.2353  0.6229
10250TIP3    H230694   4.799   2.065   0.967  1.3444  0.3976 -0.3844
10251TIP3   OH230695   0.238   1.042   0.497 -0.2805 -0.0185 -0.5561
10251TIP3    H130696   0.213   1.007   0.582 -1.4291 -0.4799 -1.0696
10251TIP3    H230697   0.250   0.965   0.441  1.6337  0.2167 -0.5301
10252TIP3   OH230698   2.405   5.784   3.246 -0.3457 -0.2533  0.1426
10252TIP3    H130699   2.360   5.818   3.324 -0.8143  1.5788 -0.8679
10252TIP3    H230700   2.492   5.824   3.250  0.8845 -2.8157  1.4345
10253TIP3   OH230701   1.190   5.330   1.666  0.2586 -0.1332  0.1437
10253TIP3    H130702   1.215   5.370   1.583 -1.0073  0.1018 -0.1504
10253TIP3    H230703   1.265   5.345   1.724  0.3475  1.5150 -0.3416
10254TIP3   OH230704   5.501   5.226   5.053  0.3086 -0.1603  1.1702
10254TIP3    H130705   5.458   5.146   5.023  1.1762 -0.0933 -0.3734
10254TIP3    H230706   5.432   5.292   5.053  0.2031 -0.2403 -0.4682
10255TIP3   OH230707   3.801   6.739   0.805 -0.1190  0.0538 -0.0463
10255TIP3    H130708   3.890   6.775   0.795  0.8955 -1.2095  3.0825
10255TIP3    H230709   3.816   6.650   0.839 -2.4559  0.9904  4.0716
10256TIP3   OH230710   7.753   0.188   0.423 -0.6819 -0.2820 -0.8934
10256TIP3    H130711   7.760   0.122   0.353 -2.2769 -0.7788 -0.6330
10256TIP3    H230712   7.826   0.169   0.481 -1.4410 -2.2939 -0.4939
10257TIP3   OH230713   8.167   6.085   3.513  0.5740  0.2948  0.6251
10257TIP3    H130714   8.249   6.038   3.494  0.5652  0.7805 -0.7351
10257TIP3    H230715   8.106   6.016   3.539  0.8152 -0.3586 -0.4495
10258TIP3   OH230716   1.311   5.370   4.003  0.4838 -0.1527 -0.6356
10258TIP3    H130717   1.358   5.333   3.928  0.2864 -1.1123 -0.2916
10258TIP3    H230718   1.340   5.319   4.078  2.5797  2.3591  0.4234
10259TIP3   OH230719   5.742   6.510   4.948  0.0150 -0.0450  0.0502
10259TIP3    H130720   5.793   6.563   4.887  1.3136 -0.4939  0.6989
10259TIP3    H230721   5.651   6.531   4.929  0.4445  0.8282 -1.1132
10260TIP3   OH230722   3.227   3.105   3.826 -0.0646 -0.2113 -0.0193
10260TIP3    H130723   3.228   3.114   3.921 -1.9971  1.0082 -0.0853
10260TIP3    H230724   3.312   3.141   3.798  0.5213 -0.5732  1.2099
10261TIP3   OH230725   1.206   5.126   0.921 -0.2986 -0.3832 -0.3322
10261TIP3    H130726   1.174   5.103   1.008 -2.0389 -1.9883 -1.3213
10261TIP3    H230727   1.258   5.050   0.894  3.6325  1.6781  0.7520
10262TIP3   OH230728   7.405   7.102   0.222 -0.1380 -0.6090 -0.5344
10262TIP3    H130729   7.468   7.095   0.295  0.4986  3.2335 -0.5204
10262TIP3    H230730   7.459   7.126   0.147 -1.2852  0.0172 -1.1765
10263TIP3   OH230731   3.608   3.025   0.216  0.3461 -0.6178  0.1357
10263TIP3    H130732   3.518   2.996   0.209  0.6519 -1.3883 -0.9293
10263TIP3    H230733   3.659   2.956   0.173  1.4529 -0.2567  0.8202
10264TIP3   OH230734   8.153   2.464   1.531  0.2219 -0.9550 -0.3303
10264TIP3    H130735   8.237   2.496   1.500 -0.7734  0.0494 -2.1311
10264TIP3    H230736   8.163   2.369   1.536  1.6854 -0.7930  0.2824
10265TIP3   OH230737   0.127   2.780   2.221  0.2376  0.2744 -0.0562
10265TIP3    H130738   0.091   2.847   2.164 -0.6504 -1.2414 -1.3642
10265TIP3    H230739   0.142   2.705   2.163 -1.6265 -1.6772  1.8147
10266TIP3   OH230740   3.907   5.306   0.549  0.1516 -0.0857 -0.2366
10266TIP3    H130741   3.906   5.401   0.564 -0.8562 -0.2040  0.5068
10266TIP3    H230742   3.815   5.280   0.551  0.5028 -1.3457  1.2841
10267TIP3   OH230743   5.050   4.740   5.266 -0.3863 -0.3723  0.2978
10267TIP3    H130744   4.967   4.695   5.284 -1.4286 -0.1296 -3.1996
10267TIP3    H230745   5.026   4.833   5.263 -1.0060 -0.4679 -4.2816
10268TIP3   OH230746   5.757   5.294   4.996 -0.0195 -0.0378  0.4427
10268TIP3    H130747   5.759   5.296   4.900  1.0902  0.2043  0.4543
10268TIP3    H230748   5.666   5.274   5.018 -0.7818  1.9929 -0.6190
10269TIP3   OH230749   0.676   1.202   3.162 -0.6234  0.6019  0.8192
10269TIP3    H130750   0.592   1.155   3.166 -0.1346 -0.2564  1.2096
10269TIP3    H230751   0.694   1.226   3.253 -1.3138  2.3894  0.5255
10270TIP3   OH230752   4.414   5.807   3.324  0.2371  0.2660 -0.9275
10270TIP3    H130753   4.382   5.829   3.412 -0.9238  0.5676 -1.4073
10270TIP3    H230754   4.509   5.801   3.334  0.0465 -0.8001  0.5847
10271TIP3   OH230755   2.433   0.860   2.186  0.0199 -0.0196  0.6137
10271TIP3    H130756   2.515   0.906   2.205 -0.6428  0.8942  1.2995
10271TIP3    H230757   2.391   0.847   2.271  1.1649 -3.9084  0.7821
10272TIP3   OH230758   3.307   5.718   3.473 -0.1265  0.4286 -0.3546
10272TIP3    H130759   3.258   5.638   3.494 -2.3187  0.8579 -3.1385
10272TIP3    H230760   3.357   5.695   3.395 -1.2814  1.8579 -1.5798
10273TIP3   OH230761   5.937   5.774   0.117 -0.3297 -0.3020 -0.2157
10273TIP3    H130762   5.912   5.846   0.059 -1.5010 -0.1022  0.5176
10273TIP3    H230763   5.968   5.706   0.057  0.7625  0.7667 -0.9229
10274TIP3   OH230764   2.861   5.541   5.790  0.2835  0.0832 -0.0573
10274TIP3    H130765   2.929   5.567   5.853  0.1631  0.3296 -0.0273
10274TIP3    H230766   2.897   5.566   5.705  0.4879 -0.3380 -0.0989
10275TIP3   OH230767   0.229   7.577   6.796  0.0609  0.6796  0.3158
10275TIP3    H130768   0.324   7.582   6.804  0.3855 -1.6016 -1.2664
10275TIP3    H230769   0.212   7.600   6.704 -0.8179  0.2010  0.3507
10276TIP3   OH230770   5.372   7.344   3.272  0.3531 -0.7672 -0.0075
10276TIP3    H130771   5.423   7.286   3.217 -0.7543 -2.5810  0.7904
10276TIP3    H230772   5.381   7.308   3.360 -0.4521  0.2176  0.5079
10277TIP3   OH230773   6.221   7.715   0.862 -0.3726  0.3487 -0.0313
10277TIP3    H130774   6.295   7.759   0.820 -0.6323 -0.8175 -1.8215
10277TIP3    H230775   6.237   7.622   0.846 -1.4089 -0.0178  0.9608
10278TIP3   OH230776   4.857   4.247   1.289 -0.2466 -0.4599 -0.4436
10278TIP3    H130777   4.865   4.169   1.344 -0.9297 -1.4352 -1.6705
10278TIP3    H230778   4.815   4.312   1.345  1.7497 -0.4001  1.1012
10279TIP3   OH230779   8.270   7.575   2.530  0.0539 -0.3311 -0.3727
10279TIP3    H130780   8.268   7.571   2.434 -1.1241  2.4504 -0.5626
10279TIP3    H230781   8.264   7.668   2.550  0.6340 -0.8097  2.4370
10280TIP3   OH230782   7.145   6.141   0.362 -0.0511 -0.2002  0.6075
10280TIP3    H130783   7.220   6.179   0.316  1.1285 -0.6944  2.0381
10280TIP3    H230784   7.165   6.048   0.370 -1.6799 -0.7040 -0.5271
10281TIP3   OH230785   1.399   3.731   4.154  0.2703 -0.6160  0.4408
10281TIP3    H130786   1.392   3.801   4.089  0.3464 -0.2897  0.7822
10281TIP3    H230787   1.390   3.775   4.239  0.5843 -0.9809  0.6689
10282TIP3   OH230788   2.626   1.785   4.263  0.1112  0.4002 -0.3170
10282TIP3    H130789   2.631   1.699   4.221  1.0933  0.3284 -0.0945
10282TIP3    H230790   2.711   1.825   4.245 -0.2047  1.1764 -0.1058
10283TIP3   OH230791   2.247   2.981   0.957 -0.4573 -0.0654 -0.0257
10283TIP3    H130792   2.270   2.956   1.047  0.8250  1.0261 -0.0227
10283TIP3    H230793   2.173   2.924   0.935 -0.7679 -0.4019  1.6967
10284TIP3   OH230794   0.176   5.382   4.341 -0.4447  0.0387  0.1969
10284TIP3    H130795   0.097   5.410   4.296 -0.1780  0.2648 -0.1383
10284TIP3    H230796   0.247   5.431   4.299 -0.0331 -0.7503 -0.0588
10285TIP3   OH230797   3.529   5.671   4.842 -0.1915  0.3492 -0.3184
10285TIP3    H130798   3.501   5.583   4.865  0.1208  0.1450 -0.7098
10285TIP3    H230799   3.469   5.697   4.772  0.6659 -0.1452 -1.2594
10286TIP3   OH230800   1.014   6.911   2.229 -0.7384 -0.0408 -0.0165
10286TIP3    H130801   1.021   6.827   2.183 -1.4200 -1.4205  2.2378
10286TIP3    H230802   0.953   6.962   2.176 -0.8143 -1.2069 -1.1062
10287TIP3   OH230803   2.753   4.837   0.224 -0.1838  0.2760  0.0835
10287TIP3    H130804   2.688   4.824   0.155 -1.5088 -0.4489  1.4292
10287TIP3    H230805   2.739   4.764   0.284  0.8656  0.9498  1.1927
10288TIP3   OH230806   8.265   3.782   6.153 -0.1546 -0.3336  0.5465
10288TIP3    H130807   8.213   3.744   6.081 -0.9670 -1.1461  1.5287
10288TIP3    H230808   8.313   3.708   6.189  2.3941  0.5321 -0.8319
10289TIP3   OH230809   2.038   3.370   0.032  0.0645 -0.2815 -0.4294
10289TIP3    H130810   2.042   3.458   0.070  0.3722  0.0421 -1.1898
10289TIP3    H230811   2.004   3.315   0.102  0.2833  0.3681  0.1983
10290TIP3   OH230812   1.191   4.869   0.446 -0.2263  0.1951 -0.2929
10290TIP3    H130813   1.122   4.930   0.472 -1.7209 -1.7285  0.5489
10290TIP3    H230814   1.165   4.839   0.359  0.0595  0.1375 -0.3587
10291TIP3   OH230815   3.245   5.647   2.578  0.1194 -0.1471  0.2638
10291TIP3    H130816   3.274   5.591   2.650 -0.1695  0.2852  0.7156
10291TIP3    H230817   3.277   5.734   2.600 -0.5745  0.1250  0.2236
10292TIP3   OH230818   3.425   6.404   0.728 -0.1001  0.0172  0.1884
10292TIP3    H130819   3.461   6.474   0.783  0.8616  3.3438 -4.0661
10292TIP3    H230820   3.501   6.357   0.696 -0.4997 -0.7852  0.4000
10293TIP3   OH230821   7.822   4.597   2.309  1.1276  0.0520 -0.1329
10293TIP3    H130822   7.876   4.535   2.358  1.1627 -0.9553 -1.4003
10293TIP3    H230823   7.804   4.553   2.226 -1.2720  0.5481  0.0508
10294TIP3   OH230824   6.686   0.025   3.448 -0.0061 -0.0933  0.3172
10294TIP3    H130825   6.604   0.074   3.442  0.0103 -0.1924 -0.8701
10294TIP3    H230826   6.744   0.082   3.500 -0.5097  0.4014  0.3446
10295TIP3   OH230827   0.711   5.970   6.116  0.1445 -0.1823 -0.3542
10295TIP3    H130828   0.767   5.932   6.185 -0.3479 -0.6968 -0.2289
10295TIP3    H230829   0.624   5.937   6.136 -0.1884  0.5451 -0.6058
10296TIP3   OH230830   1.343   3.204   0.892 -1.0009  0.5752 -0.2001
10296TIP3    H130831   1.416   3.157   0.852 -0.4326  2.4426 -1.5163
10296TIP3    H230832   1.384   3.282   0.930 -1.7527 -0.3493  2.8199
10297TIP3   OH230833   7.182   6.961   2.193  0.4573  0.2262  0.6238
10297TIP3    H130834   7.184   7.049   2.155 -1.2160 -0.0903 -0.3302
10297TIP3    H230835   7.221   6.905   2.127 -0.9990 -0.0981 -0.0126
10298TIP3   OH230836   3.509   1.332   5.607  0.8294  0.2893 -0.1824
10298TIP3    H130837   3.601   1.310   5.591  0.8641  0.6505 -0.4805
10298TIP3    H230838   3.511   1.415   5.654  0.7085 -0.5205  1.3031
10299TIP3   OH230839   8.058   1.786   1.280  0.1354 -0.0147  0.2347
10299TIP3    H130840   8.053   1.692   1.297 -1.2839 -0.1114 -0.5485
10299TIP3    H230841   7.968   1.817   1.289 -0.4610  0.3332 -4.2713
10300TIP3   OH230842   5.096   3.378   3.787  0.2695  0.0907  0.2460
10300TIP3    H130843   5.007   3.345   3.799  1.1845 -2.2382  1.2966
10300TIP3    H230844   5.120   3.414   3.872  0.0295  1.5871 -0.3016
10301TIP3   OH230845   6.349   2.852   3.634 -0.0522  1.0485  0.2076
10301TIP3    H130846   6.352   2.833   3.540  1.5434  2.2684 -0.0367
10301TIP3    H230847   6.274   2.910   3.644 -1.9320 -1.2560  0.1786
10302TIP3   OH230848   7.600   4.334   3.690  0.0070 -0.0159  0.3004
10302TIP3    H130849   7.569   4.278   3.619 -1.7538  0.7363  0.4288
10302TIP3    H230850   7.605   4.422   3.651 -2.0733  0.6261  1.3167
10303TIP3   OH230851   0.226   1.937   3.579 -0.5480  0.1667 -0.0734
10303TIP3    H130852   0.221   1.994   3.503  1.5333  0.1609 -0.2901
10303TIP3    H230853   0.309   1.961   3.621  0.0766 -2.2229  0.2105
10304TIP3   OH230854   4.690   2.674   2.590 -0.5426  0.3175 -0.3873
10304TIP3    H130855   4.656   2.701   2.675  0.8211 -1.0248  0.6450
10304TIP3    H230856   4.742   2.749   2.560 -0.1634  0.4076  0.4697
10305TIP3   OH230857   7.164   1.148   6.620  0.4074  0.7722 -0.4646
10305TIP3    H130858   7.072   1.130   6.601  0.4622  0.4408 -0.4194
10305TIP3    H230859   7.163   1.231   6.668  0.1184  0.6587 -0.2772
10306TIP3   OH230860   4.436   7.472   3.279  0.4733 -0.4489  0.1734
10306TIP3    H130861   4.531   7.468   3.288  0.3810  0.7958  2.4198
10306TIP3    H230862   4.417   7.564   3.262 -0.3040 -0.8898 -1.6071
10307TIP3   OH230863   7.685   3.221   2.663  0.0435 -0.0534  0.1982
10307TIP3    H130864   7.609   3.215   2.605  0.4869  0.4087 -0.4452
10307TIP3    H230865   7.661   3.169   2.740 -0.3094 -1.1914 -0.6522
10308TIP3   OH230866   0.773   4.217   6.591  0.2509  0.3571  0.6562
10308TIP3    H130867   0.765   4.174   6.676  2.8839  0.4941  1.0487
10308TIP3    H230868   0.804   4.305   6.610  1.7794  0.1060 -0.4273
10309TIP3   OH230869   6.757   1.105   5.821  0.8088  0.0671 -0.8734
10309TIP3    H130870   6.723   1.107   5.911  1.6393 -0.4352 -0.5369
10309TIP3    H230871   6.808   1.186   5.814  2.6246 -0.9551 -0.1092
10310TIP3   OH230872   4.325   0.154   0.933  0.4650  0.0274  0.0838
10310TIP3    H130873   4.294   0.086   0.873  0.6662 -0.4881  0.5489
10310TIP3    H230874   4.340   0.230   0.878 -0.8880  0.0642 -0.2792
10311TIP3   OH230875   0.907   3.861   1.757  0.0754 -0.3680 -0.1698
10311TIP3    H130876   0.880   3.890   1.670  0.6017 -0.1980 -0.2797
10311TIP3    H230877   0.826   3.857   1.807 -0.2868 -0.8566 -0.7765
10312TIP3   OH230878   6.737   5.510   5.142  0.2166  0.4121  0.1267
10312TIP3    H130879   6.729   5.590   5.090  0.3910  0.6515  0.4612
10312TIP3    H230880   6.749   5.440   5.078  1.5768  0.8433 -0.1341
10313TIP3   OH230881   2.230   5.078   3.772 -0.6723  0.2986 -0.4735
10313TIP3    H130882   2.203   5.158   3.727 -1.3006  0.5046  0.2457
10313TIP3    H230883   2.305   5.046   3.721  1.0504  2.5271  0.4955
10314TIP3   OH230884   6.047   1.567   2.282 -0.3694  0.4040  0.4381
10314TIP3    H130885   6.058   1.593   2.374  0.2130 -1.3358  0.8899
10314TIP3    H230886   5.962   1.604   2.258 -2.3185 -2.1134  2.8406
10315TIP3   OH230887   1.067   3.955   6.769  0.3913  0.4491  0.7847
10315TIP3    H130888   1.142   3.932   6.823  0.9493  1.8890  0.6680
10315TIP3    H230889   1.098   3.943   6.679  0.8264  1.9637  0.7109
10316TIP3   OH230890   2.532   3.374   0.707 -0.9535 -0.7546 -0.1794
10316TIP3    H130891   2.604   3.437   0.716 -0.3240 -1.6245  1.3134
10316TIP3    H230892   2.512   3.349   0.797 -2.0820 -1.7041 -0.6806
10317TIP3   OH230893   2.096   2.580   3.858 -0.2912 -0.2240  0.3687
10317TIP3    H130894   2.158   2.612   3.924 -1.8456  1.1565  1.2283
10317TIP3    H230895   2.053   2.506   3.900 -2.1479  1.3991  1.4763
10318TIP3   OH230896   6.141   2.403   2.973 -0.3732  0.0422  0.2169
10318TIP3    H130897   6.187   2.320   2.963  1.5581  0.9745  0.8512
10318TIP3    H230898   6.100   2.418   2.888 -0.0474 -1.1494 -0.1743
10319TIP3   OH230899   4.213   2.661   0.307 -0.4820 -0.6579  0.0697
10319TIP3    H130900   4.286   2.654   0.245 -0.3284  0.2815  0.1277
10319TIP3    H230901   4.139   2.619   0.263 -0.1564 -0.7503 -0.3937
10320TIP3   OH230902   6.652   4.202   5.028 -0.7343  0.1819  0.0872
10320TIP3    H130903   6.686   4.144   4.960 -2.4251 -0.3820 -0.3256
10320TIP3    H230904   6.592   4.148   5.079 -0.1663  0.8322  1.5057
10321TIP3   OH230905   0.139   5.765   5.803 -0.3879 -0.4828 -0.2320
10321TIP3    H130906   0.106   5.751   5.892  0.1084  0.6588  0.1407
10321TIP3    H230907   0.060   5.765   5.749 -0.8102  0.0306  0.3666
10322TIP3   OH230908   5.562   6.747   2.391  0.6653 -0.9335 -0.0390
10322TIP3    H130909   5.516   6.793   2.320  3.1068  0.0728 -1.0683
10322TIP3    H230910   5.551   6.804   2.467  1.1088 -0.1326 -0.5561
10323TIP3   OH230911   5.939   2.665   3.600 -0.7567  0.0636  0.5507
10323TIP3    H130912   5.967   2.582   3.638  0.0203 -0.0645 -0.2727
10323TIP3    H230913   5.961   2.731   3.667  1.3649 -0.0513  0.0492
10324TIP3   OH230914   5.197   6.365   3.108 -0.3476 -0.0228  0.0573
10324TIP3    H130915   5.124   6.401   3.057  0.4095  1.2662 -0.1707
10324TIP3    H230916   5.176   6.273   3.119 -2.3859  0.4653  0.6408
10325TIP3   OH230917   1.640   3.157   2.828 -0.0363 -0.4251  0.3214
10325TIP3    H130918   1.654   3.076   2.877 -2.1358 -0.1110  1.5626
10325TIP3    H230919   1.696   3.221   2.872  0.8528 -0.9441 -0.0228
10326TIP3   OH230920   5.305   4.627   6.397  0.0089  0.0912 -0.1305
10326TIP3    H130921   5.399   4.632   6.380  0.8548 -1.1233  3.4170
10326TIP3    H230922   5.297   4.638   6.492 -3.5697  1.1288 -0.4107
10327TIP3   OH230923   3.500   0.484   0.824 -0.0851  0.1408 -0.1048
10327TIP3    H130924   3.595   0.495   0.818 -0.1212  0.6924  0.1897
10327TIP3    H230925   3.484   0.461   0.916 -0.3904  2.1180  0.4014
10328TIP3   OH230926   7.778   5.803   4.284 -0.0547  0.0334  0.0431
10328TIP3    H130927   7.690   5.766   4.291 -0.0309 -0.0195  0.0626
10328TIP3    H230928   7.836   5.732   4.310 -0.0453  0.2995  0.7813
10329TIP3   OH230929   1.304   3.461   4.337 -0.1852 -0.1116 -0.0492
10329TIP3    H130930   1.249   3.534   4.307  0.4271  0.3590 -0.0479
10329TIP3    H230931   1.309   3.473   4.432  1.3346  0.8736 -0.2254
10330TIP3   OH230932   3.084   4.286   6.036  0.0120  0.1719  0.3764
10330TIP3    H130933   3.100   4.228   6.111  0.1900 -1.5479 -0.9250
10330TIP3    H230934   3.170   4.321   6.014  0.4727 -1.4521 -0.6307
10331TIP3   OH230935   2.627   7.082   6.008  0.0641 -0.0007  0.2811
10331TIP3    H130936   2.706   7.135   5.995  0.0996 -0.4067 -1.5107
10331TIP3    H230937   2.653   6.994   5.982 -0.9113 -0.1851 -0.1106
10332TIP3   OH230938   1.280   3.030   1.813 -0.0088  0.2230  0.3843
10332TIP3    H130939   1.201   3.080   1.793 -1.3450 -1.6574  0.6421
10332TIP3    H230940   1.339   3.093   1.853 -1.5490  1.6075  0.5854
10333TIP3   OH230941   5.760   0.824   6.251 -0.1376  0.5655 -0.5531
10333TIP3    H130942   5.747   0.733   6.280  1.9701  0.4528  0.2044
10333TIP3    H230943   5.680   0.845   6.204 -1.6113 -0.9413  1.1380
10334TIP3   OH230944   6.954   6.555   4.555  0.2463  0.3623  0.0510
10334TIP3    H130945   6.866   6.557   4.592  0.2527  0.8885  0.0541
10334TIP3    H230946   6.991   6.640   4.578  0.4204  0.5146 -0.7467
10335TIP3   OH230947   0.754   6.635   2.558  0.1964  0.3745  0.1508
10335TIP3    H130948   0.833   6.612   2.508 -0.2365 -1.5071  0.2466
10335TIP3    H230949   0.721   6.714   2.515  1.2012  0.2253 -0.9645
10336TIP3   OH230950   1.155   0.993   4.086 -0.1542 -0.6709 -0.0483
10336TIP3    H130951   1.103   0.919   4.117 -0.5799 -0.4104 -0.1288
10336TIP3    H230952   1.090   1.054   4.049 -0.0688  0.7796  2.0434
10337TIP3   OH230953   3.583   4.069   0.993  0.2467 -0.1770 -0.6401
10337TIP3    H130954   3.507   4.035   1.042  0.4646  0.5541  0.2234
10337TIP3    H230955   3.545   4.111   0.916 -0.4604  2.2064  0.9086
10338TIP3   OH230956   2.244   3.692   0.208 -0.5533 -0.0270 -0.3441
10338TIP3    H130957   2.296   3.711   0.130 -1.0968  0.5107 -0.5840
10338TIP3    H230958   2.269   3.760   0.271 -0.6584 -0.0203 -0.3095
10339TIP3   OH230959   3.192   1.357   0.625  0.2010  0.6176 -0.3578
10339TIP3    H130960   3.137   1.284   0.656 -1.5156  1.1168 -2.0194
10339TIP3    H230961   3.280   1.334   0.653 -0.7857 -0.2303  2.4782
10340TIP3   OH230962   5.888   5.573   6.144 -0.3453 -0.3131 -0.1008
10340TIP3    H130963   5.944   5.556   6.069 -1.9093  0.8887 -1.6161
10340TIP3    H230964   5.843   5.654   6.123 -3.4799 -1.7289  0.4876
10341TIP3   OH230965   3.109   1.936   5.634  0.4451 -0.2582 -0.5954
10341TIP3    H130966   3.126   2.006   5.697  0.6392 -1.5369  0.8332
10341TIP3    H230967   3.175   1.949   5.566  1.3443  0.1544  0.3288
10342TIP3   OH230968   7.887   7.184   3.127 -0.1293 -0.5368  0.4677
10342TIP3    H130969   7.848   7.252   3.182  1.7217  1.6364 -0.6912
10342TIP3    H230970   7.843   7.194   3.043 -0.2590 -1.1885  0.4566
10343TIP3   OH230971   8.274   5.565   4.243  0.0138 -0.0904 -0.1047
10343TIP3    H130972   8.185   5.598   4.238  0.0297  0.1921  1.0898
10343TIP3    H230973   8.325   5.624   4.187 -0.2819  0.7271  0.4748
10344TIP3   OH230974   6.529   1.010   5.645 -0.1580  0.0668 -0.2630
10344TIP3    H130975   6.593   1.058   5.698 -0.3814  0.8401 -0.6879
10344TIP3    H230976   6.548   1.035   5.555 -0.3264 -0.5916 -0.4895
10345TIP3   OH230977   6.357   5.944   2.181  0.1351  0.7484  0.0268
10345TIP3    H130978   6.326   6.032   2.202 -0.6277  0.0122  2.2953
10345TIP3    H230979   6.422   5.957   2.112  0.1303  3.0862  0.3878
10346TIP3   OH230980   7.707   7.277   4.858  1.1893  0.2985  0.5213
10346TIP3    H130981   7.781   7.337   4.844  1.0638  0.3126 -0.1121
10346TIP3    H230982   7.734   7.223   4.932  1.6055  0.6646  0.6433
10347TIP3   OH230983   2.752   5.960   3.518  0.0932 -0.2400 -0.1801
10347TIP3    H130984   2.701   5.881   3.501  0.8308 -0.5248 -1.1461
10347TIP3    H230985   2.828   5.953   3.459  1.0938  0.3103  0.9870
10348TIP3   OH230986   5.313   3.734   0.836 -0.7345 -0.4951  0.6824
10348TIP3    H130987   5.403   3.759   0.815  0.2301 -1.3690  3.3299
10348TIP3    H230988   5.300   3.650   0.791 -0.0262 -0.6124  0.6890
10349TIP3   OH230989   7.922   0.752   3.754  0.2254  0.3081  0.5900
10349TIP3    H130990   7.833   0.786   3.754  0.6300  1.5321 -0.9848
10349TIP3    H230991   7.941   0.735   3.662  2.3970  2.3952  0.5411
10350TIP3   OH230992   0.749   0.948   0.394 -0.3510 -0.4990  0.2761
10350TIP3    H130993   0.757   0.927   0.301  1.2389 -2.7032  0.8168
10350TIP3    H230994   0.655   0.954   0.409 -0.8470 -3.5776 -0.8830
10351TIP3   OH230995   6.097   3.438   3.558 -0.4726 -0.2105  0.0749
10351TIP3    H130996   6.090   3.466   3.467 -0.9656 -0.3383  0.0722
10351TIP3    H230997   6.187   3.406   3.566 -0.7370 -1.1864 -0.6520
10352TIP3   OH230998   0.853   1.903   5.898  0.6483  0.0683 -0.1521
10352TIP3    H130999   0.884   1.967   5.962 -1.7564  1.2542 -0.0227
10352TIP3    H231000   0.848   1.821   5.946  0.4962  0.5728  0.7225
10353TIP3   OH231001   1.249   2.562   1.473 -0.6814  0.2702  0.1624
10353TIP3    H131002   1.276   2.563   1.381 -1.1713  0.7380  0.0192
10353TIP3    H231003   1.326   2.594   1.521 -1.2234  2.4579 -0.3189
10354TIP3   OH231004   3.284   5.718   0.013 -0.2904  0.4667 -0.0381
10354TIP3    H131005   3.344   5.792   0.026  0.0401  0.0527  0.9264
10354TIP3    H231006   3.223   5.725   0.087 -0.0609 -0.4014  0.2395
10355TIP3   OH231007   3.896   4.649   5.883 -0.1438  0.1822 -0.0276
10355TIP3    H131008   3.989   4.660   5.905 -0.3113  1.8792  0.0049
10355TIP3    H231009   3.887   4.692   5.798 -0.6130 -1.3360 -0.7656
10356TIP3   OH231010   7.997   5.798   6.076 -0.5082 -0.1517  0.4635
10356TIP3    H131011   8.020   5.843   5.995  0.0556 -0.9996  0.1413
10356TIP3    H231012   7.941   5.725   6.048  1.1986 -1.5732  0.6046
10357TIP3   OH231013   2.752   2.431   5.596 -0.1958  0.1372 -0.2353
10357TIP3    H131014   2.798   2.391   5.522 -0.8492 -0.1129 -0.5208
10357TIP3    H231015   2.670   2.382   5.602 -0.2803  0.3562  0.4669
10358TIP3   OH231016   7.416   5.234   6.661  0.1209  0.4663  0.0655
10358TIP3    H131017   7.453   5.313   6.622  0.7562 -1.0401 -2.6439
10358TIP3    H231018   7.488   5.172   6.662 -1.0582 -0.9974 -0.7241
10359TIP3   OH231019   0.974   3.888   0.876  0.5253  0.1204 -0.2393
10359TIP3    H131020   0.964   3.815   0.815 -0.0747 -1.0206  1.1681
10359TIP3    H231021   1.039   3.945   0.834  0.6971 -0.9945 -1.5731
10360TIP3   OH231022   4.187   0.026   2.356 -0.2563 -0.3027  0.0138
10360TIP3    H131023   4.105   0.064   2.322 -1.0274 -0.3731  1.7084
10360TIP3    H231024   4.232   0.100   2.396  1.3914  0.1042 -2.3958
10361TIP3   OH231025   8.069   0.154   4.341  0.3442 -0.1617 -0.6992
10361TIP3    H131026   8.012   0.078   4.344 -0.1235  0.1912  1.2607
10361TIP3    H231027   8.107   0.159   4.430  0.8366  1.5152 -0.9623
10362TIP3   OH231028   4.841   6.025   2.112  0.3304  0.0905 -0.0382
10362TIP3    H131029   4.911   5.987   2.058 -0.6069 -2.2544  0.2943
10362TIP3    H231030   4.878   6.028   2.200  0.6609  0.6715 -0.1915
10363TIP3   OH231031   4.612   7.013   5.592  0.1969  0.4516 -0.0729
10363TIP3    H131032   4.625   6.938   5.651 -1.0344 -1.0563 -1.6056
10363TIP3    H231033   4.701   7.041   5.570  0.6800  0.0706  1.2680
10364TIP3   OH231034   6.896   3.873   1.563 -0.7119 -0.4271  0.0094
10364TIP3    H131035   6.917   3.786   1.598 -2.7170 -0.4572  1.2771
10364TIP3    H231036   6.834   3.910   1.626 -0.0998  1.8455 -0.6368
10365TIP3   OH231037   6.504   3.527   2.214 -0.0113  0.4149 -0.3930
10365TIP3    H131038   6.588   3.552   2.176 -0.1158  0.2938 -0.7030
10365TIP3    H231039   6.526   3.495   2.301  0.3683 -0.4393 -0.7935
10366TIP3   OH231040   0.251   1.792   2.655  0.0406  0.0103  0.8083
10366TIP3    H131041   0.183   1.859   2.643 -1.3792 -1.0572  2.3274
10366TIP3    H231042   0.331   1.842   2.671 -0.9638  1.3760  1.8527
10367TIP3   OH231043   1.280   3.104   5.319  0.0085 -0.1863 -0.1870
10367TIP3    H131044   1.344   3.049   5.365 -1.1336 -3.4542 -2.0938
10367TIP3    H231045   1.331   3.152   5.254  0.9533  0.3999  0.9536
10368TIP3   OH231046   5.093   6.144   5.507 -0.5420  0.2052 -1.0345
10368TIP3    H131047   5.102   6.237   5.487 -0.9600  0.6935  0.8296
10368TIP3    H231048   5.167   6.126   5.566 -1.8271 -0.0017  0.5802
10369TIP3   OH231049   5.206   5.988   3.094  0.1217 -0.3633  0.0483
10369TIP3    H131050   5.275   6.012   3.156  0.0490  0.4540 -0.1762
10369TIP3    H231051   5.247   5.923   3.036  0.6957  0.0930 -0.0645
10370TIP3   OH231052   0.913   0.679   0.344  0.7055  0.0582 -0.3419
10370TIP3    H131053   0.965   0.727   0.279  1.5722  2.7087  2.0880
10370TIP3    H231054   0.926   0.727   0.425 -3.8189 -0.3864  0.9534
10371TIP3   OH231055   0.367   7.479   5.284  0.3840  0.5802 -0.5065
10371TIP3    H131056   0.368   7.534   5.362 -0.9948  1.6793 -1.2205
10371TIP3    H231057   0.400   7.394   5.313  0.4944  1.1575  1.1117
10372TIP3   OH231058   5.396   5.160   3.001  0.2810  0.2436 -0.0681
10372TIP3    H131059   5.347   5.090   3.044  0.0486  0.9572  0.8508
10372TIP3    H231060   5.469   5.178   3.060 -0.2957  1.5436  0.2907
10373TIP3   OH231061   7.324   3.557   3.757 -0.0541  0.5309 -0.4069
10373TIP3    H131062   7.369   3.501   3.695  0.3000  0.4684 -0.0995
10373TIP3    H231063   7.392   3.615   3.791 -0.2678  0.6520 -0.1790
10374TIP3   OH231064   1.543   5.630   2.043 -0.4153 -0.1203  0.0111
10374TIP3    H131065   1.531   5.661   2.133 -1.4021 -2.1361  0.6420
10374TIP3    H231066   1.585   5.703   1.998 -2.2070  1.9255  1.4504
10375TIP3   OH231067   7.084   3.375   3.677 -0.1095 -0.6231 -0.5550
10375TIP3    H131068   7.031   3.454   3.662 -0.1349 -0.6419 -0.5643
10375TIP3    H231069   7.162   3.407   3.722 -0.9691 -0.8229  1.1617
10376TIP3   OH231070   5.486   4.619   2.160  0.0388  0.2732  0.3097
10376TIP3    H131071   5.490   4.526   2.181 -1.1449  0.1122 -0.0702
10376TIP3    H231072   5.566   4.656   2.196  2.2829 -1.4606 -2.4762
10377TIP3   OH231073   4.486   2.513   1.237  0.3709  0.3418 -0.0982
10377TIP3    H131074   4.573   2.540   1.208 -0.0237  0.3945 -1.2772
10377TIP3    H231075   4.492   2.514   1.332  1.7778 -0.0174 -0.1496
10378TIP3   OH231076   1.312   3.634   3.320 -0.3348 -0.3507  0.0001
10378TIP3    H131077   1.405   3.653   3.314 -0.3483 -0.5190 -0.8870
10378TIP3    H231078   1.294   3.629   3.414  0.3076  0.8128  0.1983
10379TIP3   OH231079   7.125   4.488   3.655  0.3695 -0.1098  0.0937
10379TIP3    H131080   7.127   4.430   3.731  0.0211 -0.1781  0.0546
10379TIP3    H231081   7.142   4.575   3.690 -0.3316 -0.0650  0.3277
10380TIP3   OH231082   0.599   6.119   6.387 -0.0814  0.5247  0.1989
10380TIP3    H131083   0.597   6.203   6.431 -0.5474  0.4346  0.3629
10380TIP3    H231084   0.689   6.088   6.397 -0.0821  0.6848  0.7393
10381TIP3   OH231085   6.322   6.817   0.073 -0.2237  0.4697  0.6083
10381TIP3    H131086   6.328   6.722   0.064 -0.4417  0.5046  0.0706
10381TIP3    H231087   6.413   6.847   0.071 -0.1217  0.2298  1.3411
10382TIP3   OH231088   1.210   0.793   0.988  0.3498  0.1772 -0.3445
10382TIP3    H131089   1.117   0.782   0.965  0.4507  0.6146 -0.9835
10382TIP3    H231090   1.215   0.880   1.027  0.4423  0.0342 -0.0364
10383TIP3   OH231091   3.043   3.190   4.423 -0.0662 -0.0132 -0.4153
10383TIP3    H131092   3.053   3.095   4.414  1.3479  0.0740  0.0537
10383TIP3    H231093   2.962   3.200   4.473 -0.4938 -0.9484 -0.8865
10384TIP3   OH231094   4.708   7.612   5.373  0.3795 -0.5681 -0.2739
10384TIP3    H131095   4.672   7.677   5.312  0.8586  0.3497  0.4026
10384TIP3    H231096   4.631   7.569   5.410  0.0120  0.3450  0.0543
10385TIP3   OH231097   4.870   5.528   4.141  0.2682  0.4556 -0.2236
10385TIP3    H131098   4.783   5.509   4.106  0.9518 -1.0140 -1.2279
10385TIP3    H231099   4.895   5.610   4.098 -0.5836  0.8569  0.0249
10386TIP3   OH231100   7.861   6.871   1.585  0.2059 -0.3056 -0.5468
10386TIP3    H131101   7.916   6.944   1.559  0.6988 -0.0590  1.0640
10386TIP3    H231102   7.820   6.900   1.667 -1.0093 -1.1431 -0.8205
10387TIP3   OH231103   6.170   7.412   2.152  0.1145  0.3196 -0.0261
10387TIP3    H131104   6.254   7.367   2.165  0.1760 -0.0668 -1.4952
10387TIP3    H231105   6.106   7.356   2.196 -0.1199 -2.5459 -3.5052
10388TIP3   OH231106   7.112   0.998   2.522 -0.5289 -0.8554  0.2065
10388TIP3    H131107   7.023   0.997   2.488 -0.3438 -0.4986 -0.3035
10388TIP3    H231108   7.151   0.916   2.491 -0.2454 -0.3689 -0.7981
10389TIP3   OH231109   7.884   3.123   4.948  0.4371  0.4233 -0.1488
10389TIP3    H131110   7.822   3.052   4.967 -1.0065  1.8890  0.9415
10389TIP3    H231111   7.948   3.117   5.019  1.5310 -1.0036 -1.1939
10390TIP3   OH231112   4.432   6.038   6.672  0.3907  0.2548  0.0651
10390TIP3    H131113   4.430   6.051   6.577 -1.2332  0.4452  0.1015
10390TIP3    H231114   4.521   6.008   6.690  0.3575 -1.0296 -1.6792
10391TIP3   OH231115   5.806   0.104   4.114  0.9918  0.1650  0.0980
10391TIP3    H131116   5.853   0.021   4.107 -1.8203 -1.7000  1.6602
10391TIP3    H231117   5.729   0.092   4.059  1.0686  2.2480 -0.5579
10392TIP3   OH231118   8.083   4.971   2.574  0.3831  0.0747 -0.1204
10392TIP3    H131119   8.067   4.887   2.530 -2.0868 -0.0795  0.9132
10392TIP3    H231120   8.113   5.029   2.505  1.6804 -1.4959 -0.9658
10393TIP3   OH231121   7.291   5.235   5.459  0.1885  0.1776  0.4840
10393TIP3    H131122   7.299   5.324   5.426  1.1391 -0.1632 -0.2688
10393TIP3    H231123   7.230   5.192   5.399  0.8450 -0.0593 -0.0319
10394TIP3   OH231124   3.644   7.204   0.086  0.1974 -0.3076  0.6892
10394TIP3    H131125   3.562   7.230   0.044  1.6103  0.0850 -2.0916
10394TIP3    H231126   3.670   7.281   0.136  1.0861  1.4262 -2.2058
10395TIP3   OH231127   3.843   4.686  -0.022  0.1012  0.2182  0.1755
10395TIP3    H131128   3.919   4.627  -0.022 -0.3710 -0.4126 -0.1080
10395TIP3    H231129   3.798   4.667   0.061 -0.8878 -0.9752 -0.5774
10396TIP3   OH231130   3.691   3.762   5.527 -0.0655 -0.0251  0.0007
10396TIP3    H131131   3.676   3.689   5.587 -1.1637 -0.3346 -0.6300
10396TIP3    H231132   3.784   3.784   5.539  0.8975 -2.8810 -1.3257
10397TIP3   OH231133   1.800   6.788   4.613  0.3662 -0.0194 -0.2731
10397TIP3    H131134   1.858   6.719   4.581 -0.2381 -0.0505 -1.3579
10397TIP3    H231135   1.746   6.745   4.679 -0.4137 -0.7712 -1.3617
10398TIP3   OH231136   8.260   2.826   1.606  0.2593 -0.1246  0.3166
10398TIP3    H131137   8.228   2.799   1.693 -0.8258  1.1050  0.3324
10398TIP3    H231138   8.315   2.902   1.624  0.6242 -0.3109 -0.0145
10399TIP3   OH231139   3.429   2.594   2.400  0.2395  0.0084  0.6824
10399TIP3    H131140   3.426   2.636   2.486 -0.4354 -1.2451  1.3095
10399TIP3    H231141   3.509   2.541   2.402  1.6728  2.0216 -0.5143
10400TIP3   OH231142   1.210   2.210   1.030 -0.5463  0.1642  0.0702
10400TIP3    H131143   1.264   2.135   1.004  0.6007  1.0902 -0.3265
10400TIP3    H231144   1.183   2.249   0.947 -0.2828  0.7720  0.2659
10401TIP3   OH231145   1.766   3.985   2.188 -0.1249  0.2062  0.2190
10401TIP3    H131146   1.796   3.894   2.179 -0.3687  0.1398  0.0485
10401TIP3    H231147   1.816   4.020   2.261 -0.7763 -0.3795  0.9620
10402TIP3   OH231148   0.446   1.688   1.171 -0.2918 -0.8713  0.3099
10402TIP3    H131149   0.455   1.767   1.224 -1.8721  0.8777 -1.8149
10402TIP3    H231150   0.523   1.687   1.114 -0.3559 -0.7665  0.2217
10403TIP3   OH231151   4.611   2.284   4.106  0.4734  0.0426  0.0429
10403TIP3    H131152   4.676   2.216   4.090 -0.4742 -0.6081 -1.1956
10403TIP3    H231153   4.572   2.262   4.191 -0.1773 -1.2636 -0.5760
10404TIP3   OH231154   3.043   7.124   2.931 -0.4577 -0.0150  0.0012
10404TIP3    H131155   3.004   7.044   2.966 -0.2633  0.4779  1.3794
10404TIP3    H231156   3.136   7.116   2.951 -0.2837  0.1375 -0.7079
10405TIP3   OH231157   5.271   4.740   2.326  0.0907  0.3321  0.1105
10405TIP3    H131158   5.325   4.692   2.263  0.1411  0.6306 -0.0750
10405TIP3    H231159   5.295   4.831   2.313 -0.2670  0.4422  0.2148
10406TIP3   OH231160   0.813   3.070   0.362  0.4400 -0.3199 -0.4024
10406TIP3    H131161   0.823   3.067   0.457 -2.4704 -0.6173 -0.0266
10406TIP3    H231162   0.830   3.162   0.339  1.3538 -0.2887  0.3365
10407TIP3   OH231163   5.922   4.059   0.466 -0.2395  0.4031  0.7371
10407TIP3    H131164   5.949   4.108   0.544 -0.0789 -0.8617  1.4945
10407TIP3    H231165   5.836   4.023   0.488 -0.4956  0.5880  0.0705
10408TIP3   OH231166   6.823   5.050   2.473  0.0086 -0.0878  0.0006
10408TIP3    H131167   6.784   4.963   2.484  0.1940 -0.1738 -0.0189
10408TIP3    H231168   6.911   5.042   2.508 -0.1569  0.2455  0.5077
10409TIP3   OH231169   6.268   7.581   5.614 -0.3311  0.4906 -0.1773
10409TIP3    H131170   6.318   7.646   5.664  0.4053 -0.3002  0.1341
10409TIP3    H231171   6.311   7.577   5.529 -0.9432  1.0616 -0.5322
10410TIP3   OH231172   0.454   0.188   5.515  0.9591 -0.0776  0.8758
10410TIP3    H131173   0.421   0.270   5.481 -0.1731 -0.0189  2.0618
10410TIP3    H231174   0.541   0.209   5.550  2.1491 -0.1362 -1.8206
10411TIP3   OH231175   3.419   6.586   6.502 -0.1655 -0.4466  0.1839
10411TIP3    H131176   3.454   6.608   6.588 -0.4828 -3.2463  1.1224
10411TIP3    H231177   3.393   6.670   6.464  1.6595  1.0400  2.0408
10412TIP3   OH231178   5.221   6.740   3.017 -0.0150  0.2422 -0.3683
10412TIP3    H131179   5.183   6.826   3.034  1.4326  0.7096  0.6742
10412TIP3    H231180   5.228   6.699   3.103  0.6941 -0.3067 -0.6740
10413TIP3   OH231181   7.541   1.680   0.080 -0.5285  0.1913 -0.1923
10413TIP3    H131182   7.492   1.612   0.035 -0.3452 -0.0491 -0.0266
10413TIP3    H231183   7.513   1.762   0.038 -0.7369  0.0140 -0.3964
10414TIP3   OH231184   0.903   5.184   4.718  0.0410  0.5348  0.2412
10414TIP3    H131185   0.853   5.112   4.755 -0.4326  0.9952  0.5173
10414TIP3    H231186   0.968   5.142   4.662  0.6172 -0.1708  1.3902
10415TIP3   OH231187   6.800   5.758   1.387 -0.0708  0.3452  0.3203
10415TIP3    H131188   6.812   5.737   1.295 -0.2994  2.1097 -0.1476
10415TIP3    H231189   6.845   5.688   1.434  0.9950  0.0008 -1.1498
10416TIP3   OH231190   1.085   5.128   2.057  0.7840 -0.4497  0.2049
10416TIP3    H131191   1.127   5.214   2.057  0.4003 -0.2473 -0.7656
10416TIP3    H231192   0.995   5.144   2.082  0.5859 -0.4876 -0.4525
10417TIP3   OH231193   3.970   6.094   1.548 -0.2385 -0.0326 -0.2025
10417TIP3    H131194   3.991   6.187   1.554 -0.3347 -0.0878  2.2789
10417TIP3    H231195   3.901   6.082   1.614 -1.3356 -1.5844 -1.5719
10418TIP3   OH231196   4.285   3.256   1.647  0.2951  0.0995 -0.4189
10418TIP3    H131197   4.289   3.319   1.719  0.0880 -1.7810  1.3287
10418TIP3    H231198   4.353   3.192   1.667 -0.2780 -0.8826 -1.4882
10419TIP3   OH231199   7.335   2.069   2.208 -0.7433  0.0529  0.2008
10419TIP3    H131200   7.369   1.983   2.234 -1.0255 -0.4888 -1.1486
10419TIP3    H231201   7.412   2.125   2.204 -0.4440 -0.3461  0.2590
10420TIP3   OH231202   0.020   4.345   4.984 -0.1235  0.4074 -0.4984
10420TIP3    H131203   0.054   4.302   4.906  1.4809 -0.9449  0.8544
10420TIP3    H231204   0.024   4.439   4.963 -0.1992  0.0630 -2.1938
10421TIP3   OH231205   3.749   2.463   5.507  0.1310  0.0834  0.3656
10421TIP3    H131206   3.775   2.384   5.553 -0.4016 -0.1127  0.3365
10421TIP3    H231207   3.654   2.456   5.499  0.2075  0.1078 -0.7564
10422TIP3   OH231208   6.281   3.879   2.914 -0.1660 -0.2732  0.4520
10422TIP3    H131209   6.357   3.893   2.857  0.9645  2.1220  2.3572
10422TIP3    H231210   6.301   3.929   2.994 -2.6195 -1.6835  2.0887
10423TIP3   OH231211   6.132   4.825   4.440  0.1734  0.2376 -0.1724
10423TIP3    H131212   6.116   4.782   4.524  0.6639  0.7767  0.2039
10423TIP3    H231213   6.141   4.918   4.462  3.0504  0.1133 -0.4201
10424TIP3   OH231214   8.020   1.211   5.221  0.0404 -0.7604  0.1833
10424TIP3    H131215   8.058   1.123   5.223 -1.3082 -1.3614  0.9246
10424TIP3    H231216   8.073   1.259   5.158  1.4458 -1.8007  0.5283
10425TIP3   OH231217   6.383   4.747   5.924  0.3171  0.1663  0.0956
10425TIP3    H131218   6.381   4.822   5.864 -1.6135  0.1330  0.0450
10425TIP3    H231219   6.432   4.679   5.877  1.5129  1.1465 -0.1302
10426TIP3   OH231220   0.339   2.299   6.220  0.2384 -0.2449 -0.3403
10426TIP3    H131221   0.361   2.388   6.194 -0.8631 -0.1719 -1.1300
10426TIP3    H231222   0.406   2.244   6.179  0.1362  0.1164 -1.0123
10427TIP3   OH231223   1.102   2.373   6.713 -0.0227  0.1355 -0.0051
10427TIP3    H131224   1.035   2.435   6.740 -1.1445 -0.9586 -0.2202
10427TIP3    H231225   1.080   2.291   6.759  0.8764 -0.3806 -0.4558
10428TIP3   OH231226   7.761   0.067   2.890  0.3073  0.0581  0.2136
10428TIP3    H131227   7.805   0.040   2.809  0.7463  1.7168 -0.1423
10428TIP3    H231228   7.728   0.155   2.871 -1.4633 -0.3698  1.1427
10429TIP3   OH231229   4.165   6.496   1.337 -0.4072 -0.7386  0.0893
10429TIP3    H131230   4.174   6.574   1.391 -2.7307 -0.9766  0.8922
10429TIP3    H231231   4.237   6.503   1.273 -1.3367  2.7696 -0.7830
10430TIP3   OH231232   0.713   6.811   4.468  0.0060  0.2373  0.4018
10430TIP3    H131233   0.769   6.850   4.534  0.1688 -0.4927  0.6970
10430TIP3    H231234   0.624   6.826   4.500  0.0751  0.1488  0.6350
10431TIP3   OH231235   0.769   7.594   2.152  0.2941 -0.1290  0.1606
10431TIP3    H131236   0.736   7.656   2.087  2.0607  0.2937 -0.3669
10431TIP3    H231237   0.737   7.509   2.122 -1.3624  0.3832  0.3829
10432TIP3   OH231238   0.671   3.207   2.164 -0.3147 -0.1309 -0.2484
10432TIP3    H131239   0.660   3.289   2.213 -0.1362 -0.1369 -0.1961
10432TIP3    H231240   0.761   3.180   2.184 -0.4017 -0.3824 -0.1971
10433TIP3   OH231241   5.417   7.068   4.358 -0.0302  0.0494 -0.7656
10433TIP3    H131242   5.463   7.147   4.332 -0.1766  0.2124 -0.5303
10433TIP3    H231243   5.338   7.099   4.402  0.7100 -0.1988  0.8121
10434TIP3   OH231244   0.387   2.976   5.772  0.0461 -0.0514 -0.3023
10434TIP3    H131245   0.405   2.922   5.850  0.8978  0.0487 -0.4218
10434TIP3    H231246   0.370   2.912   5.703  1.5909 -0.2023 -0.5734
10435TIP3   OH231247   7.333   3.893   6.063  0.1976  0.0363  0.0185
10435TIP3    H131248   7.275   3.851   6.127 -1.0248  1.5708 -0.0179
10435TIP3    H231249   7.293   3.874   5.979 -0.5572  1.4618  0.0198
10436TIP3   OH231250   4.749   5.160   5.105  0.3530 -0.7258  0.0836
10436TIP3    H131251   4.737   5.074   5.146  1.4182 -1.5548 -1.2337
10436TIP3    H231252   4.695   5.219   5.157 -0.6029 -2.2317  0.8966
10437TIP3   OH231253   8.113   6.290   2.497 -0.0735  0.1072  0.0282
10437TIP3    H131254   8.079   6.308   2.409  0.0460 -0.4875 -0.1477
10437TIP3    H231255   8.035   6.283   2.552 -0.0921  2.2666  0.3488
10438TIP3   OH231256   6.580   4.254   2.916 -0.3096 -0.5248  0.1763
10438TIP3    H131257   6.621   4.280   2.833 -2.2575  1.7588 -0.1845
10438TIP3    H231258   6.645   4.274   2.983  1.1150 -1.9697 -0.6855
10439TIP3   OH231259   1.698   0.748   5.835 -0.2240  0.2144  0.1112
10439TIP3    H131260   1.675   0.840   5.853  0.2971  0.2687  0.5032
10439TIP3    H231261   1.641   0.698   5.893  1.7236  0.3968  2.3117
10440TIP3   OH231262   6.258   5.710   6.322  0.1220  0.3435 -0.4837
10440TIP3    H131263   6.295   5.702   6.234 -0.8280  0.4713 -0.9077
10440TIP3    H231264   6.303   5.643   6.373  1.0108  0.5669 -0.9485
10441TIP3   OH231265   1.237   4.047   4.431  0.3801 -0.0941 -0.0042
10441TIP3    H131266   1.224   4.113   4.363  0.1375 -0.7085 -0.5623
10441TIP3    H231267   1.149   4.023   4.459  0.3924 -1.2772 -0.8879
10442TIP3   OH231268   5.805   7.653   2.195  0.2215  0.1039  0.0204
10442TIP3    H131269   5.743   7.719   2.165  1.2178  0.7362 -0.7042
10442TIP3    H231270   5.858   7.633   2.118 -0.3277 -1.8699  0.0988
10443TIP3   OH231271   8.145   1.392   5.059 -0.2015  0.1204  0.4689
10443TIP3    H131272   8.236   1.375   5.034 -1.1894 -1.8139 -2.2746
10443TIP3    H231273   8.105   1.430   4.980 -2.0637 -0.2817  1.1684
10444TIP3   OH231274   6.007   0.265   0.470 -0.0470 -0.2992  0.0811
10444TIP3    H131275   5.963   0.350   0.465  1.8534  0.8833  1.4633
10444TIP3    H231276   5.990   0.235   0.559 -0.1105 -1.0269 -0.1726
10445TIP3   OH231277   2.767   4.762   3.288 -0.1858 -0.4555  0.1068
10445TIP3    H131278   2.862   4.747   3.287  0.2080  1.6160 -0.0929
10445TIP3    H231279   2.752   4.822   3.214 -1.5488 -0.2604  0.5147
10446TIP3   OH231280   7.403   4.965   5.971 -0.4680 -0.3807 -0.3932
10446TIP3    H131281   7.378   4.899   6.036  0.1848  1.5290  1.9585
10446TIP3    H231282   7.393   5.049   6.017  1.0658  1.0226 -2.4338
10447TIP3   OH231283   6.509   2.083   1.038 -0.1225  0.9436  0.1129
10447TIP3    H131284   6.484   1.993   1.019 -1.0080  1.1829  0.1272
10447TIP3    H231285   6.605   2.080   1.043 -0.1451 -0.0094  0.2015
10448TIP3   OH231286   0.018   7.281   1.979  0.2844 -0.1021  0.4624
10448TIP3    H131287  -0.053   7.262   1.918 -1.6247 -0.1767  2.5823
10448TIP3    H231288   0.045   7.370   1.956 -0.6698  0.0316 -0.2259
10449TIP3   OH231289   5.277   6.289   4.639 -0.4703 -0.2078  0.5273
10449TIP3    H131290   5.267   6.384   4.638  0.0484 -0.1501  0.2354
10449TIP3    H231291   5.368   6.275   4.611 -0.1797 -0.7414  1.7016
10450TIP3   OH231292   2.129   5.087   0.842  0.0504  0.4327  0.9330
10450TIP3    H131293   2.190   5.020   0.811 -0.8217  0.2939 -0.5762
10450TIP3    H231294   2.154   5.102   0.933  2.6817  0.7364  0.2430
10451TIP3   OH231295   5.616   6.365   0.825 -0.1537 -0.0483  0.3966
10451TIP3    H131296   5.626   6.456   0.853  2.2642  0.2370 -1.0904
10451TIP3    H231297   5.692   6.321   0.862 -1.0115 -1.3843  0.6301
10452TIP3   OH231298   1.261   2.654   2.655  0.0256  0.4082  0.1338
10452TIP3    H131299   1.187   2.702   2.616  0.9690  1.9680  0.1829
10452TIP3    H231300   1.325   2.722   2.675  1.9295 -1.0080 -0.8545
10453TIP3   OH231301   3.761   0.387   2.391 -0.1577  0.4934  0.3205
10453TIP3    H131302   3.793   0.299   2.413 -2.1647 -0.9325 -1.9296
10453TIP3    H231303   3.822   0.447   2.434  3.0256 -1.9705 -0.3875
10454TIP3   OH231304   5.057   6.348   6.268 -0.0035  0.7480  0.1101
10454TIP3    H131305   5.128   6.329   6.330  0.3893  3.2515  0.5361
10454TIP3    H231306   5.073   6.438   6.241 -0.5226 -0.0337 -3.2207
10455TIP3   OH231307   7.701   6.960   0.284  0.1110  0.2827  0.1831
10455TIP3    H131308   7.640   6.906   0.335  0.4684  0.6881  1.0714
10455TIP3    H231309   7.708   6.916   0.200 -1.3657  0.1981  0.0845
10456TIP3   OH231310   3.303   3.881   4.419  0.1708  0.6140  0.2867
10456TIP3    H131311   3.390   3.907   4.450 -0.5932  3.0341  0.6288
10456TIP3    H231312   3.321   3.816   4.350  2.1789  0.3137  1.0009
10457TIP3   OH231313   5.461   4.150   3.373  0.5718 -0.2321 -0.1407
10457TIP3    H131314   5.452   4.175   3.281 -1.0641 -0.9844 -0.2228
10457TIP3    H231315   5.477   4.055   3.370  1.8139 -0.0576  0.3285
10458TIP3   OH231316   0.160   1.657   0.494 -0.3223 -0.9415 -0.2045
10458TIP3    H131317   0.150   1.622   0.406  0.7879  1.7380 -1.5150
10458TIP3    H231318   0.071   1.672   0.525 -0.7204 -1.0794 -1.2471
10459TIP3   OH231319   5.247   6.736   4.404  0.5631  0.2783 -0.0462
10459TIP3    H131320   5.251   6.793   4.327 -0.2163  1.5962  0.8588
10459TIP3    H231321   5.302   6.661   4.380  0.6502  0.8277 -1.7315
10460TIP3   OH231322   0.156   5.882   1.857  0.2550  0.2521  0.2874
10460TIP3    H131323   0.131   5.914   1.944  1.9020  0.1046  0.8478
10460TIP3    H231324   0.115   5.796   1.851  1.6209 -0.5441  1.7147
10461TIP3   OH231325   5.087   4.135   3.821  0.0050 -0.3341  0.1268
10461TIP3    H131326   4.997   4.104   3.827 -0.4691  1.1175  1.0549
10461TIP3    H231327   5.140   4.065   3.859 -1.0309 -0.0168  2.2487
10462TIP3   OH231328   7.083   3.528   3.387 -0.3438 -0.2946 -0.0192
10462TIP3    H131329   7.172   3.561   3.384 -0.0578 -1.0345  0.0422
10462TIP3    H231330   7.052   3.549   3.475 -0.5577  0.7676 -0.3371
10463TIP3   OH231331   2.582   1.524   5.716 -0.3835 -0.1155  0.3078
10463TIP3    H131332   2.666   1.505   5.758 -0.8633  1.5295  2.1853
10463TIP3    H231333   2.516   1.485   5.774 -0.9864 -0.8981 -0.8418
10464TIP3   OH231334   4.506   0.826   1.724 -0.3967 -0.1914  0.4247
10464TIP3    H131335   4.599   0.845   1.719 -0.7478  1.9667  1.0643
10464TIP3    H231336   4.483   0.792   1.638  0.8682 -0.2493  0.1011
10465TIP3   OH231337   3.250   7.407   6.724  0.2866  0.5229 -0.5243
10465TIP3    H131338   3.267   7.484   6.671 -0.8836 -0.3737 -2.3006
10465TIP3    H231339   3.311   7.341   6.690 -0.6292 -0.1249 -0.9576
10466TIP3   OH231340   1.653   4.546   2.198 -0.1570  0.1805 -0.3185
10466TIP3    H131341   1.599   4.569   2.273  2.1284  3.6810  0.4953
10466TIP3    H231342   1.634   4.613   2.133 -0.2322 -1.3307 -1.9417
10467TIP3   OH231343   3.023   5.966   5.370  0.1908 -0.2330 -0.4230
10467TIP3    H131344   3.056   6.048   5.333  0.5938 -0.7065 -1.1395
10467TIP3    H231345   2.968   5.993   5.443  1.2720  0.6333  0.1043
10468TIP3   OH231346   3.265   1.980   5.395 -0.3472 -0.3709 -0.2948
10468TIP3    H131347   3.235   1.946   5.311 -0.3309 -0.7965 -0.1291
10468TIP3    H231348   3.348   2.023   5.375 -1.0287  0.7941 -0.7549
10469TIP3   OH231349   5.419   4.449   4.632  0.7604  0.0518  0.3736
10469TIP3    H131350   5.350   4.482   4.575  0.9513  1.2683  0.8323
10469TIP3    H231351   5.399   4.485   4.718  1.5025 -0.2772  0.6907
10470TIP3   OH231352   1.436   5.725   1.631 -0.0396 -0.4069  0.1166
10470TIP3    H131353   1.421   5.758   1.719 -0.6035 -0.7033  0.1377
10470TIP3    H231354   1.486   5.794   1.587 -1.6554  0.7330 -0.0032
10471TIP3   OH231355   7.449   7.044   4.822  0.2752  0.2748  0.1660
10471TIP3    H131356   7.479   6.995   4.899 -0.9338 -1.1324 -0.1978
10471TIP3    H231357   7.530   7.064   4.774  0.9751  0.4130  1.3547
10472TIP3   OH231358   4.271   7.658   0.509 -0.2685 -0.0885 -0.2902
10472TIP3    H131359   4.231   7.575   0.481  1.3348 -1.2527  0.6810
10472TIP3    H231360   4.246   7.666   0.601  0.8690 -0.3285  0.0556
10473TIP3   OH231361   2.945   6.451   0.704 -0.1433  0.2930 -0.4923
10473TIP3    H131362   3.019   6.488   0.655 -0.2106  0.1855 -0.6783
10473TIP3    H231363   2.977   6.444   0.794 -0.6225  2.1516 -0.1522
10474TIP3   OH231364   3.037   6.778   3.336  0.0298 -0.0319 -0.0566
10474TIP3    H131365   3.103   6.801   3.401 -0.2045 -0.1463  0.2255
10474TIP3    H231366   2.976   6.720   3.382 -1.2247  1.4148  0.2140
10475TIP3   OH231367   7.564   5.874   0.749  0.2372  0.8792 -0.0934
10475TIP3    H131368   7.609   5.914   0.823  0.1746 -0.1290  0.5100
10475TIP3    H231369   7.592   5.926   0.673  1.9749  0.6364  0.3344
10476TIP3   OH231370   5.375   3.542   2.370  0.6155 -0.0767 -0.4607
10476TIP3    H131371   5.466   3.517   2.386  0.9826  1.5510  0.2952
10476TIP3    H231372   5.323   3.475   2.414  1.5139  0.0396  0.8465
10477TIP3   OH231373   2.623   2.858   2.479  0.3004  0.3744 -0.1607
10477TIP3    H131374   2.629   2.944   2.437  3.0487 -0.4261 -1.6788
10477TIP3    H231375   2.713   2.836   2.502 -0.4444 -1.7269  1.0318
10478TIP3   OH231376   4.227   6.723   2.496 -0.2150 -0.1344  0.6776
10478TIP3    H131377   4.146   6.673   2.506  1.2839 -3.0287 -0.3785
10478TIP3    H231378   4.218   6.768   2.412 -0.8152 -0.2263  0.6926
10479TIP3   OH231379   6.402   1.587   6.731 -0.2407 -0.3388  0.3897
10479TIP3    H131380   6.345   1.655   6.694  1.2610  0.3843 -0.7544
10479TIP3    H231381   6.488   1.607   6.694  0.5372 -2.0153  1.2130
10480TIP3   OH231382   5.919   6.170   2.685 -0.3772  0.2324 -0.1268
10480TIP3    H131383   5.988   6.106   2.701  1.0185  1.4900 -0.8046
10480TIP3    H231384   5.838   6.124   2.704  0.4530 -2.2083 -1.9978
10481TIP3   OH231385   1.456   4.856   3.624 -0.1060 -0.0094 -0.2945
10481TIP3    H131386   1.542   4.897   3.622 -0.2647  0.3095 -0.9287
10481TIP3    H231387   1.458   4.794   3.551  0.7796 -2.5143  1.7111
10482TIP3   OH231388   4.059   1.684   5.552 -0.3103 -0.5074 -0.3678
10482TIP3    H131389   4.031   1.594   5.534 -1.0316 -0.4237  0.2788
10482TIP3    H231390   4.134   1.674   5.611 -0.0153 -0.6934 -0.7677
10483TIP3   OH231391   5.942   3.732   0.879 -0.7972 -0.2840  0.1644
10483TIP3    H131392   5.896   3.795   0.824 -0.2692 -1.4821 -1.7217
10483TIP3    H231393   5.894   3.733   0.962 -2.0505  1.0531 -0.5318
10484TIP3   OH231394   0.857   0.134   1.186  0.1179 -0.2469  0.1458
10484TIP3    H131395   0.907   0.194   1.242 -0.5029  0.5424 -0.1345
10484TIP3    H231396   0.793   0.190   1.142 -0.2358 -1.0650 -0.3923
10485TIP3   OH231397   2.208   7.544   1.078  0.0463  0.3300  0.7061
10485TIP3    H131398   2.204   7.597   1.157  0.4347 -0.6953  1.4352
10485TIP3    H231399   2.232   7.457   1.109  1.9738  0.3010 -0.6880
10486TIP3   OH231400   5.068   4.871   5.968 -0.0372  0.2018  0.2899
10486TIP3    H131401   5.125   4.852   5.893 -2.0595 -1.5109 -0.9214
10486TIP3    H231402   5.125   4.918   6.029  2.9332 -2.1038 -0.4383
10487TIP3   OH231403   7.880   0.810   0.769 -0.0926 -0.4780  0.3156
10487TIP3    H131404   7.971   0.828   0.748  0.4896 -2.6864  0.6945
10487TIP3    H231405   7.864   0.723   0.734 -2.4863  0.3517 -0.8722
10488TIP3   OH231406   4.150   4.354   4.919 -0.3186  0.4448  0.5548
10488TIP3    H131407   4.077   4.356   4.858 -0.2496  1.7470  0.4882
10488TIP3    H231408   4.158   4.262   4.945 -1.0061  0.0501 -0.5928
10489TIP3   OH231409   5.531   5.542   1.177 -0.3896 -0.3704 -0.1295
10489TIP3    H131410   5.537   5.637   1.175 -1.8094 -0.1439  2.5410
10489TIP3    H231411   5.463   5.522   1.113  0.9020  0.2210 -1.7627
10490TIP3   OH231412   3.814   3.407   3.978  0.5194 -0.2338  0.1534
10490TIP3    H131413   3.792   3.431   4.068 -0.5539  1.2444 -0.4599
10490TIP3    H231414   3.765   3.326   3.963  1.0340 -0.7188  1.0120
10491TIP3   OH231415   6.739   1.524   6.078 -0.2106  0.0567  0.2229
10491TIP3    H131416   6.743   1.465   6.153  0.8312 -1.1826 -0.7708
10491TIP3    H231417   6.674   1.485   6.020 -0.1449  0.3541 -0.0521
10492TIP3   OH231418   1.934   2.977   1.251  0.5533 -0.5724  0.2301
10492TIP3    H131419   1.865   2.969   1.317 -1.4412  1.1121 -1.5043
10492TIP3    H231420   1.892   2.948   1.170  1.0893  2.5552 -1.3140
10493TIP3   OH231421   1.161   6.887   1.902  0.0051 -0.3475  0.2546
10493TIP3    H131422   1.171   6.876   1.807  0.6324  2.5448 -0.1216
10493TIP3    H231423   1.248   6.916   1.931 -0.5011 -0.0380  1.4992
10494TIP3   OH231424   3.166   0.193   3.599 -0.2728 -0.1444  0.5494
10494TIP3    H131425   3.095   0.216   3.539  0.2223  1.0202  0.3770
10494TIP3    H231426   3.153   0.250   3.674 -0.4559 -1.0794  1.2471
10495TIP3   OH231427   7.707   3.778   6.648 -0.4125  0.1349  0.0811
10495TIP3    H131428   7.790   3.732   6.639 -1.9471 -2.4363 -2.5781
10495TIP3    H231429   7.654   3.722   6.703 -0.2031  2.2640  2.6474
10496TIP3   OH231430   1.517   6.671   6.382  0.1393 -0.2552  0.1366
10496TIP3    H131431   1.609   6.689   6.359 -0.0237 -0.1458 -0.4496
10496TIP3    H231432   1.512   6.576   6.388  0.6665 -0.2105  1.7986
10497TIP3   OH231433   2.069   3.961   1.038  0.4074 -0.3190  0.2095
10497TIP3    H131434   2.103   4.002   1.118  2.2362  0.3547 -0.8608
10497TIP3    H231435   2.148   3.934   0.990 -0.6820 -1.8772 -0.7790
10498TIP3   OH231436   2.591   0.233   1.285  0.0037  0.3041 -0.0660
10498TIP3    H131437   2.626   0.251   1.198 -0.3908  0.3862 -0.2102
10498TIP3    H231438   2.505   0.194   1.268 -0.7442  1.7262  0.3006
10499TIP3   OH231439   0.826   2.706   5.169  0.1670  0.2663 -0.0968
10499TIP3    H131440   0.915   2.696   5.134  0.2041  1.2977 -0.3358
10499TIP3    H231441   0.772   2.652   5.111  0.3824  1.1003 -1.1029
10500TIP3   OH231442   7.251   4.478   2.376 -0.2278  0.4268 -0.3679
10500TIP3    H131443   7.251   4.527   2.458 -1.4511 -0.4417  0.1746
10500TIP3    H231444   7.274   4.543   2.309  1.2468  1.0447  0.6875
10501TIP3   OH231445   3.159   4.077   0.502  0.1859 -0.0938  0.1040
10501TIP3    H131446   3.178   4.034   0.419 -0.4860 -0.9196  0.3492
10501TIP3    H231447   3.210   4.028   0.567 -1.7139 -1.5560  0.5939
10502TIP3   OH231448   6.002   2.888   6.218  0.0733 -0.1917 -0.1130
10502TIP3    H131449   5.975   2.970   6.260 -0.7045 -0.1224 -0.7198
10502TIP3    H231450   6.068   2.852   6.277 -0.7936  0.0368  1.0413
10503TIP3   OH231451   0.286   0.252   6.130 -0.2131  0.1886  0.2724
10503TIP3    H131452   0.196   0.250   6.162 -0.2588  0.5482  0.1791
10503TIP3    H231453   0.280   0.220   6.040 -0.8336  3.4907 -1.0076
10504TIP3   OH231454   0.524   0.382   6.111 -0.1982  0.1115 -0.1274
10504TIP3    H131455   0.535   0.375   6.016 -1.2761 -0.8690 -0.1991
10504TIP3    H231456   0.448   0.327   6.131  1.2979 -1.4661  1.5867
10505TIP3   OH231457   8.108   7.245   0.715  0.5681  0.1145  0.4478
10505TIP3    H131458   8.041   7.192   0.671 -0.4649  1.7807 -0.1017
10505TIP3    H231459   8.152   7.184   0.774 -0.7401 -1.2781  0.0603
10506TIP3   OH231460   6.990   3.782   5.875  0.0686  0.4270  0.3699
10506TIP3    H131461   7.003   3.857   5.934  0.6140  1.1070 -0.5751
10506TIP3    H231462   6.903   3.796   5.837  0.3959  0.9040 -0.2259
10507TIP3   OH231463   2.806   6.768   0.886  0.0946 -0.3436  0.0403
10507TIP3    H131464   2.855   6.841   0.924 -2.8217  2.8049 -1.6836
10507TIP3    H231465   2.864   6.733   0.818  2.1730 -0.8228  1.9321
10508TIP3   OH231466   5.963   4.798   0.999 -0.2756  0.4204 -0.0688
10508TIP3    H131467   5.884   4.769   1.045 -0.5630  1.4375  0.1082
10508TIP3    H231468   6.035   4.773   1.056 -0.3109 -2.0343 -0.9986
10509TIP3   OH231469   1.218   5.468   4.856  0.2855 -0.1279  0.1764
10509TIP3    H131470   1.254   5.519   4.929 -1.7986  1.7781 -0.0068
10509TIP3    H231471   1.131   5.442   4.885 -0.2754 -0.0328 -1.3200
10510TIP3   OH231472   7.671   7.399   5.131 -0.2673 -0.0623  0.1866
10510TIP3    H131473   7.617   7.352   5.068 -0.4244 -0.6639  0.7592
10510TIP3    H231474   7.716   7.330   5.180 -0.1987  0.3897  0.7711
10511TIP3   OH231475   3.650   1.659   5.953 -0.3208 -0.1415 -0.4960
10511TIP3    H131476   3.720   1.619   6.004 -0.0910  2.2553  1.2254
10511TIP3    H231477   3.694   1.717   5.891 -0.7245 -0.7418 -1.3729
10512TIP3   OH231478   6.611   1.358   4.187 -0.3269  0.3176 -0.1019
10512TIP3    H131479   6.531   1.375   4.137 -0.2756  1.6431  0.2391
10512TIP3    H231480   6.613   1.427   4.254 -0.0085 -0.9667  1.2638
10513TIP3   OH231481   5.984   3.914   6.324 -0.1642  0.0895 -0.2604
10513TIP3    H131482   5.932   3.835   6.322 -2.0132  1.2145  0.6863
10513TIP3    H231483   5.989   3.943   6.233  1.5962 -1.6859 -0.8134
10514TIP3   OH231484   6.081   1.151   4.277  0.4167  0.4438  0.4466
10514TIP3    H131485   6.170   1.154   4.242 -0.3547  0.7515 -1.6686
10514TIP3    H231486   6.072   1.232   4.327  1.4869  0.1227  1.2037
10515TIP3   OH231487   5.460   6.149   4.403  0.7090  0.3385  0.4232
10515TIP3    H131488   5.541   6.134   4.355  0.8036  1.0651  0.3505
10515TIP3    H231489   5.393   6.102   4.353  1.1951 -0.8871  0.8849
10516TIP3   OH231490   2.320   3.754   3.675  0.2554 -0.6072  0.2342
10516TIP3    H131491   2.336   3.673   3.724 -1.6555 -0.8327  0.5923
10516TIP3    H231492   2.406   3.781   3.644  1.1270 -2.0390  1.2608
10517TIP3   OH231493   2.544   3.067   0.114 -0.3201  0.1354  0.1803
10517TIP3    H131494   2.458   3.069   0.071  0.6772  1.7894 -1.8920
10517TIP3    H231495   2.552   3.152   0.156  0.0921 -0.2190  0.8276
10518TIP3   OH231496   1.128   4.663   2.572 -0.0146  0.1708 -0.0278
10518TIP3    H131497   1.141   4.606   2.497 -0.8881 -1.5639  1.0776
10518TIP3    H231498   1.085   4.741   2.537  1.2209  0.1973 -1.5688
10519TIP3   OH231499   5.829   6.771   2.080  0.2666 -0.1270  0.0220
10519TIP3    H131500   5.853   6.686   2.044  1.2257  0.5394 -0.9739
10519TIP3    H231501   5.799   6.821   2.004 -0.3697  0.4026  0.6075
10520TIP3   OH231502   1.564   0.527   2.036  0.0282 -0.1158  0.3130
10520TIP3    H131503   1.540   0.591   1.969  0.3727 -0.5796 -0.2660
10520TIP3    H231504   1.654   0.550   2.060 -0.2921  0.4103  1.0546
10521TIP3   OH231505   6.191   5.362   5.904 -0.1392  0.2511  0.3069
10521TIP3    H131506   6.148   5.293   5.955  2.6466 -0.9350  1.3074
10521TIP3    H231507   6.120   5.413   5.866 -2.3364 -1.8584  1.3371
10522TIP3   OH231508   0.758   2.175   4.017 -0.1433 -0.3641  0.9592
10522TIP3    H131509   0.733   2.231   4.090  1.2082 -0.0423  1.2071
10522TIP3    H231510   0.823   2.115   4.054  2.4023  1.3482 -0.4315
10523TIP3   OH231511   3.749   1.265   4.763  0.4785  0.1511  0.1561
10523TIP3    H131512   3.790   1.186   4.795  0.9424  0.4592  0.3337
10523TIP3    H231513   3.807   1.296   4.693  0.8587  0.8897  0.7800
10524TIP3   OH231514   3.261   3.168   4.111  0.3048 -0.0612 -0.3622
10524TIP3    H131515   3.283   3.260   4.098  1.3708 -0.1171  0.8237
10524TIP3    H231516   3.291   3.149   4.200 -2.3216 -0.8466  0.4591
10525TIP3   OH231517   4.059   7.776   0.105  0.1192  0.3311  0.2581
10525TIP3    H131518   4.099   7.713   0.046 -1.3918 -0.4941  0.0655
10525TIP3    H231519   4.127   7.842   0.120  1.1606 -0.4499 -0.8689
10526TIP3   OH231520   5.833   6.073   5.983  0.5436 -0.3776 -0.0331
10526TIP3    H131521   5.771   6.118   5.925  0.9659 -1.7081 -1.6153
10526TIP3    H231522   5.899   6.139   6.004 -1.1504  0.9488  1.3644
10527TIP3   OH231523   5.566   4.679   6.367 -0.0651  0.1150  0.0367
10527TIP3    H131524   5.596   4.681   6.277  0.3946 -0.0356  0.1832
10527TIP3    H231525   5.610   4.752   6.410 -0.3572  0.2463  0.1145
10528TIP3   OH231526   7.390   3.855   6.498 -0.0740  0.4153 -0.1576
10528TIP3    H131527   7.428   3.806   6.425 -0.2591  1.2720 -0.8398
10528TIP3    H231528   7.435   3.940   6.496 -0.2722  0.5390  0.5575
10529TIP3   OH231529   7.571   5.433   2.648  0.2587  0.0911 -0.1386
10529TIP3    H131530   7.510   5.374   2.692 -0.0975  0.7831  0.3254
10529TIP3    H231531   7.574   5.403   2.557  0.7775 -1.1801  0.2810
10530TIP3   OH231532   1.367   2.558   3.864 -0.9109  0.2153 -0.6260
10530TIP3    H131533   1.420   2.485   3.831  0.0253 -0.7999  2.7176
10530TIP3    H231534   1.420   2.636   3.847  0.7932 -0.5654  0.7835
10531TIP3   OH231535   7.182   2.117   5.332 -0.3170 -0.1383  0.2544
10531TIP3    H131536   7.198   2.092   5.423  0.2202  1.1367  0.5326
10531TIP3    H231537   7.093   2.087   5.314 -0.2020 -0.9740  0.9868
10532TIP3   OH231538   3.256   2.210   5.059 -0.2255 -0.5050  0.0160
10532TIP3    H131539   3.242   2.231   4.967  1.2804  0.0035 -0.1399
10532TIP3    H231540   3.230   2.289   5.106  0.6104 -0.1258 -0.1372
10533TIP3   OH231541   7.889   5.894   4.996 -0.3246 -0.2600  0.1142
10533TIP3    H131542   7.962   5.833   5.007  0.5064  0.7452  0.3748
10533TIP3    H231543   7.879   5.903   4.901 -1.0008 -1.4030  0.0554
10534TIP3   OH231544   3.516   0.168   2.987 -0.2238  0.2983  0.2739
10534TIP3    H131545   3.458   0.139   3.058 -0.1683  0.7970  0.5235
10534TIP3    H231546   3.603   0.166   3.025 -0.2330  0.9203  0.3322
10535TIP3   OH231547   7.787   1.463   4.622 -0.2870 -0.3741  0.3485
10535TIP3    H131548   7.850   1.392   4.627  3.1461  2.4387  3.1746
10535TIP3    H231549   7.719   1.440   4.685  0.1776 -1.5968  0.4186
10536TIP3   OH231550   0.493   2.202   1.122 -0.2124 -0.2844  0.0206
10536TIP3    H131551   0.587   2.211   1.107 -0.3511  1.6529  0.0783
10536TIP3    H231552   0.481   2.228   1.213 -0.4609 -3.6721  1.1154
10537TIP3   OH231553   0.430   7.127   0.298  0.0520  0.7035  0.3196
10537TIP3    H131554   0.360   7.124   0.233  1.8035  1.3194 -1.7263
10537TIP3    H231555   0.414   7.208   0.346 -0.3634  1.0986 -0.4641
10538TIP3   OH231556   4.692   0.426   2.379 -0.0552 -0.2605  0.1370
10538TIP3    H131557   4.696   0.347   2.434 -0.8651 -1.4091 -1.3684
10538TIP3    H231558   4.687   0.498   2.441  3.2254 -1.1382  1.6826
10539TIP3   OH231559   0.325   3.332   3.458 -0.1562  0.0533 -0.1778
10539TIP3    H131560   0.399   3.274   3.475 -0.3347 -0.1325 -0.0322
10539TIP3    H231561   0.364   3.419   3.452  0.2964 -0.2283 -1.6893
10540TIP3   OH231562   0.327   6.188   4.558  0.0345  0.4967  0.3461
10540TIP3    H131563   0.389   6.140   4.503  0.0327 -1.3346  1.8711
10540TIP3    H231564   0.367   6.275   4.568  1.4946 -0.0893 -0.1121
10541TIP3   OH231565   4.052   6.879   5.951 -0.2476 -0.9905  0.1968
10541TIP3    H131566   4.116   6.839   5.893  0.6245 -0.1724  0.5625
10541TIP3    H231567   3.975   6.893   5.897  0.1458 -1.2978 -0.4506
10542TIP3   OH231568   0.501   1.660   6.571 -0.2621  0.0796  0.1665
10542TIP3    H131569   0.502   1.710   6.652 -3.2583  0.6882 -0.0655
10542TIP3    H231570   0.439   1.589   6.587  2.0279 -2.1977 -0.3616
10543TIP3   OH231571   1.534   4.873   5.717 -1.1104 -0.1655  0.8045
10543TIP3    H131572   1.474   4.810   5.756 -2.0601  1.0298  1.3158
10543TIP3    H231573   1.478   4.936   5.671 -0.0951 -1.0209 -1.8491
10544TIP3   OH231574   5.816   3.939   4.419  0.5751 -0.0951  0.1263
10544TIP3    H131575   5.843   3.911   4.332  2.7005  1.5078  0.1872
10544TIP3    H231576   5.749   4.006   4.402 -2.1440 -2.6311 -0.0680
10545TIP3   OH231577   0.648   6.758   1.855 -0.0795  0.4475  0.1453
10545TIP3    H131578   0.629   6.707   1.776 -1.6017  2.4778 -0.8735
10545TIP3    H231579   0.572   6.744   1.912 -0.0655  0.8419  0.2637
10546TIP3   OH231580   6.464   6.375   5.726  0.4197 -0.2164  0.0687
10546TIP3    H131581   6.451   6.372   5.631 -1.0657 -0.5773  0.2645
10546TIP3    H231582   6.421   6.456   5.754 -1.6848 -1.5177  0.7661
10547TIP3   OH231583   5.392   3.141   1.722 -0.2227 -0.3725 -0.2357
10547TIP3    H131584   5.344   3.210   1.769  0.6569  0.7756 -0.9681
10547TIP3    H231585   5.334   3.065   1.725 -1.5751  0.6242 -0.0893
10548TIP3   OH231586   2.303   3.929   4.845 -0.7536  0.2946  0.0719
10548TIP3    H131587   2.391   3.916   4.809 -0.3968  0.4066  0.8775
10548TIP3    H231588   2.312   3.908   4.938 -1.5340  0.5100  0.2015
10549TIP3   OH231589   5.301   1.902   0.725  0.2243  0.0521 -0.4441
10549TIP3    H131590   5.362   1.892   0.652 -0.9139 -0.5372 -1.3591
10549TIP3    H231591   5.313   1.822   0.777  0.8642  0.3607 -0.1073
10550TIP3   OH231592   0.287   6.343   3.335 -0.2079  0.2043  0.0333
10550TIP3    H131593   0.229   6.379   3.402 -0.7244 -2.4293  1.1104
10550TIP3    H231594   0.254   6.380   3.253 -1.1785  1.4977  0.9626
10551TIP3   OH231595   7.125   5.705   3.770 -0.2626  0.2663  0.2484
10551TIP3    H131596   7.049   5.738   3.721 -0.1445  3.2108  1.8446
10551TIP3    H231597   7.195   5.768   3.752  1.4004 -1.5548  0.0289
10552TIP3   OH231598   5.921   4.669   4.021 -0.1344 -0.3103  0.0997
10552TIP3    H131599   5.896   4.761   4.031 -0.2965 -0.5724  2.8469
10552TIP3    H231600   5.885   4.626   4.098 -0.1662 -2.7467 -1.1673
10553TIP3   OH231601   4.811   3.849   1.949 -0.1074 -0.4502 -0.2337
10553TIP3    H131602   4.868   3.925   1.962  0.7578 -1.2922  1.1119
10553TIP3    H231603   4.744   3.858   2.016 -1.5062  0.4166 -1.6738
10554TIP3   OH231604   1.928   0.190   3.904  0.2506  0.5660  0.3103
10554TIP3    H131605   1.922   0.252   3.977  1.0620 -0.4940  1.3188
10554TIP3    H231606   1.837   0.168   3.884  0.0223  0.5729  1.2833
10555TIP3   OH231607   4.096   7.804   4.968 -0.7562 -0.2922  0.2191
10555TIP3    H131608   4.063   7.841   5.050 -1.0532 -1.2990  0.5729
10555TIP3    H231609   4.172   7.751   4.994  0.7846  1.4770 -0.5095
10556TIP3   OH231610   7.501   6.214   3.688 -0.6054  0.5258 -0.0056
10556TIP3    H131611   7.515   6.271   3.613 -1.7465  1.5393  0.5065
10556TIP3    H231612   7.509   6.125   3.654  0.8573  0.9720 -0.8970
10557TIP3   OH231613   0.567   2.582   4.074  0.6860 -0.1149 -0.4789
10557TIP3    H131614   0.506   2.604   4.003  0.6310  0.8785 -0.1365
10557TIP3    H231615   0.629   2.655   4.076 -0.8877  1.3098  2.2220
10558TIP3   OH231616   8.012   6.390   2.245  0.2074 -0.1223 -0.1055
10558TIP3    H131617   8.053   6.366   2.162 -1.8154  0.6690 -1.4143
10558TIP3    H231618   7.933   6.337   2.250  0.1337  0.0680  1.1785
10559TIP3   OH231619   2.253   1.814   2.502  0.5174  0.2152  0.4133
10559TIP3    H131620   2.159   1.832   2.497  0.4689 -0.2986 -1.5515
10559TIP3    H231621   2.290   1.861   2.427  1.9384  0.9371  1.5287
10560TIP3   OH231622   3.959   3.084   5.466 -0.5805  0.2590 -0.0146
10560TIP3    H131623   4.014   3.067   5.390 -0.4204 -0.1081  0.1799
10560TIP3    H231624   3.879   3.121   5.430  0.9635  3.9478 -0.1288
10561TIP3   OH231625   3.719   4.165   2.202 -0.1842 -0.6593 -0.4292
10561TIP3    H131626   3.629   4.138   2.220 -0.3009  0.7596  1.3797
10561TIP3    H231627   3.711   4.254   2.167  0.5543 -0.0652  0.8611
10562TIP3   OH231628   1.599   1.268   5.405  0.2374 -0.2051  0.1603
10562TIP3    H131629   1.608   1.266   5.500 -1.8419  1.2247  0.4636
10562TIP3    H231630   1.624   1.181   5.376  0.6747 -0.7426  2.0359
10563TIP3   OH231631   1.183   1.258   4.648  0.4750  0.1997 -0.5769
10563TIP3    H131632   1.214   1.343   4.616  3.4032 -1.1144 -1.6493
10563TIP3    H231633   1.130   1.223   4.577 -0.1602  0.8183 -0.4154
10564TIP3   OH231634   5.053   1.295   1.736 -0.2087  0.5435  0.2730
10564TIP3    H131635   5.146   1.292   1.713 -0.0130  0.1294  1.0870
10564TIP3    H231636   5.051   1.334   1.823 -0.9483  2.1621 -0.4133
10565TIP3   OH231637   4.690   2.140   3.786 -0.0085 -0.1663  0.3515
10565TIP3    H131638   4.723   2.055   3.816  0.3022 -0.1239  0.1287
10565TIP3    H231639   4.766   2.184   3.749 -0.3262 -0.0933 -0.2237
10566TIP3   OH231640   0.118   4.570   4.652 -0.0567  0.3981 -0.4341
10566TIP3    H131641   0.112   4.497   4.591  1.3305 -1.6618  1.7105
10566TIP3    H231642   0.198   4.617   4.626  0.2392 -0.1557 -0.5331
10567TIP3   OH231643   3.314   2.145   1.625  0.2766  0.5411  0.0727
10567TIP3    H131644   3.337   2.216   1.565  0.8495  0.3523  0.0679
10567TIP3    H231645   3.325   2.184   1.712  0.0626  0.6177  0.0683
10568TIP3   OH231646   1.942   1.556   5.050 -0.5060  0.0787 -0.1303
10568TIP3    H131647   1.863   1.560   5.103 -0.1077 -0.7200  0.5484
10568TIP3    H231648   1.913   1.576   4.961 -1.6549 -1.2409 -0.0771
10569TIP3   OH231649   1.465   5.882   5.659  0.4620 -0.1238  0.1927
10569TIP3    H131650   1.416   5.962   5.678  0.9650  0.5313 -1.1435
10569TIP3    H231651   1.554   5.902   5.690  1.3021  0.9699 -2.5905
10570TIP3   OH231652   7.658   0.315   4.719 -0.4266 -0.2458 -0.7674
10570TIP3    H131653   7.599   0.324   4.794  1.1049  0.0394  0.4640
10570TIP3    H231654   7.704   0.398   4.714  0.8170 -0.9029 -0.8200
10571TIP3   OH231655   5.155   6.477   5.472 -0.0881  0.5950 -0.0419
10571TIP3    H131656   5.137   6.509   5.383 -0.7770 -0.4695 -0.3047
10571TIP3    H231657   5.154   6.556   5.526 -1.9897  1.0460 -0.6316
10572TIP3   OH231658   7.807   4.783   4.340 -0.0575  0.5380 -0.2502
10572TIP3    H131659   7.785   4.742   4.257  0.1775  0.9197 -0.5051
10572TIP3    H231660   7.861   4.859   4.316 -0.1363  0.7536  0.2351
10573TIP3   OH231661   7.913   0.557   3.348  0.5047 -0.1466  0.7031
10573TIP3    H131662   7.927   0.588   3.258 -3.7595 -0.4253 -0.2983
10573TIP3    H231663   7.938   0.632   3.403  0.9200  0.9506 -0.9054
10574TIP3   OH231664   2.734   2.705   1.939  0.1522  0.0336  0.3006
10574TIP3    H131665   2.776   2.640   1.995 -1.8202  0.7511  2.7697
10574TIP3    H231666   2.679   2.654   1.879 -0.1260 -0.6426  1.1137
10575TIP3   OH231667   2.544   1.460   1.363  0.3643  0.4043 -0.3738
10575TIP3    H131668   2.537   1.367   1.341  0.1987  0.1209  0.8278
10575TIP3    H231669   2.638   1.478   1.362  0.4030  0.1941 -0.4814
10576TIP3   OH231670   7.477   4.584   2.878  0.2063 -0.5632  0.5673
10576TIP3    H131671   7.507   4.674   2.861  0.3334 -0.8489 -0.8994
10576TIP3    H231672   7.540   4.549   2.941  0.9063 -0.0290  0.1881
10577TIP3   OH231673   1.357   7.381   5.498  0.3584 -0.9014  0.1042
10577TIP3    H131674   1.285   7.319   5.483  0.9630 -1.7402  0.5541
10577TIP3    H231675   1.429   7.326   5.530  0.7335  0.1125  1.0727
10578TIP3   OH231676   2.723   1.048   3.429 -0.2293  0.0023 -0.3734
10578TIP3    H131677   2.803   1.057   3.480 -1.0527  0.3464  0.8910
10578TIP3    H231678   2.721   1.127   3.374 -0.5876  0.9166  0.9003
10579TIP3   OH231679   7.775   2.196   6.387 -0.2598  0.1861  0.8386
10579TIP3    H131680   7.709   2.128   6.400 -0.2070 -0.2085 -0.7126
10579TIP3    H231681   7.858   2.153   6.409 -0.1854 -0.4037 -0.5161
10580TIP3   OH231682   8.014   3.914   6.398  0.5545  0.3332 -0.1199
10580TIP3    H131683   8.015   3.947   6.308 -0.4994 -0.1521 -0.3321
10580TIP3    H231684   7.964   3.980   6.447  0.2234  0.0879 -0.1192
10581TIP3   OH231685   2.622   1.527   3.430  0.4649 -0.4623 -0.0131
10581TIP3    H131686   2.637   1.452   3.489 -2.0088 -0.8292  0.2716
10581TIP3    H231687   2.532   1.554   3.449  1.1408  2.3737 -0.4027
10582TIP3   OH231688   3.957   7.065   3.683  0.6067  0.4856 -0.0730
10582TIP3    H131689   4.040   7.113   3.691  1.1312  0.1656 -2.6850
10582TIP3    H231690   3.890   7.131   3.698  1.2025  0.5231  3.3204
10583TIP3   OH231691   1.496   3.155   2.597  0.5042  0.1362  0.0156
10583TIP3    H131692   1.548   3.172   2.676  1.6639 -1.8749 -0.2592
10583TIP3    H231693   1.560   3.142   2.528 -0.3967 -0.8840 -0.6655
10584TIP3   OH231694   7.890   4.917   2.094  0.1396  0.3529 -0.5947
10584TIP3    H131695   7.948   4.845   2.068  0.9744 -0.3109  2.6403
10584TIP3    H231696   7.861   4.893   2.182 -2.0668  2.5390 -0.6342
10585TIP3   OH231697   6.891   5.168   0.757 -0.0190  0.1343  0.1794
10585TIP3    H131698   6.853   5.089   0.795 -1.0296 -0.1099 -1.2423
10585TIP3    H231699   6.817   5.229   0.752  0.2577  0.4139 -0.6444
10586TIP3   OH231700   1.240   3.143   6.046  0.2572 -0.0789  0.1119
10586TIP3    H131701   1.229   3.069   6.106 -1.3662  0.3800  0.4211
10586TIP3    H231702   1.244   3.220   6.103 -0.9322  0.3254 -0.3184
10587TIP3   OH231703   3.617   3.887   2.686 -0.0804  0.6735 -0.6630
10587TIP3    H131704   3.644   3.979   2.685  0.7927  0.4255 -1.1920
10587TIP3    H231705   3.692   3.840   2.649 -1.7337  0.0921 -3.5567
10588TIP3   OH231706   1.197   3.024   2.179  0.0011 -0.3380  0.2606
10588TIP3    H131707   1.247   3.000   2.101  0.7734  0.1919  0.5840
10588TIP3    H231708   1.262   3.030   2.248 -0.4575  0.7691  0.6100
10589TIP3   OH231709   3.919   7.073   6.467  0.2938 -0.4949 -0.4991
10589TIP3    H131710   3.920   7.011   6.394 -0.7206  0.2819 -1.1926
10589TIP3    H231711   3.979   7.034   6.532  1.9422 -0.7539 -2.0916
10590TIP3   OH231712   6.186   4.195   5.354 -0.0829 -0.5870 -0.2258
10590TIP3    H131713   6.142   4.134   5.413 -0.6305 -0.6311 -0.6636
10590TIP3    H231714   6.123   4.267   5.343 -0.3187 -0.9374 -1.3388
10591TIP3   OH231715   1.994   5.284   3.144 -0.6349  0.5266  0.0829
10591TIP3    H131716   2.008   5.338   3.066  2.1857 -0.6657 -0.3839
10591TIP3    H231717   2.011   5.343   3.217 -4.1225  1.8776 -0.0316
10592TIP3   OH231718   2.391   2.638   4.005 -0.2366  0.8117  0.2801
10592TIP3    H131719   2.327   2.643   4.076  1.1241 -0.4147  1.6512
10592TIP3    H231720   2.466   2.592   4.043  0.1957 -0.7436 -2.2007
10593TIP3   OH231721   5.587   2.783   2.693 -0.2198  0.4009 -0.1912
10593TIP3    H131722   5.503   2.790   2.647  0.2126  0.3797 -1.0035
10593TIP3    H231723   5.617   2.873   2.703 -0.7549  0.4753  0.9157
10594TIP3   OH231724   1.001   5.211   6.417 -0.2312 -0.1915  0.2653
10594TIP3    H131725   0.953   5.260   6.483  1.6629  0.6068  1.1486
10594TIP3    H231726   0.946   5.215   6.339  0.5281  5.2694 -0.4013
10595TIP3   OH231727   0.353   1.122   3.186 -0.0317  0.4101 -0.2569
10595TIP3    H131728   0.301   1.137   3.107  1.4573  1.6445 -1.0704
10595TIP3    H231729   0.292   1.083   3.248 -1.8946  1.6845 -1.1828
10596TIP3   OH231730   7.011   0.625   5.510 -0.7255 -0.0726 -0.2196
10596TIP3    H131731   7.095   0.585   5.534 -1.0616  0.0219  1.2096
10596TIP3    H231732   7.009   0.621   5.414  0.0989 -1.7445 -0.2041
10597TIP3   OH231733   4.438   6.463   4.437 -0.3653  0.0412 -0.0632
10597TIP3    H131734   4.451   6.497   4.526  0.9376 -2.6287  0.8928
10597TIP3    H231735   4.486   6.524   4.381  3.4868 -0.9881  1.7443
10598TIP3   OH231736   4.820   0.334   2.824 -1.0268 -0.3467  0.3508
10598TIP3    H131737   4.878   0.260   2.842 -0.4797  0.1846  0.8250
10598TIP3    H231738   4.763   0.339   2.901 -0.7398  0.0185  0.5433
10599TIP3   OH231739   0.837   7.518   5.051  0.5940  0.1152  0.5575
10599TIP3    H131740   0.862   7.591   5.107  0.1382  0.6298  0.1090
10599TIP3    H231741   0.917   7.467   5.040  1.2623  1.2866 -0.2091
10600TIP3   OH231742   6.301   3.038   2.525 -0.0271  0.2003  0.1185
10600TIP3    H131743   6.273   3.032   2.616  1.5409  0.5698  0.6643
10600TIP3    H231744   6.227   3.077   2.479 -0.7820  0.1596  1.2586
10601TIP3   OH231745   0.295   2.107   3.281  0.3072  0.3401  0.2921
10601TIP3    H131746   0.299   2.174   3.349 -1.7116  0.2639  0.5668
10601TIP3    H231747   0.262   2.153   3.204 -1.2266 -0.2950  0.5203
10602TIP3   OH231748   4.242   1.906   0.265  0.0350  0.8827 -0.1199
10602TIP3    H131749   4.180   1.965   0.223  0.7309  0.0312 -2.4576
10602TIP3    H231750   4.328   1.946   0.250  0.2299  1.6026  2.3367
10603TIP3   OH231751   4.287   1.471   3.813  0.0552  0.5675  0.8092
10603TIP3    H131752   4.215   1.415   3.842  0.0359 -0.0626 -0.3747
10603TIP3    H231753   4.275   1.553   3.861 -1.3563  0.4156  0.7535
10604TIP3   OH231754   7.145   5.155   0.158 -0.1578  0.3663 -0.0288
10604TIP3    H131755   7.050   5.163   0.155 -0.2357 -0.4951 -0.3071
10604TIP3    H231756   7.165   5.084   0.097  0.4665 -0.9004  1.5673
10605TIP3   OH231757   0.630   3.327   4.984 -0.3318  0.4007 -0.6082
10605TIP3    H131758   0.624   3.293   5.073 -1.6614 -0.5076 -1.0094
10605TIP3    H231759   0.685   3.405   4.991 -1.2909  0.9547  1.1840
10606TIP3   OH231760   5.288   6.466   3.514 -0.6626  0.5162  0.1276
10606TIP3    H131761   5.265   6.535   3.577 -2.1965 -0.3377  0.5561
10606TIP3    H231762   5.292   6.386   3.567  0.7595  0.1952 -0.4236
10607TIP3   OH231763   2.715   1.001   1.142 -0.3619  0.7788  0.1600
10607TIP3    H131764   2.769   1.000   1.221  0.0455  1.4265 -0.0968
10607TIP3    H231765   2.759   0.942   1.082  0.4303  1.7766 -0.2712
10608TIP3   OH231766   2.861   3.730   4.371 -0.3468 -0.2260  0.1759
10608TIP3    H131767   2.818   3.656   4.413  2.2975 -0.9261  1.8769
10608TIP3    H231768   2.883   3.698   4.283 -1.1111 -0.6788  0.1435
10609TIP3   OH231769   5.285   0.466   6.311 -0.5396  0.5064 -0.0353
10609TIP3    H131770   5.299   0.377   6.279 -1.5404 -0.2481  1.5346
10609TIP3    H231771   5.371   0.507   6.305  0.0644 -0.7353 -0.2501
10610TIP3   OH231772   2.879   4.899   0.617 -0.3948  0.4148  0.2421
10610TIP3    H131773   2.798   4.936   0.652 -0.3444  2.8238 -1.9301
10610TIP3    H231774   2.949   4.954   0.653  0.1121 -0.2781  0.3522
10611TIP3   OH231775   7.288   2.362   2.666  0.3486 -0.3292 -0.4328
10611TIP3    H131776   7.218   2.411   2.711  0.0179 -1.9469  0.9274
10611TIP3    H231777   7.252   2.274   2.655  1.5570 -0.7464 -1.2318
10612TIP3   OH231778   1.381   5.146   2.697  0.9504 -0.1505 -0.7856
10612TIP3    H131779   1.396   5.165   2.789  2.7667 -0.0429 -1.0760
10612TIP3    H231780   1.347   5.057   2.696  1.1534 -0.2383 -0.0454
10613TIP3   OH231781   3.916   4.307   0.552  0.0292  0.9332 -0.0128
10613TIP3    H131782   4.004   4.308   0.515  0.6310 -0.5812  1.3181
10613TIP3    H231783   3.861   4.272   0.482  0.5058  1.6350 -0.7560
10614TIP3   OH231784   3.740   5.223   5.372  0.0616 -0.0395  0.7873
10614TIP3    H131785   3.754   5.158   5.441 -0.0223 -0.6619  0.2193
10614TIP3    H231786   3.808   5.289   5.388  0.2749 -0.3627  1.2376
10615TIP3   OH231787   4.320   6.793   5.835 -0.1738 -0.0094  0.2896
10615TIP3    H131788   4.389   6.734   5.866 -1.1001 -1.4457 -0.3151
10615TIP3    H231789   4.296   6.759   5.749 -0.9841  1.0483  0.0839
10616TIP3   OH231790   1.050   4.180   6.528  0.3228 -0.2165 -0.5581
10616TIP3    H131791   1.049   4.106   6.467  0.8704 -0.7071  0.0045
10616TIP3    H231792   0.965   4.177   6.571 -0.1796  0.3052 -1.4809
10617TIP3   OH231793   7.474   1.949   0.417 -0.8066 -0.3190 -0.1254
10617TIP3    H131794   7.449   1.900   0.495 -1.6305  0.5309  0.1513
10617TIP3    H231795   7.392   1.985   0.383 -0.2789  0.4857 -0.5928
10618TIP3   OH231796   4.449   3.552   3.482  0.6581 -0.3645 -0.1157
10618TIP3    H131797   4.363   3.570   3.521  1.4410  0.4455  1.3331
10618TIP3    H231798   4.470   3.463   3.513  1.2764  0.2756  1.3961
10619TIP3   OH231799   0.455   0.714   1.996  0.9667 -0.3285 -0.4703
10619TIP3    H131800   0.403   0.738   2.073  1.9580  0.7662 -0.1051
10619TIP3    H231801   0.486   0.625   2.016  0.6009 -0.3455  0.0559
10620TIP3   OH231802   1.857   5.466   4.571  0.3938 -0.5756 -0.0618
10620TIP3    H131803   1.840   5.538   4.510  2.2821 -0.8942 -1.0167
10620TIP3    H231804   1.847   5.506   4.657  1.3513  0.8411 -0.5745
10621TIP3   OH231805   2.322   3.459   0.498 -0.8361  0.1071  0.1466
10621TIP3    H131806   2.378   3.480   0.423 -0.0072  0.6896  0.9017
10621TIP3    H231807   2.375   3.481   0.575 -1.9747  0.3446  0.8990
10622TIP3   OH231808   2.476   5.241   0.243  0.1924 -0.0765 -0.2874
10622TIP3    H131809   2.552   5.206   0.197 -0.2382 -0.2983 -0.8395
10622TIP3    H231810   2.401   5.212   0.191 -0.3992 -1.4007  1.2280
10623TIP3   OH231811   6.152   3.821   1.804 -0.1300  0.1956  0.2644
10623TIP3    H131812   6.129   3.773   1.724  0.6342 -1.9082  1.2412
10623TIP3    H231813   6.242   3.795   1.823 -0.6742 -0.3156  2.4341
10624TIP3   OH231814   7.540   2.064   6.417 -0.1380 -0.2043  0.3092
10624TIP3    H131815   7.517   2.041   6.507 -0.8460  0.1977  0.2314
10624TIP3    H231816   7.486   2.006   6.363  1.1490 -1.2877  0.1356
10625TIP3   OH231817   4.463   2.334   2.514  0.4426 -0.1053  0.2014
10625TIP3    H131818   4.517   2.413   2.502  2.1618 -1.4431 -1.6777
10625TIP3    H231819   4.407   2.332   2.437  0.8044 -0.9796 -0.0485
10626TIP3   OH231820   4.292   6.767   4.480 -0.1308 -0.6533 -0.2626
10626TIP3    H131821   4.348   6.845   4.482 -0.2901 -0.5441  1.2866
10626TIP3    H231822   4.315   6.720   4.560 -0.6571 -1.7711 -0.7542
10627TIP3   OH231823   5.451   4.323   1.869 -0.4384  0.4654 -0.0675
10627TIP3    H131824   5.528   4.355   1.916  1.2725 -1.4181 -1.3873
10627TIP3    H231825   5.472   4.231   1.849 -3.0559 -0.1221 -0.4913
10628TIP3   OH231826   7.763   1.250   5.303  0.4409  0.1892 -0.4784
10628TIP3    H131827   7.848   1.229   5.265  0.6548  0.2354 -0.0329
10628TIP3    H231828   7.704   1.183   5.269  1.1921 -1.4222  1.2227
10629TIP3   OH231829   7.218   5.966   2.382 -0.1070  0.6893  0.4341
10629TIP3    H131830   7.163   5.934   2.453 -1.7095  1.4033 -0.4117
10629TIP3    H231831   7.215   6.062   2.390 -0.6025  0.8007 -0.7438
10630TIP3   OH231832   4.787   1.644   1.141  0.7504 -0.4266  0.8008
10630TIP3    H131833   4.726   1.665   1.070  1.2169  0.2311  0.5790
10630TIP3    H231834   4.834   1.567   1.110  1.6064  0.4046 -0.0424
10631TIP3   OH231835   5.030   1.241   1.016  0.3794 -0.0722 -0.3415
10631TIP3    H131836   5.021   1.179   1.089 -1.0152 -0.4894 -0.8400
10631TIP3    H231837   5.097   1.202   0.960  0.0081 -0.7919 -0.3029
10632TIP3   OH231838   6.157   5.002   3.725 -0.0083 -0.6909  0.8484
10632TIP3    H131839   6.148   5.012   3.630 -1.9044 -0.3547  1.0186
10632TIP3    H231840   6.189   4.913   3.737  2.3530 -0.0565 -0.1497
10633TIP3   OH231841   3.808   2.131   3.861 -0.9028  0.1651 -0.1946
10633TIP3    H131842   3.739   2.066   3.870 -2.1611  1.3553 -0.9011
10633TIP3    H231843   3.763   2.210   3.830  0.2974  1.9050  2.1818
10634TIP3   OH231844   3.260   7.439   6.427  0.2784  0.0024  0.1490
10634TIP3    H131845   3.304   7.357   6.406  1.8491  0.7638  0.2648
10634TIP3    H231846   3.312   7.506   6.382  0.1305  1.0900  1.5249
10635TIP3   OH231847   2.760   1.321   3.589 -0.1446  0.2933 -0.3017
10635TIP3    H131848   2.693   1.253   3.582  0.3862 -0.4634  1.3611
10635TIP3    H231849   2.840   1.274   3.613  0.1263  1.5225  1.3985
10636TIP3   OH231850   5.932   2.100   1.860  0.0166  0.5165 -0.7365
10636TIP3    H131851   5.974   2.136   1.937  1.5415 -1.1778 -0.6881
10636TIP3    H231852   5.875   2.169   1.828  1.3073  2.1830  0.4205
10637TIP3   OH231853   0.046   5.430   3.959  0.6840 -0.6385 -0.0075
10637TIP3    H131854   0.089   5.348   3.984  0.5886 -0.8227 -0.4299
10637TIP3    H231855  -0.043   5.423   3.995  0.9044 -0.3986  0.5875
10638TIP3   OH231856   3.653   0.968   0.746  0.3831  0.4026 -0.7388
10638TIP3    H131857   3.616   0.938   0.829  2.2338 -3.1581 -0.9758
10638TIP3    H231858   3.704   1.046   0.768  1.0841 -0.6269  1.6158
10639TIP3   OH231859   8.072   2.967   6.078  0.1999 -0.0264 -0.1378
10639TIP3    H131860   8.106   2.976   6.167  0.7458  2.3282 -0.5133
10639TIP3    H231861   7.981   2.993   6.084  0.3353  0.4963 -0.3266
10640TIP3   OH231862   7.974   0.389   6.310 -0.3186  0.1936  0.5978
10640TIP3    H131863   7.968   0.466   6.368  1.6212 -0.4258  1.7215
10640TIP3    H231864   8.035   0.416   6.242  2.7724 -1.1827  2.6193
10641TIP3   OH231865   0.003   6.549   4.247  0.4462 -0.2861 -0.1909
10641TIP3    H131866   0.077   6.507   4.290  1.2532 -0.4471 -1.6822
10641TIP3    H231867  -0.054   6.577   4.319  2.2112  0.3519  1.0200
10642TIP3   OH231868   1.839   0.418   0.937 -0.0075  0.5025  0.1713
10642TIP3    H131869   1.922   0.371   0.949 -0.5790 -0.2509  1.3641
10642TIP3    H231870   1.793   0.367   0.871  0.8099  1.4136 -1.1417
10643TIP3   OH231871   8.188   2.559   4.423  0.2360 -0.3482 -0.3087
10643TIP3    H131872   8.247   2.631   4.402 -0.5520  1.1029  2.0035
10643TIP3    H231873   8.137   2.544   4.343  1.0114  1.0702 -1.1004
10644TIP3   OH231874   2.867   3.596   1.220 -0.5126  0.0417  0.0022
10644TIP3    H131875   2.896   3.537   1.290 -0.2029 -1.8672 -1.6392
10644TIP3    H231876   2.947   3.614   1.170 -1.3681 -2.2275 -2.3828
10645TIP3   OH231877   3.993   6.839   1.059 -0.2790  0.0184 -0.4133
10645TIP3    H131878   3.967   6.806   1.145  1.0629  0.8601  0.3457
10645TIP3    H231879   4.076   6.795   1.040  0.6580  1.6305 -0.1647
10646TIP3   OH231880   2.647   5.327   3.056  0.5517  0.1760  0.2167
10646TIP3    H131881   2.626   5.297   2.967 -0.7712  0.2071  0.4919
10646TIP3    H231882   2.731   5.371   3.047  0.1929  0.6505 -1.1329
10647TIP3   OH231883   5.500   5.484   6.562 -0.3634  0.0512  0.2386
10647TIP3    H131884   5.561   5.524   6.624  0.1365 -1.1596  0.5440
10647TIP3    H231885   5.514   5.533   6.480  0.8720 -0.0661  0.3573
10648TIP3   OH231886   4.486   1.668   3.350  0.5006  0.2048 -0.2489
10648TIP3    H131887   4.446   1.697   3.268 -0.8000 -0.0322  0.2692
10648TIP3    H231888   4.501   1.574   3.337  0.8756  0.2898 -0.4372
10649TIP3   OH231889   2.103   4.412   2.577 -0.4442 -0.2217  0.2228
10649TIP3    H131890   2.051   4.489   2.598  2.0132  1.1918  1.5801
10649TIP3    H231891   2.070   4.344   2.636 -0.2313  0.8931  1.6924
10650TIP3   OH231892   2.354   3.284   3.046 -0.3885 -0.3264 -0.3150
10650TIP3    H131893   2.338   3.344   2.973  1.9029  2.9895  1.6341
10650TIP3    H231894   2.289   3.308   3.111  0.7239  0.2839  0.5945
10651TIP3   OH231895   4.276   5.822   6.733 -0.0624 -0.0125  0.3355
10651TIP3    H131896   4.306   5.913   6.742 -0.4299  0.0705  0.7741
10651TIP3    H231897   4.345   5.779   6.684  0.1235  0.5036  0.1337
10652TIP3   OH231898   4.398   2.043   2.328 -0.2790  0.3293  0.3433
10652TIP3    H131899   4.493   2.059   2.330 -0.4758  1.6539  0.0776
10652TIP3    H231900   4.390   1.953   2.295  0.8655  0.5222 -0.5484
10653TIP3   OH231901   1.517   2.036   3.206 -1.0306 -0.1258  0.5390
10653TIP3    H131902   1.605   2.001   3.219 -0.0758  1.7548 -0.3870
10653TIP3    H231903   1.510   2.107   3.270 -2.0534 -0.5375  0.8988
10654TIP3   OH231904   3.017   5.887   0.498 -0.5673  0.8144 -0.2311
10654TIP3    H131905   2.980   5.849   0.418 -0.6388  1.9182 -0.7325
10654TIP3    H231906   2.943   5.893   0.558 -0.3675 -0.7378  0.2337
10655TIP3   OH231907   7.925   6.468   6.067 -0.3243  0.2671 -0.1855
10655TIP3    H131908   7.916   6.552   6.021  3.6972  0.0789 -1.7088
10655TIP3    H231909   7.996   6.424   6.021 -0.0266 -2.5567  2.6991
10656TIP3   OH231910   4.060   3.382   4.973  0.3700  0.2193 -0.1282
10656TIP3    H131911   4.080   3.295   4.939 -0.4037  0.1839 -0.5014
10656TIP3    H231912   4.145   3.418   4.998  0.9657  0.2052 -2.0082
10657TIP3   OH231913   1.808   5.895   3.792  0.5887  0.2496  0.0405
10657TIP3    H131914   1.786   5.987   3.799 -0.2907  0.2004 -1.6023
10657TIP3    H231915   1.808   5.877   3.698 -0.3438 -1.6603  0.3528
10658TIP3   OH231916   8.171   4.604   5.316  0.1035 -0.1608  0.0993
10658TIP3    H131917   8.252   4.557   5.299  0.5799  0.8166 -0.4086
10658TIP3    H231918   8.170   4.619   5.410  0.9066  0.4875  0.0197
10659TIP3   OH231919   2.333   1.072   2.442  0.1914 -0.3479 -0.0457
10659TIP3    H131920   2.366   1.162   2.445 -0.6119  0.1883 -3.3725
10659TIP3    H231921   2.411   1.018   2.453  0.7873  0.7143  1.3156
10660TIP3   OH231922   4.168   2.232   4.336 -0.3605  0.2435  0.0980
10660TIP3    H131923   4.104   2.304   4.336  0.6274  1.2658  2.6815
10660TIP3    H231924   4.117   2.155   4.311 -2.0033  1.4505 -0.4888
10661TIP3   OH231925   6.909   3.308   2.449  0.3056  0.2372  0.0158
10661TIP3    H131926   6.912   3.393   2.405  0.4032 -0.3911 -1.2225
10661TIP3    H231927   6.817   3.283   2.447  0.5665 -0.7064 -1.6714
10662TIP3   OH231928   0.170   6.105   0.299  0.1731 -0.2687 -0.2694
10662TIP3    H131929   0.142   6.089   0.209 -0.3711 -0.2344 -0.1105
10662TIP3    H231930   0.176   6.017   0.338 -3.2249 -0.1944  0.7254
10663TIP3   OH231931   8.320   6.374   1.314 -1.0930 -0.1907  0.2764
10663TIP3    H131932   8.263   6.446   1.341  0.2465  0.8226  0.5244
10663TIP3    H231933   8.277   6.337   1.237 -1.5793  1.1752 -0.1345
10664TIP3   OH231934   3.778   6.688   3.746  0.1208 -0.6187 -0.2896
10664TIP3    H131935   3.849   6.634   3.781  0.8794  0.2350 -0.4571
10664TIP3    H231936   3.698   6.641   3.768  0.7362 -1.5692 -0.0291
10665TIP3   OH231937   5.691   7.053   5.241 -0.0897  0.3059  0.3457
10665TIP3    H131938   5.670   7.117   5.309 -0.2811  0.6430 -0.0248
10665TIP3    H231939   5.630   6.981   5.257  0.3000  0.0992  0.9234
10666TIP3   OH231940   6.227   7.792   3.174 -0.2718 -0.4046 -0.3095
10666TIP3    H131941   6.245   7.773   3.082 -0.0732 -0.3765 -0.2751
10666TIP3    H231942   6.133   7.775   3.183 -0.4428  0.2740 -0.6937
10667TIP3   OH231943   2.614   3.606   1.100 -0.2780  0.3795  0.2909
10667TIP3    H131944   2.550   3.580   1.166  0.2188  2.2020  1.5874
10667TIP3    H231945   2.699   3.591   1.141  0.0486  1.2721 -0.0255
10668TIP3   OH231946   3.416   3.536   0.354  0.1620 -0.4706 -0.2668
10668TIP3    H131947   3.501   3.527   0.311  0.4260 -1.4005  0.4165
10668TIP3    H231948   3.392   3.447   0.379 -1.3120 -0.3045 -0.9852
10669TIP3   OH231949   0.466   0.108   6.375  0.7865  0.0789  0.6778
10669TIP3    H131950   0.393   0.151   6.331  0.0992 -0.4959  1.2190
10669TIP3    H231951   0.533   0.099   6.308  0.9669  1.9857  0.5483
10670TIP3   OH231952   2.531   1.573   0.448  0.2578 -0.0367 -0.0532
10670TIP3    H131953   2.561   1.646   0.395 -3.1409  0.2297 -1.9167
10670TIP3    H231954   2.461   1.610   0.503 -0.4893 -1.5628  0.0803
10671TIP3   OH231955   5.665   5.409   3.776 -0.1125  0.1118  0.3236
10671TIP3    H131956   5.595   5.439   3.834 -0.6780 -0.0772 -0.2442
10671TIP3    H231957   5.660   5.469   3.701 -0.5871 -0.7404 -0.3559
10672TIP3   OH231958   6.158   5.021   3.447  0.1796 -0.4306  0.1365
10672TIP3    H131959   6.123   5.106   3.475  0.0203 -0.6458  0.6131
10672TIP3    H231960   6.240   5.042   3.402 -0.1642  0.0208 -0.2926
10673TIP3   OH231961   1.778   0.924   0.237  0.0114  0.2979 -0.1412
10673TIP3    H131962   1.842   0.993   0.220 -0.0392  0.1707 -0.9238
10673TIP3    H231963   1.783   0.868   0.159  0.1760 -0.6821  0.5465
10674TIP3   OH231964   0.496   3.119   0.482 -0.5258  0.2026 -0.3854
10674TIP3    H131965   0.476   3.163   0.399  0.7249 -0.7802 -1.2658
10674TIP3    H231966   0.479   3.027   0.465  1.7485 -0.3064 -0.2887
10675TIP3   OH231967   1.277   2.836   4.875 -0.2673  0.1493 -0.4443
10675TIP3    H131968   1.327   2.779   4.815 -1.2589 -2.1115  0.7482
10675TIP3    H231969   1.192   2.846   4.834 -0.2427  0.4180 -0.4332
10676TIP3   OH231970   3.935   2.215   1.892 -0.5821 -0.4157 -0.1984
10676TIP3    H131971   3.883   2.262   1.827 -0.5087 -0.8010 -0.5363
10676TIP3    H231972   3.932   2.272   1.970 -0.3521  0.2271 -0.6517
10677TIP3   OH231973   1.879   5.317   5.367 -0.6271 -0.2179 -0.1686
10677TIP3    H131974   1.789   5.345   5.383 -0.9847 -1.3411 -0.0924
10677TIP3    H231975   1.876   5.222   5.375  0.2197 -0.4252 -1.8463
10678TIP3   OH231976   3.523   0.971   4.209 -0.4334 -0.1783 -0.2492
10678TIP3    H131977   3.606   0.955   4.255  0.3397 -0.6127 -1.7299
10678TIP3    H231978   3.477   1.034   4.264  1.9415  1.9813 -0.5555
10679TIP3   OH231979   2.336   3.818   6.233 -0.1971 -0.2610  0.4931
10679TIP3    H131980   2.403   3.780   6.177  0.4610  0.1662  0.9774
10679TIP3    H231981   2.255   3.772   6.209  0.4455 -1.4906  0.5985
10680TIP3   OH231982   5.503   3.620   2.714 -0.1757 -0.4067  0.3317
10680TIP3    H131983   5.593   3.622   2.746  0.5665 -0.7868 -1.5913
10680TIP3    H231984   5.482   3.527   2.705 -1.7027 -0.4446  3.0291
10681TIP3   OH231985   1.222   5.701   3.853  0.1156 -0.2262  0.2522
10681TIP3    H131986   1.241   5.610   3.827 -0.7429 -0.3190 -0.1007
10681TIP3    H231987   1.177   5.738   3.777  2.5302  1.2457 -0.5667
10682TIP3   OH231988   3.779   2.681   3.324  0.1344  0.1123  0.2567
10682TIP3    H131989   3.691   2.699   3.291 -0.2976 -0.4648  1.0675
10682TIP3    H231990   3.765   2.629   3.403  1.0641  2.4632  2.1203
10683TIP3   OH231991   6.866   3.808   3.687  0.4547  0.3462  0.4580
10683TIP3    H131992   6.952   3.848   3.695 -0.4078  1.8861  3.2395
10683TIP3    H231993   6.848   3.811   3.593  3.9605 -1.4291 -0.4477
10684TIP3   OH231994   5.754   4.614   1.137  0.6363 -0.6721 -0.2158
10684TIP3    H131995   5.663   4.638   1.119  0.9570 -0.3431 -1.5494
10684TIP3    H231996   5.771   4.646   1.225 -0.6745 -1.1669  0.2459
10685TIP3   OH231997   5.577   4.513   1.484 -0.0680 -0.2855 -0.4716
10685TIP3    H131998   5.643   4.583   1.486  1.2481 -1.4769 -0.8374
10685TIP3    H231999   5.521   4.530   1.560 -0.4539  1.7700 -1.1419
10686TIP3   OH232000   0.187   6.396   2.410 -0.0506 -0.4242 -0.5100
10686TIP3    H132001   0.130   6.417   2.336 -0.3925  0.5248  0.0081
10686TIP3    H232002   0.168   6.464   2.475  0.7858 -0.8087  0.1521
10687TIP3   OH232003   2.541   2.118   0.326  0.2287 -0.0118 -0.1205
10687TIP3    H132004   2.543   2.197   0.271 -0.7869 -0.2481 -0.5100
10687TIP3    H232005   2.449   2.105   0.348  0.4933 -0.5575  0.7349
10688TIP3   OH232006   4.538   3.118   3.128  0.2325  0.3011  0.0973
10688TIP3    H132007   4.516   3.048   3.190  1.1499 -1.8226 -1.8302
10688TIP3    H232008   4.624   3.149   3.158  0.7738 -0.8613 -0.1743
10689TIP3   OH232009   4.713   1.538   2.521  0.6190  0.1900  0.2535
10689TIP3    H132010   4.647   1.469   2.516  2.7134 -1.9467  0.2169
10689TIP3    H232011   4.741   1.539   2.612  1.4637  0.0814  0.0104
10690TIP3   OH232012   7.336   0.369   4.686  0.6434 -0.4708 -0.0689
10690TIP3    H132013   7.395   0.443   4.701 -0.1609 -0.2696  2.7436
10690TIP3    H232014   7.392   0.301   4.649  1.9399  0.7273 -0.3952
10691TIP3   OH232015   3.164   7.265   0.818 -0.1652  0.0971 -0.1822
10691TIP3    H132016   3.158   7.290   0.726 -0.9977 -0.2027 -0.2208
10691TIP3    H232017   3.098   7.196   0.828  1.8644 -1.9513 -0.0477
10692TIP3   OH232018   4.615   0.957   2.812 -0.0201  0.7528  0.4907
10692TIP3    H132019   4.655   1.018   2.873  1.8892  1.4459 -1.3257
10692TIP3    H232020   4.568   1.012   2.749  0.0965  0.2241 -0.0703
10693TIP3   OH232021   2.915   2.992   0.758  0.2283 -0.2212 -0.1884
10693TIP3    H132022   2.851   2.929   0.726  0.2211 -1.1797  1.6029
10693TIP3    H232023   2.869   3.075   0.759 -0.8470 -0.8126  0.6070
10694TIP3   OH232024   3.934   7.405   1.155 -0.3973 -0.1432 -0.3366
10694TIP3    H132025   3.876   7.343   1.198 -0.4740  0.6240  0.6985
10694TIP3    H232026   3.896   7.418   1.068  0.5941 -2.8923 -1.2916
10695TIP3   OH232027   3.997   2.302   6.315  0.0332  0.8145  0.1210
10695TIP3    H132028   4.049   2.317   6.394 -0.5009  1.1619  0.4133
10695TIP3    H232029   4.060   2.266   6.252  1.1515  3.1900 -0.2351
10696TIP3   OH232030   3.846   7.798   6.048 -0.2325 -0.1121  0.2430
10696TIP3    H132031   3.884   7.710   6.052 -0.5794 -0.2227  1.5189
10696TIP3    H232032   3.868   7.829   5.961 -0.5624 -1.6665 -0.4321
10697TIP3   OH232033   1.553   2.110   3.518 -0.1730  0.3723  0.2959
10697TIP3    H132034   1.503   2.034   3.547 -0.3866  0.7624  0.9487
10697TIP3    H232035   1.488   2.179   3.507  0.2072  0.8710  1.1062
10698TIP3   OH232036   7.554   1.334   1.260 -0.2659  0.7667  0.1343
10698TIP3    H132037   7.515   1.365   1.178 -0.3196 -1.2104 -0.6335
10698TIP3    H232038   7.479   1.315   1.316 -0.2578  1.1081  0.2650
10699TIP3   OH232039   2.502   0.510   0.145 -0.6196 -0.1874 -0.0179
10699TIP3    H132040   2.576   0.543   0.093 -1.4084 -0.2267 -1.1946
10699TIP3    H232041   2.454   0.452   0.086 -1.3371 -0.5369  0.8766
10700TIP3   OH232042   5.764   0.057   6.059  0.3911  0.4437  0.1160
10700TIP3    H132043   5.784  -0.002   5.986 -0.9383  0.6117 -0.4225
10700TIP3    H232044   5.765   0.001   6.136 -1.3094 -0.4440 -0.4415
10701TIP3   OH232045   3.752   6.528   4.620  0.1223 -0.0071 -0.0280
10701TIP3    H132046   3.682   6.499   4.561 -0.0688  0.8204 -0.2209
10701TIP3    H232047   3.709   6.590   4.680  0.5366 -0.0415  0.3122
10702TIP3   OH232048   3.686   0.985   0.446  0.0353 -0.0052  0.1116
10702TIP3    H132049   3.725   0.940   0.371 -0.4331  2.0161 -1.4470
10702TIP3    H232050   3.751   1.050   0.473  0.2440 -0.7791  1.5706
10703TIP3   OH232051   0.404   4.579   1.378  0.2613  0.1117 -0.5463
10703TIP3    H132052   0.402   4.595   1.473  0.5776  0.9680 -0.6784
10703TIP3    H232053   0.431   4.662   1.340  0.4892 -0.3306 -1.3739
10704TIP3   OH232054   3.758   3.183  -0.006 -0.6059  0.5133  0.0479
10704TIP3    H132055   3.827   3.221   0.048 -0.4183 -0.8404  0.8017
10704TIP3    H232056   3.683   3.177   0.052 -0.6550 -0.1681 -0.0824
10705TIP3   OH232057   5.449   6.895   2.629 -0.4741  0.5701  0.0590
10705TIP3    H132058   5.353   6.895   2.635 -0.4548 -1.2228  0.9119
10705TIP3    H232059   5.477   6.825   2.687  1.2651 -0.2917 -1.6930
10706TIP3   OH232060   7.291   3.047   1.262 -0.2778 -0.5199 -0.2925
10706TIP3    H132061   7.245   3.058   1.346  0.8095  0.4988  0.1958
10706TIP3    H232062   7.304   3.136   1.230  0.9349 -0.8074 -0.6383
10707TIP3   OH232063   5.940   2.012   0.186 -0.2819  0.0777 -0.1555
10707TIP3    H132064   5.947   2.067   0.264 -1.4543  0.0137  0.0013
10707TIP3    H232065   6.021   1.960   0.188 -1.4240 -1.8696  2.5581
10708TIP3   OH232066   7.039   2.877   6.384  0.2729  0.1179  0.2292
10708TIP3    H132067   6.993   2.961   6.382 -0.9693 -0.5543 -1.0234
10708TIP3    H232068   7.067   2.867   6.475  0.8237  2.0611  0.3321
10709TIP3   OH232069   0.252   4.593   3.359  0.4362 -0.4329 -0.1573
10709TIP3    H132070   0.338   4.628   3.383 -0.2371  1.9598 -0.9089
10709TIP3    H232071   0.196   4.612   3.435 -0.1265  0.9917 -0.8838
10710TIP3   OH232072   3.579   3.270   4.294 -0.7093 -0.4110 -0.6537
10710TIP3    H132073   3.621   3.191   4.260 -2.6200 -1.9014  0.2402
10710TIP3    H232074   3.495   3.239   4.328 -0.8505  1.7691  1.1673
10711TIP3   OH232075   1.389   7.078   1.941 -0.3509 -0.0539  0.3547
10711TIP3    H132076   1.449   7.026   1.889 -1.3403 -1.4833  0.5856
10711TIP3    H232077   1.385   7.162   1.896  1.5132 -0.0369  0.1431
10712TIP3   OH232078   5.907   1.402   1.118  0.3307  0.2483  0.1885
10712TIP3    H132079   5.932   1.470   1.055  0.0749  0.1070 -0.0686
10712TIP3    H232080   5.811   1.410   1.124  0.2918 -0.1514  0.0893
10713TIP3   OH232081   3.413   1.167   1.264  0.0576  0.0221 -0.0639
10713TIP3    H132082   3.393   1.076   1.287  0.0734  0.1837  0.6245
10713TIP3    H232083   3.389   1.175   1.172  1.9951 -1.2620 -0.7621
10714TIP3   OH232084   1.274   2.163   4.040 -0.2181  0.1421 -0.1068
10714TIP3    H132085   1.319   2.183   4.122 -0.1786  0.5426 -0.2197
10714TIP3    H232086   1.244   2.248   4.008  1.0740  0.2103 -1.2523
10715TIP3   OH232087   2.744   3.855   5.627  0.0274 -0.3518 -0.6080
10715TIP3    H132088   2.743   3.779   5.685 -2.4990 -0.6612 -0.9422
10715TIP3    H232089   2.756   3.818   5.540 -2.0635 -0.5315 -0.8701
10716TIP3   OH232090   4.274   0.637   2.544  0.7637  0.4526 -0.4565
10716TIP3    H132091   4.215   0.583   2.491 -0.5608  1.1009  0.2990
10716TIP3    H232092   4.359   0.629   2.501  0.5326 -1.9005 -0.5854
10717TIP3   OH232093   1.044   7.299   2.661 -0.0095  0.6016  0.2243
10717TIP3    H132094   1.036   7.250   2.579 -1.3499  1.5798 -0.2617
10717TIP3    H232095   1.069   7.233   2.726 -0.7135 -0.5282 -0.6179
10718TIP3   OH232096   6.953   1.373   0.240 -0.4890  0.2015 -0.3600
10718TIP3    H132097   7.005   1.453   0.231  0.1194 -0.1630 -0.1325
10718TIP3    H232098   6.869   1.403   0.276 -0.8079  0.9179 -1.6371
10719TIP3   OH232099   1.152   5.488   5.321 -0.3945 -0.4752 -0.3851
10719TIP3    H132100   1.171   5.521   5.410  0.1845 -0.1101 -0.6366
10719TIP3    H232101   1.121   5.398   5.335 -0.3325 -0.4124  0.1920
10720TIP3   OH232102   5.353   4.983   2.314  0.3665 -0.4492 -0.2249
10720TIP3    H132103   5.323   5.053   2.256  1.0225  0.4231  0.4750
10720TIP3    H232104   5.421   5.023   2.367 -0.4573 -1.1293  1.4041
10721TIP3   OH232105   7.818   2.519   0.754  0.4068  0.9296  0.3235
10721TIP3    H132106   7.890   2.547   0.811  0.7801 -0.3111  0.5065
10721TIP3    H232107   7.835   2.561   0.670  0.0137  2.5531  1.0195
10722TIP3   OH232108   6.188   6.268   4.863 -0.1311  0.8890 -0.5515
10722TIP3    H132109   6.236   6.254   4.944  0.1391 -0.0409 -0.8655
10722TIP3    H232110   6.169   6.362   4.863 -1.5601  0.6686  1.3585
10723TIP3   OH232111   5.497   5.648   6.361 -0.5690 -0.0521 -0.0398
10723TIP3    H132112   5.530   5.714   6.301 -1.3961 -0.4931 -1.0195
10723TIP3    H232113   5.422   5.689   6.403 -0.1049  0.1885  0.5741
10724TIP3   OH232114   2.325   4.432   2.776  0.1916 -0.3710  0.1085
10724TIP3    H132115   2.417   4.429   2.747 -0.0072  1.1262 -0.8205
10724TIP3    H232116   2.276   4.443   2.694 -0.8720 -1.6780  0.5523
10725TIP3   OH232117   6.650   6.973   0.650 -0.6055  0.6019 -0.4218
10725TIP3    H132118   6.642   7.068   0.660  1.4090  0.6924  0.8298
10725TIP3    H232119   6.641   6.938   0.738  0.0106 -0.2479 -0.6821
10726TIP3   OH232120   1.437   6.436   5.644 -0.2553  0.3227 -0.1018
10726TIP3    H132121   1.370   6.417   5.578 -0.6000 -0.6831  0.5169
10726TIP3    H232122   1.389   6.437   5.727  0.6373 -1.6038  0.4995
10727TIP3   OH232123   3.489   3.487   3.153 -0.3717  0.0340  0.0783
10727TIP3    H132124   3.540   3.543   3.211  0.2795  0.1195 -0.5575
10727TIP3    H232125   3.413   3.461   3.204 -0.5370  1.2716  0.4885
10728TIP3   OH232126   0.761   0.368   5.756 -0.0579 -0.5683  0.2419
10728TIP3    H132127   0.751   0.461   5.780  0.4486 -0.2405 -0.7581
10728TIP3    H232128   0.701   0.356   5.682 -1.3791 -1.4880  1.4077
10729TIP3   OH232129   4.263   3.163   4.616 -0.3307  0.1922 -0.0447
10729TIP3    H132130   4.222   3.215   4.548  0.4999 -1.1669 -1.6701
10729TIP3    H232131   4.241   3.072   4.594  1.4199 -0.4008  0.4339
10730TIP3   OH232132   7.083   5.763   4.579 -0.6237  0.1631 -0.0118
10730TIP3    H132133   7.062   5.856   4.588 -1.8639 -0.1194  0.1920
10730TIP3    H232134   7.103   5.753   4.486  0.5308  0.8131  0.1449
10731TIP3   OH232135   5.732   7.526   4.275  0.3058  0.2871  0.3197
10731TIP3    H132136   5.644   7.562   4.265  0.7667  2.0099  1.7868
10731TIP3    H232137   5.786   7.602   4.299  1.8611 -0.9965  1.0572
10732TIP3   OH232138   7.061   4.710   5.005  0.2131 -0.2848  0.5035
10732TIP3    H132139   7.084   4.661   5.084  2.1599  1.9022  1.4158
10732TIP3    H232140   7.128   4.685   4.941 -0.7270 -1.2359 -0.1371
10733TIP3   OH232141   7.931   1.874   6.194 -0.3960  0.1480 -0.2771
10733TIP3    H132142   7.845   1.833   6.192 -0.9536  1.2283  0.4693
10733TIP3    H232143   7.944   1.908   6.106 -0.8977  0.3087 -0.2892
10734TIP3   OH232144   2.690   6.122   6.485 -0.1285  0.3408  0.2151
10734TIP3    H132145   2.652   6.209   6.491  0.3174  0.6931 -1.3753
10734TIP3    H232146   2.619   6.067   6.451 -0.2276  0.2259  0.6090
10735TIP3   OH232147   5.024   2.660   1.241  0.1151 -0.7154  0.0731
10735TIP3    H132148   5.028   2.605   1.163  3.1677  0.1653 -0.5081
10735TIP3    H232149   5.105   2.642   1.288  0.7584  2.4189  0.3856
10736TIP3   OH232150   2.619   5.912   0.830  0.5734 -0.1713 -0.3584
10736TIP3    H132151   2.662   5.832   0.862  1.0323  0.3614  0.3829
10736TIP3    H232152   2.531   5.908   0.867  0.5115 -0.4537 -0.5302
10737TIP3   OH232153   1.586   3.582   5.481 -0.2892  0.1642  0.2308
10737TIP3    H132154   1.589   3.490   5.455 -0.7987  0.4800 -1.0039
10737TIP3    H232155   1.654   3.590   5.548  0.3272 -0.9326 -0.2344
10738TIP3   OH232156   7.079   5.601   0.799 -0.2836 -0.1524  0.0606
10738TIP3    H132157   7.071   5.695   0.780 -1.4986 -0.2748 -0.1030
10738TIP3    H232158   7.081   5.559   0.714  0.8015 -0.2481  0.1257
10739TIP3   OH232159   6.517   3.377   2.454 -0.2931  0.2244  0.7355
10739TIP3    H132160   6.423   3.370   2.473 -0.4523  0.1286 -0.0632
10739TIP3    H232161   6.557   3.307   2.506 -0.9127 -1.1338 -0.5499
10740TIP3   OH232162   0.219   4.859   4.960 -0.4556 -0.1189 -0.1538
10740TIP3    H132163   0.245   4.867   5.052  0.2461  1.0300 -0.4239
10740TIP3    H232164   0.255   4.938   4.919 -0.4059 -0.8263 -1.4997
10741TIP3   OH232165   6.983   3.394   5.324 -0.2389 -0.4624 -0.1302
10741TIP3    H132166   7.054   3.340   5.290 -0.5313 -0.5229 -0.6618
10741TIP3    H232167   6.922   3.332   5.364 -0.9618 -0.6301 -1.4340
10742TIP3   OH232168   4.223   3.309   5.782  0.0770  0.2627  0.4792
10742TIP3    H132169   4.157   3.255   5.739  1.3238  1.0969 -2.7830
10742TIP3    H232170   4.178   3.346   5.858 -3.0299  0.3485 -1.2402
10743TIP3   OH232171   8.201   0.353   2.970 -0.1291 -0.0862  0.6241
10743TIP3    H132172   8.265   0.388   2.908  0.5417 -2.6413 -0.2528
10743TIP3    H232173   8.124   0.334   2.918 -0.5931  0.3654  1.1376
10744TIP3   OH232174   2.139   6.170   2.514  0.3496 -0.2496 -0.4959
10744TIP3    H132175   2.175   6.101   2.571 -1.1072 -0.9559 -0.3737
10744TIP3    H232176   2.210   6.190   2.453  1.2107 -1.0088  0.2101
10745TIP3   OH232177   4.713   7.262   5.190 -0.1169  0.2149  0.6210
10745TIP3    H132178   4.776   7.246   5.261  0.0529 -0.8281  0.2670
10745TIP3    H232179   4.629   7.234   5.226 -0.0216 -0.3669  0.4064
10746TIP3   OH232180   6.115   5.683   2.432 -0.3307  0.1711 -0.1770
10746TIP3    H132181   6.058   5.742   2.382  0.5108  0.3584 -0.9339
10746TIP3    H232182   6.142   5.616   2.369 -0.6122 -0.5657  0.4667
10747TIP3   OH232183   5.292   2.568   5.534  0.3026  0.4351 -0.3157
10747TIP3    H132184   5.363   2.530   5.482 -0.0047  1.4472 -1.5164
10747TIP3    H232185   5.327   2.574   5.623  0.4723 -2.3614 -0.0831
10748TIP3   OH232186   1.971   4.911   6.649  0.0824 -0.3924  0.1433
10748TIP3    H132187   1.996   4.959   6.570 -1.0820  0.1121  0.0617
10748TIP3    H232188   1.986   4.973   6.720 -0.9124 -0.0636  0.0893
10749TIP3   OH232189   1.731   7.536   3.378  0.2596  0.1387  0.6202
10749TIP3    H132190   1.642   7.521   3.345  0.9599  0.5251 -1.5815
10749TIP3    H232191   1.752   7.455   3.426 -0.6296 -0.7247 -0.3834
10750TIP3   OH232192   1.319   2.038   1.917  0.1251 -0.1511  0.4463
10750TIP3    H132193   1.413   2.049   1.930 -0.1774  3.0329  0.9180
10750TIP3    H232194   1.310   1.956   1.869  2.9640 -1.4533  1.9119
10751TIP3   OH232195   0.931   6.176   2.470  0.4453 -0.4660 -0.0047
10751TIP3    H132196   0.878   6.097   2.459  0.5442 -0.5058 -0.2111
10751TIP3    H232197   0.944   6.208   2.381  1.0999 -0.6814  0.0065
10752TIP3   OH232198   2.686   5.472   1.500  0.9971 -0.3782 -0.6040
10752TIP3    H132199   2.720   5.441   1.584 -1.6754 -2.0001  0.0097
10752TIP3    H232200   2.603   5.425   1.489  0.6893  0.6430 -3.6292
10753TIP3   OH232201   5.658   7.442   5.265 -0.4688  0.1961  0.4461
10753TIP3    H132202   5.745   7.481   5.252 -0.1883 -0.6500 -0.2415
10753TIP3    H232203   5.673   7.371   5.327 -0.4934 -0.5467 -0.3803
10754TIP3   OH232204   4.357   0.937   2.995  0.4347  0.0801 -0.0469
10754TIP3    H132205   4.299   0.940   2.919  1.4045  0.9875 -0.7742
10754TIP3    H232206   4.421   1.007   2.980  1.5087 -0.6569  0.9003
10755TIP3   OH232207   5.110   5.291   0.787  0.8577  0.4577 -0.4716
10755TIP3    H132208   5.203   5.311   0.796  0.9072  0.0307  0.0318
10755TIP3    H232209   5.108   5.202   0.751  0.6642 -0.0764  0.7982
10756TIP3   OH232210   1.655   0.317   4.684  0.2404 -0.3305 -0.1545
10756TIP3    H132211   1.697   0.252   4.627 -0.7853 -0.1176 -1.1868
10756TIP3    H232212   1.662   0.399   4.635  0.6252  0.1657  0.6918
10757TIP3   OH232213   4.563   0.542   5.959  0.0212 -0.4471  0.0027
10757TIP3    H132214   4.569   0.479   5.887 -1.8131 -1.0204  0.2839
10757TIP3    H232215   4.597   0.494   6.035  2.1250  0.2185 -0.4597
10758TIP3   OH232216   0.718   4.872   5.751 -0.3141 -0.2163 -0.3098
10758TIP3    H132217   0.799   4.894   5.705 -0.0485  1.4594  0.8877
10758TIP3    H232218   0.729   4.908   5.839 -2.2137 -0.2948  0.0040
10759TIP3   OH232219   2.059   7.806   1.367  0.0134 -0.4271 -0.3030
10759TIP3    H132220   1.967   7.783   1.355  0.2172 -1.5995  0.2338
10759TIP3    H232221   2.107   7.729   1.336  0.8437  0.4078 -1.1606
10760TIP3   OH232222   0.404   5.043   3.132 -0.1692  0.2643  0.1492
10760TIP3    H132223   0.334   5.045   3.198 -0.0025  0.4354  0.3244
10760TIP3    H232224   0.431   5.135   3.123  1.0639  0.0444  1.2134
10761TIP3   OH232225   4.196   3.069   3.156 -0.4501 -0.2265 -0.3490
10761TIP3    H132226   4.176   3.079   3.249  1.2969  1.5515 -0.0907
10761TIP3    H232227   4.112   3.084   3.112 -0.9055  1.0798  0.8651
10762TIP3   OH232228   2.695   3.113   1.574 -0.4118  0.2948  0.0845
10762TIP3    H132229   2.778   3.090   1.533 -0.5439 -1.6065  0.8005
10762TIP3    H232230   2.638   3.137   1.501 -0.2455 -1.7209 -0.7775
10763TIP3   OH232231   3.502   3.951   5.498 -0.0065 -0.3019  0.1614
10763TIP3    H132232   3.537   4.040   5.499  0.5531 -0.5072 -0.5610
10763TIP3    H232233   3.574   3.897   5.531 -1.0024 -0.2855  2.5381
10764TIP3   OH232234   2.801   4.305   4.753 -0.3458  0.4002  0.5232
10764TIP3    H132235   2.828   4.334   4.840 -1.5860  2.4958  0.2934
10764TIP3    H232236   2.883   4.301   4.703  0.1006  2.0520  1.0436
10765TIP3   OH232237   0.947   7.718   6.445 -0.5587  0.2070  0.4476
10765TIP3    H132238   0.989   7.633   6.446  0.2676  0.6075  0.3212
10765TIP3    H232239   0.912   7.729   6.534  1.5616  0.8148  1.2696
10766TIP3   OH232240   1.723   4.838   0.098  0.3067  0.4370 -0.2230
10766TIP3    H132241   1.653   4.784   0.135 -0.2192  0.6474 -0.8703
10766TIP3    H232242   1.737   4.908   0.163  0.1369  0.2115  0.0564
10767TIP3   OH232243   4.544   0.092   4.386 -0.0359  0.4488 -0.4668
10767TIP3    H132244   4.568   0.012   4.339 -0.3390 -0.1182  0.3284
10767TIP3    H232245   4.588   0.162   4.337  2.0601 -0.4105  0.0766
10768TIP3   OH232246   3.502   7.768   5.865 -0.1519 -0.1963  0.3366
10768TIP3    H132247   3.552   7.728   5.794 -0.1196 -1.4617  1.0360
10768TIP3    H232248   3.485   7.857   5.836 -0.2808 -0.7371 -1.3158
10769TIP3   OH232249   6.408   7.390   6.009  0.3638 -0.7598 -0.4130
10769TIP3    H132250   6.323   7.347   6.017 -0.8558  1.2955 -1.5945
10769TIP3    H232251   6.424   7.395   5.915 -0.6579  3.2428 -0.5243
10770TIP3   OH232252   3.170   6.553   3.114  0.3880 -0.7424  0.2604
10770TIP3    H132253   3.129   6.547   3.200  0.1676 -0.5749  0.1708
10770TIP3    H232254   3.260   6.523   3.127  0.8286  0.7474  0.8802
10771TIP3   OH232255   4.770   3.851   2.644  0.2937 -0.0920  0.1728
10771TIP3    H132256   4.710   3.779   2.624 -0.5698 -0.0388  2.3283
10771TIP3    H232257   4.840   3.842   2.580 -0.7180 -1.7257 -0.7759
10772TIP3   OH232258   3.798   4.704   2.105 -0.8540  0.3068  0.1976
10772TIP3    H132259   3.860   4.746   2.165 -2.8681  1.0865  1.8924
10772TIP3    H232260   3.713   4.712   2.149 -2.0345 -1.6045 -1.5275
10773TIP3   OH232261   0.774   7.207   4.898 -0.4992 -0.4730  0.2783
10773TIP3    H132262   0.747   7.274   4.836  2.8667 -0.4631 -1.4032
10773TIP3    H232263   0.742   7.238   4.983 -2.5405  1.1099 -0.9982
10774TIP3   OH232264   8.051   3.670   4.420 -0.4393 -0.3463  0.0274
10774TIP3    H132265   8.011   3.588   4.449  0.8416 -1.2048 -0.5643
10774TIP3    H232266   8.040   3.729   4.495  1.3516 -2.0051  1.7253
10775TIP3   OH232267   2.877   3.596   1.600 -0.3677  0.4231  0.6379
10775TIP3    H132268   2.868   3.687   1.627  1.2905  0.8479 -0.1162
10775TIP3    H232269   2.932   3.555   1.667  1.2391  0.7231 -0.4471
10776TIP3   OH232270   0.809   2.428   1.350  0.1267  0.2646  0.0160
10776TIP3    H132271   0.885   2.436   1.407 -0.0634 -0.1065  0.3290
10776TIP3    H232272   0.742   2.387   1.406 -0.5067  1.1696 -0.0560
10777TIP3   OH232273   0.655   3.320   0.616 -0.0320  0.0597  0.5424
10777TIP3    H132274   0.623   3.239   0.576  1.9245 -1.1103  1.2050
10777TIP3    H232275   0.749   3.322   0.595 -0.2517  2.9141 -0.6717
10778TIP3   OH232276   2.802   5.024   5.633  0.3764 -0.2874  0.7815
10778TIP3    H132277   2.862   4.992   5.566  0.4340 -2.0397  1.5969
10778TIP3    H232278   2.768   5.107   5.598  1.0491 -0.7170 -1.0028
10779TIP3   OH232279   5.885   0.028   0.887  0.1712 -0.7513 -0.1295
10779TIP3    H132280   5.958   0.082   0.857  0.2172 -1.6662 -1.7723
10779TIP3    H232281   5.920  -0.061   0.892 -0.7051 -1.1410 -0.5620
10780TIP3   OH232282   5.451   0.526   6.018  0.1739 -0.5176 -0.3560
10780TIP3    H132283   5.455   0.435   6.045 -0.7488 -0.6254 -0.5333
10780TIP3    H232284   5.365   0.535   5.975 -0.9393  1.0328  1.9383
10781TIP3   OH232285   8.180   0.760   1.131 -0.4699 -0.2004  0.1405
10781TIP3    H132286   8.136   0.755   1.046 -0.0810  0.6964 -0.1296
10781TIP3    H232287   8.142   0.838   1.173 -0.5745 -0.5674  0.7481
10782TIP3   OH232288   5.403   6.736   3.338 -0.4230 -0.1120  0.4666
10782TIP3    H132289   5.322   6.686   3.333 -0.9504  0.7492  0.1214
10782TIP3    H232290   5.471   6.671   3.354 -1.1382 -0.8850  0.4118
10783TIP3   OH232291   1.124   6.372   0.346 -0.3162 -0.3582  0.1215
10783TIP3    H132292   1.080   6.328   0.273 -1.3947 -0.7893  1.0150
10783TIP3    H232293   1.217   6.356   0.330 -0.4426  0.4277 -1.7208
10784TIP3   OH232294   1.871   6.061   6.028  0.0830 -0.0391 -0.2680
10784TIP3    H132295   1.907   6.111   5.956 -0.6768  1.8133  0.5634
10784TIP3    H232296   1.943   6.005   6.058  2.1934  3.0423  0.9448
10785TIP3   OH232297   4.463   7.175   5.242 -0.2544 -0.1541 -0.3719
10785TIP3    H132298   4.423   7.101   5.288  0.5454 -0.7770 -0.6388
10785TIP3    H232299   4.418   7.177   5.158  0.0333 -0.6460 -0.5461
10786TIP3   OH232300   6.767   2.173   4.107 -0.3774 -0.2175  0.0151
10786TIP3    H132301   6.778   2.135   4.195  0.6272 -0.2010 -0.0879
10786TIP3    H232302   6.706   2.114   4.063 -0.6008 -0.4365  0.6058
10787TIP3   OH232303   6.402   7.739   2.211 -0.3829  0.6197  0.2129
10787TIP3    H132304   6.383   7.741   2.118 -1.1667 -1.1794  0.2943
10787TIP3    H232305   6.325   7.778   2.252 -0.0621  1.3590  0.1378
10788TIP3   OH232306   4.204   4.547   2.196  0.2363 -0.6434 -0.1360
10788TIP3    H132307   4.189   4.551   2.102 -0.1248 -2.3655 -0.1830
10788TIP3    H232308   4.297   4.524   2.205  0.8560  1.6736  0.0096
10789TIP3   OH232309   0.964   5.250   1.099  0.1306 -0.2625  0.1607
10789TIP3    H132310   0.884   5.293   1.068  1.6347  0.3997 -3.1947
10789TIP3    H232311   0.933   5.167   1.136 -2.2150  0.7340  0.6926
10790TIP3   OH232312   4.748   7.603   4.905  0.0018 -0.6318  0.1187
10790TIP3    H132313   4.836   7.627   4.934 -0.0011  0.2212 -0.5344
10790TIP3    H232314   4.699   7.685   4.907 -0.8077 -1.1151  0.5512
10791TIP3   OH232315   0.529   0.095   2.159  0.1479  0.2142 -0.5641
10791TIP3    H132316   0.544   0.010   2.118  1.5571  0.5014 -0.7179
10791TIP3    H232317   0.441   0.121   2.130  1.6576  1.2746 -5.1060
10792TIP3   OH232318   6.956   1.490   1.911 -0.3755 -0.0745  0.6360
10792TIP3    H132319   7.047   1.479   1.885 -0.4024 -0.6000  0.7553
10792TIP3    H232320   6.960   1.507   2.005 -0.4595 -1.0713  0.8235
10793TIP3   OH232321   0.361   4.162   0.077 -0.1874 -0.3462 -0.4256
10793TIP3    H132322   0.265   4.170   0.076 -0.2197 -0.7916 -1.4574
10793TIP3    H232323   0.386   4.198   0.163 -1.0348  2.2621 -1.1684
10794TIP3   OH232324   7.044   4.676   6.430  0.7031  0.2267  0.0965
10794TIP3    H132325   7.020   4.658   6.339  1.3740  0.1495 -0.0698
10794TIP3    H232326   6.993   4.613   6.481  0.9348 -0.2741 -0.2847
10795TIP3   OH232327   7.390   4.905   3.778 -0.5483 -0.1137  0.0554
10795TIP3    H132328   7.437   4.885   3.858  0.7210  0.1573 -0.5926
10795TIP3    H232329   7.353   4.993   3.792 -0.3107 -0.0593  0.3355
10796TIP3   OH232330   0.706   2.214   0.839 -0.0929  0.2419 -0.4916
10796TIP3    H132331   0.650   2.137   0.847  1.3565 -0.7036  0.9882
10796TIP3    H232332   0.666   2.278   0.899  0.0909 -0.2379  0.1514
10797TIP3   OH232333   1.510   3.108   6.478 -0.2405 -0.0685 -0.4429
10797TIP3    H132334   1.436   3.080   6.425 -0.8227  1.8140 -0.7166
10797TIP3    H232335   1.506   3.204   6.476  1.1253  0.0734  1.0457
10798TIP3   OH232336   7.949   1.059   6.321  0.3109 -0.0989  0.5331
10798TIP3    H132337   8.016   1.086   6.257  1.0479 -0.4507  1.1466
10798TIP3    H232338   7.883   1.014   6.268  0.9590 -0.4719  0.0210
10799TIP3   OH232339   6.485   3.013   2.304 -0.3523 -0.2728  0.0087
10799TIP3    H132340   6.459   2.941   2.246 -1.8320  0.3950 -0.1901
10799TIP3    H232341   6.432   3.001   2.382  1.0890 -0.7205  0.9614
10800TIP3   OH232342   0.651   3.219   4.735  0.4243  0.2179  0.3189
10800TIP3    H132343   0.646   3.234   4.829 -0.8594 -2.4259  0.7594
10800TIP3    H232344   0.714   3.148   4.724 -0.1669 -0.1780 -0.6944
10801TIP3   OH232345   7.093   6.503   0.722  0.3728  0.6622 -0.3028
10801TIP3    H132346   7.024   6.486   0.658  0.2325  2.3793 -0.6453
10801TIP3    H232347   7.174   6.502   0.671  0.3447  1.1833 -0.3606
10802TIP3   OH232348   1.809   5.105   6.303 -0.4446  0.2666  0.0769
10802TIP3    H132349   1.786   5.141   6.217 -0.0657 -0.5876 -0.3968
10802TIP3    H232350   1.843   5.017   6.284  1.3313  0.7224  0.9127
10803TIP3   OH232351   5.894   6.487   0.770  0.0180 -0.0025  0.8599
10803TIP3    H132352   5.961   6.556   0.774  1.4298 -1.1243 -1.3721
10803TIP3    H232353   5.854   6.499   0.684  0.7999 -2.3477  0.1041
10804TIP3   OH232354   0.822   1.250   0.656  0.1091  0.1014  0.4491
10804TIP3    H132355   0.750   1.205   0.701  1.3505 -0.8377  1.5626
10804TIP3    H232356   0.892   1.255   0.721  0.3513  2.9544  0.1264
10805TIP3   OH232357   3.603   4.163   6.702 -0.5367 -0.3873  0.0708
10805TIP3    H132358   3.556   4.203   6.629  1.7533  0.3777 -1.0593
10805TIP3    H232359   3.600   4.228   6.771 -0.3147  0.0620 -0.3380
10806TIP3   OH232360   0.729   0.735   3.383  0.1280 -0.7827  0.4457
10806TIP3    H132361   0.659   0.687   3.339 -1.8926  0.9191  1.6664
10806TIP3    H232362   0.732   0.820   3.338 -1.6998  0.8389  3.1419
10807TIP3   OH232363   2.157   3.476   1.213 -0.0804 -0.5382  0.0090
10807TIP3    H132364   2.078   3.502   1.259 -0.9215 -2.7079 -0.0781
10807TIP3    H232365   2.129   3.402   1.158  1.6044 -0.1528 -1.4471
10808TIP3   OH232366   4.367   3.865   2.024  0.6411  0.0608 -0.0676
10808TIP3    H132367   4.400   3.794   1.969  1.4274 -1.0286  1.7259
10808TIP3    H232368   4.293   3.826   2.071  1.2900  0.2882  1.1908
10809TIP3   OH232369   1.149   1.490   2.199 -0.2706  0.4679  0.1334
10809TIP3    H132370   1.216   1.480   2.131 -0.1815  0.2664  0.2517
10809TIP3    H232371   1.146   1.406   2.243  0.0787  0.7750  0.7521
10810TIP3   OH232372   4.339   3.630   1.778 -0.6295  0.0069  0.3974
10810TIP3    H132373   4.257   3.676   1.796  0.1714  1.1225  1.3545
10810TIP3    H232374   4.338   3.617   1.683 -1.8379  0.1243  0.3762
10811TIP3   OH232375   7.459   4.154   5.979 -0.5133  0.3172 -0.2751
10811TIP3    H132376   7.444   4.211   6.054 -1.1667  1.1505 -1.0262
10811TIP3    H232377   7.435   4.067   6.010 -0.3988  0.5884  0.5964
10812TIP3   OH232378   7.313   5.797   3.988  0.2494  0.9561 -0.3785
10812TIP3    H132379   7.339   5.810   3.897  1.3644  1.8100  0.0481
10812TIP3    H232380   7.232   5.849   3.997 -0.4519  0.0270 -1.1373
10813TIP3   OH232381   7.901   2.051   3.159  0.4280 -0.4251 -0.1360
10813TIP3    H132382   7.996   2.060   3.147  0.3584  0.1795 -0.2818
10813TIP3    H232383   7.864   2.091   3.081  0.0824 -4.0746 -2.0616
10814TIP3   OH232384   5.236   4.613   1.665 -0.0414  0.3169 -0.1444
10814TIP3    H132385   5.168   4.639   1.727 -1.4771 -3.0475 -0.1119
10814TIP3    H232386   5.314   4.603   1.718 -0.0971  1.7374  0.2620
10815TIP3   OH232387   7.750   1.503   2.703  0.1052 -0.1793 -0.0698
10815TIP3    H132388   7.840   1.473   2.716  0.2002  0.0956 -0.0932
10815TIP3    H232389   7.752   1.547   2.618 -0.1962 -0.7420 -0.3781
10816TIP3   OH232390   1.533   1.046   0.303 -0.1700  0.3509  0.3200
10816TIP3    H132391   1.485   0.992   0.365 -0.3650 -1.2741 -1.1641
10816TIP3    H232392   1.611   0.994   0.281 -1.0732 -0.0636 -2.2267
10817TIP3   OH232393   5.574   6.223   4.892  0.0398 -0.7444 -0.2051
10817TIP3    H132394   5.558   6.316   4.880 -1.1215 -0.9329 -0.2730
10817TIP3    H232395   5.661   6.218   4.931 -0.8373  0.5391  2.1227
10818TIP3   OH232396   4.707   5.662   4.550  0.1221  0.3627 -0.0656
10818TIP3    H132397   4.671   5.710   4.625 -1.1072 -1.7704  0.8000
10818TIP3    H232398   4.788   5.623   4.583 -1.3376 -2.1091  0.8580
10819TIP3   OH232399   6.250   2.467   5.893  0.1954  0.0545 -0.3091
10819TIP3    H132400   6.241   2.562   5.896  2.7465  0.3657 -0.6142
10819TIP3    H232401   6.218   2.443   5.806 -0.6971  0.5544 -0.1406
10820TIP3   OH232402   0.936   0.140   5.704  0.3949 -0.0341 -0.0524
10820TIP3    H132403   0.861   0.199   5.716 -0.2523 -0.8484  0.0566
10820TIP3    H232404   1.010   0.187   5.742 -0.4143  0.0439  1.5022
10821TIP3   OH232405   0.180   4.672   3.113  0.0949 -0.1625 -0.4559
10821TIP3    H132406   0.193   4.663   3.208 -1.5536  0.9449 -0.0804
10821TIP3    H232407   0.120   4.602   3.090  0.0419 -0.0820 -0.5638
10822TIP3   OH232408   1.654   4.746   2.438 -0.0679 -0.4733  0.7739
10822TIP3    H132409   1.659   4.836   2.406 -0.1115 -1.2017 -1.4623
10822TIP3    H232410   1.566   4.739   2.476 -1.1007 -0.2291 -1.3971
10823TIP3   OH232411   0.189   1.227   5.831 -0.2976 -0.1571  0.5648
10823TIP3    H132412   0.142   1.292   5.883 -0.5221  2.2773 -2.4355
10823TIP3    H232413   0.124   1.160   5.811 -1.2627  0.8857  0.1541
10824TIP3   OH232414   1.061   3.993   2.936 -0.2164 -1.1279  0.0059
10824TIP3    H132415   1.003   3.986   2.861 -0.1430  0.0903 -0.1839
10824TIP3    H232416   1.082   3.902   2.959 -1.1364 -1.5426 -0.7315
10825TIP3   OH232417   5.072   2.524   1.010  0.1819  0.3696 -0.0870
10825TIP3    H132418   5.074   2.539   0.915  0.1812  0.8645 -0.0122
10825TIP3    H232419   5.052   2.431   1.019  1.9142 -0.0780 -0.5863
10826TIP3   OH232420   1.973   0.918   6.106  0.1165 -0.2548 -0.2433
10826TIP3    H132421   2.027   0.870   6.168 -0.6702 -0.6379  0.1602
10826TIP3    H232422   1.895   0.942   6.156  0.5521  1.6210 -0.3570
10827TIP3   OH232423   5.393   4.526   5.486  0.4233  0.3561 -0.2997
10827TIP3    H132424   5.400   4.458   5.553  1.0378 -0.1508 -0.8536
10827TIP3    H232425   5.472   4.579   5.497  0.9692 -0.2403 -1.1339
10828TIP3   OH232426   2.090   0.207   4.746 -0.0309  0.7635 -0.7176
10828TIP3    H132427   2.163   0.179   4.801 -0.9692 -0.5112 -0.0824
10828TIP3    H232428   2.041   0.269   4.801 -0.5041  0.1300 -0.4229
10829TIP3   OH232429   1.868   4.099   2.396 -0.4802  0.1801 -0.0925
10829TIP3    H132430   1.844   4.101   2.488  2.7972  0.9307  0.8754
10829TIP3    H232431   1.871   4.191   2.370  0.7196  0.0987 -0.2962
10830TIP3   OH232432   2.780   6.347   0.533 -0.3015 -0.1527 -0.2450
10830TIP3    H132433   2.763   6.256   0.556 -0.7096  0.0183  0.1629
10830TIP3    H232434   2.839   6.378   0.602  1.0717 -0.5197 -1.2152
10831TIP3   OH232435   0.792   7.738   6.696  0.6712 -0.3536 -0.0854
10831TIP3    H132436   0.702   7.724   6.726  1.1916  0.3107  1.9487
10831TIP3    H232437   0.846   7.710   6.769  2.0944  0.2343 -0.8826
10832TIP3   OH232438   1.419   2.207   6.028 -0.2418 -0.2819  0.3268
10832TIP3    H132439   1.495   2.180   6.078  0.8068  0.7254 -0.6667
10832TIP3    H232440   1.344   2.184   6.083  0.8379  0.2232  2.0521
10833TIP3   OH232441   2.563   6.609   4.676  0.3156  0.3855  0.4222
10833TIP3    H132442   2.542   6.630   4.767  0.0525 -0.2773  0.5250
10833TIP3    H232443   2.637   6.549   4.681 -1.6270 -2.1832  0.4106
10834TIP3   OH232444   7.910   6.960   1.056  0.2607  0.3900 -0.5180
10834TIP3    H132445   7.920   6.879   1.106 -0.4146  0.6021 -0.0204
10834TIP3    H232446   7.867   6.932   0.975  0.1997  0.2237 -0.4305
10835TIP3   OH232447   1.887   4.819   3.511  0.3095  0.2816  0.0627
10835TIP3    H132448   1.971   4.776   3.494  0.6880  0.9205  0.3009
10835TIP3    H232449   1.907   4.912   3.510 -0.4744  0.4530 -0.2640
10836TIP3   OH232450   5.192   7.127   6.266 -0.5079  0.6580  0.1576
10836TIP3    H132451   5.173   7.041   6.229 -0.1327  0.3221  0.7233
10836TIP3    H232452   5.260   7.110   6.332  0.3249  1.5293 -0.4482
10837TIP3   OH232453   5.996   3.245   0.865  0.0437  0.4847  0.0606
10837TIP3    H132454   6.004   3.151   0.882  0.5692  0.6213  0.5828
10837TIP3    H232455   6.086   3.277   0.864 -0.1757  1.1280  0.6866
10838TIP3   OH232456   8.288   4.320   4.169  0.1908 -0.0881  0.3374
10838TIP3    H132457   8.290   4.369   4.087  1.2013 -0.1712  0.2974
10838TIP3    H232458   8.304   4.229   4.143  3.2201  0.2213  0.8256
10839TIP3   OH232459   2.327   7.049   5.658 -0.4090 -0.2754  0.1408
10839TIP3    H132460   2.369   6.976   5.614 -1.4414 -1.8857  1.6748
10839TIP3    H232461   2.396   7.114   5.670  1.0320 -1.8111  0.4299
10840TIP3   OH232462   4.466   2.489   6.636 -0.3402 -0.2245 -0.2706
10840TIP3    H132463   4.509   2.404   6.646 -0.7484 -0.2991  1.2598
10840TIP3    H232464   4.373   2.470   6.652 -0.2207  0.7480  1.9440
10841TIP3   OH232465   3.077   6.773   1.540 -1.0384  0.3317 -0.3238
10841TIP3    H132466   3.022   6.842   1.503 -0.5310  0.6535 -0.4796
10841TIP3    H232467   3.126   6.738   1.466 -0.6269  0.4215 -0.0980
10842TIP3   OH232468   0.019   2.457   0.969  0.2019  0.3568  0.5282
10842TIP3    H132469   0.057   2.507   1.041 -0.8891  0.6909  0.8906
10842TIP3    H232470   0.081   2.386   0.954  1.0413  0.9694  0.9881
10843TIP3   OH232471   7.541   6.034   3.932 -0.1672 -0.0804 -0.4310
10843TIP3    H132472   7.636   6.044   3.941 -0.4553  3.2647  0.3136
10843TIP3    H232473   7.506   6.120   3.954 -3.4128 -1.1946 -0.7082
10844TIP3   OH232474   7.084   3.445   4.340 -0.1934 -0.5836 -0.1093
10844TIP3    H132475   7.117   3.381   4.276 -1.0965 -0.1969 -0.9990
10844TIP3    H232476   6.993   3.460   4.313 -0.2390  0.4427  0.5916
10845TIP3   OH232477   5.849   6.860   0.949 -0.2329  0.6035  0.2622
10845TIP3    H132478   5.842   6.946   0.907  1.0910  0.7646  0.3108
10845TIP3    H232479   5.868   6.879   1.041  1.9871  0.3200 -0.0822
10846TIP3   OH232480   8.117   4.569   0.127  0.3053 -0.4113  0.6030
10846TIP3    H132481   8.103   4.525   0.211 -0.3860 -2.3737 -0.4733
10846TIP3    H232482   8.203   4.540   0.099  1.0467  1.1791  1.1343
10847TIP3   OH232483   6.762   6.409   6.337  0.1125 -0.6136 -1.0215
10847TIP3    H132484   6.789   6.318   6.326  1.1182 -0.2370 -1.8271
10847TIP3    H232485   6.677   6.403   6.381  0.3969 -1.9144 -0.5806
10848TIP3   OH232486   4.915   6.012   5.903  0.6354 -0.3433 -0.0889
10848TIP3    H132487   4.950   6.073   5.968  1.3118  0.1872 -0.9381
10848TIP3    H232488   4.844   6.060   5.860  0.8897 -0.3106 -0.4705
10849TIP3   OH232489   2.946   5.559   5.210 -0.0424 -0.1460 -0.2899
10849TIP3    H132490   2.961   5.502   5.284 -0.4207  0.9793  0.6906
10849TIP3    H232491   2.851   5.574   5.210  0.2122  1.7154  0.4539
10850TIP3   OH232492   3.495   0.328   2.531  0.1845  0.5059  0.0721
10850TIP3    H132493   3.502   0.243   2.575  0.0674 -0.1416 -1.1333
10850TIP3    H232494   3.559   0.384   2.576 -0.4176  0.0832  1.5206
10851TIP3   OH232495   6.040   0.663   0.954 -0.0674 -0.1905 -0.6290
10851TIP3    H132496   6.025   0.713   1.034 -0.2869  1.1537 -1.4706
10851TIP3    H232497   6.050   0.729   0.886 -0.6096 -1.2996 -1.8471
10852TIP3   OH232498   4.003   2.311   0.512 -0.2042 -0.0760 -0.3243
10852TIP3    H132499   4.080   2.268   0.550 -1.2425 -2.1605 -0.3882
10852TIP3    H232500   3.937   2.242   0.510 -2.2716  1.8054  0.2616
10853TIP3   OH232501   0.804   2.548   3.899  0.5076 -0.2559 -0.1396
10853TIP3    H132502   0.876   2.506   3.853  0.6015 -0.5230  0.2495
10853TIP3    H232503   0.728   2.493   3.881  0.5444 -0.3605  0.0209
10854TIP3   OH232504   6.973   0.303   5.039  0.2516  0.3366 -0.3107
10854TIP3    H132505   6.878   0.293   5.044  0.2290 -0.1342 -1.4201
10854TIP3    H232506   6.990   0.325   4.947  1.0744  2.2552  0.2393
10855TIP3   OH232507   2.871   4.474   3.879 -0.7834 -0.1616 -0.8478
10855TIP3    H132508   2.935   4.494   3.811  1.9182  0.4769  1.6663
10855TIP3    H232509   2.871   4.378   3.885  1.8503 -0.1646  0.6251
10856TIP3   OH232510   3.312   7.464   3.303 -0.1086  0.1268  0.1509
10856TIP3    H132511   3.357   7.383   3.280 -1.3641 -1.4512  2.7726
10856TIP3    H232512   3.242   7.472   3.238 -0.5580 -1.4575  0.3864
10857TIP3   OH232513   6.592   3.707   6.617  0.7765  0.2906  0.1259
10857TIP3    H132514   6.645   3.680   6.693  0.6530  0.2923  0.2124
10857TIP3    H232515   6.573   3.799   6.633 -1.1465 -0.2326  1.2312
10858TIP3   OH232516   4.921   2.737   3.086  0.0498 -0.2071  0.0885
10858TIP3    H132517   4.991   2.764   3.146 -0.0161  0.1475  0.0058
10858TIP3    H232518   4.889   2.819   3.048  1.2227 -0.5342 -1.7268
10859TIP3   OH232519   6.403   6.712   4.216  0.4097  0.0805 -0.0785
10859TIP3    H132520   6.335   6.779   4.227 -0.5011 -0.8459  0.0944
10859TIP3    H232521   6.483   6.762   4.198 -0.0766  1.2384  0.8331
10860TIP3   OH232522   7.284   1.568   4.071  0.0003 -0.3644 -0.3412
10860TIP3    H132523   7.324   1.619   4.141  1.0636 -1.2181 -0.3050
10860TIP3    H232524   7.357   1.531   4.022 -0.7185  0.0442 -1.8049
10861TIP3   OH232525   3.572   2.959   3.047  0.0871 -0.1200  0.1331
10861TIP3    H132526   3.607   3.047   3.037 -0.6816 -0.0191 -2.1088
10861TIP3    H232527   3.644   2.902   3.018 -0.1882 -0.1016 -0.6069
10862TIP3   OH232528   7.051   0.376   3.000  0.5275 -0.8575 -0.4611
10862TIP3    H132529   7.007   0.420   3.073 -0.4510  1.2169 -2.1649
10862TIP3    H232530   6.984   0.321   2.961  1.4591 -3.1814  0.9993
10863TIP3   OH232531   1.730   1.670   0.747 -0.4337  0.3538  0.0527
10863TIP3    H132532   1.708   1.577   0.754 -0.2307  0.3334  0.4490
10863TIP3    H232533   1.709   1.693   0.657 -1.5030  0.1842  0.2434
10864TIP3   OH232534   2.019   4.711   0.049  0.1374 -0.5433 -0.4322
10864TIP3    H132535   1.989   4.797   0.019 -0.7234 -0.9508 -0.7978
10864TIP3    H232536   2.112   4.723   0.069 -0.5023  1.1333  2.0600
10865TIP3   OH232537   6.053   5.823   1.125  0.8516 -0.0523 -0.1482
10865TIP3    H132538   6.042   5.825   1.030 -0.0934 -2.6112 -0.1492
10865TIP3    H232539   6.132   5.770   1.140  0.1897 -0.8907  0.5054
10866TIP3   OH232540   2.317   1.223   1.129  0.6219 -0.3781 -0.6137
10866TIP3    H132541   2.365   1.283   1.071  1.7124 -1.0441 -0.4070
10866TIP3    H232542   2.273   1.162   1.069  2.3297 -1.5138 -0.7576
10867TIP3   OH232543   2.290   0.357   3.758 -0.3388 -0.0982 -0.2414
10867TIP3    H132544   2.339   0.378   3.678  0.3063 -2.8188 -0.6557
10867TIP3    H232545   2.206   0.324   3.726 -1.1577  1.3321  0.3501
10868TIP3   OH232546   1.273   2.991   6.260  0.0856  0.4079 -0.4088
10868TIP3    H132547   1.276   2.900   6.288  0.9805 -0.0822 -1.9537
10868TIP3    H232548   1.191   3.025   6.296  0.8017 -0.3295  2.0965
10869TIP3   OH232549   0.124   5.902   2.124  0.0661 -0.1673  0.5949
10869TIP3    H132550   0.168   5.940   2.201  0.6428  0.4193 -0.0094
10869TIP3    H232551   0.137   5.808   2.133  1.1049 -0.0293  0.6446
10870TIP3   OH232552   0.049   4.756   5.723  0.4973 -0.2294 -0.0971
10870TIP3    H132553   0.077   4.805   5.646 -1.4193 -0.1681 -0.7913
10870TIP3    H232554  -0.013   4.813   5.768  0.8219 -0.6725  0.9477
10871TIP3   OH232555   4.165   1.573   1.703 -0.0400  0.2483  0.3350
10871TIP3    H132556   4.111   1.495   1.709 -1.4199  1.1549  0.1261
10871TIP3    H232557   4.135   1.628   1.775 -1.8058  2.1764 -1.7077
10872TIP3   OH232558   1.465   5.965   0.127 -0.4369 -0.0723 -0.0368
10872TIP3    H132559   1.457   5.913   0.207  0.3524 -1.7508 -0.9797
10872TIP3    H232560   1.378   5.961   0.087 -1.0160  1.3069  0.9926
10873TIP3   OH232561   0.412   3.817   2.658  0.2920  0.2597 -0.0711
10873TIP3    H132562   0.444   3.866   2.583  1.2360  0.3179  0.3556
10873TIP3    H232563   0.484   3.758   2.681 -0.1034  0.0240  0.5950
10874TIP3   OH232564   0.232   6.765   4.917 -0.0316 -0.6822  0.6676
10874TIP3    H132565   0.217   6.722   5.001 -0.8763 -0.7052  0.5101
10874TIP3    H232566   0.159   6.739   4.862 -0.3042  0.5449  0.4085
10875TIP3   OH232567   7.811   4.135   5.228  0.2182  0.1122 -0.6171
10875TIP3    H132568   7.720   4.106   5.233  0.7601 -1.8554 -0.9144
10875TIP3    H232569   7.825   4.155   5.135  0.1959 -0.0280 -0.6516
10876TIP3   OH232570   3.369   5.888   5.775  0.0371  0.1298  0.4241
10876TIP3    H132571   3.432   5.922   5.711  1.8913 -1.5463  1.2600
10876TIP3    H232572   3.339   5.805   5.738  0.5821 -0.5086  1.3645
10877TIP3   OH232573   4.978   6.273   6.550  0.1834  0.0236  0.0717
10877TIP3    H132574   4.989   6.322   6.468  0.7530  1.3239  0.9051
10877TIP3    H232575   4.930   6.194   6.524  1.0568  0.0149 -1.6521
10878TIP3   OH232576   7.563   6.580   1.550 -0.5482 -0.8684 -0.1367
10878TIP3    H132577   7.643   6.624   1.522 -1.0224 -0.3692 -0.7353
10878TIP3    H232578   7.516   6.646   1.601 -0.2086 -1.4228  0.9435
10879TIP3   OH232579   0.036   4.105   5.863 -0.3925 -0.3911  0.5626
10879TIP3    H132580  -0.040   4.128   5.810 -1.7517  0.6944  2.8514
10879TIP3    H232581   0.082   4.039   5.811 -2.4457 -0.4906 -1.2609
10880TIP3   OH232582   0.875   3.329   1.419 -0.4908 -0.0027  0.1382
10880TIP3    H132583   0.844   3.239   1.413  0.3136 -0.2154 -1.1137
10880TIP3    H232584   0.796   3.382   1.423 -0.9708 -0.7194  0.3253
10881TIP3   OH232585   5.529   1.465   2.362  0.3652 -0.0136  0.3549
10881TIP3    H132586   5.434   1.462   2.364  0.3144  1.4115  1.6543
10881TIP3    H232587   5.550   1.557   2.343  1.4607  0.0706  1.8361
10882TIP3   OH232588   4.663   0.866   2.256 -0.0415  0.5520 -0.1754
10882TIP3    H132589   4.755   0.855   2.232  0.3398 -2.3754  2.0775
10882TIP3    H232590   4.665   0.913   2.340 -0.7005  1.3899 -0.6081
10883TIP3   OH232591   7.567   1.529   4.925 -0.1680  0.5508 -0.3916
10883TIP3    H132592   7.556   1.563   4.836 -1.2787  0.6484 -0.2370
10883TIP3    H232593   7.500   1.575   4.976  0.3842  0.4103  0.4758
10884TIP3   OH232594   5.797   6.853   3.748  0.0213 -0.3931  0.2738
10884TIP3    H132595   5.791   6.802   3.668  0.9275 -1.0614  0.6143
10884TIP3    H232596   5.849   6.799   3.807 -0.5498  0.1266  1.2832
10885TIP3   OH232597   1.623   6.735   1.920  0.2162 -0.2642  0.0211
10885TIP3    H132598   1.614   6.700   1.831  0.8306  0.0450 -0.1712
10885TIP3    H232599   1.688   6.678   1.961 -1.3472 -1.5143  0.8717
10886TIP3   OH232600   2.395   2.903   2.310  0.0518  0.4771  0.2735
10886TIP3    H132601   2.436   2.919   2.226  0.1411  2.0831  0.5897
10886TIP3    H232602   2.467   2.903   2.373 -0.2419  2.1229  0.6748
10887TIP3   OH232603   5.939   3.666   5.303  0.6041 -0.0104  0.2835
10887TIP3    H132604   5.892   3.605   5.246 -0.0823  1.4138 -0.7226
10887TIP3    H232605   5.871   3.726   5.335  1.6835  2.1660 -1.2707
10888TIP3   OH232606   5.234   2.123   3.942  0.0471  0.3401  0.1297
10888TIP3    H132607   5.190   2.160   4.019 -1.1922 -1.0885  0.1469
10888TIP3    H232608   5.322   2.102   3.973  1.2038  4.0699 -0.1297
10889TIP3   OH232609   7.328   4.591   2.632  0.0874  0.5940  0.1722
10889TIP3    H132610   7.403   4.580   2.574 -1.2922 -0.1237 -1.5427
10889TIP3    H232611   7.363   4.573   2.719  2.4328  2.5949 -0.2505
10890TIP3   OH232612   8.186   7.027   0.346  0.4888 -0.2576  0.8668
10890TIP3    H132613   8.192   6.970   0.269  0.2124  1.0970 -0.1849
10890TIP3    H232614   8.104   7.074   0.334  0.6621  0.2914  1.7816
10891TIP3   OH232615   0.255   5.371   3.042 -0.0996  0.6986 -0.2806
10891TIP3    H132616   0.242   5.465   3.027 -0.8279  0.8556  1.1074
10891TIP3    H232617   0.167   5.333   3.033  0.1409  0.1878 -0.5299
10892TIP3   OH232618   0.406   3.707   0.726 -0.5230  0.1703  0.0862
10892TIP3    H132619   0.374   3.638   0.667 -0.8676 -0.1709  0.6493
10892TIP3    H232620   0.330   3.727   0.781 -0.1272  0.2720  0.6005
10893TIP3   OH232621   2.434   6.745   2.647  0.7522 -0.2996  0.7196
10893TIP3    H132622   2.402   6.783   2.565 -0.8098 -0.7103  1.0931
10893TIP3    H232623   2.456   6.654   2.624  0.3570 -0.4023  0.7368
10894TIP3   OH232624   6.949   5.717   6.199  0.3022  0.2931  0.0696
10894TIP3    H132625   6.876   5.692   6.257 -0.3911  0.1687 -0.8307
10894TIP3    H232626   6.971   5.806   6.226  0.3529  0.0381  0.8852
10895TIP3   OH232627   5.292   7.689   1.547  0.4528 -0.1927 -0.6718
10895TIP3    H132628   5.244   7.613   1.581  0.2543 -0.6190 -1.8657
10895TIP3    H232629   5.324   7.660   1.462 -0.0840  1.2462 -1.3843
10896TIP3   OH232630   0.375   2.025   2.898 -0.2039 -0.2901  0.2592
10896TIP3    H132631   0.389   2.117   2.920 -0.3104 -0.5050  1.2988
10896TIP3    H232632   0.464   1.989   2.889 -0.0830 -0.6282  2.3433
10897TIP3   OH232633   8.127   3.376   5.100  0.1356  0.2904 -0.4359
10897TIP3    H132634   8.111   3.389   5.194 -2.4680  0.8325 -0.8876
10897TIP3    H232635   8.114   3.282   5.087 -1.0419  0.4479 -0.4838
10898TIP3   OH232636   4.854   5.138   0.846 -0.3431 -0.5443 -0.1084
10898TIP3    H132637   4.939   5.176   0.868 -0.0314 -0.4830 -1.3162
10898TIP3    H232638   4.875   5.065   0.787 -1.1389 -0.3056 -0.6997
10899TIP3   OH232639   6.227   6.824   1.130  0.4578 -0.1368 -0.3583
10899TIP3    H132640   6.313   6.812   1.171  0.2545  0.3730  0.2343
10899TIP3    H232641   6.198   6.910   1.160  0.7244  0.6877 -2.3535
10900TIP3   OH232642   0.991   1.720   6.112 -0.5196 -0.1604 -0.1028
10900TIP3    H132643   0.930   1.655   6.076  0.5822 -1.8943  1.0277
10900TIP3    H232644   0.956   1.740   6.199 -0.3589  0.1010 -0.0969
10901TIP3   OH232645   3.780   5.278   6.660  0.1329 -0.4759  0.0345
10901TIP3    H132646   3.689   5.308   6.666  0.6829  1.2202  0.5653
10901TIP3    H232647   3.782   5.199   6.713 -0.9849 -0.3756  0.2600
10902TIP3   OH232648   5.339   4.024   1.006 -0.1353  0.0181  0.3202
10902TIP3    H132649   5.345   3.929   1.014  0.7972 -0.0295 -0.6810
10902TIP3    H232650   5.261   4.048   1.056 -1.1281 -1.4001 -0.4734
10903TIP3   OH232651   2.083   1.557   3.169 -0.2114 -0.3604 -0.1703
10903TIP3    H132652   2.068   1.592   3.256  1.5040 -1.2298  0.5217
10903TIP3    H232653   2.064   1.630   3.110 -0.4455  0.5350  0.9837
10904TIP3   OH232654   7.394   0.497   5.313  0.0970 -0.7221  0.4579
10904TIP3    H132655   7.443   0.444   5.376  0.9938 -1.5431 -0.8845
10904TIP3    H232656   7.461   0.544   5.264 -0.4962 -1.0234 -0.6821
10905TIP3   OH232657   0.860   1.967   4.682  0.3971 -0.2341  0.0157
10905TIP3    H132658   0.860   1.962   4.777  2.5198 -0.2878  0.0574
10905TIP3    H232659   0.806   2.043   4.662  1.0420  0.6188  1.3480
10906TIP3   OH232660   5.337   3.544   5.962 -0.6991  0.3350 -0.1365
10906TIP3    H132661   5.250   3.511   5.985 -0.2342 -0.0153  1.1814
10906TIP3    H232662   5.393   3.466   5.962 -0.2051  0.6875 -0.0462
10907TIP3   OH232663   1.022   4.789   2.971 -0.2610 -0.3906  0.1253
10907TIP3    H132664   1.080   4.837   2.913  0.9702 -1.4713  0.4169
10907TIP3    H232665   0.956   4.853   2.999  1.1007  1.0041  0.2125
10908TIP3   OH232666   7.191   0.065   6.374  0.5542 -0.1498  0.6374
10908TIP3    H132667   7.120   0.011   6.340 -0.4374  2.1523 -1.1422
10908TIP3    H232668   7.226   0.111   6.298  1.7624  1.2769  1.9757
10909TIP3   OH232669   8.239   5.850   0.636  0.1200  0.5106  0.8911
10909TIP3    H132670   8.261   5.757   0.637 -2.2247 -0.2373 -2.2588
10909TIP3    H232671   8.246   5.876   0.544 -0.3403  3.1853  1.5244
10910TIP3   OH232672   3.163   5.088   2.754  0.1574 -0.3581 -0.2475
10910TIP3    H132673   3.217   5.042   2.690 -0.8376  1.0432 -2.2274
10910TIP3    H232674   3.132   5.166   2.707 -0.6149  0.7659  1.9791
10911TIP3   OH232675   0.909   3.490   0.033  0.1341  0.7156  0.0721
10911TIP3    H132676   0.865   3.556   0.086  1.4130  1.2040  0.5711
10911TIP3    H232677   0.840   3.428   0.009 -0.6606  0.9911  1.5186
10912TIP3   OH232678   3.165   3.128   1.131 -0.6913 -0.1645  0.3344
10912TIP3    H132679   3.258   3.117   1.149 -0.6455 -0.2730  0.0311
10912TIP3    H232680   3.151   3.223   1.133 -0.1627  0.0070 -1.6238
10913TIP3   OH232681   0.585   6.634   6.036  0.5845 -0.0096  0.3695
10913TIP3    H132682   0.603   6.724   6.064  0.2817 -0.1420  1.0308
10913TIP3    H232683   0.508   6.609   6.088  0.6853 -0.6561  0.2081
10914TIP3   OH232684   5.133   2.968   3.090 -0.6544 -0.1572  0.1150
10914TIP3    H132685   5.144   3.063   3.093  0.9941 -0.3223  0.1978
10914TIP3    H232686   5.148   2.945   2.998 -0.7827 -0.3642  0.1439
10915TIP3   OH232687   4.594   7.231   5.956 -0.1655 -0.4901 -0.1771
10915TIP3    H132688   4.570   7.296   5.891 -0.6636  0.8341  1.2570
10915TIP3    H232689   4.521   7.169   5.957  0.6156 -1.4957 -2.0180
10916TIP3   OH232690   1.199   0.544   6.373 -0.5919 -0.3565 -0.3819
10916TIP3    H132691   1.232   0.634   6.363  0.1109 -0.5155  0.3487
10916TIP3    H232692   1.105   0.551   6.357 -0.9384  0.9442  1.7501
10917TIP3   OH232693   6.178   6.104   6.088 -0.7541 -0.5409  0.3142
10917TIP3    H132694   6.122   6.178   6.062  1.4281  0.5820 -1.5528
10917TIP3    H232695   6.132   6.027   6.055 -1.3110  0.3300 -1.0417
10918TIP3   OH232696   3.049   2.014   4.446  0.1115  0.3736 -0.0909
10918TIP3    H132697   3.018   2.079   4.509  1.6841  1.3676 -0.3125
10918TIP3    H232698   3.144   2.024   4.445  0.1230  0.5021 -2.7507
10919TIP3   OH232699   4.298   0.244   6.535  0.3880 -0.1632 -0.2818
10919TIP3    H132700   4.300   0.323   6.590  0.6679 -1.2806  1.3935
10919TIP3    H232701   4.347   0.179   6.585  2.4330 -0.7120 -2.8079
10920TIP3   OH232702   0.274   5.677   1.521 -0.6596  0.1671  0.2287
10920TIP3    H132703   0.205   5.739   1.546 -1.1191  0.0034 -0.5697
10920TIP3    H232704   0.236   5.627   1.448  0.4213  0.3033 -0.4622
10921TIP3   OH232705   6.982   0.133   0.526  0.2372  0.2440 -0.3130
10921TIP3    H132706   6.912   0.143   0.461 -1.7012 -0.8831  1.4741
10921TIP3    H232707   7.016   0.045   0.512 -0.3997 -0.1203  0.3554
10922TIP3   OH232708   2.105   1.564   0.883  0.1580 -0.0822  0.1021
10922TIP3    H132709   2.066   1.640   0.926 -2.2103 -0.7577 -0.6971
10922TIP3    H232710   2.139   1.510   0.955 -0.2886  0.6175  0.8505
10923TIP3   OH232711   4.144   4.359   0.414 -0.0683  0.3109 -0.1971
10923TIP3    H132712   4.179   4.320   0.334 -1.7205 -0.3883 -0.6194
10923TIP3    H232713   4.136   4.452   0.394  1.3616  0.4732 -0.1321
10924TIP3   OH232714   5.425   7.568   2.987 -0.0278 -0.2947  0.1695
10924TIP3    H132715   5.440   7.481   2.952 -1.1947 -1.0574  1.4572
10924TIP3    H232716   5.507   7.615   2.971 -0.0213 -0.9954 -2.2360
10925TIP3   OH232717   7.398   2.747   0.598  0.2607  0.4377  0.3447
10925TIP3    H132718   7.312   2.775   0.564  0.1844 -1.8069 -1.5932
10925TIP3    H232719   7.461   2.799   0.547  0.0793 -1.1014 -1.5702
10926TIP3   OH232720   2.875   7.598   5.266 -0.4742 -0.4175  0.0653
10926TIP3    H132721   2.895   7.616   5.358 -3.2692  0.7414  0.5474
10926TIP3    H232722   2.783   7.621   5.256  0.3704  2.3980 -3.7255
10927TIP3   OH232723   4.824   0.317   0.064 -0.4954  0.5037 -0.1151
10927TIP3    H132724   4.885   0.370   0.115 -0.1146  0.4142 -0.4644
10927TIP3    H232725   4.777   0.264   0.128 -0.6975  1.0781  0.2135
10928TIP3   OH232726   3.577   1.353   1.400  0.3885 -0.5931 -0.2742
10928TIP3    H132727   3.546   1.268   1.368  2.1390 -1.6652  0.7623
10928TIP3    H232728   3.664   1.336   1.437  1.0836  1.7722 -0.6085
10929TIP3   OH232729   7.848   5.091   5.149 -0.4272  0.6360 -0.1740
10929TIP3    H132730   7.856   5.060   5.059 -0.2509  0.8214 -0.2241
10929TIP3    H232731   7.755   5.081   5.170  0.0654 -2.9468  0.9196
10930TIP3   OH232732   0.878   5.398   0.819 -0.1751  0.1137  0.0848
10930TIP3    H132733   0.950   5.458   0.798 -0.6629  0.1089 -1.7034
10930TIP3    H232734   0.875   5.399   0.915  2.4746 -0.2383  0.2730
10931TIP3   OH232735   1.362   7.407   6.555 -0.2541  1.0216  0.1372
10931TIP3    H132736   1.375   7.342   6.625  1.4821  3.3944  2.1993
10931TIP3    H232737   1.426   7.382   6.488 -0.2818  0.0602  0.4433
10932TIP3   OH232738   2.435   0.388   3.504  0.6528 -0.1263  0.4307
10932TIP3    H132739   2.416   0.374   3.412 -0.6256 -1.7952  0.8986
10932TIP3    H232740   2.397   0.474   3.523  1.4309  0.4856 -0.7047
10933TIP3   OH232741   8.223   2.815   0.308 -0.5030 -0.0192 -0.3080
10933TIP3    H132742   8.318   2.814   0.317 -0.6352 -0.6551  1.5278
10933TIP3    H232743   8.199   2.723   0.294 -0.9990 -0.2931  1.9683
10934TIP3   OH232744   4.884   6.284   4.536 -0.2772 -0.1215 -0.0725
10934TIP3    H132745   4.827   6.360   4.540  1.6143  1.4289 -0.7398
10934TIP3    H232746   4.904   6.263   4.627 -0.5978  0.3736  0.1104
10935TIP3   OH232747   6.009   6.459   5.184 -0.1601 -0.0926  0.5345
10935TIP3    H132748   5.958   6.462   5.264  0.4968  0.0721  0.9509
10935TIP3    H232749   5.972   6.528   5.129  0.0803  0.5079  1.1172
10936TIP3   OH232750   1.536   5.628   4.763 -0.1044 -0.0931  0.1406
10936TIP3    H132751   1.500   5.715   4.782  0.8747  0.0051  1.6615
10936TIP3    H232752   1.519   5.616   4.669 -2.7770  0.5405  0.4365
10937TIP3   OH232753   0.191   7.216   6.011 -0.1929 -0.6182  0.2627
10937TIP3    H132754   0.129   7.273   5.964 -0.9626  1.1029  3.1572
10937TIP3    H232755   0.156   7.128   5.998  0.1651 -0.3961 -3.0550
10938TIP3   OH232756   1.330   4.033   0.206 -0.2647  0.1294  0.1766
10938TIP3    H132757   1.384   3.977   0.150 -0.1029  0.4205  0.0397
10938TIP3    H232758   1.240   4.006   0.188 -0.1446 -0.6930  0.7629
10939TIP3   OH232759   4.255   6.242   2.505 -0.0964 -0.3199 -0.1196
10939TIP3    H132760   4.346   6.222   2.482  0.3635  1.7230 -0.2995
10939TIP3    H232761   4.262   6.308   2.575 -1.4479 -0.6691  0.3666
10940TIP3   OH232762   5.434   2.709   6.636 -0.1987  0.2943 -0.1625
10940TIP3    H132763   5.470   2.622   6.656  0.5008  0.5441 -0.3009
10940TIP3    H232764   5.508   2.757   6.598 -0.2795  1.3115  0.9073
10941TIP3   OH232765   3.681   1.847   2.580 -0.2862 -0.5525  0.2821
10941TIP3    H132766   3.764   1.856   2.533 -0.4172  0.0712  0.1592
10941TIP3    H232767   3.630   1.787   2.527 -0.2409 -0.2516 -0.1057
10942TIP3   OH232768   6.485   1.553   3.198 -0.1868  0.1788  0.2745
10942TIP3    H132769   6.507   1.529   3.288  0.3527  1.6315  0.5614
10942TIP3    H232770   6.544   1.501   3.144 -0.8114 -1.0326  0.7126
10943TIP3   OH232771   6.975   3.106   6.080  0.1194  0.3395  0.3500
10943TIP3    H132772   6.992   3.119   6.174  0.0484 -1.0344  0.5639
10943TIP3    H232773   6.902   3.166   6.062 -1.6086 -1.1894  1.7921
10944TIP3   OH232774   5.420   5.454   3.903  0.0932  0.1415  0.4312
10944TIP3    H132775   5.375   5.470   3.820 -0.7934 -2.4028  0.3298
10944TIP3    H232776   5.361   5.396   3.952  1.9784 -1.0097  1.4896
10945TIP3   OH232777   0.937   3.112   1.209 -0.5039 -0.1329 -0.2389
10945TIP3    H132778   1.015   3.093   1.261 -1.4632  0.1260  1.3807
10945TIP3    H232779   0.930   3.207   1.211 -1.7073 -0.2219  0.9933
10946TIP3   OH232780   6.996   6.924   6.279  0.3520 -0.5013  0.0799
10946TIP3    H132781   6.929   6.885   6.223  0.0388  1.0696 -0.6836
10946TIP3    H232782   7.050   6.976   6.220 -0.2591  1.5788  1.2328
10947TIP3   OH232783   7.179   3.210   6.568 -0.2470 -0.4506  0.1584
10947TIP3    H132784   7.133   3.129   6.593 -1.2755  0.2363  0.5658
10947TIP3    H232785   7.270   3.195   6.594  0.1264 -2.4129 -1.9422
10948TIP3   OH232786   8.178   4.068   1.763  0.2217 -0.1607 -0.3443
10948TIP3    H132787   8.119   4.036   1.694 -0.9390  2.5240 -0.7283
10948TIP3    H232788   8.185   3.995   1.825 -0.9014 -1.6796 -1.9015
10949TIP3   OH232789   6.096   1.284   4.522  0.0240 -0.2278 -0.0762
10949TIP3    H132790   6.101   1.190   4.504  0.5685 -0.1047 -0.5801
10949TIP3    H232791   6.043   1.290   4.602  0.2596 -0.9802  0.1462
10950TIP3   OH232792   5.186   0.088   2.179 -0.5375 -0.4821 -0.2301
10950TIP3    H132793   5.158   0.035   2.104  1.0139 -1.2679 -0.3119
10950TIP3    H232794   5.261   0.040   2.215  0.0663  0.9718  0.5369
10951TIP3   OH232795   7.298   3.975   0.555  0.0274  0.3203  0.0568
10951TIP3    H132796   7.337   4.061   0.543  0.3530  0.1103 -0.4299
10951TIP3    H232797   7.244   3.962   0.478  0.2324 -0.0454 -0.0279
10952TIP3   OH232798   6.447   3.612   3.260  0.0700 -0.0336  0.3492
10952TIP3    H132799   6.541   3.632   3.256  0.0282  0.4688  1.4047
10952TIP3    H232800   6.413   3.638   3.175  0.5177  1.9153  0.7102
10953TIP3   OH232801   8.104   4.388   1.548  0.2740  0.3401 -0.0888
10953TIP3    H132802   8.064   4.302   1.535 -1.0799  0.9020  0.1166
10953TIP3    H232803   8.197   4.370   1.560 -0.0100 -1.1038  0.1483
10954TIP3   OH232804   2.162   4.445   1.110 -0.2594 -0.3143  0.2778
10954TIP3    H132805   2.201   4.383   1.172  1.6401 -1.0437 -1.5074
10954TIP3    H232806   2.210   4.527   1.125  0.3025 -0.5311 -0.2749
10955TIP3   OH232807   5.493   5.610   4.340 -0.1277 -0.0673 -0.3184
10955TIP3    H132808   5.544   5.532   4.360 -0.0079  0.4791  1.6925
10955TIP3    H232809   5.552   5.683   4.360 -0.9957  0.5462  0.0685
10956TIP3   OH232810   0.174   4.697   1.028 -0.1197 -0.0796  0.1837
10956TIP3    H132811   0.087   4.660   1.039  0.1753 -1.4051 -1.4259
10956TIP3    H232812   0.233   4.623   1.044  0.7598  0.8940  1.6722
10957TIP3   OH232813   6.297   4.799   3.882 -0.0394 -0.1251  0.0529
10957TIP3    H132814   6.359   4.869   3.862 -0.5323  0.0084 -1.0901
10957TIP3    H232815   6.291   4.798   3.977  0.6972  0.7500  0.1183
10958TIP3   OH232816   3.532   1.577   4.952  0.1286  0.1664 -0.0984
10958TIP3    H132817   3.483   1.632   5.014  1.6461  0.2629  1.0606
10958TIP3    H232818   3.465   1.520   4.913 -1.5900  2.9874 -1.6236
10959TIP3   OH232819   0.700   2.816   0.534  0.3806 -0.4512  1.1661
10959TIP3    H132820   0.718   2.908   0.556 -0.5821  0.0889 -0.2106
10959TIP3    H232821   0.687   2.774   0.619  1.1589  0.6036  1.8431
10960TIP3   OH232822   8.088   4.780   4.016  0.9114 -0.1073  0.1296
10960TIP3    H132823   8.053   4.857   4.061  2.1858  0.9865 -0.6820
10960TIP3    H232824   8.022   4.757   3.951  0.1968 -0.1681  0.8567
10961TIP3   OH232825   5.974   7.706   1.242 -0.6472  0.3706  0.0456
10961TIP3    H132826   6.014   7.659   1.168  1.6457  0.7523  0.9639
10961TIP3    H232827   5.900   7.652   1.267  0.6016 -1.6361 -0.3390
10962TIP3   OH232828   1.116   1.442   6.049 -0.2487  0.4783  0.7155
10962TIP3    H132829   1.206   1.461   6.075  0.6627 -0.7085 -1.3390
10962TIP3    H232830   1.078   1.397   6.125  0.7071  1.4205  1.7837
10963TIP3   OH232831   4.775   7.243   1.284 -0.4322  0.6795 -0.6165
10963TIP3    H132832   4.733   7.280   1.362  1.4902  1.1599  0.2593
10963TIP3    H232833   4.812   7.319   1.239 -2.7230  0.6020 -2.8739
10964TIP3   OH232834   4.116   5.650   0.515  0.0431  0.4236 -0.8584
10964TIP3    H132835   4.120   5.742   0.541 -3.5924  0.5291 -0.1497
10964TIP3    H232836   4.158   5.648   0.429  0.1913  2.7426 -0.9072
10965TIP3   OH232837   3.732   3.820   2.314 -0.0379  0.0988 -0.0577
10965TIP3    H132838   3.639   3.797   2.315  0.0470 -0.3068 -0.7003
10965TIP3    H232839   3.743   3.871   2.233  0.3133  0.0685 -0.0310
10966TIP3   OH232840   3.826   3.753   1.049 -0.2920 -0.4068 -0.0996
10966TIP3    H132841   3.836   3.813   0.975  0.4332 -0.9718 -0.4765
10966TIP3    H232842   3.890   3.784   1.113  0.8501 -1.4015 -0.7303
10967TIP3   OH232843   2.118   2.323   0.328  0.6299  0.3845  0.5450
10967TIP3    H132844   2.124   2.413   0.358  0.2535  0.8330 -0.6498
10967TIP3    H232845   2.147   2.327   0.237  0.9806 -0.7728  0.5953
10968TIP3   OH232846   3.078   3.742   0.426  0.4040  0.2453 -0.0200
10968TIP3    H132847   3.014   3.765   0.359 -2.2142  0.8757  2.5074
10968TIP3    H232848   3.092   3.648   0.414 -1.4561 -0.0406 -0.3300
10969TIP3   OH232849   4.532   1.515   5.521 -0.2352  0.3910 -0.3464
10969TIP3    H132850   4.591   1.560   5.581  0.3083  0.4447 -0.9118
10969TIP3    H232851   4.521   1.576   5.448  0.6155 -0.4275 -1.1878
10970TIP3   OH232852   5.349   5.588   4.840  0.6424  0.2728  0.6483
10970TIP3    H132853   5.290   5.663   4.830  0.9287  0.3003 -1.1568
10970TIP3    H232854   5.327   5.552   4.926 -0.9648  1.1622  0.6608
10971TIP3   OH232855   1.775   6.972   4.090  0.5566  0.1370  0.3330
10971TIP3    H132856   1.709   7.005   4.152  1.6516  0.9122  1.1253
10971TIP3    H232857   1.848   7.033   4.098  1.5927 -1.0040 -0.1334
10972TIP3   OH232858   7.424   7.016   5.193  0.3360 -0.0618 -0.3472
10972TIP3    H132859   7.458   7.039   5.280  0.3754 -3.2583  0.6040
10972TIP3    H232860   7.395   7.099   5.156 -0.3508  1.3615  3.0324
10973TIP3   OH232861   4.482   6.519   1.199 -0.2392  0.6448 -0.6938
10973TIP3    H132862   4.564   6.476   1.172  0.7004  0.8807  1.5696
10973TIP3    H232863   4.508   6.578   1.269 -2.1192  2.0649 -1.1156
10974TIP3   OH232864   1.742   2.814   2.814  0.6483  0.4690 -0.4972
10974TIP3    H132865   1.769   2.722   2.813  0.1852  0.3071 -2.2759
10974TIP3    H232866   1.675   2.820   2.745 -1.0322  1.6613  1.1196
10975TIP3   OH232867   5.281   2.031   3.651  0.3318 -0.4137  0.2503
10975TIP3    H132868   5.260   2.066   3.737 -0.3998  0.2465 -0.1868
10975TIP3    H232869   5.210   1.970   3.632 -0.0458  0.1770 -0.2921
10976TIP3   OH232870   2.604   6.194   5.131 -0.1204  0.2296  0.0433
10976TIP3    H132871   2.690   6.165   5.159  0.6609  1.6216 -0.7928
10976TIP3    H232872   2.543   6.145   5.187  1.2127 -0.2759  1.1232
10977TIP3   OH232873   5.304   3.809   1.216  1.0562 -0.1113 -0.4202
10977TIP3    H132874   5.383   3.855   1.246  1.4438 -1.8310  1.4344
10977TIP3    H232875   5.235   3.842   1.272  1.1411 -0.9868  0.2256
10978TIP3   OH232876   0.585   0.080   2.614  0.3165 -0.6215  0.5011
10978TIP3    H132877   0.681   0.086   2.615  0.2631  0.6524  2.0471
10978TIP3    H232878   0.555   0.164   2.649 -1.4369 -0.3473 -1.4218
10979TIP3   OH232879   1.197   7.440   1.357  0.0905 -0.0805 -0.1322
10979TIP3    H132880   1.195   7.405   1.446 -1.1645  0.7405  0.1916
10979TIP3    H232881   1.105   7.445   1.331  0.4185  0.1173 -1.3060
10980TIP3   OH232882   1.035   5.875   3.715  0.5977 -0.3512 -0.1558
10980TIP3    H132883   1.103   5.942   3.712 -1.1165  1.7943  2.7975
10980TIP3    H232884   0.981   5.892   3.638  1.4033  0.2370 -0.6100
10981TIP3   OH232885   1.755   6.806   6.361 -0.0836 -0.0271 -0.2338
10981TIP3    H132886   1.816   6.835   6.293  0.1850  1.1642  0.4939
10981TIP3    H232887   1.753   6.878   6.425 -0.4684 -1.0354  0.9343
10982TIP3   OH232888   3.699   0.815   3.681 -0.2531 -0.3925 -0.1519
10982TIP3    H132889   3.778   0.861   3.709 -0.7104 -0.0255  0.5861
10982TIP3    H232890   3.629   0.856   3.731 -1.0269 -0.1873 -1.3674
10983TIP3   OH232891   2.332   7.143   0.763  0.2251 -0.4053  0.5660
10983TIP3    H132892   2.300   7.188   0.685 -1.6308 -0.2413  1.3653
10983TIP3    H232893   2.304   7.052   0.753  0.6581 -0.5543  0.6838
10984TIP3   OH232894   7.236   5.086   4.356  0.1344  0.4243 -0.6132
10984TIP3    H132895   7.158   5.137   4.380 -1.2815 -0.5350 -2.8503
10984TIP3    H232896   7.201   5.006   4.316  2.3047 -0.9345  0.0589
10985TIP3   OH232897   0.596   6.068   4.669 -0.0079 -0.1030  0.3778
10985TIP3    H132898   0.685   6.037   4.654  0.4136  1.4553 -0.6129
10985TIP3    H232899   0.570   6.108   4.586 -1.0378  0.8525  1.1187
10986TIP3   OH232900   7.430   3.912   3.977 -0.0028 -0.3999  0.3500
10986TIP3    H132901   7.496   3.912   4.046 -0.2371 -0.1958  0.5749
10986TIP3    H232902   7.466   3.854   3.910 -0.1891 -1.3536  1.0461
10987TIP3   OH232903   3.353   5.589   6.452 -0.3399  0.3907 -0.3279
10987TIP3    H132904   3.320   5.575   6.541  0.4712 -0.7666 -0.1842
10987TIP3    H232905   3.287   5.645   6.410 -0.7540  0.9270  0.9779
10988TIP3   OH232906   2.543   2.980   4.468  0.6243  0.0506 -0.1723
10988TIP3    H132907   2.563   3.018   4.553  2.0133 -1.5599  0.2795
10988TIP3    H232908   2.504   3.052   4.418  0.1859  1.1440  1.6577
10989TIP3   OH232909   1.427   7.397   1.871  0.1369  0.1038  0.2177
10989TIP3    H132910   1.428   7.446   1.954 -0.7710 -0.9334  0.8673
10989TIP3    H232911   1.447   7.463   1.804 -1.5699  1.4859  1.0006
10990TIP3   OH232912   5.957   1.579   0.107  0.6171  0.2619  0.8055
10990TIP3    H132913   5.971   1.628   0.026 -2.2189 -2.3140 -1.4812
10990TIP3    H232914   5.882   1.621   0.148 -0.7773 -1.0565 -0.3072
10991TIP3   OH232915   2.235   5.562   3.149  0.2184 -0.0493 -0.4080
10991TIP3    H132916   2.173   5.597   3.086  0.6445 -0.0720 -0.8453
10991TIP3    H232917   2.280   5.639   3.184  1.0857 -0.1365 -1.2969
10992TIP3   OH232918   4.615   4.410   4.991 -0.0873  0.0586 -0.1006
10992TIP3    H132919   4.658   4.324   4.990 -1.2888 -0.5732 -1.6201
10992TIP3    H232920   4.687   4.473   4.997  0.7615 -1.0328  2.2201
10993TIP3   OH232921   0.944   3.450   6.062 -0.5602 -0.2933  0.3906
10993TIP3    H132922   0.930   3.498   5.981 -0.9279  0.0858  0.6797
10993TIP3    H232923   0.871   3.389   6.067  1.2626 -2.8507 -1.3529
10994TIP3   OH232924   0.373   1.381   3.322 -0.0299 -0.4677  0.1223
10994TIP3    H132925   0.367   1.446   3.252  1.6056  0.2514  0.6018
10994TIP3    H232926   0.372   1.297   3.276 -0.8039 -0.0811 -0.6061
10995TIP3   OH232927   7.160   7.507   6.007  0.5595 -0.2305 -0.3911
10995TIP3    H132928   7.114   7.579   5.965 -1.5738 -0.9715  0.5490
10995TIP3    H232929   7.127   7.506   6.097  0.0621 -2.7331 -0.5336
10996TIP3   OH232930   6.151   4.052   3.654 -0.3126  0.1681 -0.1426
10996TIP3    H132931   6.138   3.961   3.682  0.7303 -0.4132 -1.4374
10996TIP3    H232932   6.138   4.050   3.560  1.0931  1.0842 -0.3738
10997TIP3   OH232933   0.496   5.947   3.815 -0.2525 -0.0397  0.1339
10997TIP3    H132934   0.578   5.946   3.764 -0.6030  0.4150 -0.4523
10997TIP3    H232935   0.462   5.858   3.805 -0.3023  0.0352 -0.4103
10998TIP3   OH232936   7.860   0.498   1.485 -0.0256  0.2479 -0.9233
10998TIP3    H132937   7.867   0.517   1.392 -1.6473  0.1727 -1.0892
10998TIP3    H232938   7.801   0.423   1.490  0.3181  0.0330  0.1429
10999TIP3   OH232939   6.678   1.809   5.179  0.0533  0.3910  0.2928
10999TIP3    H132940   6.599   1.799   5.125 -0.3255  1.5831  0.5896
10999TIP3    H232941   6.649   1.862   5.253  1.2552  1.3097  0.1237
11000TIP3   OH232942   2.862   1.664   3.451 -0.1833  0.6833  0.1331
11000TIP3    H132943   2.791   1.632   3.395  0.4396 -1.1642  0.3501
11000TIP3    H232944   2.820   1.683   3.535 -0.8884  2.2863 -0.5275
11001TIP3   OH232945   7.924   7.572   2.950 -0.0074 -0.0884 -0.3858
11001TIP3    H132946   7.886   7.642   3.004  0.5684  0.7224 -1.0016
11001TIP3    H232947   7.851   7.512   2.935 -0.7384  0.7968 -0.5216
11002TIP3   OH232948   2.594   7.214   2.055  0.1409 -0.4962  0.2088
11002TIP3    H132949   2.544   7.178   2.129  0.9211  1.3623  1.7262
11002TIP3    H232950   2.555   7.173   1.978 -0.2527 -3.0787  1.6493
11003TIP3   OH232951   3.344   3.293   0.424  0.6716  0.3492  0.0132
11003TIP3    H132952   3.320   3.224   0.362 -2.9190  0.1173  1.4238
11003TIP3    H232953   3.384   3.246   0.497  2.2052  0.3094 -0.8145
11004TIP3   OH232954   2.912   7.810   1.078  0.4557  0.1013 -0.2530
11004TIP3    H132955   2.951   7.831   1.162  1.1367  1.0116 -0.7756
11004TIP3    H232956   2.985   7.779   1.025  0.0563 -0.3423 -0.5569
11005TIP3   OH232957   5.061   0.401   4.266  0.0872 -0.0892  0.1347
11005TIP3    H132958   5.138   0.426   4.317 -0.0674  2.3378 -0.7168
11005TIP3    H232959   5.028   0.323   4.311  1.3129  0.5312  2.2907
11006TIP3   OH232960   4.266   0.205   2.542 -0.5656  0.0843 -0.4027
11006TIP3    H132961   4.351   0.164   2.560 -0.6228 -1.0635 -2.5465
11006TIP3    H232962   4.233   0.229   2.629  1.7450  0.1948  0.5200
11007TIP3   OH232963   2.914   2.377   0.546 -0.3847 -0.7169  0.2025
11007TIP3    H132964   2.865   2.374   0.464 -0.3876 -0.6169  0.2004
11007TIP3    H232965   2.985   2.439   0.530 -1.0525  0.1795  0.6349
11008TIP3   OH232966   0.205   2.680   1.966  0.1218  0.1963 -0.1442
11008TIP3    H132967   0.117   2.710   1.944  0.6054  1.7298 -0.0555
11008TIP3    H232968   0.260   2.758   1.959  1.3117 -0.5301  0.7452
11009TIP3   OH232969   6.040   3.082   6.013 -0.0593 -0.2411 -0.0747
11009TIP3    H132970   6.040   3.173   6.042 -1.1890 -0.1091 -0.4584
11009TIP3    H232971   5.952   3.050   6.032  0.2250 -1.1629 -0.2432
11010TIP3   OH232972   2.059   2.789   2.933 -0.0190  0.2937  0.2515
11010TIP3    H132973   1.989   2.799   2.997 -1.2459  0.3519 -1.0421
11010TIP3    H232974   2.116   2.864   2.947  0.1974 -0.1300  1.7973
11011TIP3   OH232975   2.213   5.557   1.932 -0.1010  0.4199 -0.0736
11011TIP3    H132976   2.226   5.640   1.978  1.0185 -0.2767  0.9166
11011TIP3    H232977   2.127   5.527   1.961 -0.8238  1.5525 -0.9796
11012TIP3   OH232978   7.155   3.896   4.660 -0.0316 -0.4537 -0.4951
11012TIP3    H132979   7.099   3.821   4.683  0.4443 -0.6218  0.1348
11012TIP3    H232980   7.102   3.946   4.598 -1.0247 -0.4287  0.3346
11013TIP3   OH232981   5.058   1.347   1.997 -0.4472 -0.0272  0.3275
11013TIP3    H132982   4.971   1.350   2.035 -0.1303  1.0684  1.0000
11013TIP3    H232983   5.107   1.416   2.042  0.1066  0.9572 -1.6338
11014TIP3   OH232984   7.404   6.689   4.442  0.7494  0.6644 -0.0344
11014TIP3    H132985   7.321   6.658   4.405  0.6631 -2.4468  2.3818
11014TIP3    H232986   7.470   6.663   4.377  0.3395 -2.2516  0.5952
11015TIP3   OH232987   1.552   4.286   3.692  0.8755  0.1229 -0.4625
11015TIP3    H132988   1.551   4.323   3.780  0.2238  0.3750 -0.5736
11015TIP3    H232989   1.642   4.298   3.662  0.8744  0.8657 -0.1805
11016TIP3   OH232990   6.877   3.438   4.154  0.1599 -0.0664  0.8348
11016TIP3    H132991   6.916   3.410   4.071  0.3987  0.9068  0.6081
11016TIP3    H232992   6.803   3.379   4.167 -1.0087  0.8923 -1.0195
11017TIP3   OH232993   7.671   0.308   6.198  0.2922  0.3779  0.1477
11017TIP3    H132994   7.635   0.234   6.247 -0.8082  0.4438 -0.5324
11017TIP3    H232995   7.753   0.328   6.243  0.1993 -0.7137  0.8552
11018TIP3   OH232996   4.471   1.910   6.137 -0.2204  0.5395  0.0349
11018TIP3    H132997   4.499   1.994   6.100 -0.1721  0.5023 -0.0136
11018TIP3    H232998   4.489   1.918   6.231 -0.0841  0.5318  0.0104
11019TIP3   OH232999   6.434   4.705   5.010 -0.1874  0.1487 -0.1214
11019TIP3    H133000   6.400   4.717   4.922 -1.5547 -1.4390  0.1330
11019TIP3    H233001   6.529   4.696   4.999 -0.1316  1.7719 -1.1918
11020TIP3   OH233002   4.954   5.357   2.301  0.3073  0.3793  0.6709
11020TIP3    H133003   5.020   5.290   2.320 -0.6085 -0.3397  1.4348
11020TIP3    H233004   5.003   5.438   2.292  1.3307 -0.2066  0.8400
11021TIP3   OH233005   6.306   7.657   5.046 -0.3438 -0.0530 -0.0079
11021TIP3    H133006   6.258   7.717   4.989  1.4465  1.2015 -0.2660
11021TIP3    H233007   6.264   7.572   5.030 -3.4001  1.1384  0.8853
11022TIP3   OH233008   5.142   0.741   2.806  0.2826 -0.3379  0.0455
11022TIP3    H133009   5.108   0.740   2.717 -1.9180  0.1070  0.8118
11022TIP3    H233010   5.193   0.822   2.812  0.2693 -0.2700 -0.7274
11023TIP3   OH233011   6.702   3.210   4.211  0.6920 -0.0317  0.0278
11023TIP3    H133012   6.673   3.133   4.162 -2.0137  0.8214  0.1329
11023TIP3    H233013   6.728   3.175   4.297  1.8762 -1.0775 -0.7262
11024TIP3   OH233014   6.553   0.085   1.513  0.1398 -0.6656 -0.0853
11024TIP3    H133015   6.514   0.124   1.435  1.8036  0.0084 -0.6217
11024TIP3    H233016   6.598   0.007   1.481  0.4835 -0.6151  0.2633
11025TIP3   OH233017   5.183   1.586   3.170 -0.1792 -0.6878  0.5752
11025TIP3    H133018   5.100   1.594   3.123  0.7436  2.8059 -0.7570
11025TIP3    H233019   5.181   1.657   3.234  1.8343 -0.3891  0.3553
11026TIP3   OH233020   7.327   1.323   6.293  0.1226  0.5279 -0.2860
11026TIP3    H133021   7.292   1.410   6.315  0.6611  0.5383  0.5912
11026TIP3    H233022   7.269   1.290   6.225 -1.4681  0.6170  0.9847
11027TIP3   OH233023   4.819   5.566   2.053  0.0591  0.1812 -0.2492
11027TIP3    H133024   4.825   5.502   2.124 -0.8660  0.0608 -0.2662
11027TIP3    H233025   4.827   5.651   2.095 -0.4729  0.1084 -0.0011
11028TIP3   OH233026   5.232   7.520   1.975 -0.0856  0.3367 -0.5768
11028TIP3    H133027   5.155   7.534   1.920  1.6255  1.3422 -2.8556
11028TIP3    H233028   5.225   7.585   2.044 -1.1774  0.5285 -0.8518
11029TIP3   OH233029   7.466   3.342   4.532 -0.0148  0.4378  0.0757
11029TIP3    H133030   7.514   3.424   4.544 -0.6435  0.6496  1.3570
11029TIP3    H233031   7.399   3.362   4.467 -0.1950  0.9596  0.4157
11030TIP3   OH233032   1.704   0.794   4.113 -0.6919  0.7270 -0.3047
11030TIP3    H133033   1.742   0.723   4.165  0.5888  1.8974  0.4206
11030TIP3    H233034   1.640   0.835   4.171 -0.0184  1.3675  0.0134
11031TIP3   OH233035   7.208   6.024   5.953  0.4258  0.0089  0.3389
11031TIP3    H133036   7.149   5.948   5.952  1.3848 -0.7570  0.7042
11031TIP3    H233037   7.237   6.032   5.862  0.1736  0.0667  0.2607
11032TIP3   OH233038   5.336   3.671   3.372  0.0063 -0.1008  0.1745
11032TIP3    H133039   5.259   3.664   3.316 -0.0587 -1.5410  0.3984
11032TIP3    H233040   5.303   3.659   3.461  0.4591 -0.6887  0.2729
11033TIP3   OH233041   3.979   1.933   4.861  1.1356  0.4063 -0.1652
11033TIP3    H133042   3.914   1.962   4.797 -0.5623 -1.1397  0.7440
11033TIP3    H233043   3.961   1.840   4.873  1.0603  0.6799  2.8261
11034TIP3   OH233044   5.431   4.861   6.117  0.1340  0.2166  0.0375
11034TIP3    H133045   5.486   4.910   6.179 -1.2097  0.5912  0.9943
11034TIP3    H233046   5.341   4.881   6.145 -0.5180  0.3600 -2.0327
11035TIP3   OH233047   4.154   4.839   6.540 -0.0170  0.4529 -0.5170
11035TIP3    H133048   4.107   4.859   6.460  0.6112  1.1264 -0.7332
11035TIP3    H233049   4.232   4.895   6.537  2.2393 -2.5082 -1.4665
11036TIP3   OH233050   6.794   7.429   5.936  0.0184 -0.6056  0.5455
11036TIP3    H133051   6.773   7.424   6.030 -0.8724  3.0384  0.6967
11036TIP3    H233052   6.840   7.513   5.927  1.2957 -1.4995 -2.1280
11037TIP3   OH233053   2.974   2.390   5.130  0.2853  0.1685  0.2455
11037TIP3    H133054   3.037   2.458   5.155 -0.3036  0.7656  0.1187
11037TIP3    H233055   2.914   2.385   5.204 -1.5361  2.0238 -0.9843
11038TIP3   OH233056   6.627   5.713   0.467  0.6038 -0.4508  0.4313
11038TIP3    H133057   6.590   5.672   0.390  0.4477 -0.7818  0.6787
11038TIP3    H233058   6.640   5.805   0.442  0.6006 -0.5661  0.0010
11039TIP3   OH233059   3.219   3.623   0.679 -0.1006 -0.4321 -0.1331
11039TIP3    H133060   3.159   3.576   0.621  1.7215 -0.0133 -2.4794
11039TIP3    H233061   3.214   3.714   0.651  0.4436 -0.1272  0.7303
11040TIP3   OH233062   0.695   4.481   5.234  0.2808  0.6272 -0.3207
11040TIP3    H133063   0.749   4.559   5.222  0.9033  0.3874  0.7878
11040TIP3    H233064   0.737   4.434   5.306 -0.7702 -0.1366 -0.1910
11041TIP3   OH233065   0.745   1.248   3.422 -1.0315  0.3392  0.0480
11041TIP3    H133066   0.813   1.244   3.490 -0.4931 -0.3886 -0.5218
11041TIP3    H233067   0.737   1.342   3.402  0.8171  0.3450 -0.8732
11042TIP3   OH233068   1.229   0.450   3.453  0.0931  0.4774  0.2645
11042TIP3    H133069   1.279   0.485   3.380 -0.4751 -1.4099 -1.1023
11042TIP3    H233070   1.151   0.505   3.458  0.7068  1.3713  0.2776
11043TIP3   OH233071   7.260   6.026   4.524  0.2582 -0.0046  0.3367
11043TIP3    H133072   7.313   5.946   4.530  2.4506  1.4478  1.8946
11043TIP3    H233073   7.178   6.003   4.568  1.2527 -1.1429  1.7178
11044TIP3   OH233074   4.743   4.414   5.699 -0.0677 -0.4711  0.3975
11044TIP3    H133075   4.707   4.440   5.614 -1.6289  1.4284  1.5658
11044TIP3    H233076   4.677   4.354   5.735 -1.1680  1.3858  1.6501
11045TIP3   OH233077   5.884   6.988   3.473 -0.0294  0.1666 -0.6164
11045TIP3    H133078   5.871   6.894   3.478  1.4035 -0.0315 -0.1030
11045TIP3    H233079   5.796   7.025   3.479 -0.4373 -1.0164  2.6879
11046TIP3   OH233080   0.183   5.383   1.806 -0.2325  0.5280 -0.1211
11046TIP3    H133081   0.238   5.347   1.876 -1.7084  0.6536  1.1759
11046TIP3    H233082   0.219   5.347   1.726  1.9411  0.9077  0.6297
11047TIP3   OH233083   4.226   1.409   0.222 -1.1695 -0.3515  0.2164
11047TIP3    H133084   4.271   1.427   0.304 -0.0912 -1.2593 -0.1534
11047TIP3    H233085   4.217   1.494   0.180  0.0098 -0.1128  0.4174
11048TIP3   OH233086   4.687   2.150   1.982 -0.0999  0.1226  0.1612
11048TIP3    H133087   4.600   2.145   1.943 -0.1396 -3.1245  0.3504
11048TIP3    H233088   4.673   2.194   2.066 -0.6658  3.6789 -1.6102
11049TIP3   OH233089   2.306   0.041   5.213 -0.3783 -0.5543  0.5326
11049TIP3    H133090   2.297  -0.046   5.175  0.8810  0.0379 -1.2109
11049TIP3    H233091   2.395   0.043   5.248  0.0138  0.3919 -0.4667
11050TIP3   OH233092   3.592   4.565   0.799 -0.0959  0.2532  0.2467
11050TIP3    H133093   3.659   4.530   0.859  0.4029  0.6133 -0.0904
11050TIP3    H233094   3.599   4.660   0.808  0.4774  0.3365 -0.8994
11051TIP3   OH233095   1.974   6.846   4.852  0.2608  0.5705  0.5963
11051TIP3    H133096   1.995   6.758   4.819 -1.4117  0.0457  0.8073
11051TIP3    H233097   1.970   6.901   4.774  0.9935  0.3863  0.4261
11052TIP3   OH233098   5.349   4.439   4.221  0.6050  0.0172  0.1785
11052TIP3    H133099   5.344   4.505   4.290  1.3254 -0.0108  0.2627
11052TIP3    H233100   5.264   4.396   4.223  0.1446  0.9026  0.1661
11053TIP3   OH233101   7.384   4.902   2.006 -0.2413  0.0355 -0.3525
11053TIP3    H133102   7.298   4.917   2.046 -0.2408 -0.5920 -0.0991
11053TIP3    H233103   7.365   4.874   1.917 -0.2858  0.2130 -0.3997
11054TIP3   OH233104   0.431   7.573   6.005  0.5805  0.6781 -0.0924
11054TIP3    H133105   0.356   7.624   6.037  2.4283  1.9071  2.6397
11054TIP3    H233106   0.489   7.566   6.081  2.0978 -2.4565 -1.3950
11055TIP3   OH233107   7.051   0.175   5.564 -0.2917 -0.0795 -0.1582
11055TIP3    H133108   7.113   0.134   5.625 -1.0995 -0.5926  0.3486
11055TIP3    H233109   7.072   0.268   5.566 -0.5572 -0.0322  1.2277
11056TIP3   OH233110   3.023   5.856   2.335  0.2247  0.0669 -0.0077
11056TIP3    H133111   3.034   5.761   2.337  0.5465  0.1041 -0.0609
11056TIP3    H233112   3.098   5.888   2.286 -0.6149  0.2330 -1.2233
11057TIP3   OH233113   6.870   7.632   0.262 -0.3124  0.6538  0.0979
11057TIP3    H133114   6.777   7.635   0.284 -0.2433  0.2778  0.4539
11057TIP3    H233115   6.875   7.667   0.173 -0.6524  1.7488  0.4912
11058TIP3   OH233116   7.808   4.433   6.317  0.5201 -0.1398 -0.0692
11058TIP3    H133117   7.750   4.457   6.389 -0.7351  1.4389 -1.5410
11058TIP3    H233118   7.807   4.508   6.258  1.0466 -1.5894 -2.0326
11059TIP3   OH233119   3.134   7.362   3.723 -0.3000  0.4977  0.1260
11059TIP3    H133120   3.086   7.441   3.748 -0.6245  0.3510 -0.0333
11059TIP3    H233121   3.176   7.333   3.804  0.5722  1.3443 -0.0012
11060TIP3   OH233122   7.384   0.253   1.308  0.0572  0.0615 -0.0709
11060TIP3    H133123   7.460   0.210   1.348 -0.4650 -0.2259  0.6389
11060TIP3    H233124   7.419   0.294   1.229  0.9632 -0.0264  0.2649
11061TIP3   OH233125   1.048   3.540   4.492 -0.1621 -0.3688  0.1324
11061TIP3    H133126   1.088   3.586   4.418  1.3367 -1.2699  0.3413
11061TIP3    H233127   0.980   3.600   4.522  1.0454  1.2957 -0.2342
11062TIP3   OH233128   6.363   6.329   1.184  0.8505  0.6864  0.2714
11062TIP3    H133129   6.428   6.396   1.162  0.7084  1.0046  0.7928
11062TIP3    H233130   6.394   6.293   1.267  0.4958  0.6587  0.3896
11063TIP3   OH233131   3.004   6.961   3.699  0.0794  0.4143  0.5887
11063TIP3    H133132   3.045   6.885   3.657  0.4908  0.6396  0.5716
11063TIP3    H233133   3.061   6.981   3.774  0.2338  0.9895  0.3245
11064TIP3   OH233134   0.510   4.927   3.840  0.4093  0.0898 -0.3579
11064TIP3    H133135   0.456   4.992   3.795  0.2218  0.4812  0.4258
11064TIP3    H233136   0.447   4.866   3.878  0.5192  0.4852  0.4668
11065TIP3   OH233137   1.505   7.299   2.901 -0.7459  0.2963  0.0682
11065TIP3    H133138   1.441   7.243   2.946  0.7100 -0.8859  0.7482
11065TIP3    H233139   1.481   7.388   2.926 -0.2945 -0.2896  2.8821
11066TIP3   OH233140   5.819   5.254   2.356 -0.6273 -0.5713 -0.7858
11066TIP3    H133141   5.810   5.171   2.309  1.2546 -1.5528  0.4667
11066TIP3    H233142   5.889   5.300   2.309 -0.2789 -0.5849 -0.2815
11067TIP3   OH233143   4.312   6.649   5.580  0.2469 -0.0873 -0.1827
11067TIP3    H133144   4.374   6.577   5.595 -1.4785 -1.8442 -1.1195
11067TIP3    H233145   4.322   6.670   5.487 -1.8170 -1.7174 -0.8518
11068TIP3   OH233146   4.696   1.197   3.449 -0.1170  0.7890  0.0455
11068TIP3    H133147   4.612   1.185   3.404 -1.0637  2.7174  1.1450
11068TIP3    H233148   4.757   1.141   3.401 -1.4326  1.3501 -2.4813
11069TIP3   OH233149   2.858   4.301   0.073 -0.4896  0.1448  0.1765
11069TIP3    H133150   2.775   4.297   0.120 -0.3147 -0.2877  0.4545
11069TIP3    H233151   2.861   4.390   0.037 -0.6819  0.4386  0.8789
11070TIP3   OH233152   6.735   4.375   3.156 -0.4050 -0.3831  0.3144
11070TIP3    H133153   6.796   4.423   3.100  0.8174  0.4854  2.2748
11070TIP3    H233154   6.672   4.441   3.185 -0.3214 -0.5488  0.8827
11071TIP3   OH233155   2.504   6.254   2.888  0.0853 -0.3146 -0.3126
11071TIP3    H133156   2.567   6.292   2.949 -1.4240  0.2471  0.9953
11071TIP3    H233157   2.445   6.326   2.866  0.9114 -0.3520 -2.9721
11072TIP3   OH233158   6.443   1.831   6.395 -0.1270 -0.3391  0.3140
11072TIP3    H133159   6.370   1.835   6.333  0.7397 -1.2121 -0.8080
11072TIP3    H233160   6.412   1.879   6.472 -1.5191  0.1162 -0.4970
11073TIP3   OH233161   4.263   1.448   2.804  0.0173  0.1275  0.3820
11073TIP3    H133162   4.194   1.478   2.863 -0.3692 -1.6802  0.8994
11073TIP3    H233163   4.233   1.363   2.772  1.9726 -0.6912  0.5866
11074TIP3   OH233164   0.215   2.074   2.320 -0.1240 -0.3163 -0.0667
11074TIP3    H133165   0.308   2.076   2.343  0.4601  0.4005 -2.2995
11074TIP3    H233166   0.186   2.165   2.327 -0.9748 -0.6613  1.5717
11075TIP3   OH233167   1.812   7.022   0.423 -0.1607 -0.1269 -0.1912
11075TIP3    H133168   1.717   7.009   0.431  0.2324 -2.2736  2.5384
11075TIP3    H233169   1.837   6.973   0.345 -1.1171 -0.9017 -0.0248
11076TIP3   OH233170   6.058   3.869   2.776 -0.3081  0.5824 -0.2571
11076TIP3    H133171   6.140   3.878   2.824  0.3547  0.4670 -1.3269
11076TIP3    H233172   6.042   3.775   2.773 -0.4376  0.5989 -0.1407
11077TIP3   OH233173   2.174   1.996   3.170 -0.5808 -0.2385  0.6128
11077TIP3    H133174   2.239   1.929   3.191 -0.4855 -0.2152  0.3925
11077TIP3    H233175   2.219   2.079   3.184 -0.0893 -0.2138 -0.9605
11078TIP3   OH233176   7.111   6.702   5.625  0.5278  0.3878 -0.1221
11078TIP3    H133177   7.097   6.700   5.531 -0.5669 -0.6625  0.0240
11078TIP3    H233178   7.165   6.625   5.643 -1.8352 -1.2597  0.3993
11079TIP3   OH233179   2.407   6.344   1.774 -0.3142  0.6348  0.0290
11079TIP3    H133180   2.403   6.428   1.729  1.2331  0.9203  0.3808
11079TIP3    H233181   2.478   6.354   1.837 -0.6597 -0.6650  0.6549
11080TIP3   OH233182   1.295   2.253   3.299 -0.2777 -0.5554 -0.7309
11080TIP3    H133183   1.332   2.308   3.368  0.2745 -1.2824 -0.4370
11080TIP3    H233184   1.205   2.236   3.326  0.1102 -1.3376  0.1338
11081TIP3   OH233185   1.496   3.315   5.639 -0.0333 -0.1748 -0.2977
11081TIP3    H133186   1.450   3.238   5.671 -1.6768  0.3492 -1.3103
11081TIP3    H233187   1.516   3.296   5.548  0.1741  0.3350 -0.3649
11082TIP3   OH233188   6.402   3.952   6.767 -0.2742 -0.5746  0.2636
11082TIP3    H133189   6.472   3.943   6.701 -0.6755 -1.8622 -0.0062
11082TIP3    H233190   6.330   3.900   6.732 -1.7058  1.4034  0.1316
11083TIP3   OH233191   3.471   1.531   0.162  0.3109  0.1821 -0.6201
11083TIP3    H133192   3.504   1.621   0.151 -1.5817  0.9932 -0.1457
11083TIP3    H233193   3.467   1.495   0.074  0.3992  0.8392 -0.8981
11084TIP3   OH233194   4.639   1.473   5.236 -0.3469  0.2567  0.0411
11084TIP3    H133195   4.660   1.427   5.154 -0.8393  0.2222 -0.0693
11084TIP3    H233196   4.570   1.420   5.275 -2.2130  1.8164 -0.9410
11085TIP3   OH233197   2.135   5.918   5.946 -0.2785  0.1751  0.5762
11085TIP3    H133198   2.099   5.860   6.013 -1.4778 -0.6406 -0.6910
11085TIP3    H233199   2.229   5.913   5.957 -0.4338 -0.5745  1.6815
11086TIP3   OH233200   3.527   2.674   3.571  0.4304  0.6965  0.3317
11086TIP3    H133201   3.534   2.582   3.544  3.3870  0.3870  1.7235
11086TIP3    H233202   3.491   2.719   3.495 -1.5775 -1.6355 -0.2243
11087TIP3   OH233203   2.902   2.871   3.306  0.4495  0.4567  0.4148
11087TIP3    H133204   2.983   2.906   3.268  0.6420 -0.6127 -0.2092
11087TIP3    H233205   2.833   2.924   3.265  0.6066 -1.0534 -1.9991
11088TIP3   OH233206   7.803   5.309   2.938  0.1193  0.0952  0.2595
11088TIP3    H133207   7.876   5.276   2.990  1.0136  0.4427 -0.7279
11088TIP3    H233208   7.820   5.403   2.929  0.6513 -0.1338 -1.6144
11089TIP3   OH233209   1.933   3.198   3.687  0.2629 -0.3735 -0.0922
11089TIP3    H133210   1.848   3.219   3.728  0.5983  1.9137 -0.4290
11089TIP3    H233211   1.962   3.119   3.732 -0.6541  0.4998  2.1864
11090TIP3   OH233212   1.580   7.713   0.123 -0.2060  0.6105  0.4228
11090TIP3    H133213   1.661   7.700   0.074  0.6561  1.7496  1.4967
11090TIP3    H233214   1.541   7.626   0.127 -1.2354  0.6646 -3.7194
11091TIP3   OH233215   1.933   4.662   0.865 -0.3692  0.5667  0.0054
11091TIP3    H133216   1.840   4.644   0.850 -0.5255  2.3584 -1.6868
11091TIP3    H233217   1.979   4.609   0.799 -0.2579  0.4482  0.1773
11092TIP3   OH233218   4.732   6.857   0.226 -0.4922 -0.4375 -0.4615
11092TIP3    H133219   4.692   6.915   0.291  1.3603  1.5352 -0.9807
11092TIP3    H233220   4.667   6.788   0.212 -1.8113  0.2252  1.9082
11093TIP3   OH233221   6.377   5.726   2.526 -0.5244  0.0251 -0.4480
11093TIP3    H133222   6.291   5.713   2.486  0.0193  1.1950 -2.1471
11093TIP3    H233223   6.374   5.815   2.561 -0.6409 -0.6311  1.3128
11094TIP3   OH233224   4.102   0.932   6.632  0.2588  0.0336 -0.5556
11094TIP3    H133225   4.036   1.001   6.630  1.2825  1.0185 -1.2273
11094TIP3    H233226   4.084   0.879   6.554 -1.3799 -1.3329  0.6697
11095TIP3   OH233227   6.527   1.321   6.134  0.5687  0.3451 -0.2395
11095TIP3    H133228   6.456   1.289   6.190  0.6597  2.2741  1.0640
11095TIP3    H233229   6.498   1.301   6.045 -0.6172 -0.8072  0.3798
11096TIP3   OH233230   6.356   6.091   5.820 -0.4064  0.0489  0.2063
11096TIP3    H133231   6.310   6.162   5.777 -0.0283  1.1562  1.5692
11096TIP3    H233232   6.293   6.057   5.884 -0.3973 -0.4994 -0.0677
11097TIP3   OH233233   7.255   2.211   3.015 -0.0266  0.3377 -0.1341
11097TIP3    H133234   7.233   2.165   2.934 -1.1509 -0.7898  0.7688
11097TIP3    H233235   7.227   2.301   3.001 -1.6117 -0.1811 -0.4859
11098TIP3   OH233236   7.801   4.438   2.077 -0.2695 -0.1993  0.1655
11098TIP3    H133237   7.721   4.457   2.027  0.8377 -1.1300 -2.0558
11098TIP3    H233238   7.793   4.346   2.102 -0.1199 -0.1428  0.4341
11099TIP3   OH233239   7.150   3.828   3.694 -0.6607  0.1713 -0.2204
11099TIP3    H133240   7.241   3.813   3.666 -0.1742 -1.5667  2.0264
11099TIP3    H233241   7.109   3.871   3.619  1.8048  0.2935 -1.6047
11100TIP3   OH233242   4.171   3.494   3.336 -0.5455 -0.2953  0.0210
11100TIP3    H133243   4.188   3.560   3.269 -0.0740 -0.0961  0.3354
11100TIP3    H233244   4.082   3.512   3.366  0.1712  1.3088  1.3468
11101TIP3   OH233245   2.807   1.817   2.959  0.8385 -0.1263 -0.0983
11101TIP3    H133246   2.851   1.893   2.997  0.2447 -0.3795  1.1489
11101TIP3    H233247   2.726   1.852   2.922  0.8070 -0.0713  0.0218
11102TIP3   OH233248   4.211   3.944   1.283 -0.2546 -0.1350 -0.0950
11102TIP3    H133249   4.243   3.889   1.211 -1.3597 -1.0893  0.1126
11102TIP3    H233250   4.116   3.938   1.277 -0.3951  1.5340  0.1290
11103TIP3   OH233251   7.613   4.787   5.837 -0.2472  0.4985  0.2207
11103TIP3    H133252   7.556   4.844   5.887  1.8423  0.9992  2.2237
11103TIP3    H233253   7.647   4.843   5.767 -0.5846  0.8046  0.2988
11104TIP3   OH233254   5.419   1.351   1.941 -0.4662 -0.4385  0.0682
11104TIP3    H133255   5.397   1.403   2.018 -1.2517 -1.1949  0.3694
11104TIP3    H233256   5.513   1.365   1.929 -0.9043  2.3739 -0.8591
11105TIP3   OH233257   5.576   3.358   2.198 -0.3192 -0.0270 -0.2375
11105TIP3    H133258   5.572   3.421   2.270  1.0713 -0.5308  0.3176
11105TIP3    H233259   5.607   3.408   2.123 -0.7751  0.2801 -0.2249
11106TIP3   OH233260   2.802   0.210   4.973 -0.0029 -0.0354  0.6011
11106TIP3    H133261   2.879   0.180   4.925 -0.9808 -2.1180  0.2350
11106TIP3    H233262   2.810   0.306   4.974  1.5988 -0.1073 -1.0490
11107TIP3   OH233263   0.347   1.253   5.155 -0.3014 -0.2308  0.4009
11107TIP3    H133264   0.399   1.229   5.078 -0.9529 -0.0995 -0.0907
11107TIP3    H233265   0.295   1.175   5.174 -2.2095  0.5942 -1.0262
11108TIP3   OH233266   0.380   6.030   1.721  0.5781 -0.3322  0.1565
11108TIP3    H133267   0.315   5.963   1.742 -0.6233  0.7697  0.0868
11108TIP3    H233268   0.463   5.993   1.750  0.0615 -2.1322 -0.5111
11109TIP3   OH233269   2.809   4.947   2.063 -0.4488 -0.5696  0.2281
11109TIP3    H133270   2.782   4.889   1.992  0.4479 -0.6831 -0.0336
11109TIP3    H233271   2.859   5.016   2.020  0.9180 -1.1497  0.8255
11110TIP3   OH233272   3.882   4.757   4.631  0.3928 -0.3051 -0.2876
11110TIP3    H133273   3.827   4.745   4.709 -0.0189  0.6275 -0.4249
11110TIP3    H233274   3.843   4.832   4.586  0.9816 -0.4773 -1.0903
11111TIP3   OH233275   0.252   6.678   1.378 -0.2516 -0.3227  0.0089
11111TIP3    H133276   0.251   6.736   1.454 -0.5477  0.2142 -0.3988
11111TIP3    H233277   0.200   6.723   1.312  0.1748 -0.6860 -0.5906
11112TIP3   OH233278   0.454   4.562   2.703 -0.3949  0.0557 -0.0731
11112TIP3    H133279   0.376   4.607   2.671 -0.6757 -0.0564  0.4390
11112TIP3    H233280   0.518   4.632   2.716 -0.5577  0.2070 -0.0697
11113TIP3   OH233281   3.533   7.495   2.518  0.0190 -0.2234  0.7106
11113TIP3    H133282   3.574   7.553   2.583 -3.1377  1.3300  1.5345
11113TIP3    H233283   3.447   7.475   2.555 -1.3652 -0.4886 -2.3356
11114TIP3   OH233284   5.348   2.448   1.133  0.0205 -0.1490  0.2483
11114TIP3    H133285   5.358   2.388   1.058 -0.8265  0.9500 -0.7701
11114TIP3    H233286   5.254   2.455   1.146 -0.0829  2.9222 -1.3341
11115TIP3   OH233287   0.360   5.283   6.281 -0.3013  0.0793  0.3960
11115TIP3    H133288   0.291   5.217   6.271  0.4521 -0.5918 -0.5596
11115TIP3    H233289   0.317   5.356   6.326 -1.4252 -0.6373  0.5207
11116TIP3   OH233290   5.705   1.836   3.896  0.1015 -0.4282 -0.3656
11116TIP3    H133291   5.745   1.749   3.901  2.3390  0.4465 -1.7067
11116TIP3    H233292   5.715   1.871   3.985  1.4112 -0.6456 -0.4032
11117TIP3   OH233293   4.892   6.563   5.647  0.3631 -0.2145 -0.1054
11117TIP3    H133294   4.866   6.646   5.686 -0.2130 -0.6485  0.4641
11117TIP3    H233295   4.936   6.516   5.718 -0.4445 -0.9036 -0.0418
11118TIP3   OH233296   3.366   2.843   1.229 -0.3269  0.2512  0.1119
11118TIP3    H133297   3.316   2.789   1.168 -1.2874  0.8484  0.3592
11118TIP3    H233298   3.366   2.795   1.311 -0.4614  0.2325  0.1001
11119TIP3   OH233299   7.664   5.287   4.601 -0.0872  0.2995  0.4272
11119TIP3    H133300   7.723   5.213   4.586  0.5308  0.9236 -0.2533
11119TIP3    H233301   7.676   5.309   4.694  0.4275  0.1438  0.3993
11120TIP3   OH233302   5.352   7.688   3.624  0.7162  0.5825 -0.1708
11120TIP3    H133303   5.390   7.742   3.693  0.8698 -0.2255  0.3926
11120TIP3    H233304   5.385   7.726   3.542  1.4518  0.8509  0.2464
11121TIP3   OH233305   7.508   5.320   1.735  0.8443 -0.4012 -0.7132
11121TIP3    H133306   7.544   5.233   1.750  0.0006 -0.5671  0.4990
11121TIP3    H233307   7.536   5.372   1.810 -1.4418 -0.5717  0.3623
11122TIP3   OH233308   8.105   7.246   4.023 -0.2094  0.4953  0.3879
11122TIP3    H133309   8.190   7.245   4.066 -0.0349  0.9591  0.0615
11122TIP3    H233310   8.071   7.334   4.040 -0.2886  0.5644 -0.1266
11123TIP3   OH233311   4.073   2.154   2.898  0.3168 -0.0984 -0.3724
11123TIP3    H133312   4.076   2.058   2.894  0.0638 -0.1918  1.1703
11123TIP3    H233313   4.151   2.182   2.850  0.0023 -1.0385 -1.4865
11124TIP3   OH233314   4.957   3.088   1.961  0.7617 -1.0189 -0.1856
11124TIP3    H133315   4.878   3.104   2.012  1.0647 -1.1343  0.3300
11124TIP3    H233316   4.926   3.077   1.872  0.3584  0.6842 -0.2927
11125TIP3   OH233317   4.390   3.318   0.438 -0.0091  0.1072  0.0769
11125TIP3    H133318   4.454   3.388   0.429 -1.5859  1.5101 -0.9101
11125TIP3    H233319   4.402   3.264   0.361 -0.3534  0.6940 -0.3997
11126TIP3   OH233320   5.756   4.703   5.843 -0.5565 -0.3779  0.3277
11126TIP3    H133321   5.661   4.708   5.854 -0.4703  0.9826  0.6453
11126TIP3    H233322   5.775   4.610   5.842 -1.7326 -0.6711  1.8095
11127TIP3   OH233323   2.218   0.757   2.339 -0.2941  0.2625 -0.0085
11127TIP3    H133324   2.256   0.669   2.331  0.0794  0.4487 -0.2726
11127TIP3    H233325   2.256   0.793   2.419 -1.7797 -0.4730  1.0719
11128TIP3   OH233326   0.452   5.683   5.999  0.2873  0.0096  0.5798
11128TIP3    H133327   0.470   5.600   6.043  1.0565  0.3720  0.9665
11128TIP3    H233328   0.408   5.658   5.918  2.6331 -0.9846 -0.5022
11129TIP3   OH233329   5.464   0.886   2.742  0.0623 -0.4432  0.4230
11129TIP3    H133330   5.467   0.967   2.794 -1.7436 -0.3426  0.4374
11129TIP3    H233331   5.375   0.885   2.705  0.7153 -1.4267 -1.1995
11130TIP3   OH233332   2.268   1.921   1.897  0.1720 -0.2354  0.3406
11130TIP3    H133333   2.249   1.828   1.885 -0.4043 -0.1356  0.4740
11130TIP3    H233334   2.363   1.928   1.882  0.7048 -1.2563  2.7955
11131TIP3   OH233335   0.591   5.185   4.894  0.0282  0.4549 -0.3532
11131TIP3    H133336   0.656   5.230   4.948  1.6044 -0.5278 -1.3349
11131TIP3    H233337   0.634   5.104   4.867 -2.3251 -1.1823  0.4912
11132TIP3   OH233338   0.964   0.852   3.111  0.1372 -0.4891 -0.2703
11132TIP3    H133339   0.895   0.829   3.049 -0.8925  1.8872 -0.1012
11132TIP3    H233340   0.959   0.782   3.177 -1.5195 -0.8559 -0.7197
11133TIP3   OH233341   4.240   6.855   2.965 -0.0262  0.1960  0.4130
11133TIP3    H133342   4.285   6.937   2.945 -1.0396  0.4875 -0.7467
11133TIP3    H233343   4.304   6.787   2.945  0.2695  0.6422 -0.1757
11134TIP3   OH233344   7.176   7.114   6.429 -0.1924  0.3409 -0.5371
11134TIP3    H133345   7.098   7.112   6.374  0.3485  1.0693 -1.3486
11134TIP3    H233346   7.180   7.027   6.468  0.3315 -0.7569 -2.9325
11135TIP3   OH233347   4.209   5.101   2.705  0.3109  0.9682 -0.3550
11135TIP3    H133348   4.292   5.148   2.720 -0.7425  3.5602 -1.8800
11135TIP3    H233349   4.196   5.106   2.610  0.6263 -3.6429 -0.8777
11136TIP3   OH233350   2.931   4.412   1.760  0.1291  0.7763  0.0887
11136TIP3    H133351   2.923   4.347   1.691 -1.9296  1.8021 -0.7391
11136TIP3    H233352   2.841   4.442   1.775  0.7943  2.1513  1.6892
11137TIP3   OH233353   1.295   3.892   3.640  0.4363 -0.1391  0.4885
11137TIP3    H133354   1.385   3.882   3.671  1.3636  0.0320 -1.9691
11137TIP3    H233355   1.283   3.987   3.634  1.0527 -0.1597 -1.6633
11138TIP3   OH233356   4.660   3.727   3.444 -0.1407 -0.1282 -0.6715
11138TIP3    H133357   4.597   3.656   3.430 -0.6994  0.3160 -0.4394
11138TIP3    H233358   4.608   3.807   3.436  0.5655  0.2753 -1.3783
11139TIP3   OH233359   0.178   0.198   0.140  0.1747 -0.2087  0.1839
11139TIP3    H133360   0.169   0.111   0.101  0.1156 -0.3412  0.4935
11139TIP3    H233361   0.104   0.248   0.104  0.5810 -0.0873 -0.5127
11140TIP3   OH233362   7.806   1.169   1.511  0.7365 -0.3806  0.3802
11140TIP3    H133363   7.775   1.082   1.537  3.0415 -1.2444  0.5325
11140TIP3    H233364   7.895   1.173   1.546  1.3503  1.3043 -1.2336
11141TIP3   OH233365   1.497   4.574   4.704  0.5324 -0.2565 -0.2807
11141TIP3    H133366   1.592   4.583   4.695  0.1416  2.6443 -3.0054
11141TIP3    H233367   1.480   4.483   4.677  2.3939 -0.3897 -1.2181
11142TIP3   OH233368   3.709   4.981   6.718  0.1869 -0.4438  0.1802
11142TIP3    H133369   3.629   5.010   6.674  0.2847  2.9596  1.8954
11142TIP3    H233370   3.681   4.905   6.770 -0.4756 -2.9418 -3.4517
11143TIP3   OH233371   7.844   2.690   0.113 -0.3910  0.4398  0.1757
11143TIP3    H133372   7.777   2.674   0.046 -1.1724  0.4352  0.9265
11143TIP3    H233373   7.892   2.607   0.120  0.9037  0.9822 -1.6312
11144TIP3   OH233374   8.159   6.089   1.641  0.0766  0.0638  0.2633
11144TIP3    H133375   8.080   6.118   1.597 -0.1041 -0.3190  0.3294
11144TIP3    H233376   8.139   6.095   1.734  0.3142  0.4831  0.2876
11145TIP3   OH233377   4.500   3.412   3.196 -0.2258 -0.0566 -0.4658
11145TIP3    H133378   4.435   3.349   3.165  1.0570 -0.4153 -2.6662
11145TIP3    H233379   4.543   3.369   3.269 -1.3252 -0.4942 -0.0566
11146TIP3   OH233380   2.284   4.753   1.146  0.1155  0.4567 -0.1918
11146TIP3    H133381   2.299   4.710   1.062 -0.8943  0.1705 -0.2425
11146TIP3    H233382   2.190   4.771   1.147  0.3464  1.7281  0.2786
11147TIP3   OH233383   3.888   5.500   5.030 -0.0520  0.1396  0.1363
11147TIP3    H133384   3.941   5.478   5.106 -0.6058 -0.4934  0.3505
11147TIP3    H233385   3.805   5.533   5.066  1.0170  3.5218 -0.1393
11148TIP3   OH233386   3.432   7.246   6.565  0.1121 -0.1831  0.0659
11148TIP3    H133387   3.518   7.279   6.538  0.8554 -1.4370  0.8124
11148TIP3    H233388   3.452   7.167   6.616 -1.4137  0.2039  1.3268
11149TIP3   OH233389   0.573   3.052   4.394 -0.4818 -0.6668  0.1887
11149TIP3    H133390   0.510   3.105   4.443 -1.0913 -1.6966  0.5667
11149TIP3    H233391   0.579   2.970   4.444 -0.4815 -1.4175 -1.0068
11150TIP3   OH233392   7.513   6.560   6.211 -0.1274  0.5125 -0.2165
11150TIP3    H133393   7.504   6.531   6.120  1.2073  2.7516 -1.1352
11150TIP3    H233394   7.532   6.480   6.260  0.1243 -0.6059 -2.0545
11151TIP3   OH233395   4.843   4.183   6.617 -0.0793 -0.1309 -0.4023
11151TIP3    H133396   4.804   4.113   6.669  1.6192 -0.6214  0.3048
11151TIP3    H233397   4.810   4.169   6.528 -1.5014 -0.4654  0.1543
11152TIP3   OH233398   7.699   3.046   6.580 -0.5965 -0.0970  0.0742
11152TIP3    H133399   7.694   3.007   6.668 -0.4566 -1.5612 -0.5372
11152TIP3    H233400   7.771   3.000   6.538  0.7147  2.0333 -0.1610
11153TIP3   OH233401   0.719   1.760   2.675 -0.0928 -0.5200  0.0198
11153TIP3    H133402   0.659   1.687   2.661  0.1943 -0.8464  0.4560
11153TIP3    H233403   0.781   1.755   2.602  0.1820 -0.9767  0.2787
11154TIP3   OH233404   0.035   6.527   6.225 -0.3480 -0.1016 -0.2299
11154TIP3    H133405  -0.002   6.574   6.149 -0.9674  0.8713  0.6368
11154TIP3    H233406   0.048   6.438   6.194 -0.7375  0.2360 -1.4370
11155TIP3   OH233407   0.147   0.989   4.334 -0.6317  0.1934 -0.0040
11155TIP3    H133408   0.187   0.917   4.383  0.5308  0.8166 -0.0072
11155TIP3    H233409   0.122   1.053   4.400 -0.0982  0.5396 -0.1377
11156TIP3   OH233410   7.112   7.504   4.490 -0.4830 -0.2079 -0.0636
11156TIP3    H133411   7.064   7.534   4.413 -1.0936  0.4825  0.5665
11156TIP3    H233412   7.047   7.507   4.561 -0.0011 -1.0668  0.4334
11157TIP3   OH233413   7.611   7.041   0.691 -0.3778 -0.1627 -0.3655
11157TIP3    H133414   7.619   6.946   0.690  1.3862 -0.0499 -0.7200
11157TIP3    H233415   7.598   7.063   0.784 -2.2003 -0.7989 -0.4311
11158TIP3   OH233416   6.816   0.724   4.404  0.5628  0.0763  0.0352
11158TIP3    H133417   6.829   0.818   4.398 -0.6123  0.2565  0.0988
11158TIP3    H233418   6.772   0.710   4.488 -0.8595 -0.3198 -0.7412
11159TIP3   OH233419   3.017   6.504   4.917 -0.1771 -0.0377 -0.2204
11159TIP3    H133420   3.023   6.589   4.960 -1.5114 -0.8943  1.8244
11159TIP3    H233421   3.108   6.478   4.901  0.3162  0.9077  0.9357
11160TIP3   OH233422   1.006   1.821   1.161  0.2393  0.2955  0.3776
11160TIP3    H133423   1.036   1.848   1.075 -0.4116  1.4408  0.4943
11160TIP3    H233424   1.080   1.838   1.219  0.1066  1.1198  0.3175
11161TIP3   OH233425   6.173   0.230   1.587  0.0393 -0.2753 -0.4201
11161TIP3    H133426   6.157   0.285   1.664 -0.8828 -1.1007  0.0050
11161TIP3    H233427   6.193   0.144   1.623 -2.1367 -1.1135 -1.0958
11162TIP3   OH233428   6.984   4.095   1.099  0.0504  0.3543  0.0346
11162TIP3    H133429   6.912   4.069   1.041  0.2287  0.6920 -0.3439
11162TIP3    H233430   7.044   4.021   1.097 -0.9823 -0.5862  1.5466
11163TIP3   OH233431   2.108   7.366   3.051  0.2586  0.3461 -0.5490
11163TIP3    H133432   2.100   7.459   3.032 -1.0666  0.0493 -1.5769
11163TIP3    H233433   2.079   7.358   3.142  0.4686  0.9508 -0.4246
11164TIP3   OH233434   1.605   5.958   1.596  0.2834  0.6171 -0.0933
11164TIP3    H133435   1.609   5.966   1.691  0.9760 -1.1939  0.0798
11164TIP3    H233436   1.686   6.000   1.565  0.0863  1.1542  0.1135
11165TIP3   OH233437   2.983   6.813   0.669 -0.1824 -0.2733  0.1772
11165TIP3    H133438   2.986   6.890   0.725 -0.0524 -0.8109  0.9248
11165TIP3    H233439   3.038   6.836   0.594  1.1361 -0.1996  1.1367
11166TIP3   OH233440   3.527   0.094   5.711  0.0257  0.5293 -0.4945
11166TIP3    H133441   3.586   0.019   5.703 -0.3783  0.1423  0.0933
11166TIP3    H233442   3.527   0.114   5.805 -2.6469 -1.0352 -0.0554
11167TIP3   OH233443   3.740   4.555   2.998 -0.0003  0.3856 -0.2760
11167TIP3    H133444   3.706   4.568   2.910  1.0902  0.7286 -0.6573
11167TIP3    H233445   3.808   4.488   2.989  0.4854  0.7986  0.2102
11168TIP3   OH233446   2.231   4.389   0.852 -0.2667 -0.1391 -0.3106
11168TIP3    H133447   2.326   4.381   0.858 -0.1413  0.8102 -0.8431
11168TIP3    H233448   2.202   4.407   0.941 -0.2410 -2.8732  0.3490
11169TIP3   OH233449   4.912   1.827   6.107  0.5376 -0.1971  0.1054
11169TIP3    H133450   4.830   1.829   6.156  1.2679  0.4099  1.3597
11169TIP3    H233451   4.949   1.741   6.124  0.0555 -0.5688 -0.6728
11170TIP3   OH233452   8.287   6.478   2.596 -0.0329  0.7583  0.6263
11170TIP3    H133453   8.252   6.401   2.551  1.0334  0.1024  0.8995
11170TIP3    H233454   8.255   6.470   2.686 -0.3998  0.9514  0.5167
11171TIP3   OH233455   6.293   2.977   1.005 -0.0225 -0.4573  0.2250
11171TIP3    H133456   6.300   3.037   1.080 -1.1419 -2.6910  2.2235
11171TIP3    H233457   6.205   2.991   0.971  0.4161  0.4117 -0.6109
11172TIP3   OH233458   7.282   4.315   3.099 -0.8389 -0.0347  0.3423
11172TIP3    H133459   7.311   4.353   3.016  0.6629 -0.8080  0.4725
11172TIP3    H233460   7.357   4.262   3.128 -1.8326 -0.8344  1.5301
11173TIP3   OH233461   2.338   4.538   3.219 -0.2410  0.2411  0.0266
11173TIP3    H133462   2.356   4.590   3.298  0.6929  1.1512 -0.7482
11173TIP3    H233463   2.245   4.518   3.224 -0.5240  1.5701  0.6307
11174TIP3   OH233464   2.916   6.680   5.374 -0.1393 -0.0816  0.0297
11174TIP3    H133465   2.966   6.630   5.309 -0.0098  1.6585 -1.2676
11174TIP3    H233466   2.980   6.738   5.414 -0.5911  0.1785  0.3851
11175TIP3   OH233467   3.055   5.231   5.951 -0.3225  0.1479 -0.0759
11175TIP3    H133468   3.107   5.270   5.880 -0.7152  0.0820 -0.4024
11175TIP3    H233469   3.017   5.152   5.912 -2.1261  1.1341 -0.4033
11176TIP3   OH233470   0.022   6.876   0.118  0.1464 -0.2910 -0.0506
11176TIP3    H133471   0.108   6.837   0.103 -0.2554 -0.7154 -1.3324
11176TIP3    H233472   0.015   6.945   0.052 -0.8450 -0.8419 -0.5405
11177TIP3   OH233473   3.129   4.887   2.061 -0.0152  0.7221  0.3101
11177TIP3    H133474   3.077   4.861   2.138  1.8146  2.6360  2.3445
11177TIP3    H233475   3.158   4.976   2.081  2.0304  0.6199 -1.8277
11178TIP3   OH233476   6.126   5.673   3.181  0.3073 -0.4269  0.0549
11178TIP3    H133477   6.205   5.704   3.136  0.3129  0.9196  0.9159
11178TIP3    H233478   6.054   5.713   3.132  0.3227  1.2959  1.3154
11179TIP3   OH233479   6.934   5.747   3.599 -0.4393  0.4547  0.4113
11179TIP3    H133480   6.842   5.775   3.600  0.4124  3.7562 -0.6237
11179TIP3    H233481   6.945   5.706   3.514 -0.8129  0.6407  0.2677
11180TIP3   OH233482   0.449   3.471   2.874 -0.5302  0.1785  0.1906
11180TIP3    H133483   0.405   3.515   2.802 -0.2511  1.3391  0.6833
11180TIP3    H233484   0.405   3.387   2.883 -0.4915 -0.0407 -1.3864
11181TIP3   OH233485   1.504   0.176   4.404 -0.3303 -0.3023  0.2143
11181TIP3    H133486   1.566   0.134   4.345  0.0905  1.3283 -0.5701
11181TIP3    H233487   1.497   0.117   4.478  0.9846 -1.2508 -0.3862
11182TIP3   OH233488   5.056   5.787   5.777  0.2140 -0.5535  0.3794
11182TIP3    H133489   5.031   5.851   5.844 -0.0539 -0.8147  0.5361
11182TIP3    H233490   4.981   5.727   5.774  0.9960 -1.6119  1.1637
11183TIP3   OH233491   2.312   3.668   6.487 -0.3345  0.1112 -0.0875
11183TIP3    H133492   2.308   3.710   6.401  0.7985 -0.0454 -0.2320
11183TIP3    H233493   2.323   3.575   6.468 -0.9464 -0.0363  0.2403
11184TIP3   OH233494   5.102   0.971   1.143 -0.5128 -0.5053 -0.3188
11184TIP3    H133495   5.045   0.896   1.157 -0.5283 -0.4424 -0.0446
11184TIP3    H233496   5.128   0.998   1.231  0.1045 -0.6582 -0.4529
11185TIP3   OH233497   6.349   0.978   1.417 -0.0867 -0.4384 -0.2461
11185TIP3    H133498   6.340   0.900   1.362 -0.0854  0.0998 -1.0422
11185TIP3    H233499   6.335   1.051   1.356 -1.1097  0.1645  0.6809
11186TIP3   OH233500   3.896   5.742   4.344  0.4002  0.6021  0.7615
11186TIP3    H133501   3.830   5.748   4.413 -0.2246  1.5795  0.0935
11186TIP3    H233502   3.872   5.664   4.295 -0.3378  1.0143  0.4521
11187TIP3   OH233503   1.017   2.059   1.857  0.2673  0.2787  0.0675
11187TIP3    H133504   1.032   2.153   1.863 -2.7724  0.7889  2.6873
11187TIP3    H233505   1.099   2.019   1.886  0.8560  2.2027  1.2162
11188TIP3   OH233506   4.012   4.600   4.166 -0.1381 -0.7076 -0.1211
11188TIP3    H133507   3.953   4.600   4.090  1.6764  0.4582 -1.6057
11188TIP3    H233508   4.007   4.689   4.201  2.2995  0.1207 -1.6298
11189TIP3   OH233509   2.201   2.665   0.622  0.3048  0.2166  0.2593
11189TIP3    H133510   2.274   2.627   0.672  0.2786 -1.0391 -0.6163
11189TIP3    H233511   2.213   2.760   0.631  2.2625  0.0454 -0.1728
11190TIP3   OH233512   7.277   2.263   6.430  0.5546 -0.3432 -0.2125
11190TIP3    H133513   7.363   2.305   6.431  0.6098 -0.3414 -1.9872
11190TIP3    H233514   7.216   2.333   6.404  0.5552 -1.1411 -2.5219
11191TIP3   OH233515   4.951   4.496   1.152  0.0797  0.0725 -0.5262
11191TIP3    H133516   4.902   4.568   1.190 -0.8443 -0.6955 -0.2096
11191TIP3    H233517   4.975   4.441   1.227  0.2810 -0.2331 -0.8097
11192TIP3   OH233518   0.699   2.294   4.285 -0.5414  0.4470 -0.3492
11192TIP3    H133519   0.663   2.215   4.323 -0.1016 -1.4507 -3.4538
11192TIP3    H233520   0.623   2.347   4.261 -0.8736  0.5628  0.9259
11193TIP3   OH233521   3.417   5.888   2.412 -0.5296 -0.4207  0.3120
11193TIP3    H133522   3.419   5.794   2.429 -1.3272 -0.2659  1.3663
11193TIP3    H233523   3.402   5.928   2.498 -1.1815  0.6076 -0.2498
11194TIP3   OH233524   7.987   3.179   2.569 -1.2436 -0.3441  0.3472
11194TIP3    H133525   7.979   3.240   2.643 -1.7118 -0.9434  0.8004
11194TIP3    H233526   7.897   3.153   2.550 -0.9501 -2.2498  1.3222
11195TIP3   OH233527   0.755   6.872   2.419  0.1806  0.4230  0.0491
11195TIP3    H133528   0.761   6.939   2.487 -2.0535  0.3697  0.3865
11195TIP3    H233529   0.674   6.893   2.372  0.3901 -0.9860 -1.0096
11196TIP3   OH233530   7.525   4.423   5.312 -0.3721  0.4321 -0.3577
11196TIP3    H133531   7.584   4.370   5.365 -1.2394  0.2188  0.4329
11196TIP3    H233532   7.515   4.374   5.230  0.6678  0.5656 -0.5789
11197TIP3   OH233533   0.397   2.783   2.595  0.4163  0.5305  0.2089
11197TIP3    H133534   0.483   2.756   2.562 -0.3226 -0.2765 -1.1126
11197TIP3    H233535   0.383   2.870   2.559  1.1859  1.2129  1.4541
11198TIP3   OH233536   5.808   3.690   2.093  0.2272 -0.1938  1.0172
11198TIP3    H133537   5.881   3.634   2.067  1.1893  1.0476  0.9558
11198TIP3    H233538   5.730   3.641   2.068  1.0540 -0.8793 -0.3303
11199TIP3   OH233539   5.175   7.344   5.047 -0.2806  0.2288 -0.0091
11199TIP3    H133540   5.199   7.424   5.002  1.1417  0.1177  0.5171
11199TIP3    H233541   5.080   7.336   5.033  0.0377  0.3686 -2.6339
11200TIP3   OH233542   7.392   1.190   1.534 -0.9227 -0.2128 -0.1463
11200TIP3    H133543   7.463   1.159   1.590 -1.5181  0.7400  1.1825
11200TIP3    H233544   7.319   1.132   1.555 -1.1895  0.2398  0.1902
11201TIP3   OH233545   6.397   1.800   1.067  0.0976 -0.2217  0.3649
11201TIP3    H133546   6.470   1.788   1.128  0.0130 -1.0966  0.3049
11201TIP3    H233547   6.383   1.713   1.030 -0.7555  0.0163  0.1246
11202TIP3   OH233548   3.053   7.672   5.591 -0.0828  0.1319 -0.4359
11202TIP3    H133549   2.968   7.715   5.583  0.0261  1.2910  2.9244
11202TIP3    H233550   3.114   7.743   5.612  1.9495 -0.5765 -3.4042
11203TIP3   OH233551   3.558   4.814   0.936 -1.0227  0.4209  0.1595
11203TIP3    H133552   3.581   4.904   0.957 -0.9384  0.3056  0.5708
11203TIP3    H233553   3.516   4.781   1.015 -0.0765 -0.2396  0.4018
11204TIP3   OH233554   3.240   0.056   4.062  0.0773 -0.8789 -0.3531
11204TIP3    H133555   3.149   0.066   4.034  0.3123  0.9968 -0.5455
11204TIP3    H233556   3.235  -0.006   4.135 -1.6531  0.7527  1.0191
11205TIP3   OH233557   6.979   5.169   5.758  0.0509 -0.5808 -0.2382
11205TIP3    H133558   6.952   5.221   5.683 -0.3295  1.0105  0.9425
11205TIP3    H233559   6.909   5.181   5.822  0.6063 -1.4752  0.5735
11206TIP3   OH233560   7.794   7.469   3.853 -0.0835 -0.0152 -0.2190
11206TIP3    H133561   7.828   7.462   3.942  0.8081 -0.6093 -0.5915
11206TIP3    H233562   7.834   7.549   3.818 -0.8554  0.5182  0.0702
11207TIP3   OH233563   1.532   4.400   5.271 -0.3336  0.2566 -0.0699
11207TIP3    H133564   1.620   4.367   5.287 -0.3370 -0.6860 -1.7368
11207TIP3    H233565   1.485   4.326   5.233 -1.9934  0.6153  1.1655
11208TIP3   OH233566   7.792   3.364   1.862 -0.1961 -0.1746 -0.4959
11208TIP3    H133567   7.883   3.352   1.835  0.0242 -1.2067  0.6154
11208TIP3    H233568   7.763   3.276   1.888 -1.6365  0.0589 -1.1983
11209TIP3   OH233569   2.518   4.405   1.021 -0.1928  0.1579  0.3758
11209TIP3    H133570   2.480   4.319   1.039 -1.1139  0.5859  0.5362
11209TIP3    H233571   2.610   4.397   1.048  0.2287 -1.3169 -1.2997
11210TIP3   OH233572   3.692   2.532   1.092 -0.1238 -0.4732  0.3905
11210TIP3    H133573   3.702   2.627   1.089 -1.8726 -0.2638 -0.9049
11210TIP3    H233574   3.597   2.519   1.100 -0.0426 -2.0974 -0.8487
11211TIP3   OH233575   1.334   3.279   1.253 -0.0662 -0.5899  0.3485
11211TIP3    H133576   1.270   3.345   1.227 -0.4300 -1.0405  0.0886
11211TIP3    H233577   1.406   3.289   1.191  0.2700  0.1339  0.8395
11212TIP3   OH233578   2.790   2.856   4.712  0.2369  0.1671 -0.1359
11212TIP3    H133579   2.734   2.934   4.723  0.6587  0.5766 -0.8095
11212TIP3    H233580   2.864   2.872   4.770  0.0050 -0.0446  0.2225
11213TIP3   OH233581   6.320   0.481   5.164  0.4159  0.3989 -0.4326
11213TIP3    H133582   6.279   0.483   5.077  1.4899  0.1895 -0.9616
11213TIP3    H233583   6.338   0.573   5.185 -1.7184  0.6526  0.5152
11214TIP3   OH233584   5.825   5.634   5.460  0.0472  0.6046  0.0182
11214TIP3    H133585   5.736   5.664   5.445  0.5081  2.2771  0.4644
11214TIP3    H233586   5.820   5.539   5.449 -1.3699  0.8483 -1.9384
11215TIP3   OH233587   6.012   6.271   1.223  0.2108 -0.2251 -0.0734
11215TIP3    H133588   5.971   6.337   1.166  0.4729  0.0428  0.0493
11215TIP3    H233589   6.059   6.321   1.289  0.0800 -0.5367  0.2633
11216TIP3   OH233590   2.313   7.476   1.622  0.6172 -0.5986 -0.1103
11216TIP3    H133591   2.284   7.389   1.596  1.7070 -1.2715  0.8626
11216TIP3    H233592   2.317   7.473   1.717  0.4156  0.6032 -0.0465
11217TIP3   OH233593   4.076   5.403   1.959  0.4794  0.5525 -0.5122
11217TIP3    H133594   4.092   5.347   1.884  2.3033 -1.1228  1.0054
11217TIP3    H233595   4.138   5.475   1.949 -0.5488  1.3261 -1.4983
11218TIP3   OH233596   1.454   2.700   1.574 -0.0511 -0.7207 -0.4066
11218TIP3    H133597   1.450   2.688   1.669 -0.9456 -0.8340 -0.4549
11218TIP3    H233598   1.412   2.784   1.558  1.6212  0.1290 -0.5567
11219TIP3   OH233599   6.558   0.525   5.807 -0.1440 -0.0490  0.9717
11219TIP3    H133600   6.641   0.522   5.759 -0.5853 -0.3317  0.2091
11219TIP3    H233601   6.532   0.617   5.805 -0.3469 -0.1180  0.3332
11220TIP3   OH233602   4.826   4.053   5.671  0.3399 -0.4310  0.1440
11220TIP3    H133603   4.807   4.021   5.759  1.5728 -0.9485  0.2382
11220TIP3    H233604   4.790   4.142   5.670 -1.3826 -1.0901  0.5302
11221TIP3   OH233605   3.730   3.733   5.226 -0.3087  0.2541 -0.1452
11221TIP3    H133606   3.768   3.655   5.184 -1.6749  0.3122 -1.5961
11221TIP3    H233607   3.734   3.714   5.319 -0.4624 -1.5205 -0.4563
11222TIP3   OH233608   1.988   3.030   5.935 -0.5719  0.4358  0.2128
11222TIP3    H133609   1.901   3.070   5.942 -0.4980  0.3993  1.7039
11222TIP3    H233610   1.988   2.961   6.002  1.2210  1.6571  1.5663
11223TIP3   OH233611   0.346   1.434   5.363  0.4462  0.4201 -0.4057
11223TIP3    H133612   0.280   1.495   5.332 -0.6130  0.4374  1.6824
11223TIP3    H233613   0.360   1.374   5.290 -1.8968  0.4261 -0.9310
11224TIP3   OH233614   1.391   4.487   1.988  0.0966 -0.0832 -0.2877
11224TIP3    H133615   1.454   4.559   1.992 -0.5288  0.4441  2.9031
11224TIP3    H233616   1.403   4.449   1.901  2.0790  2.3949 -1.2114
11225TIP3   OH233617   7.406   5.994   2.052 -0.4617 -0.2964 -0.0271
11225TIP3    H133618   7.494   6.012   2.086 -0.3702  0.0674 -0.4384
11225TIP3    H233619   7.380   6.076   2.010 -0.8057 -0.5503 -0.3143
11226TIP3   OH233620   1.167   7.469   2.851  0.1100 -0.1570 -0.0796
11226TIP3    H133621   1.107   7.401   2.819 -2.4226  2.0864 -0.4855
11226TIP3    H233622   1.178   7.528   2.776  2.1480 -0.0130  0.2856
11227TIP3   OH233623   3.829   5.559   3.711  0.6480  0.2251  0.3674
11227TIP3    H133624   3.757   5.526   3.765  0.6239  1.5422  1.1698
11227TIP3    H233625   3.852   5.643   3.750  1.9809  0.2737 -0.4698
11228TIP3   OH233626   5.771   7.774   5.301  0.2444 -0.4704 -0.1417
11228TIP3    H133627   5.797   7.728   5.221  0.8604 -1.3734  0.5595
11228TIP3    H233628   5.839   7.840   5.314 -0.7018  0.7850 -1.2124
11229TIP3   OH233629   5.753   0.079   5.246 -0.1024  0.5323 -0.3877
11229TIP3    H133630   5.788   0.156   5.201  0.8472 -0.9178 -2.2632
11229TIP3    H233631   5.704   0.032   5.179 -0.6150 -0.5273  0.6994
11230TIP3   OH233632   6.609   6.851   2.729 -0.1675 -0.0323  0.1877
11230TIP3    H133633   6.628   6.914   2.660 -0.9255 -1.0968 -1.0279
11230TIP3    H233634   6.617   6.901   2.810  3.2945  0.6770 -0.4502
11231TIP3   OH233635   4.467   2.798   6.752 -0.2831 -0.0642  0.4591
11231TIP3    H133636   4.536   2.772   6.813  0.1446 -0.2307 -0.0943
11231TIP3    H233637   4.495   2.883   6.719  0.3897 -0.7751 -0.8562
11232TIP3   OH233638   7.732   3.082   1.917  0.0846 -0.5710 -0.3342
11232TIP3    H133639   7.698   3.057   1.831 -1.9354  0.7276  0.0263
11232TIP3    H233640   7.784   3.006   1.945 -1.4723 -2.1389 -1.5131
11233TIP3   OH233641   1.607   0.601   4.639  0.7405  0.1622 -0.1154
11233TIP3    H133642   1.665   0.606   4.716  1.1731 -0.7852 -0.3587
11233TIP3    H233643   1.527   0.560   4.672  0.7542  0.1702 -0.0725
11234TIP3   OH233644   7.624   6.778   0.750 -0.2003  0.7231 -0.7062
11234TIP3    H133645   7.655   6.722   0.680  2.3815  1.8484 -0.6006
11234TIP3    H233646   7.668   6.744   0.829 -0.1426  1.6709 -0.3157
11235TIP3   OH233647   6.661   0.456   4.026  0.1048 -0.2794  0.4579
11235TIP3    H133648   6.755   0.467   4.042  0.1400  1.9803 -0.9110
11235TIP3    H233649   6.649   0.481   3.935 -1.8225 -0.6637  0.5642
11236TIP3   OH233650   2.361   4.421   4.024 -0.4468 -0.0920 -0.2141
11236TIP3    H133651   2.312   4.372   3.958  2.6040 -0.7242 -2.1762
11236TIP3    H233652   2.325   4.510   4.019  0.0081  0.0032 -3.1433
11237TIP3   OH233653   6.070   0.305   5.604 -0.1282  0.2676 -0.1813
11237TIP3    H133654   6.156   0.342   5.583 -0.3295  1.3386  0.7720
11237TIP3    H233655   6.066   0.306   5.700 -0.7415 -0.8654 -0.1859
11238TIP3   OH233656   7.301   1.781   3.126  0.1386 -0.0744 -0.2076
11238TIP3    H133657   7.377   1.819   3.082  1.8186 -1.3154  1.4065
11238TIP3    H233658   7.328   1.690   3.144 -2.4443 -1.0955 -1.1106
11239TIP3   OH233659   3.401   3.530   2.894 -0.5865  0.0862 -0.4501
11239TIP3    H133660   3.431   3.493   2.977  1.1418  0.4898 -0.8477
11239TIP3    H233661   3.306   3.531   2.901 -0.4930  2.1541  2.4492
11240TIP3   OH233662   6.437   4.172   1.348 -0.5368  0.3421  0.1490
11240TIP3    H133663   6.344   4.158   1.367 -0.5437  0.4520  0.1952
11240TIP3    H233664   6.448   4.138   1.259 -0.6312  0.3760  0.1241
11241TIP3   OH233665   3.305   2.572   1.821  0.1674 -0.1505  0.3259
11241TIP3    H133666   3.377   2.544   1.765  0.1141 -1.3294  0.7994
11241TIP3    H233667   3.316   2.666   1.831  0.3408  0.0396 -1.4183
11242TIP3   OH233668   4.646   6.121   5.755 -0.1158 -0.1374  0.1104
11242TIP3    H133669   4.553   6.115   5.778 -0.0817 -0.4776  0.1749
11242TIP3    H233670   4.661   6.044   5.699 -0.0137  0.2468 -0.3938
11243TIP3   OH233671   0.139   4.067   6.125 -0.2894 -0.3736  0.2631
11243TIP3    H133672   0.050   4.030   6.124 -0.7693  0.6543  1.9085
11243TIP3    H233673   0.126   4.161   6.112  0.7963 -0.4795 -2.1847
11244TIP3   OH233674   1.301   1.228   0.298 -0.6077 -0.7991 -0.5110
11244TIP3    H133675   1.243   1.210   0.372  0.4973  1.1127  0.9054
11244TIP3    H233676   1.363   1.156   0.299 -0.6960 -0.8770  0.3473
11245TIP3   OH233677   4.470   4.652   4.636  0.5240 -0.1796 -0.3705
11245TIP3    H133678   4.380   4.650   4.669  0.3588 -0.6677 -0.8182
11245TIP3    H233679   4.505   4.565   4.657  1.1592  0.2716  0.4990
11246TIP3   OH233680   5.959   4.529   3.077  0.2057 -0.5617  0.1367
11246TIP3    H133681   5.947   4.556   3.168  0.2670 -1.9441  0.5791
11246TIP3    H233682   5.881   4.561   3.031  0.5931  0.9133  0.4749
11247TIP3   OH233683   2.124   7.090   1.117  0.2120  0.5949  0.3833
11247TIP3    H133684   2.196   7.027   1.113  0.7103  1.1800 -0.0262
11247TIP3    H233685   2.055   7.052   1.062  0.5031  0.4088  0.1481
11248TIP3   OH233686   2.095   4.337   4.540 -0.8412  0.2595  0.0292
11248TIP3    H133687   2.141   4.270   4.591 -0.5269  0.5899  0.1845
11248TIP3    H233688   2.148   4.416   4.550 -1.4156  0.6382  0.1816
11249TIP3   OH233689   3.364   3.767   5.741  0.1010  0.1700 -0.5638
11249TIP3    H133690   3.322   3.853   5.737 -0.6088 -0.1945 -1.3652
11249TIP3    H233691   3.455   3.785   5.762 -0.2358  1.0531  0.2118
11250TIP3   OH233692   3.414   6.226   3.033  0.0489 -0.3413  0.3937
11250TIP3    H133693   3.460   6.166   2.974  1.6551  1.2002 -0.0376
11250TIP3    H233694   3.336   6.253   2.985  0.4531 -0.4330 -0.3237
11251TIP3   OH233695   6.687   7.528   5.668 -0.2544  0.5703 -0.4462
11251TIP3    H133696   6.657   7.441   5.641  2.5509 -0.4328 -0.5887
11251TIP3    H233697   6.720   7.515   5.757  0.6091  1.3979 -0.6359
11252TIP3   OH233698   6.926   7.676   5.975  0.0844 -0.6434 -0.2768
11252TIP3    H133699   6.915   7.730   6.054  0.3282 -1.3456  0.2534
11252TIP3    H233700   6.905   7.734   5.903 -2.3899 -0.5670  0.3961
11253TIP3   OH233701   3.243   4.329   0.596  0.2573 -0.2895  0.8214
11253TIP3    H133702   3.297   4.399   0.559 -1.5401  0.0265 -1.4920
11253TIP3    H233703   3.259   4.254   0.539 -0.8617 -0.5158  0.7738
11254TIP3   OH233704   2.569   2.895   0.929  0.0069 -0.1561 -0.0569
11254TIP3    H133705   2.475   2.880   0.915 -0.2424  0.7278  0.5667
11254TIP3    H233706   2.612   2.851   0.856 -0.9442  0.1506 -0.8221
11255TIP3   OH233707   5.947   5.065   5.256 -0.5439  0.1307  0.6566
11255TIP3    H133708   5.887   5.103   5.320 -0.3769 -1.1610  1.6116
11255TIP3    H233709   5.905   4.985   5.227 -0.6034  0.6781 -0.8786
11256TIP3   OH233710   3.148   4.068   1.071  0.4127 -0.4925 -0.3272
11256TIP3    H133711   3.218   4.050   1.008  0.5085 -1.9721  0.1609
11256TIP3    H233712   3.090   3.992   1.065 -1.0776  0.6428 -0.6030
11257TIP3   OH233713   5.054   2.796   6.062  0.0907  0.3165  0.0039
11257TIP3    H133714   5.044   2.707   6.028 -0.7368  0.4296 -0.0707
11257TIP3    H233715   4.988   2.802   6.131 -0.1155  0.9918 -0.2469
11258TIP3   OH233716   2.788   5.967   4.889 -0.3190  0.0034 -0.3660
11258TIP3    H133717   2.756   5.991   4.977  0.4297  0.1001 -0.1167
11258TIP3    H233718   2.872   5.924   4.905  1.0135  2.1362 -1.1875
11259TIP3   OH233719   6.307   3.481   3.769 -0.1434  0.5151 -0.0584
11259TIP3    H133720   6.346   3.497   3.683  1.1812 -2.1767 -0.0855
11259TIP3    H233721   6.215   3.503   3.759 -0.0353  0.1484 -2.2242
11260TIP3   OH233722   7.585   2.198   5.760  0.7774  0.1557  0.0633
11260TIP3    H133723   7.583   2.173   5.852  0.4268  0.9172  0.2711
11260TIP3    H233724   7.672   2.235   5.747  0.8758 -0.0801  0.0547
11261TIP3   OH233725   6.894   6.261   5.203 -0.0060 -0.3028  0.3005
11261TIP3    H133726   6.895   6.187   5.264 -0.8380  0.5001  1.3119
11261TIP3    H233727   6.987   6.280   5.188  0.2160 -1.1244  0.5486
11262TIP3   OH233728   1.119   2.187   5.678  0.1859  0.6209  0.3753
11262TIP3    H133729   1.128   2.092   5.677 -0.6656  0.4903 -2.5883
11262TIP3    H233730   1.209   2.220   5.666  0.3573  0.1759  0.4161
11263TIP3   OH233731   5.033   4.340   2.099  0.1153 -0.2214  0.3529
11263TIP3    H133732   4.952   4.293   2.119 -0.9412  1.8779  1.2714
11263TIP3    H233733   5.005   4.414   2.046  1.5701  0.0552 -0.0620
11264TIP3   OH233734   5.423   3.866   4.839 -0.2738 -0.1063 -0.1702
11264TIP3    H133735   5.396   3.928   4.907  0.5947 -0.5756  0.6211
11264TIP3    H233736   5.387   3.903   4.758  0.0013  1.2931  0.3176
11265TIP3   OH233737   6.262   6.634   2.064  0.1478  0.0328  0.1876
11265TIP3    H133738   6.240   6.642   1.971  0.7692 -5.2802 -0.7761
11265TIP3    H233739   6.185   6.594   2.103 -0.3976  2.8812  2.3178
11266TIP3   OH233740   6.828   1.981   4.298 -0.3358 -0.4099 -0.5444
11266TIP3    H133741   6.853   2.032   4.376  0.4293  0.0314 -1.0650
11266TIP3    H233742   6.762   1.920   4.330  0.2420 -0.4989  0.5507
11267TIP3   OH233743   0.161   5.994   4.967 -0.2808 -0.1408  0.0468
11267TIP3    H133744   0.092   5.937   5.002 -1.4331  0.5269 -1.0570
11267TIP3    H233745   0.241   5.961   5.007 -1.4612  0.5804  3.3502
11268TIP3   OH233746   5.948   0.415   3.446  0.3165  0.2636 -0.0942
11268TIP3    H133747   5.949   0.497   3.397 -0.0438  0.9151  0.9663
11268TIP3    H233748   6.038   0.382   3.437  1.1894  1.9982  1.4326
11269TIP3   OH233749   3.644   0.066   3.775  0.4832  0.2295  0.1593
11269TIP3    H133750   3.694   0.003   3.724 -0.1134 -0.0470 -0.0873
11269TIP3    H233751   3.711   0.125   3.811  0.8120  1.8299 -2.7462
11270TIP3   OH233752   7.700   5.500   0.840  0.8709  0.6889 -0.1146
11270TIP3    H133753   7.719   5.544   0.923  1.0902  0.2139  0.0902
11270TIP3    H233754   7.766   5.430   0.835  0.5959  0.4573 -0.4921
11271TIP3   OH233755   4.313   7.556   4.574  0.0949 -0.2068 -0.3576
11271TIP3    H133756   4.360   7.516   4.501  1.0389 -0.3090  0.2865
11271TIP3    H233757   4.334   7.650   4.567 -0.4135 -0.1065 -0.6337
11272TIP3   OH233758   4.141   2.900   2.365 -0.1298 -0.0678  0.4830
11272TIP3    H133759   4.064   2.858   2.405  1.4199 -2.1367  1.4667
11272TIP3    H233760   4.117   2.910   2.272 -1.8475  0.0747  0.9008
11273TIP3   OH233761   0.687   0.226   1.565 -0.7019  0.2143  0.2070
11273TIP3    H133762   0.621   0.156   1.570  0.8442 -1.2692  1.0878
11273TIP3    H233763   0.748   0.206   1.637  1.4078  0.7361 -1.3405
11274TIP3   OH233764   2.397   4.169   1.045  0.3982  0.5806  0.0122
11274TIP3    H133765   2.422   4.139   0.958  1.1847  1.3326 -0.0379
11274TIP3    H233766   2.384   4.089   1.096 -2.9209 -0.0202 -1.5057
11275TIP3   OH233767   5.678   5.220   5.495 -0.5122 -0.7043  0.0231
11275TIP3    H133768   5.688   5.281   5.422 -0.3847 -1.3557 -0.5160
11275TIP3    H233769   5.590   5.183   5.483 -0.1622 -1.4496 -0.3071
11276TIP3   OH233770   3.593   7.096   1.702 -0.2869 -0.0435 -0.3775
11276TIP3    H133771   3.506   7.130   1.680  0.4518  2.1502 -0.1360
11276TIP3    H233772   3.576   7.014   1.747 -2.2362  0.2405 -0.5242
11277TIP3   OH233773   0.154   0.587   0.544  0.4219 -0.3716  0.0354
11277TIP3    H133774   0.196   0.521   0.488  0.8767 -0.3824  0.3886
11277TIP3    H233775   0.068   0.550   0.563 -0.7397  0.6676 -2.6106
11278TIP3   OH233776   6.790   2.536   0.408 -0.7285  0.0556  0.8204
11278TIP3    H133777   6.883   2.531   0.387 -1.4282  0.4631 -3.0293
11278TIP3    H233778   6.765   2.445   0.426  0.1680 -0.2247  0.7123
11279TIP3   OH233779   4.817   6.486   1.968 -0.1122 -0.1389 -0.2402
11279TIP3    H133780   4.768   6.550   1.915  0.2060  1.1137  0.9089
11279TIP3    H233781   4.760   6.470   2.044  0.6353  0.2857  0.4289
11280TIP3   OH233782   3.141   3.794   3.830 -0.4521 -0.1401 -0.0081
11280TIP3    H133783   3.072   3.851   3.799 -1.1393 -1.4009 -0.8992
11280TIP3    H233784   3.138   3.801   3.926  0.4305  2.3451 -0.0820
11281TIP3   OH233785   0.277   2.305   0.253  0.4396 -0.7271  0.7259
11281TIP3    H133786   0.316   2.252   0.183 -2.3665 -0.7168 -1.0174
11281TIP3    H233787   0.212   2.247   0.293 -0.3329  0.3200  1.0358
11282TIP3   OH233788   2.896   0.260   6.146 -0.4884  0.2835  0.2665
11282TIP3    H133789   2.976   0.230   6.189 -1.2093 -1.0139  0.7557
11282TIP3    H233790   2.881   0.347   6.183 -0.0070  0.0038  1.1523
11283TIP3   OH233791   5.014   0.124   0.662 -0.5109 -0.2922  0.2043
11283TIP3    H133792   4.925   0.121   0.626 -0.9743  0.4839  1.2074
11283TIP3    H233793   5.064   0.176   0.600 -0.7779 -0.6659 -0.3291
11284TIP3   OH233794   4.981   0.675   5.765  0.3869 -0.1761  0.4498
11284TIP3    H133795   4.953   0.701   5.853  0.9992 -0.0966  0.6290
11284TIP3    H233796   5.075   0.692   5.764  0.4805 -0.6756 -0.0449
11285TIP3   OH233797   2.173   7.061   1.613  0.0404  0.1305 -0.1954
11285TIP3    H133798   2.110   7.049   1.541 -1.3430  0.9027  0.8179
11285TIP3    H233799   2.208   6.974   1.629  0.4803 -0.0289 -1.8877
11286TIP3   OH233800   2.406   7.750   1.907 -0.1153  0.1110  0.0658
11286TIP3    H133801   2.416   7.655   1.920 -1.2124 -0.4929 -2.7799
11286TIP3    H233802   2.493   7.779   1.878  0.0089 -0.1691  0.1499
11287TIP3   OH233803   6.878   2.931   3.876 -0.3685  0.0751 -0.6302
11287TIP3    H133804   6.821   3.004   3.898  0.3994  0.6470 -0.4732
11287TIP3    H233805   6.899   2.891   3.960 -0.2875  0.0622 -0.6561
11288TIP3   OH233806   6.882   5.616   4.691 -0.7097  0.1880  0.4263
11288TIP3    H133807   6.857   5.567   4.613 -0.1930  1.0266 -0.2910
11288TIP3    H233808   6.961   5.664   4.665 -1.5241  1.8663  0.8792
11289TIP3   OH233809   6.429   1.723   0.130  0.2298  0.0349  0.0814
11289TIP3    H133810   6.478   1.696   0.053 -0.9087  0.5431 -0.8655
11289TIP3    H233811   6.467   1.807   0.155  1.0114 -0.4273  0.4701
11290TIP3   OH233812   4.368   7.658   1.200 -0.3646  0.4270  0.1277
11290TIP3    H133813   4.370   7.688   1.291  0.3041  1.0719 -0.0806
11290TIP3    H233814   4.435   7.712   1.156  0.9289 -1.3918 -0.2734
11291TIP3   OH233815   0.751   2.668   6.106  0.1335 -0.1887  0.2793
11291TIP3    H133816   0.738   2.729   6.034  0.5087  1.6318  1.6628
11291TIP3    H233817   0.827   2.617   6.080  1.7255  1.9978  0.2924
11292TIP3   OH233818   1.499   3.061   3.842  0.1736  0.2905  0.6838
11292TIP3    H133819   1.496   3.148   3.803 -0.5903  0.0028  0.0656
11292TIP3    H233820   1.572   3.017   3.798 -1.3438 -0.3966 -1.2905
11293TIP3   OH233821   6.288   6.153   6.668  0.0845  0.3575 -0.4465
11293TIP3    H133822   6.299   6.059   6.684 -1.1910  0.3685  0.6566
11293TIP3    H233823   6.277   6.160   6.573 -0.6133 -0.7081 -0.4605
11294TIP3   OH233824   3.704   7.631   1.412 -0.2115 -0.3300  0.1483
11294TIP3    H133825   3.773   7.569   1.437  2.2368  2.4922  1.1190
11294TIP3    H233826   3.700   7.627   1.317  1.7483 -0.2248  0.0228
11295TIP3   OH233827   6.632   5.979   1.385 -0.0672 -0.3587  0.1852
11295TIP3    H133828   6.561   5.956   1.444 -1.1348  0.0760 -0.8924
11295TIP3    H233829   6.696   5.909   1.395  0.2057  0.1584  2.5018
11296TIP3   OH233830   6.896   0.608   4.921 -0.1120  0.5169 -0.2176
11296TIP3    H133831   6.875   0.700   4.936 -1.0803  0.5849 -1.7184
11296TIP3    H233832   6.896   0.599   4.825  0.4423 -0.9457 -0.1118
11297TIP3   OH233833   1.463   5.844   3.496  0.2867  0.2722  0.3140
11297TIP3    H133834   1.555   5.864   3.478  0.2130 -0.3173 -0.7969
11297TIP3    H233835   1.459   5.748   3.499  0.0298  0.3032  2.2168
11298TIP3   OH233836   4.758   2.960   0.647  0.5119  0.3410 -0.2300
11298TIP3    H133837   4.848   2.992   0.657  1.4074 -1.9400 -0.4473
11298TIP3    H233838   4.715   3.027   0.594  1.9856  1.6357  0.1325
11299TIP3   OH233839   4.409   7.534   5.271 -0.4089  0.0496 -0.2067
11299TIP3    H133840   4.409   7.517   5.365 -0.5599 -0.3374 -0.2768
11299TIP3    H233841   4.425   7.629   5.264 -0.5046  0.0979  0.2089
11300TIP3   OH233842   4.883   3.461   0.080  0.3822 -0.2404 -0.0751
11300TIP3    H133843   4.963   3.408   0.075 -0.5891 -1.8666  0.6321
11300TIP3    H233844   4.853   3.468  -0.010  1.7200  1.0770 -0.4492
11301TIP3   OH233845   3.426   0.932   3.464 -0.1126 -0.5474  0.6733
11301TIP3    H133846   3.389   1.010   3.423 -1.0684 -1.8566 -1.0793
11301TIP3    H233847   3.512   0.921   3.423 -0.6756 -1.3135 -0.3759
11302TIP3   OH233848   6.317   3.324   6.404  0.4016 -0.2916 -0.2664
11302TIP3    H133849   6.304   3.229   6.408 -0.0816 -0.2041  1.1198
11302TIP3    H233850   6.339   3.349   6.494 -0.1569  0.9942 -0.4565
11303TIP3   OH233851   4.431   1.528   1.725 -0.5936 -0.3504  0.4636
11303TIP3    H133852   4.458   1.614   1.759 -1.0849  0.5415 -1.3106
11303TIP3    H233853   4.337   1.536   1.712 -0.6375 -1.1689  0.2565
11304TIP3   OH233854   2.404   2.941   3.644 -0.3427  0.0942 -0.0497
11304TIP3    H133855   2.474   2.995   3.608 -1.2696  0.9088 -0.6824
11304TIP3    H233856   2.388   2.874   3.578 -0.3090  0.0355  0.0013
11305TIP3   OH233857   2.993   4.057   1.714 -0.2093  0.3873 -0.2805
11305TIP3    H133858   3.026   3.967   1.720  0.2554  0.5077 -0.9148
11305TIP3    H233859   2.991   4.087   1.805 -1.6919 -0.7177  0.0887
11306TIP3   OH233860   2.497   0.754   1.906 -0.5138  0.3398 -0.3121
11306TIP3    H133861   2.469   0.721   1.992 -0.1853 -1.6454 -0.9208
11306TIP3    H233862   2.559   0.823   1.927 -0.3287 -0.1927  1.0728
11307TIP3   OH233863   4.062   5.038   2.418  0.0952  0.1171  0.5888
11307TIP3    H133864   4.046   4.950   2.451 -0.1614  0.1047  0.4326
11307TIP3    H233865   3.979   5.065   2.379  0.0684  0.5655  0.9457
11308TIP3   OH233866   0.378   7.615   2.235  0.1255 -0.3461 -0.1211
11308TIP3    H133867   0.378   7.636   2.142 -0.2808 -0.6179 -0.1864
11308TIP3    H233868   0.318   7.678   2.274  0.7152  0.1155  0.0404
11309TIP3   OH233869   8.060   4.529   0.645 -0.0196 -0.1009  0.1782
11309TIP3    H133870   8.097   4.448   0.681  0.5324  0.4683  0.9166
11309TIP3    H233871   7.974   4.503   0.612  1.2468 -1.6271 -2.2334
11310TIP3   OH233872   5.026   4.863   2.127 -0.3791  0.1065  0.3376
11310TIP3    H133873   5.051   4.854   2.219 -2.1287  2.9605  1.2280
11310TIP3    H233874   4.932   4.841   2.126 -0.1956 -0.7155 -0.9717
11311TIP3   OH233875   5.181   7.231   2.159  0.4035  0.2317 -0.3886
11311TIP3    H133876   5.158   7.141   2.183 -0.2106  0.2496 -0.8815
11311TIP3    H233877   5.119   7.253   2.089  1.4277  0.5749 -1.1965
11312TIP3   OH233878   3.025   1.068   1.153  0.0018  0.1561 -0.2950
11312TIP3    H133879   3.054   1.149   1.197  0.2383  0.8309 -1.6360
11312TIP3    H233880   2.982   1.018   1.222  2.1430  0.2289  1.2034
11313TIP3   OH233881   6.474   0.790   5.783 -0.0101 -0.1250  0.1502
11313TIP3    H133882   6.378   0.790   5.783 -0.0153  0.6734 -0.0243
11313TIP3    H233883   6.498   0.875   5.745  0.7642 -0.1340  0.6002
11314TIP3   OH233884   6.424   6.740   1.319 -0.6477 -0.2867  0.2845
11314TIP3    H133885   6.449   6.825   1.355 -0.7595 -0.0403 -0.2018
11314TIP3    H233886   6.492   6.679   1.350  0.4639  0.3273 -0.8338
11315TIP3   OH233887   8.284   2.806   4.719 -0.3190 -0.0376 -0.2373
11315TIP3    H133888   8.205   2.860   4.719  0.5156  1.4130 -3.0604
11315TIP3    H233889   8.353   2.865   4.690  1.4726 -1.6979  0.4217
11316TIP3   OH233890   0.154   7.550   1.108 -0.1873  0.1146  0.2308
11316TIP3    H133891   0.218   7.505   1.164  0.4927  1.2057  0.3714
11316TIP3    H233892   0.195   7.553   1.022 -1.1791 -1.4501 -0.3233
11317TIP3   OH233893   1.519   1.144   4.475 -0.2411  0.3708 -0.1498
11317TIP3    H133894   1.605   1.160   4.435 -1.1859  2.5780 -1.4632
11317TIP3    H233895   1.507   1.216   4.536 -0.7597 -0.4977  0.8014
11318TIP3   OH233896   5.128   0.960   5.485 -0.1565  0.2920  0.3253
11318TIP3    H133897   5.057   0.901   5.509 -0.6326  0.6352 -0.2043
11318TIP3    H233898   5.092   1.013   5.414  0.7438  0.2317 -0.1973
11319TIP3   OH233899   4.406   4.826   0.634 -0.2984 -0.3780 -0.2301
11319TIP3    H133900   4.454   4.904   0.606 -1.0529 -0.5444 -2.2143
11319TIP3    H233901   4.333   4.860   0.685  0.7542  0.0102  1.0708
11320TIP3   OH233902   2.024   7.645   5.162  0.5358  0.2050  0.0001
11320TIP3    H133903   2.003   7.738   5.161 -0.9312 -0.0948  0.3270
11320TIP3    H233904   2.040   7.623   5.070 -0.4762  0.5176 -0.2639
11321TIP3   OH233905   3.272   2.835   5.205  0.0508 -0.0175  0.7348
11321TIP3    H133906   3.197   2.859   5.258  0.5713  0.4273  1.2780
11321TIP3    H233907   3.275   2.902   5.137 -0.5034 -0.4826  0.2320
11322TIP3   OH233908   2.710   2.182   2.558  0.0732  0.2030  0.1787
11322TIP3    H133909   2.690   2.244   2.629  0.4193  1.1442 -0.5323
11322TIP3    H233910   2.629   2.133   2.546 -0.3714  0.8593  0.4147
11323TIP3   OH233911   8.234   4.800   4.669 -0.1886  0.2377  0.2599
11323TIP3    H133912   8.270   4.884   4.699 -0.8767  0.7619 -0.3448
11323TIP3    H233913   8.307   4.739   4.675 -0.3778  0.1247  3.5634
11324TIP3   OH233914   2.864   3.731   0.705 -0.0236 -0.1045 -0.8919
11324TIP3    H133915   2.872   3.817   0.748  0.9905 -0.5818 -0.0651
11324TIP3    H233916   2.932   3.732   0.638  0.8958 -0.7331  0.0001
11325TIP3   OH233917   4.893   6.797   1.859  0.7050 -0.2448 -0.3358
11325TIP3    H133918   4.873   6.779   1.767  2.0131  1.2711 -0.9751
11325TIP3    H233919   4.952   6.726   1.885  0.0598 -0.8665 -0.5633
11326TIP3   OH233920   3.430   2.018   4.197 -0.1101 -0.0127  0.4224
11326TIP3    H133921   3.402   1.982   4.282  0.9711  0.3874  0.9729
11326TIP3    H233922   3.385   2.103   4.192 -0.1650 -0.0289  0.6033
11327TIP3   OH233923   7.719   5.949   2.846 -0.9400  0.0625  0.6035
11327TIP3    H133924   7.727   5.978   2.755 -0.7814  1.0623  0.9231
11327TIP3    H233925   7.809   5.936   2.875 -1.0362 -1.8800  0.1331
11328TIP3   OH233926   1.532   5.709   3.171 -0.0922 -0.4236  0.1246
11328TIP3    H133927   1.517   5.660   3.252 -0.9676  0.6403  0.6420
11328TIP3    H233928   1.445   5.735   3.142  0.3700  2.0324  0.6879
11329TIP3   OH233929   8.077   0.553   3.859  0.1346 -0.1578 -0.1482
11329TIP3    H133930   8.030   0.624   3.815  1.8777  1.9035  1.1384
11329TIP3    H233931   8.154   0.539   3.805  0.0199 -0.7888 -0.1511
11330TIP3   OH233932   7.187   0.128   1.045 -0.4332  0.4570 -0.2651
11330TIP3    H133933   7.224   0.216   1.041  2.8616 -0.7460  0.4710
11330TIP3    H233934   7.174   0.104   0.953 -1.2875  1.6495 -0.4739
11331TIP3   OH233935   8.222   0.446   3.245 -0.1032 -0.5875 -0.3995
11331TIP3    H133936   8.147   0.395   3.212  1.0280 -1.3976 -1.8376
11331TIP3    H233937   8.249   0.499   3.170  0.7296 -0.2339  0.1411
11332TIP3   OH233938   2.930   5.437   2.551  0.4870  0.1139 -0.1712
11332TIP3    H133939   2.948   5.467   2.462  0.7919  1.4360  0.3099
11332TIP3    H233940   2.915   5.517   2.601  0.8841 -0.5621  1.0912
11333TIP3   OH233941   7.896   1.845   2.096 -0.1831 -0.0589 -0.0363
11333TIP3    H133942   7.944   1.818   2.174  1.0261  0.0953 -0.7016
11333TIP3    H233943   7.845   1.921   2.124 -0.5010 -0.5815  0.8323
11334TIP3   OH233944   2.650   1.964   6.260 -0.7588  0.3112 -0.2096
11334TIP3    H133945   2.579   1.902   6.272 -0.0431 -0.4337  0.3327
11334TIP3    H233946   2.612   2.049   6.281 -1.1183 -0.2404  1.5513
11335TIP3   OH233947   7.938   3.706   4.191  0.3371  0.1188 -0.0768
11335TIP3    H133948   7.968   3.699   4.282  0.8184  0.4306 -0.2091
11335TIP3    H233949   7.846   3.733   4.199  0.2604 -0.2272  0.3188
11336TIP3   OH233950   0.537   0.452   0.921  0.2074 -0.1000 -0.3960
11336TIP3    H133951   0.515   0.537   0.958  1.3328  0.4690 -0.9739
11336TIP3    H233952   0.567   0.472   0.832  1.2994 -0.9922 -0.2497
11337TIP3   OH233953   5.978   3.268   0.368  0.5103 -0.0185  0.1649
11337TIP3    H133954   6.032   3.346   0.354 -0.6259  0.8035  0.1703
11337TIP3    H233955   5.955   3.239   0.280 -0.2511  0.5335  0.1675
11338TIP3   OH233956   2.288   0.432   0.286  0.1061 -0.3301  0.2114
11338TIP3    H133957   2.349   0.362   0.310 -0.1546  0.2293  2.9423
11338TIP3    H233958   2.341   0.494   0.236  2.1539  0.5180  3.1471
11339TIP3   OH233959   0.038   2.932   1.028  0.2043  0.3231  0.1569
11339TIP3    H133960   0.059   2.866   0.962  0.0517  1.4533 -1.0398
11339TIP3    H233961   0.098   3.004   1.011 -0.7570  1.2018  0.3742
11340TIP3   OH233962   7.629   2.771   0.422 -0.2474 -0.9327  0.3010
11340TIP3    H133963   7.697   2.821   0.378 -0.4674 -0.2887  0.6724
11340TIP3    H233964   7.569   2.744   0.352  0.7099 -2.0608 -0.1158
11341TIP3   OH233965   7.416   4.241   3.856 -0.4435  0.4127  0.1587
11341TIP3    H133966   7.374   4.174   3.802  0.3377 -0.4501  0.5967
11341TIP3    H233967   7.488   4.274   3.803 -1.0324  1.1780 -0.1938
11342TIP3   OH233968   7.210   2.840   4.342 -0.2372  0.0834 -0.4909
11342TIP3    H133969   7.296   2.881   4.337  0.1432 -0.6364  0.0431
11342TIP3    H233970   7.150   2.913   4.359  0.4080  0.4455  0.2733
11343TIP3   OH233971   7.569   1.880   2.269  0.5763  0.4051 -0.0165
11343TIP3    H133972   7.580   1.806   2.210  0.1280  0.2278  0.1140
11343TIP3    H233973   7.642   1.938   2.250 -0.0436  0.7666 -1.3656
11344TIP3   OH233974   5.292   6.035   6.302  0.2089 -0.0092 -0.3726
11344TIP3    H133975   5.316   6.128   6.309 -4.8260  1.4314  3.6467
11344TIP3    H233976   5.353   5.990   6.360  1.2952  1.0958 -0.6071
11345TIP3   OH233977   2.443   0.861   1.139  0.2655 -0.2609  0.1232
11345TIP3    H133978   2.395   0.898   1.065  0.9733  0.1784 -0.1281
11345TIP3    H233979   2.531   0.899   1.132  1.4281 -2.8745 -0.8408
11346TIP3   OH233980   7.039   4.631   0.338 -0.1636 -0.3350 -0.1697
11346TIP3    H133981   6.956   4.679   0.336  0.3089  0.4927 -0.2252
11346TIP3    H233982   7.072   4.643   0.427  0.6228  0.6219 -0.5679
11347TIP3   OH233983   3.169   0.859   1.026  0.7577  0.6369  0.5612
11347TIP3    H133984   3.123   0.941   1.042  0.0386  0.5540 -0.9185
11347TIP3    H233985   3.195   0.829   1.113 -0.5575  1.5269  1.3047
11348TIP3   OH233986   6.723   7.308   2.408  0.5143 -0.1108 -0.1128
11348TIP3    H133987   6.796   7.300   2.346 -0.7475  0.4402 -1.7203
11348TIP3    H233988   6.697   7.400   2.402 -0.0695 -0.2129  0.7518
11349TIP3   OH233989   2.979   0.969   1.872  0.3278 -0.5334 -0.3307
11349TIP3    H133990   3.029   1.048   1.889 -0.1537 -0.1045 -0.8818
11349TIP3    H233991   2.978   0.923   1.956  3.1114 -1.4338 -0.6886
11350TIP3   OH233992   1.086   4.874   6.220 -0.3723  0.4385  0.3464
11350TIP3    H133993   1.120   4.793   6.183  0.6011  0.4227  1.2122
11350TIP3    H233994   1.060   4.927   6.144 -1.0894 -0.6965 -0.2165
11351TIP3   OH233995   6.572   7.112   5.385  0.5742  0.4789 -0.0674
11351TIP3    H133996   6.501   7.163   5.345 -1.0016 -0.8162  0.9678
11351TIP3    H233997   6.601   7.054   5.314 -0.8126 -0.3898  0.0388
11352TIP3   OH233998   4.897   5.169   5.895  0.4044 -0.1366 -1.1138
11352TIP3    H133999   4.893   5.196   5.986  0.2329 -2.7645 -0.2803
11352TIP3    H234000   4.805   5.152   5.871  0.3574  1.2440 -2.0530
11353TIP3   OH234001   3.040   2.995   6.569  0.8475  0.2075  0.1819
11353TIP3    H134002   3.009   3.008   6.659 -0.5059  0.4075 -0.2797
11353TIP3    H234003   3.101   3.067   6.554  1.0322  0.2143  0.9107
11354TIP3   OH234004   0.639   6.587   3.128 -0.4355 -0.3999  0.0100
11354TIP3    H134005   0.554   6.561   3.094 -0.3028 -1.1931  0.2691
11354TIP3    H234006   0.663   6.664   3.076 -0.5696 -1.1427 -1.1956
11355TIP3   OH234007   3.246   5.557   2.865 -0.1608 -0.4314 -0.3857
11355TIP3    H134008   3.198   5.501   2.804  1.2053 -2.1615  0.0343
11355TIP3    H234009   3.301   5.496   2.915  0.6718  1.2058  0.7926
11356TIP3   OH234010   2.888   3.870   6.778  0.2541 -0.5927 -0.0753
11356TIP3    H134011   2.896   3.778   6.803  0.8715 -1.0078 -1.6915
11356TIP3    H234012   2.872   3.869   6.684  0.2301  0.9592 -0.1255
11357TIP3   OH234013   0.211   1.523   4.037 -0.7678 -0.2718 -0.1599
11357TIP3    H134014   0.197   1.493   3.947  0.0387 -0.1585 -0.3275
11357TIP3    H234015   0.242   1.446   4.084 -2.0794 -0.5698  0.2582
11358TIP3   OH234016   2.024   2.217   6.465 -0.7143 -0.0851  0.0649
11358TIP3    H134017   2.078   2.241   6.389 -0.6676 -0.4882 -0.0343
11358TIP3    H234018   2.015   2.298   6.514 -1.5238  0.4001 -0.8512
11359TIP3   OH234019   4.466   5.596   0.298  0.0693 -0.4264  0.2185
11359TIP3    H134020   4.551   5.572   0.260 -0.8449 -1.9006 -1.0484
11359TIP3    H234021   4.486   5.662   0.364  2.2308 -1.0552  0.2433
11360TIP3   OH234022   1.385   6.327   1.652 -0.0370  0.4868 -0.3677
11360TIP3    H134023   1.313   6.345   1.714  0.0464 -0.5195  0.0454
11360TIP3    H234024   1.403   6.234   1.663  1.9144  0.8820  0.1413
11361TIP3   OH234025   0.842   4.657   0.279  0.7351  0.2623  0.0038
11361TIP3    H134026   0.758   4.654   0.234  1.2300 -0.4635 -0.9183
11361TIP3    H234027   0.828   4.609   0.360  0.1183  0.6142  0.1067
11362TIP3   OH234028   0.861   1.658   4.187  0.4329  0.1733 -0.1459
11362TIP3    H134029   0.884   1.607   4.110 -0.7056 -0.6419  0.0302
11362TIP3    H234030   0.796   1.721   4.156 -0.3278 -0.4183  0.1967
11363TIP3   OH234031   2.878   1.990   1.007 -0.6197 -0.0074 -0.5530
11363TIP3    H134032   2.793   1.971   0.966 -1.1433 -4.1629  1.9276
11363TIP3    H234033   2.942   1.947   0.950 -0.7172 -0.6414 -0.2009
11364TIP3   OH234034   6.549   0.926   2.880 -0.2589 -0.1204 -0.2728
11364TIP3    H134035   6.584   0.884   2.802 -0.3757 -0.2319 -0.2667
11364TIP3    H234036   6.541   0.855   2.944 -1.8478 -0.3978 -0.7316
11365TIP3   OH234037   4.485   0.577   0.155 -0.9118 -0.0458 -0.1980
11365TIP3    H134038   4.430   0.655   0.160 -0.2826  0.3513  0.8369
11365TIP3    H234039   4.449   0.526   0.082 -1.5752  1.0181 -0.6284
11366TIP3   OH234040   2.758   5.231   2.328 -0.0707  0.4001 -0.1747
11366TIP3    H134041   2.689   5.170   2.302  0.1689  0.0528 -0.0066
11366TIP3    H234042   2.723   5.318   2.307  0.2526  0.1286 -2.0083
11367TIP3   OH234043   1.896   0.360   4.864  0.2929 -1.0405 -0.4687
11367TIP3    H134044   1.809   0.347   4.826  0.2528  1.2367 -1.3313
11367TIP3    H234045   1.882   0.422   4.936  1.0319 -1.6803  0.2443
11368TIP3   OH234046   6.027   4.989   0.548 -0.5447  0.2291  0.8797
11368TIP3    H134047   6.033   4.997   0.643  0.2397 -1.9810  1.0652
11368TIP3    H234048   5.934   4.975   0.531 -0.7475  1.0393  1.2536
11369TIP3   OH234049   1.575   6.172   3.512 -0.8373 -0.1810 -0.6094
11369TIP3    H134050   1.653   6.119   3.527 -0.9791 -0.2008  0.0653
11369TIP3    H234051   1.559   6.165   3.417 -0.5138 -0.8582 -0.6166
11370TIP3   OH234052   6.362   4.883   5.590 -0.3297 -0.0894  0.6801
11370TIP3    H134053   6.454   4.908   5.594 -0.1703 -0.4275 -0.3850
11370TIP3    H234054   6.323   4.947   5.530 -0.5121 -0.6906  0.1457
11371TIP3   OH234055   7.884   4.096   5.891  0.3869  0.2781 -0.2337
11371TIP3    H134056   7.899   4.190   5.905 -0.5169  0.2020  1.4415
11371TIP3    H234057   7.788   4.087   5.891  0.4639 -0.6359 -0.5067
11372TIP3   OH234058   6.687   7.261   4.363 -0.1811  0.4698  0.5472
11372TIP3    H134059   6.733   7.240   4.282 -1.6793  0.6224 -0.3828
11372TIP3    H234060   6.612   7.313   4.335 -1.6190 -0.8022  1.8453
11373TIP3   OH234061   0.429   5.980   5.555  0.0058  0.1737 -0.0814
11373TIP3    H134062   0.395   6.026   5.632  0.1930  2.5304 -1.2896
11373TIP3    H234063   0.436   6.048   5.488  1.5422 -1.4105 -1.6583
11374TIP3   OH234064   5.951   5.464   4.369 -0.2713  0.2323  0.2258
11374TIP3    H134065   6.006   5.473   4.447  1.0487  0.4292 -0.6904
11374TIP3    H234066   6.011   5.431   4.302 -1.5786 -0.7288 -0.4882
11375TIP3   OH234067   2.843   0.319   4.662  0.2407  0.2162 -0.3154
11375TIP3    H134068   2.862   0.227   4.646  1.8457  0.9783 -3.4272
11375TIP3    H234069   2.747   0.323   4.666  0.0464 -1.3129 -2.2834
11376TIP3   OH234070   2.259   6.450   0.773  0.3695  0.4487  0.6850
11376TIP3    H134071   2.335   6.417   0.725 -0.0157 -0.3448  0.6137
11376TIP3    H234072   2.228   6.375   0.823  0.9786  1.3477  2.4814
11377TIP3   OH234073   1.610   1.011   5.827  0.2018 -0.3535  0.1623
11377TIP3    H134074   1.565   1.086   5.866 -0.2011 -0.6707  0.3118
11377TIP3    H234075   1.566   0.997   5.743  1.7972  1.0462 -0.9986
11378TIP3   OH234076   4.764   2.986   0.160 -0.0073  0.2572  0.5984
11378TIP3    H134077   4.764   3.013   0.068 -1.8445  3.4456  1.3626
11378TIP3    H234078   4.836   3.037   0.199 -0.0151 -0.1429  1.1381
11379TIP3   OH234079   0.646   3.989   1.688  0.7419  0.1979 -0.7065
11379TIP3    H134080   0.631   3.948   1.773  0.0486  0.3748 -0.7384
11379TIP3    H234081   0.687   4.073   1.708  0.1043  0.4666 -0.5148
11380TIP3   OH234082   0.696   0.291   3.960  0.2494  0.0367  0.5149
11380TIP3    H134083   0.718   0.317   3.870  0.1737 -0.2552  0.4100
11380TIP3    H234084   0.749   0.348   4.015  0.2473  0.2634  0.2845
11381TIP3   OH234085   4.969   6.761   2.347 -0.4062 -0.0659  0.6915
11381TIP3    H134086   4.922   6.741   2.428 -0.7641  1.4455  0.8956
11381TIP3    H234087   5.001   6.677   2.315 -0.2323 -0.6764  2.4205
11382TIP3   OH234088   1.990   1.589   0.048  0.3995  0.1053 -0.4209
11382TIP3    H134089   2.054   1.521   0.069  0.4222  0.7254  1.7353
11382TIP3    H234090   1.917   1.541   0.008  0.8803 -1.0315  0.0211
11383TIP3   OH234091   4.195   1.366   2.437  0.6115 -0.7140 -0.5151
11383TIP3    H134092   4.211   1.323   2.353  0.1758  0.5376 -1.2699
11383TIP3    H234093   4.103   1.391   2.434  1.1878  1.6548 -0.8181
11384TIP3   OH234094   4.271   6.162   0.548  0.2639 -0.5416  0.1287
11384TIP3    H134095   4.299   6.246   0.511  0.0358 -1.7492 -3.0862
11384TIP3    H234096   4.352   6.121   0.579  0.5124  0.4011  0.7721
11385TIP3   OH234097   1.686   5.952   5.877 -0.0865 -0.2048 -0.2273
11385TIP3    H134098   1.683   6.029   5.821  0.0756 -0.5288 -0.6936
11385TIP3    H234099   1.715   5.985   5.962  0.0613  0.2338 -0.4440
11386TIP3   OH234100   5.607   7.248   4.309  0.3641  0.0437 -1.0642
11386TIP3    H134101   5.692   7.260   4.267  1.2077  0.0482  0.5600
11386TIP3    H234102   5.621   7.275   4.399 -0.8713 -1.6839 -0.2878
11387TIP3   OH234103   5.477   1.369   4.321  0.9433  0.6020  0.1983
11387TIP3    H134104   5.466   1.342   4.230  1.2783  1.7203 -0.1782
11387TIP3    H234105   5.402   1.425   4.339 -1.2737 -2.5340  1.8104
11388TIP3   OH234106   2.243   7.722   2.756  0.2797  0.0783  0.3335
11388TIP3    H134107   2.217   7.691   2.669  3.4598 -0.8936 -0.3903
11388TIP3    H234108   2.168   7.701   2.812 -0.2919 -3.0800 -1.3929
11389TIP3   OH234109   4.102   1.739   0.648 -0.3058 -0.2637 -0.3606
11389TIP3    H134110   4.128   1.669   0.707 -1.5002  0.4093  1.0294
11389TIP3    H234111   4.008   1.726   0.634 -0.6003  1.1112  0.0776
11390TIP3   OH234112   2.354   4.033   2.801 -0.1010  0.2769  0.2630
11390TIP3    H134113   2.403   4.102   2.846 -0.9338  0.9682  0.1176
11390TIP3    H234114   2.403   3.953   2.821  1.0539  0.9345  0.1855
11391TIP3   OH234115   7.307   6.552   5.725 -0.6236 -0.2051  0.2061
11391TIP3    H134116   7.402   6.554   5.715 -0.7402  0.0665 -0.9549
11391TIP3    H234117   7.285   6.459   5.726 -0.2291 -0.3014  1.8393
11392TIP3   OH234118   1.928   4.592   5.471 -0.6131 -0.0942 -0.4271
11392TIP3    H134119   1.973   4.572   5.553  1.4496  0.7660 -1.2834
11392TIP3    H234120   1.861   4.656   5.495 -0.4695 -0.3270  0.6623
11393TIP3   OH234121   4.502   2.616   6.368 -0.1400  0.8389  0.5703
11393TIP3    H134122   4.490   2.566   6.450  0.8712  0.6240  0.5955
11393TIP3    H234123   4.429   2.678   6.368  0.0889  1.1440  1.8586
11394TIP3   OH234124   4.868   4.562   4.971 -0.5204  0.4017  0.1992
11394TIP3    H134125   4.909   4.565   4.885 -1.4726 -0.4898 -0.3069
11394TIP3    H234126   4.924   4.504   5.023 -0.1969  0.5786  0.0499
11395TIP3   OH234127   6.158   2.103   1.495 -0.1916 -0.4220  0.2304
11395TIP3    H134128   6.223   2.074   1.431 -1.5211 -0.2951 -1.2366
11395TIP3    H234129   6.078   2.057   1.471 -0.5661 -0.9848  2.3293
11396TIP3   OH234130   1.602   3.252   4.759 -0.3129  0.1747  0.7112
11396TIP3    H134131   1.672   3.199   4.797  0.5045  1.1672  0.6238
11396TIP3    H234132   1.540   3.188   4.724  1.0451 -0.7301 -0.1158
11397TIP3   OH234133   6.838   6.446   0.919  0.2819  0.1107  0.0424
11397TIP3    H134134   6.906   6.491   0.870  0.2061 -0.1329 -0.2848
11397TIP3    H234135   6.880   6.367   0.952  0.7633  0.9604  1.6152
11398TIP3   OH234136   3.326   5.704   0.462 -0.3774 -0.1555  0.1019
11398TIP3    H134137   3.384   5.665   0.396  1.3432  0.8080  0.9701
11398TIP3    H234138   3.238   5.692   0.427  0.3960 -0.8613 -1.7207
11399TIP3   OH234139   6.125   1.513   4.307 -0.1051  0.2018 -0.5946
11399TIP3    H134140   6.123   1.447   4.238  2.6503  0.5802 -1.1581
11399TIP3    H234141   6.061   1.483   4.371 -1.1038 -1.3782 -2.2299
11400TIP3   OH234142   7.342   4.568   5.456 -0.7344  0.2661  0.1598
11400TIP3    H134143   7.404   4.506   5.418 -1.2661 -1.0290  1.3311
11400TIP3    H234144   7.348   4.645   5.400 -0.2469 -0.9322 -1.5098
11401TIP3   OH234145   1.704   3.530   0.581  0.5071  0.1489  0.2986
11401TIP3    H134146   1.619   3.486   0.578  1.0284 -0.9563  1.1062
11401TIP3    H234147   1.684   3.618   0.614 -0.2198 -0.3640  1.2670
11402TIP3   OH234148   7.681   7.526   4.177  0.0717 -0.0025  0.6037
11402TIP3    H134149   7.689   7.616   4.208 -1.2451  0.4530 -0.3316
11402TIP3    H234150   7.591   7.518   4.147  1.1894 -0.3122 -3.3012
11403TIP3   OH234151   0.384   0.840   5.234  0.2489  0.3151  0.1694
11403TIP3    H134152   0.429   0.905   5.287  0.5974  0.9292 -0.8578
11403TIP3    H234153   0.408   0.861   5.144 -1.1811 -0.0242 -0.3294
11404TIP3   OH234154   6.384   3.113   0.364  0.2420 -0.5019  0.4517
11404TIP3    H134155   6.443   3.155   0.302  0.2106  1.7694  1.8343
11404TIP3    H234156   6.355   3.034   0.320  0.9121  0.5416 -2.0343
11405TIP3   OH234157   6.466   6.241   4.709  0.3564 -0.4419  0.0171
11405TIP3    H134158   6.472   6.312   4.646 -1.2495 -0.5693 -0.3181
11405TIP3    H234159   6.462   6.284   4.794 -1.3740 -0.0469 -0.2256
11406TIP3   OH234160   4.082   0.756   2.159  0.2621  0.0085  0.1773
11406TIP3    H134161   4.067   0.667   2.127  0.3745 -0.1982  0.6845
11406TIP3    H234162   4.177   0.768   2.153  0.4282 -0.4803  1.5622
11407TIP3   OH234163   8.237   3.877   2.868 -0.3337  0.5903  0.6092
11407TIP3    H134164   8.230   3.885   2.963 -0.5656 -1.0497  0.7556
11407TIP3    H234165   8.323   3.838   2.854 -1.1958 -1.3111  0.3255
11408TIP3   OH234166   3.828   1.661   0.648  0.2448 -0.0803 -0.2083
11408TIP3    H134167   3.789   1.620   0.571 -1.0712 -0.3308  0.5646
11408TIP3    H234168   3.754   1.681   0.705  1.1418  0.6306  0.7462
11409TIP3   OH234169   0.956   4.896   1.694  0.0420 -0.2549 -0.4481
11409TIP3    H134170   0.927   4.863   1.609 -0.7343  0.4085 -0.4531
11409TIP3    H234171   0.970   4.989   1.680  0.0522 -0.1678  0.1160
11410TIP3   OH234172   5.257   0.504   2.829 -0.5235 -0.3279  0.2504
11410TIP3    H134173   5.308   0.508   2.910 -1.3136 -0.7203  0.7909
11410TIP3    H234174   5.205   0.584   2.829 -1.2068 -0.7574  0.6185
11411TIP3   OH234175   7.490   2.131   3.148 -0.5551 -0.1055  0.2709
11411TIP3    H134176   7.481   2.094   3.236 -1.4137  0.3830  0.4080
11411TIP3    H234177   7.401   2.158   3.125 -0.2362  0.3090 -0.5106
11412TIP3   OH234178   8.061   7.062   4.631 -0.1276 -0.0646 -0.1088
11412TIP3    H134179   7.990   6.998   4.637 -1.0353  0.9821  0.8442
11412TIP3    H234180   8.093   7.054   4.542 -1.7828 -0.2395 -0.7221
11413TIP3   OH234181   6.847   2.762   1.696  0.6774 -0.3199 -0.5199
11413TIP3    H134182   6.809   2.675   1.707  0.4969 -0.1325  0.4559
11413TIP3    H234183   6.875   2.765   1.605 -0.2329 -1.0287 -0.8334
11414TIP3   OH234184   0.604   6.180   2.516 -0.4152  0.3059  0.2531
11414TIP3    H134185   0.656   6.128   2.455 -0.2809  1.3651 -0.5584
11414TIP3    H234186   0.659   6.188   2.593 -0.1217 -0.0882  0.0916
11415TIP3   OH234187   1.125   1.399   4.191 -0.2511  0.3838 -0.2391
11415TIP3    H134188   1.158   1.365   4.108 -1.4969 -0.8199 -0.2615
11415TIP3    H234189   1.202   1.401   4.248  0.1713 -0.9913 -0.7191
11416TIP3   OH234190   1.107   6.180   2.160  0.2092  0.2261 -0.5247
11416TIP3    H134191   1.165   6.152   2.231 -2.4973 -1.8070  1.0669
11416TIP3    H234192   1.076   6.266   2.186  0.4931  0.1967 -0.0857
11417TIP3   OH234193   6.337   7.224   5.005  0.4060  0.1188 -0.3358
11417TIP3    H134194   6.299   7.138   5.025  1.2308 -0.0142  0.7694
11417TIP3    H234195   6.263   7.284   5.009 -0.0052 -0.3963 -0.0524
11418TIP3   OH234196   3.036   7.380   1.508  0.2264 -0.3752  0.2298
11418TIP3    H134197   3.014   7.452   1.449 -0.6797 -1.8243 -1.3199
11418TIP3    H234198   3.052   7.421   1.593 -1.2683  1.5395 -0.3455
11419TIP3   OH234199   3.205   4.828   6.453  0.5884 -0.1352  0.0255
11419TIP3    H134200   3.126   4.777   6.440  0.6614 -0.2853  0.1612
11419TIP3    H234201   3.181   4.918   6.428  0.4252 -0.2119 -0.0923
11420TIP3   OH234202   4.556   1.755   4.830  0.5040 -0.5732 -0.5361
11420TIP3    H134203   4.461   1.753   4.820  0.5211 -1.2825 -0.6253
11420TIP3    H234204   4.571   1.725   4.920  0.6404 -0.3513 -0.4848
11421TIP3   OH234205   4.098   4.283   4.443  0.1793 -0.2454  0.2859
11421TIP3    H134206   4.078   4.266   4.536 -0.7639  0.7095  0.2889
11421TIP3    H234207   4.163   4.353   4.446  0.3749 -0.4273  0.2356
11422TIP3   OH234208   5.558   6.785   5.468 -0.0840 -0.3743  0.1229
11422TIP3    H134209   5.570   6.838   5.390 -1.2802  0.2443  0.3362
11422TIP3    H234210   5.519   6.703   5.436 -0.7035 -0.0668  0.0787
11423TIP3   OH234211   2.134   1.294   1.995 -0.0273 -0.2562 -0.5244
11423TIP3    H134212   2.204   1.285   1.930 -0.2194 -3.0046 -0.4862
11423TIP3    H234213   2.162   1.239   2.069 -0.7534  1.1786  0.8955
11424TIP3   OH234214   1.751   2.111   0.893 -0.6218 -0.0856 -0.3290
11424TIP3    H134215   1.824   2.170   0.875  0.0732 -1.1512 -1.2141
11424TIP3    H234216   1.716   2.140   0.977 -1.4340  2.6394 -1.5385
11425TIP3   OH234217   4.702   4.868   5.671  0.0168  0.1083  0.0135
11425TIP3    H134218   4.616   4.836   5.698 -0.1182  0.7770  0.3652
11425TIP3    H234219   4.756   4.864   5.750 -0.0962  1.0829  0.1424
11426TIP3   OH234220   5.744   6.205   6.309  0.2468  0.2142  0.2974
11426TIP3    H134221   5.659   6.226   6.271 -0.6238 -1.2843  1.3028
11426TIP3    H234222   5.800   6.278   6.283 -1.6452  1.8869  0.6316
11427TIP3   OH234223   1.908   6.657   1.977  0.0566  0.1394  0.0613
11427TIP3    H134224   1.978   6.606   2.017 -1.4571 -2.7649 -0.6977
11427TIP3    H234225   1.952   6.716   1.917  1.8636 -1.8773 -0.7032
11428TIP3   OH234226   4.730   4.805   0.919 -0.2169  0.1319  0.4307
11428TIP3    H134227   4.658   4.865   0.939  0.7912  1.1271  1.1556
11428TIP3    H234228   4.695   4.718   0.941 -1.2992  0.5541  0.4584
11429TIP3   OH234229   7.274   0.382   1.049  0.6242 -0.3057  0.7154
11429TIP3    H134230   7.369   0.387   1.043  0.7672 -2.0950  1.1693
11429TIP3    H234231   7.251   0.437   1.124  1.1715  1.0511 -0.0848
11430TIP3   OH234232   0.368   2.352   2.335 -0.1028 -0.6635  0.6135
11430TIP3    H134233   0.318   2.374   2.414  0.0581  0.0826  0.5125
11430TIP3    H234234   0.311   2.375   2.263  0.1083 -0.4895  0.5028
11431TIP3   OH234235   0.894   3.739   4.859 -0.0222 -0.1761  0.3104
11431TIP3    H134236   0.928   3.828   4.868 -0.5966  0.0208  0.6144
11431TIP3    H234237   0.972   3.683   4.857  0.3183  0.2391  1.2425
11432TIP3   OH234238   4.454   4.869   3.838  0.3765 -0.2204 -0.6530
11432TIP3    H134239   4.498   4.788   3.866 -0.1319 -0.4832 -0.5912
11432TIP3    H234240   4.524   4.933   3.830  0.8775 -0.8349 -1.3277
11433TIP3   OH234241   4.446   4.475   6.354  0.5841  0.2603  0.0558
11433TIP3    H134242   4.394   4.423   6.414 -0.9058  0.7082 -0.7867
11433TIP3    H234243   4.504   4.526   6.410  0.3644 -0.5160  1.0106
11434TIP3   OH234244   7.640   7.283   0.351  0.2744  0.6124 -0.0801
11434TIP3    H134245   7.632   7.309   0.442 -2.7455 -3.3930  1.0975
11434TIP3    H234246   7.706   7.213   0.352 -1.7126 -1.3709 -0.2835
11435TIP3   OH234247   2.497   1.461   4.493 -0.3631 -0.2636 -0.2214
11435TIP3    H134248   2.441   1.495   4.563  1.7151  1.3330  0.8082
11435TIP3    H234249   2.569   1.417   4.539  0.4173 -0.2718 -1.3899
11436TIP3   OH234250   6.070   2.775   3.832 -0.1157  0.6440  0.1271
11436TIP3    H134251   6.140   2.839   3.836  0.9468 -0.3871 -1.0314
11436TIP3    H234252   6.110   2.693   3.861 -0.7718 -0.0047 -0.7155
11437TIP3   OH234253   0.001   1.307   2.203  0.0412 -0.7162 -0.1119
11437TIP3    H134254   0.033   1.339   2.119 -1.9933  0.7726 -0.4032
11437TIP3    H234255   0.075   1.317   2.262  0.7773  0.5962 -1.1970
11438TIP3   OH234256   6.437   6.568   2.344 -0.0305  0.2468 -0.2464
11438TIP3    H134257   6.475   6.653   2.321 -1.3841  1.5371  1.8045
11438TIP3    H234258   6.511   6.509   2.354  0.9953  1.3395 -1.2018
11439TIP3   OH234259   4.360   1.837   2.039 -0.2498  0.0272  0.0164
11439TIP3    H134260   4.432   1.886   2.078 -0.0277 -0.4781  0.2497
11439TIP3    H234261   4.399   1.790   1.965 -0.0020 -1.3821  0.9978
11440TIP3   OH234262   7.086   6.751   1.922 -0.1476  0.5789 -0.0873
11440TIP3    H134263   7.101   6.663   1.889 -0.5501  0.2332  0.6196
11440TIP3    H234264   7.173   6.783   1.947 -0.0537  0.2260  0.0370
11441TIP3   OH234265   0.505   5.844   1.398 -0.3969 -0.3113 -0.0403
11441TIP3    H134266   0.441   5.794   1.449 -2.0902  1.8689  0.1232
11441TIP3    H234267   0.453   5.888   1.331  1.3447 -0.4942 -1.5933
11442TIP3   OH234268   1.654   5.744   6.162  0.4291  0.3288 -0.1014
11442TIP3    H134269   1.659   5.836   6.136 -1.2223  0.4800  0.0045
11442TIP3    H234270   1.731   5.731   6.218  0.4302  1.7777  0.2761
11443TIP3   OH234271   4.354   1.265   4.072 -0.3358 -0.1000  0.6179
11443TIP3    H134272   4.390   1.271   4.161  1.3411  1.3694 -0.0891
11443TIP3    H234273   4.431   1.267   4.015 -1.1697 -3.5446 -0.8803
11444TIP3   OH234274   2.206   2.331   4.569  0.1458 -0.0666  0.5744
11444TIP3    H134275   2.294   2.292   4.577  0.4140  0.7696  2.1987
11444TIP3    H234276   2.149   2.271   4.618  0.5036  1.2816  2.7878
11445TIP3   OH234277   4.801   0.169   3.656  0.2017 -0.2036  0.2277
11445TIP3    H134278   4.831   0.078   3.661 -0.2332 -0.3784 -0.2396
11445TIP3    H234279   4.733   0.168   3.589 -0.1157  0.3860  0.5320
11446TIP3   OH234280   3.401   1.306   3.679 -0.1206 -0.3239  0.1937
11446TIP3    H134281   3.360   1.312   3.593  1.4541 -0.5634 -0.6066
11446TIP3    H234282   3.492   1.330   3.664  0.0466  0.2868  1.9324
11447TIP3   OH234283   7.902   6.327   1.781 -0.3547 -0.1868 -0.1263
11447TIP3    H134284   7.888   6.288   1.868  0.5445  1.0820  0.6118
11447TIP3    H234285   7.896   6.252   1.721 -2.1533 -0.9230  0.8790
11448TIP3   OH234286   0.098   3.655   2.600  0.0534  0.0358  0.0489
11448TIP3    H134287   0.020   3.708   2.583  0.9067  1.1378 -0.5726
11448TIP3    H234288   0.166   3.719   2.619  0.9860 -0.8752 -0.1646
11449TIP3   OH234289   7.041   7.273   4.242 -0.3356  0.0498  0.2530
11449TIP3    H134290   7.125   7.288   4.284  0.2075  1.3043 -1.1886
11449TIP3    H234291   7.037   7.179   4.227  1.1071  0.0462 -0.2188
11450TIP3   OH234292   4.389   5.046   3.342 -0.6483 -0.3217  0.3103
11450TIP3    H134293   4.432   5.093   3.270 -0.0908  0.3598  1.0765
11450TIP3    H234294   4.454   4.981   3.369 -1.4359 -1.6051 -0.7799
11451TIP3   OH234295   2.814   5.963   5.174  0.3842  0.3018  0.6546
11451TIP3    H134296   2.748   5.917   5.226 -0.5852  1.3908  0.4163
11451TIP3    H234297   2.892   5.963   5.229 -0.2984  0.4562  1.6448
11452TIP3   OH234298   2.412   3.538   1.253  0.0515  0.2287 -0.1920
11452TIP3    H134299   2.318   3.547   1.237  0.1461 -0.5813 -1.3053
11452TIP3    H234300   2.420   3.540   1.349 -1.0678  0.5524 -0.0926
11453TIP3   OH234301   5.571   7.782   2.140 -0.0457  0.0537  0.1150
11453TIP3    H134302   5.506   7.823   2.198 -1.0156  1.5585 -1.9274
11453TIP3    H234303   5.526   7.771   2.057  1.0883 -2.7340 -0.2363
11454TIP3   OH234304   1.144   5.581   6.421 -0.2684 -0.2624 -0.1889
11454TIP3    H134305   1.226   5.533   6.408  0.6944  0.6080  2.1111
11454TIP3    H234306   1.171   5.672   6.427 -1.4357  0.0662  0.3445
11455TIP3   OH234307   7.532   2.388   5.450 -0.7080  0.2793 -0.0233
11455TIP3    H134308   7.471   2.318   5.471  0.3073 -0.1158  1.7892
11455TIP3    H234309   7.597   2.346   5.392 -1.0991  0.2130 -0.4202
11456TIP3   OH234310   3.780   3.848   4.276  0.1948  0.7018  0.0657
11456TIP3    H134311   3.847   3.781   4.262 -1.3983 -0.4667 -3.0263
11456TIP3    H234312   3.711   3.803   4.325  0.6113  1.2037  1.1469
11457TIP3   OH234313   0.369   5.879   0.178 -0.0053 -0.1312  0.1780
11457TIP3    H134314   0.362   5.790   0.143 -0.9521  0.2022 -0.5561
11457TIP3    H234315   0.462   5.899   0.174  0.2514 -1.1519  0.5342
11458TIP3   OH234316   1.525   3.672   4.609  0.1368  0.0679 -0.1693
11458TIP3    H134317   1.478   3.717   4.539  2.5404 -0.9910 -2.6212
11458TIP3    H234318   1.586   3.737   4.643 -0.1271  0.2006  0.0552
11459TIP3   OH234319   7.655   1.707   6.381  0.2143 -0.0431  0.4013
11459TIP3    H134320   7.668   1.689   6.288  1.6707 -1.5847  0.8681
11459TIP3    H234321   7.597   1.638   6.411 -1.5800  1.3670  0.3574
11460TIP3   OH234322   7.839   5.040   1.142  0.0458 -0.3631  0.3564
11460TIP3    H134323   7.891   4.961   1.127 -1.3319 -1.1287 -0.5575
11460TIP3    H234324   7.796   5.026   1.226  0.5836 -0.1178  0.6820
11461TIP3   OH234325   4.231   6.641   4.254  0.6539  0.2359 -0.2305
11461TIP3    H134326   4.239   6.665   4.346 -0.4290  1.5210 -0.4291
11461TIP3    H234327   4.280   6.708   4.207 -0.6396  0.8929 -0.6913
11462TIP3   OH234328   3.839   4.311   4.260  0.0021  0.2116 -0.1071
11462TIP3    H134329   3.914   4.344   4.309 -0.2491 -0.3234  0.6556
11462TIP3    H234330   3.802   4.243   4.316 -0.1022 -0.6485 -1.1915
11463TIP3   OH234331   4.192   5.811   6.393  0.6496 -0.4810 -0.2098
11463TIP3    H134332   4.252   5.884   6.382  1.3320 -1.0075 -0.0607
11463TIP3    H234333   4.133   5.838   6.463 -2.1403  1.8664 -3.1373
11464TIP3   OH234334   1.186   2.844   4.165  0.2146  0.5665  0.5763
11464TIP3    H134335   1.178   2.914   4.230 -1.4604  2.3129 -1.3705
11464TIP3    H234336   1.203   2.890   4.083 -1.0250 -1.3062 -0.7952
11465TIP3   OH234337   3.581   3.757   3.962 -0.0627  0.3654  0.1932
11465TIP3    H134338   3.668   3.777   3.927 -0.1515 -0.6956 -0.6905
11465TIP3    H234339   3.524   3.755   3.886 -1.8052  5.1008  1.0495
11466TIP3   OH234340   6.198   5.274   3.844  0.4336 -0.1159 -0.5532
11466TIP3    H134341   6.163   5.188   3.819 -1.7226  0.0499  1.5008
11466TIP3    H234342   6.132   5.336   3.813 -1.0511  0.2722  2.8704
11467TIP3   OH234343   5.175   5.952   1.258 -0.0347  0.6110  0.0289
11467TIP3    H134344   5.104   5.944   1.321 -1.5267  0.9349 -1.5305
11467TIP3    H234345   5.175   5.869   1.211  1.2272  0.2744  0.5869
11468TIP3   OH234346   1.762   4.593   4.668  0.1927  0.0174 -0.4240
11468TIP3    H134347   1.766   4.511   4.620  0.9432 -0.3893  0.3024
11468TIP3    H234348   1.853   4.619   4.680  0.0707 -0.1411  1.1595
11469TIP3   OH234349   7.059   4.914   5.913 -0.0498  0.2786 -0.2537
11469TIP3    H134350   7.042   4.958   5.829 -2.1861  1.9524  0.9438
11469TIP3    H234351   7.104   4.980   5.966 -0.6919  0.0271  0.6273
11470TIP3   OH234352   8.174   3.413   5.682  0.3100  0.1673  0.2005
11470TIP3    H134353   8.193   3.361   5.760  2.1011  0.5163  0.0260
11470TIP3    H234354   8.212   3.363   5.610 -1.5997 -0.3071 -0.5337
11471TIP3   OH234355   5.752   3.193   6.163 -0.1496  0.0758 -0.0272
11471TIP3    H134356   5.789   3.163   6.246 -1.0668 -3.4676 -0.7603
11471TIP3    H234357   5.729   3.285   6.180  2.5948  0.4638  2.5622
11472TIP3   OH234358   6.541   1.356   1.146 -0.0130 -0.0005 -0.1535
11472TIP3    H134359   6.596   1.418   1.098  0.1438  0.7797  0.9896
11472TIP3    H234360   6.576   1.270   1.123  1.2829  0.4515  0.0631
11473TIP3   OH234361   3.336   1.845   1.417 -0.1664 -0.1383 -0.4950
11473TIP3    H134362   3.418   1.867   1.461 -0.2861  0.3263 -0.4984
11473TIP3    H234363   3.292   1.783   1.476  0.0224 -0.1108 -0.3270
11474TIP3   OH234364   4.276   5.735   4.767  0.0437 -0.1043  0.2898
11474TIP3    H134365   4.209   5.720   4.701 -2.1177  1.8179  1.9140
11474TIP3    H234366   4.297   5.648   4.801 -0.2241 -0.9094 -1.5057
11475TIP3   OH234367   1.641   2.371   5.050 -0.0268 -0.3550  0.2303
11475TIP3    H134368   1.557   2.358   5.005  0.2294  0.2634 -0.4560
11475TIP3    H234369   1.622   2.356   5.142 -0.8200 -0.5556  0.0408
11476TIP3   OH234370   8.166   2.866   1.350 -0.4127 -0.9605 -0.2998
11476TIP3    H134371   8.157   2.961   1.354 -0.9190 -1.0237  0.1820
11476TIP3    H234372   8.187   2.839   1.439  0.5616 -1.2312 -0.5956
11477TIP3   OH234373   5.955   3.672   4.278 -0.0277  0.4422 -0.0568
11477TIP3    H134374   5.902   3.723   4.217 -0.1342 -1.1167 -1.3565
11477TIP3    H234375   6.030   3.728   4.297 -0.0743  1.0549 -1.5176
11478TIP3   OH234376   3.973   4.980   5.292  0.5719  0.2021 -0.2757
11478TIP3    H134377   4.039   4.940   5.236  0.6241  0.7071 -0.5806
11478TIP3    H234378   3.948   5.060   5.246 -0.3839 -0.0710 -0.2603
11479TIP3   OH234379   4.267   6.030   5.061 -0.0575 -0.0736  0.1966
11479TIP3    H134380   4.298   6.113   5.096 -0.1573 -0.5994  1.5601
11479TIP3    H234381   4.184   6.015   5.105 -0.6419 -0.3223 -0.9476
11480TIP3   OH234382   0.046   5.109   4.510 -0.3942  0.3678  0.4323
11480TIP3    H134383  -0.047   5.112   4.534 -0.8045 -1.7508 -0.6842
11480TIP3    H234384   0.071   5.018   4.520  1.0121  0.5008 -1.2631
11481TIP3   OH234385   6.404   7.713   1.277  0.2784  0.0252 -0.5448
11481TIP3    H134386   6.432   7.679   1.191 -0.6808 -1.3776 -0.3327
11481TIP3    H234387   6.386   7.805   1.261  2.5629  0.4284 -1.2563
11482TIP3   OH234388   8.183   0.026   3.427  0.4420  0.2305 -0.5010
11482TIP3    H134389   8.192   0.003   3.335  0.9265  0.5863 -0.5473
11482TIP3    H234390   8.136   0.110   3.426  1.2735  0.7107 -0.4781
11483TIP3   OH234391   8.112   1.014   4.699 -0.0099  0.6671  0.0683
11483TIP3    H134392   8.142   0.951   4.765 -0.0412  0.4110 -0.1638
11483TIP3    H234393   8.192   1.046   4.659  0.0135  0.8772  0.2792
11484TIP3   OH234394   4.313   2.840   4.938 -0.0380  0.2583 -0.0904
11484TIP3    H134395   4.366   2.766   4.906 -1.3363  0.8433 -4.1441
11484TIP3    H234396   4.260   2.803   5.008  0.5682 -2.2373 -0.8501
11485TIP3   OH234397   5.556   3.228   1.916 -0.2180  0.1934  0.3373
11485TIP3    H134398   5.533   3.185   1.998  2.3569 -1.2548  0.4099
11485TIP3    H234399   5.507   3.180   1.849  0.6833 -1.2328  0.6734
11486TIP3   OH234400   2.589   6.915   1.095 -0.1308  0.0127 -0.3638
11486TIP3    H134401   2.605   6.957   1.011 -1.0417 -1.5785 -1.4023
11486TIP3    H234402   2.630   6.829   1.087 -1.3926 -0.6840  0.2783
11487TIP3   OH234403   5.964   3.839   4.845  0.7424  0.3348  0.1609
11487TIP3    H134404   5.984   3.858   4.936  0.8456 -2.6194  0.8713
11487TIP3    H234405   5.882   3.790   4.848  0.4062  0.7330 -1.4223
11488TIP3   OH234406   5.887   2.526   5.833 -0.0637 -0.1404 -0.0985
11488TIP3    H134407   5.892   2.431   5.846 -0.3046 -0.0227  0.9372
11488TIP3    H234408   5.881   2.562   5.922 -2.8016  0.6608 -0.5084
11489TIP3   OH234409   1.762   5.071   4.063 -0.0692  0.1794  0.3254
11489TIP3    H134410   1.839   5.016   4.080 -0.7485 -0.8010  0.3101
11489TIP3    H234411   1.758   5.130   4.138  1.5227  1.2323 -0.3673
11490TIP3   OH234412   5.253   1.135   1.403  0.7977 -0.0605 -0.7378
11490TIP3    H134413   5.286   1.048   1.429  0.7192  0.7085  2.3505
11490TIP3    H234414   5.332   1.184   1.380  1.3107  0.0994  1.1781
11491TIP3   OH234415   3.991   2.450   4.341  0.5319  0.3513 -0.0579
11491TIP3    H134416   3.910   2.467   4.389  1.6852 -0.3216  2.2566
11491TIP3    H234417   3.997   2.522   4.277 -1.2999  1.0330  0.4812
11492TIP3   OH234418   1.181   5.731   1.439  0.0126 -0.6250 -0.4173
11492TIP3    H134419   1.105   5.741   1.497  0.0778 -2.9126  0.1685
11492TIP3    H234420   1.254   5.717   1.499  0.2065 -2.2912 -0.9975
11493TIP3   OH234421   2.671   5.068   0.738  0.2717  0.3133  1.1050
11493TIP3    H134422   2.658   5.136   0.672 -0.7017 -1.1698 -0.3179
11493TIP3    H234423   2.606   5.089   0.805 -0.4660  0.4569  0.3761
11494TIP3   OH234424   3.582   1.283   3.029 -0.4421 -0.1089 -0.6155
11494TIP3    H134425   3.503   1.334   3.044  0.3445  0.9802 -0.0951
11494TIP3    H234426   3.583   1.218   3.099 -0.1382  0.8157  0.2655
11495TIP3   OH234427   3.528   7.430   4.352 -0.0301 -0.2952 -0.0541
11495TIP3    H134428   3.495   7.518   4.335 -0.3279 -0.1693  1.1237
11495TIP3    H234429   3.453   7.382   4.384  0.5108 -0.4936  0.9594
11496TIP3   OH234430   2.667   2.881   6.456  0.5874 -0.6422 -0.2984
11496TIP3    H134431   2.650   2.802   6.405 -0.1890 -0.9025  0.3368
11496TIP3    H234432   2.750   2.864   6.500 -1.0449 -2.5268  2.3799
11497TIP3   OH234433   5.623   2.923   1.318 -0.3974 -0.3581 -0.2513
11497TIP3    H134434   5.555   2.861   1.292  1.6185 -2.0270 -1.9088
11497TIP3    H234435   5.637   2.978   1.241  0.2039 -0.1009  0.0310
11498TIP3   OH234436   0.211   4.351   3.026  0.5193 -0.1783  0.6147
11498TIP3    H134437   0.117   4.362   3.037  0.6548 -0.3895  2.3727
11498TIP3    H234438   0.245   4.349   3.116  2.2262  0.1481  0.0126
11499TIP3   OH234439   7.595   1.586   4.140  1.0710  0.3809 -0.4456
11499TIP3    H134440   7.673   1.532   4.126  0.3661 -0.8442  0.2115
11499TIP3    H234441   7.610   1.628   4.225  0.7639 -0.3357 -0.0261
11500TIP3   OH234442   1.892   0.811   3.856 -0.4823  0.2707  0.3580
11500TIP3    H134443   1.869   0.827   3.947 -0.4450  2.2283  0.0647
11500TIP3    H234444   1.883   0.896   3.813  1.0745 -0.2514 -1.1342
11501TIP3   OH234445   3.058   7.696   4.986  0.3876 -0.2662 -0.1806
11501TIP3    H134446   3.130   7.696   5.050 -0.0478  0.0333  0.3247
11501TIP3    H234447   3.013   7.613   5.002 -0.4423  0.3444  0.7512
11502TIP3   OH234448   2.165   6.158   6.098  0.7091 -0.2217  0.3374
11502TIP3    H134449   2.148   6.251   6.083 -1.2749 -0.8344 -1.8893
11502TIP3    H234450   2.185   6.124   6.011  1.3753 -1.8952  1.1093
11503TIP3   OH234451   6.942   6.067   3.409  0.1941 -0.4749 -0.2777
11503TIP3    H134452   6.944   5.974   3.387  1.3002 -0.8586  1.2523
11503TIP3    H234453   6.985   6.072   3.495  1.0997  1.5848 -0.7943
11504TIP3   OH234454   5.067   0.604   6.178  0.4416  0.0980 -0.3764
11504TIP3    H134455   4.987   0.598   6.230 -1.0674  2.2412 -2.2092
11504TIP3    H234456   5.134   0.563   6.232 -1.7686 -1.3836  1.4566
11505TIP3   OH234457   5.484   3.515   4.147 -0.2553 -0.8281  0.1801
11505TIP3    H134458   5.419   3.491   4.213  1.3866 -0.0804  2.1914
11505TIP3    H234459   5.544   3.441   4.143 -0.4824 -0.9709 -0.6695
11506TIP3   OH234460   4.998   1.544   4.023  0.4630 -0.6712 -0.4625
11506TIP3    H134461   4.931   1.550   3.955  0.1580 -0.4707 -0.1542
11506TIP3    H234462   5.031   1.454   4.017  1.0325 -0.4074 -1.4130
11507TIP3   OH234463   3.923   5.837   2.662 -0.4969 -0.7305  0.5432
11507TIP3    H134464   3.931   5.771   2.594 -0.9315 -1.1787  0.9187
11507TIP3    H234465   4.003   5.889   2.655  0.7057 -2.3756  1.3799
11508TIP3   OH234466   1.683   0.081   5.468 -0.1090 -0.3584 -0.5365
11508TIP3    H134467   1.761   0.066   5.522  0.3862  0.3863 -1.0276
11508TIP3    H234468   1.708   0.047   5.382 -0.3370 -0.1227 -0.6948
11509TIP3   OH234469   2.073   4.133   1.887 -0.5655  0.1768 -0.4127
11509TIP3    H134470   1.985   4.157   1.916 -0.5331 -0.7525  0.5504
11509TIP3    H234471   2.077   4.038   1.900  0.1828  0.0331 -1.5711
11510TIP3   OH234472   8.216   3.380   1.308  0.0341 -0.4684  0.3120
11510TIP3    H134473   8.277   3.419   1.246  2.2849  0.7534  3.0313
11510TIP3    H234474   8.186   3.299   1.267  2.8063 -0.6476 -1.5502
11511TIP3   OH234475   5.830   4.160   3.783 -0.5466  0.3288 -0.3110
11511TIP3    H134476   5.913   4.167   3.831 -1.1168 -1.8780  1.1448
11511TIP3    H234477   5.765   4.201   3.841 -1.0248 -1.2278  0.3257
11512TIP3   OH234478   4.116   3.793   3.020  0.3662  0.0289 -0.1495
11512TIP3    H134479   4.128   3.698   3.030  1.2148  0.1056 -0.3110
11512TIP3    H234480   4.075   3.802   2.934  1.1396 -0.1594 -0.5587
11513TIP3   OH234481   6.162   4.059   5.877 -0.4229 -0.1593 -0.1194
11513TIP3    H134482   6.203   4.136   5.837 -0.8688  0.8037  1.2332
11513TIP3    H234483   6.156   3.996   5.805 -0.0609  1.0570 -1.2624
11514TIP3   OH234484   5.975   5.916   0.648  0.3490 -0.0659 -0.2594
11514TIP3    H134485   5.881   5.932   0.643  0.1529 -1.5451 -2.4783
11514TIP3    H234486   6.015   6.003   0.639 -0.7710  0.2839 -2.1980
11515TIP3   OH234487   6.099   0.726   5.813 -0.0223  0.5142  0.1406
11515TIP3    H134488   6.041   0.681   5.751 -1.2606  0.4840  1.2696
11515TIP3    H234489   6.063   0.703   5.899  2.0324  0.0152  0.9188
11516TIP3   OH234490   6.357   5.055   4.319  0.0150  0.0634 -0.4983
11516TIP3    H134491   6.433   5.113   4.316 -0.3175  0.5117 -0.3671
11516TIP3    H234492   6.301   5.093   4.387 -0.4967 -0.0435 -0.8568
11517TIP3   OH234493   6.900   1.081   3.802 -0.3000  0.6028 -0.2195
11517TIP3    H134494   6.977   1.026   3.816 -0.8330 -0.0793  0.0954
11517TIP3    H234495   6.827   1.019   3.801 -0.9762  1.3719  0.7312
11518TIP3   OH234496   0.286   0.429   2.020 -0.0947 -0.6264 -0.0895
11518TIP3    H134497   0.216   0.493   2.005 -0.8857 -1.5880 -0.6157
11518TIP3    H234498   0.265   0.356   1.961 -0.2946 -2.2271  1.8616
11519TIP3   OH234499   7.679   1.382   1.939 -0.0745 -0.5501 -0.0642
11519TIP3    H134500   7.617   1.344   1.878 -0.5521 -0.7976  0.5701
11519TIP3    H234501   7.639   1.370   2.025 -0.4888  1.7769  0.1430
11520TIP3   OH234502   3.106   6.402   3.912 -0.3318 -0.0134 -0.0005
11520TIP3    H134503   3.124   6.366   3.999  0.2334 -0.1775 -0.1839
11520TIP3    H234504   3.122   6.330   3.852  0.8126  0.5316 -0.3750
11521TIP3   OH234505   3.010   0.251   5.222 -0.5492 -0.4902  0.2575
11521TIP3    H134506   3.091   0.302   5.232 -0.9552 -0.0147  1.3273
11521TIP3    H234507   3.039   0.162   5.204  0.1992 -0.1971 -0.0138
11522TIP3   OH234508   0.158   3.512   4.738 -0.0081  0.1465 -0.0034
11522TIP3    H134509   0.113   3.518   4.822  0.9799 -1.4288  0.6792
11522TIP3    H234510   0.090   3.486   4.676 -0.2227 -1.6352  0.9034
11523TIP3   OH234511   2.714   4.110   1.001  0.2769 -0.2785  0.2776
11523TIP3    H134512   2.732   4.192   0.954 -1.1145  0.3211  0.7226
11523TIP3    H234513   2.689   4.138   1.089  1.4438 -1.3108  0.9590
11524TIP3   OH234514   2.139   4.844   4.856  0.5207  0.5598 -0.1068
11524TIP3    H134515   2.120   4.875   4.767  0.5530 -0.4137 -0.4622
11524TIP3    H234516   2.061   4.869   4.906  0.2798  0.6723 -0.5233
11525TIP3   OH234517   1.242   7.235   4.932 -0.4551 -0.0308 -0.3134
11525TIP3    H134518   1.275   7.268   4.848 -1.4828  0.6035 -0.4933
11525TIP3    H234519   1.227   7.142   4.917  0.2777 -0.1224 -0.5254
11526TIP3   OH234520   6.031   5.420   0.631 -0.7048 -0.2006 -0.3128
11526TIP3    H134521   6.046   5.509   0.599  1.3692 -0.9065 -1.5424
11526TIP3    H234522   5.946   5.396   0.596 -0.7420  0.8675 -1.0200
11527TIP3   OH234523   0.174   7.810   6.512  0.5276 -0.8235 -0.2913
11527TIP3    H134524   0.266   7.828   6.534  0.7122 -1.2099 -0.7279
11527TIP3    H234525   0.172   7.716   6.494  0.0652 -0.7958 -0.3882
11528TIP3   OH234526   1.644   7.029   6.543  0.2581  0.6584  0.2604
11528TIP3    H134527   1.711   6.991   6.600 -0.8765 -0.0816  1.1521
11528TIP3    H234528   1.648   7.124   6.560  1.1525  0.6306  0.2062
11529TIP3   OH234529   5.215   5.664   1.535 -0.3996  0.1523  0.2291
11529TIP3    H134530   5.150   5.649   1.604 -0.7501  1.9448  0.3391
11529TIP3    H234531   5.175   5.627   1.456 -1.9513  1.9134  0.1252
11530TIP3   OH234532   3.293   6.263   5.902  0.2850 -0.1148 -0.0179
11530TIP3    H134533   3.332   6.200   5.842  0.2864 -0.1642  0.0334
11530TIP3    H234534   3.215   6.218   5.935 -0.0921  0.1853 -0.5061
11531TIP3   OH234535   7.734   4.029   0.151 -0.1838 -0.4062  0.0749
11531TIP3    H134536   7.759   3.938   0.169 -1.9164 -0.8150  0.6026
11531TIP3    H234537   7.775   4.080   0.221 -1.2044 -1.1071  1.2071
11532TIP3   OH234538   3.411   5.519   1.306 -0.5673  0.0248 -0.0709
11532TIP3    H134539   3.437   5.564   1.226  0.7664 -1.2451 -0.4006
11532TIP3    H234540   3.482   5.456   1.322 -0.9316  0.0695  1.9654
11533TIP3   OH234541   4.393   6.112   6.070  0.2163 -0.0925 -0.4185
11533TIP3    H134542   4.357   6.036   6.025  0.1976  0.5079 -1.4416
11533TIP3    H234543   4.361   6.188   6.020 -0.6483  0.6636  1.1871
11534TIP3   OH234544   7.407   4.249   2.245  0.2233 -0.3400 -0.3623
11534TIP3    H134545   7.373   4.238   2.156  1.6883  0.3125 -1.0347
11534TIP3    H234546   7.382   4.338   2.269 -0.2674 -0.5532 -0.0524
11535TIP3   OH234547   5.654   6.551   3.324 -0.4410  0.7861 -0.3952
11535TIP3    H134548   5.670   6.456   3.323 -1.4202  0.6018 -0.0635
11535TIP3    H234549   5.657   6.577   3.232  2.6022  0.9693 -0.3710
11536TIP3   OH234550   5.273   2.567   6.412  0.0013 -0.1171  0.0650
11536TIP3    H134551   5.313   2.573   6.325  0.9080  0.0193  0.4712
11536TIP3    H234552   5.321   2.632   6.464  0.9942 -1.6983  1.2275
11537TIP3   OH234553   1.527   0.148   5.812 -0.1096  0.0956  0.3648
11537TIP3    H134554   1.552   0.240   5.807  1.7535 -0.2975  1.4889
11537TIP3    H234555   1.513   0.131   5.905  0.3002 -0.9177  0.2589
11538TIP3   OH234556   1.387   2.335   0.698 -0.0724 -0.0847  0.2448
11538TIP3    H134557   1.303   2.306   0.733 -0.1185 -2.4758 -1.5357
11538TIP3    H234558   1.448   2.266   0.722  0.5398 -0.2488 -1.5907
11539TIP3   OH234559   2.785   6.964   4.910  0.1310 -0.6814 -0.0644
11539TIP3    H134560   2.722   6.929   4.973  0.9162 -0.5361  0.8219
11539TIP3    H234561   2.732   6.997   4.838 -0.8150 -0.4431  0.7289
11540TIP3   OH234562   2.495   2.342   3.415 -0.2574 -0.4833 -0.1046
11540TIP3    H134563   2.417   2.350   3.469 -1.5026 -0.7741 -1.7899
11540TIP3    H234564   2.479   2.400   3.340  0.0293 -2.3371 -1.6848
11541TIP3   OH234565   4.350   1.234   0.768 -0.1998  0.0448 -0.7982
11541TIP3    H134566   4.350   1.168   0.837  0.0819  0.7444 -0.1168
11541TIP3    H234567   4.274   1.289   0.787  0.3246  0.7083 -0.5714
11542TIP3   OH234568   4.973   0.899   4.928  0.3928  0.5432 -0.1772
11542TIP3    H134569   5.046   0.856   4.972 -0.7095 -0.6680  0.5359
11542TIP3    H234570   4.964   0.983   4.974  1.6671  0.9668 -0.6500
11543TIP3   OH234571   0.743   7.205   0.388 -0.0433 -0.4013  0.4020
11543TIP3    H134572   0.708   7.291   0.410 -0.6370  0.0678 -2.1034
11543TIP3    H234573   0.829   7.223   0.350 -1.1035 -0.5871 -2.3109
11544TIP3   OH234574   3.937   3.063   3.088 -0.2629 -0.5684 -0.1120
11544TIP3    H134575   3.859   3.119   3.086 -0.2659 -0.5931 -1.9894
11544TIP3    H234576   3.903   2.974   3.079  0.0016 -0.5194 -1.8542
11545TIP3   OH234577   0.446   0.158   6.738  0.5894  0.0052  0.0465
11545TIP3    H134578   0.497   0.224   6.691  1.4898 -0.9741 -0.4080
11545TIP3    H234579   0.398   0.112   6.670  0.7364 -0.4528  0.2494
11546TIP3   OH234580   5.466   1.446   0.193  0.0557 -0.9960  0.0727
11546TIP3    H134581   5.391   1.458   0.251  0.3063  1.2944  0.0317
11546TIP3    H234582   5.481   1.533   0.155  3.1461 -1.1568  0.6348
11547TIP3   OH234583   4.153   4.081   4.243  0.1823 -0.4844  0.6497
11547TIP3    H134584   4.199   4.024   4.304 -1.1369 -1.5340  0.7156
11547TIP3    H234585   4.127   4.157   4.295 -0.4048 -1.0910  1.2646
11548TIP3   OH234586   0.919   7.135   2.050 -0.2474  0.8561  0.0596
11548TIP3    H134587   0.881   7.178   2.127 -1.0997 -0.7821  0.5945
11548TIP3    H234588   0.851   7.077   2.019  1.4343 -1.5123  0.4937
11549TIP3   OH234589   6.467   6.619   3.489 -0.1174 -0.0859  0.1271
11549TIP3    H134590   6.428   6.704   3.472 -3.1320 -1.5312 -0.8451
11549TIP3    H234591   6.451   6.569   3.409  1.8731 -1.5172  0.5450
11550TIP3   OH234592   6.366   1.324   1.903 -0.0709  0.2528 -0.4070
11550TIP3    H134593   6.294   1.262   1.892 -1.3411  1.1106  2.0960
11550TIP3    H234594   6.323   1.410   1.909  1.4847  1.2162 -1.9846
11551TIP3   OH234595   2.006   5.336   5.056  0.2382 -0.1594  0.4042
11551TIP3    H134596   1.955   5.373   5.128  1.0881  0.9372  0.4767
11551TIP3    H234597   1.952   5.264   5.023 -1.3683  0.9552  0.4572
11552TIP3   OH234598   1.508   1.253   2.294  0.2488  0.9413  0.7889
11552TIP3    H134599   1.565   1.185   2.330 -2.3065 -1.3393  0.8116
11552TIP3    H234600   1.489   1.310   2.369  0.5940  0.3576  1.3346
11553TIP3   OH234601   3.628   4.456   6.097 -0.0320  0.0909 -0.3225
11553TIP3    H134602   3.706   4.429   6.048 -1.7583  0.1892 -3.4365
11553TIP3    H234603   3.591   4.527   6.045 -2.6825 -0.5739  0.4844
11554TIP3   OH234604   5.867   2.787   0.067  0.1549  0.5262 -0.4956
11554TIP3    H134605   5.813   2.733   0.009  0.3187  0.2404 -0.3825
11554TIP3    H234606   5.933   2.825   0.010  0.2774  0.2961 -0.5081
11555TIP3   OH234607   4.341   2.619   2.540 -0.0640 -0.0542  0.2166
11555TIP3    H134608   4.369   2.709   2.526  0.3510 -0.3524 -1.0313
11555TIP3    H234609   4.379   2.594   2.624  1.4036  0.3415 -0.3049
11556TIP3   OH234610   3.373   6.879   1.415 -0.5619  0.6474 -1.0280
11556TIP3    H134611   3.345   6.962   1.375 -2.0232  1.0565  0.6781
11556TIP3    H234612   3.327   6.812   1.364 -1.5399  1.0881 -0.7657
11557TIP3   OH234613   5.803   1.865   4.802  0.3057 -0.4293  0.2943
11557TIP3    H134614   5.741   1.809   4.849 -0.1687  0.5108  0.8185
11557TIP3    H234615   5.885   1.857   4.852  0.3144 -0.8288  0.2232
11558TIP3   OH234616   2.194   6.548   3.679  0.5392  0.1193 -0.2648
11558TIP3    H134617   2.135   6.614   3.713  0.4457 -1.0408  1.9914
11558TIP3    H234618   2.277   6.563   3.725  1.0810 -0.2131 -1.0933
11559TIP3   OH234619   4.261   0.569   3.000  0.3957 -0.0771  0.0710
11559TIP3    H134620   4.217   0.648   3.031  0.2930 -0.4316  0.8713
11559TIP3    H234621   4.351   0.578   3.031  0.1923 -0.6238  0.8593
11560TIP3   OH234622   3.517   2.184   0.745 -0.1563  0.1778  0.0881
11560TIP3    H134623   3.482   2.244   0.810  1.4389 -0.2967  1.4353
11560TIP3    H234624   3.610   2.177   0.765  0.6530  0.8138 -2.8895
11561TIP3   OH234625   0.849   0.675   2.575 -0.6253 -0.0631  0.0537
11561TIP3    H134626   0.782   0.607   2.582  0.6759 -1.3331  0.6997
11561TIP3    H234627   0.901   0.650   2.500 -1.2328  1.3010 -0.8675
11562TIP3   OH234628   0.453   3.021   2.168  0.1100 -0.2985 -0.2527
11562TIP3    H134629   0.537   3.067   2.164  0.6274 -1.1031  0.9057
11562TIP3    H234630   0.417   3.043   2.254 -0.7551 -0.1773 -0.6299
11563TIP3   OH234631   7.934   3.802   3.921  0.1014  0.6886  0.0968
11563TIP3    H134632   7.850   3.755   3.918  0.6497 -0.2899 -1.2261
11563TIP3    H234633   7.967   3.787   4.009 -1.3006  1.4549  0.7875
11564TIP3   OH234634   3.717   2.101   5.425  0.1792  0.4092 -0.3400
11564TIP3    H134635   3.736   2.136   5.338 -0.1727  1.8227  0.1097
11564TIP3    H234636   3.762   2.161   5.485  1.2419 -1.1031  0.4471
11565TIP3   OH234637   1.863   4.381   1.329  0.2756  0.1162 -0.1999
11565TIP3    H134638   1.837   4.456   1.276  0.1252 -1.4055 -2.4076
11565TIP3    H234639   1.793   4.317   1.316  0.8763 -0.7914  0.8303
11566TIP3   OH234640   2.971   4.199   0.629 -0.2935 -0.6095 -0.2422
11566TIP3    H134641   3.064   4.189   0.608 -0.0529  0.3437  0.3119
11566TIP3    H234642   2.939   4.267   0.570 -0.6392 -0.9164 -0.4135
11567TIP3   OH234643   4.347   5.899   5.878 -0.0277  0.3955 -0.0458
11567TIP3    H134644   4.332   5.903   5.784 -0.3191  2.1198  0.0370
11567TIP3    H234645   4.283   5.836   5.911 -0.9595  0.9145 -0.8301
11568TIP3   OH234646   3.058   1.834   0.881  0.0948  0.2423 -0.6600
11568TIP3    H134647   3.143   1.799   0.908 -0.9854 -0.3366  2.3262
11568TIP3    H234648   3.003   1.757   0.869 -0.3122  0.6596 -1.6359
11569TIP3   OH234649   3.695   5.825   4.587  0.0847 -0.4616  0.0503
11569TIP3    H134650   3.750   5.901   4.567  0.7721 -0.6838  1.0437
11569TIP3    H234651   3.754   5.763   4.629 -1.1955 -0.1222  2.5214
11570TIP3   OH234652   3.763   7.233   4.030 -0.5394 -0.0563  0.6009
11570TIP3    H134653   3.747   7.226   4.124 -1.0681  2.7734  0.8276
11570TIP3    H234654   3.854   7.262   4.023 -1.3062  2.6284  0.5203
11571TIP3   OH234655   6.536   4.636   0.435 -0.0925  0.2015  0.2530
11571TIP3    H134656   6.440   4.629   0.435 -0.0606 -0.3628 -0.4461
11571TIP3    H234657   6.566   4.549   0.462  0.2228  0.3432  0.3548
11572TIP3   OH234658   0.511   3.310   1.938  0.2234  0.1226 -0.0087
11572TIP3    H134659   0.579   3.251   1.968  1.4750  0.6990 -1.5561
11572TIP3    H234660   0.557   3.376   1.886 -1.2693  1.7952  0.6806
11573TIP3   OH234661   4.027   4.360   1.560 -0.1169  0.0433 -0.1530
11573TIP3    H134662   4.122   4.369   1.568 -0.0112 -2.0641  2.1291
11573TIP3    H234663   3.996   4.349   1.650 -2.6839  1.5083 -0.7511
11574TIP3   OH234664   1.987   1.905   0.340 -0.0043  0.2171  0.0549
11574TIP3    H134665   1.991   1.958   0.420  0.4214 -0.5330  0.5520
11574TIP3    H234666   1.894   1.889   0.327 -0.0235 -0.6731  1.1188
11575TIP3   OH234667   2.458   4.025   3.546 -0.6663 -0.0565 -0.0569
11575TIP3    H134668   2.548   4.023   3.578  0.1297 -1.4106 -2.1721
11575TIP3    H234669   2.438   4.118   3.536  0.4163  0.2672  0.6219
11576TIP3   OH234670   3.985   0.443   4.007  0.0266  0.5327  0.0353
11576TIP3    H134671   3.921   0.484   4.065  0.5005  1.2655  0.0517
11576TIP3    H234672   4.063   0.432   4.061  0.3747  0.9480 -0.3801
11577TIP3   OH234673   5.927   7.686   3.621 -0.2381 -0.1819 -0.1009
11577TIP3    H134674   5.970   7.769   3.598 -3.7771  1.1747 -2.5844
11577TIP3    H234675   6.000   7.628   3.644  2.5009  3.2516  0.8083
11578TIP3   OH234676   0.695   6.591   5.210 -0.4236  0.9140 -0.2387
11578TIP3    H134677   0.606   6.586   5.177  0.0516 -0.0185 -1.4440
11578TIP3    H234678   0.734   6.507   5.188  0.6260  1.1263  0.6919
11579TIP3   OH234679   7.024   5.643   2.462 -0.1830 -0.5235 -0.2641
11579TIP3    H134680   7.046   5.725   2.506 -1.0060  0.1736 -1.1146
11579TIP3    H234681   7.081   5.642   2.385  0.5741 -1.2791  0.2809
11580TIP3   OH234682   3.145   5.908   4.510  0.0137 -0.5153  0.1427
11580TIP3    H134683   3.235   5.940   4.514  0.6484 -2.2229  0.2589
11580TIP3    H234684   3.113   5.916   4.600  0.3066 -0.6399  0.2588
11581TIP3   OH234685   2.346   5.859   0.928 -0.2868 -0.2194 -0.5014
11581TIP3    H134686   2.270   5.803   0.916 -0.2733 -0.9334  2.1465
11581TIP3    H234687   2.403   5.810   0.987  0.2292  2.1055  1.0467
11582TIP3   OH234688   1.928   2.533   2.084  0.3640 -0.1483  0.4862
11582TIP3    H134689   2.009   2.564   2.043 -1.1585  0.2899 -2.4160
11582TIP3    H234690   1.884   2.612   2.114  0.8127 -0.3674  1.7988
11583TIP3   OH234691   4.313   5.260   4.567  0.5629 -0.1093  0.3715
11583TIP3    H134692   4.399   5.223   4.587 -0.3363 -2.5152  0.1511
11583TIP3    H234693   4.315   5.276   4.473  0.6913 -0.4496  0.3146
11584TIP3   OH234694   5.207   3.125   3.454 -0.4734  0.4502 -0.4115
11584TIP3    H134695   5.176   3.197   3.398 -2.8375  0.1894  0.4583
11584TIP3    H234696   5.233   3.169   3.535 -0.8957  0.4228 -0.2626
11585TIP3   OH234697   5.231   2.829   5.719 -0.2597 -0.2705 -0.1806
11585TIP3    H134698   5.286   2.753   5.699  0.7044  0.3619 -0.0144
11585TIP3    H234699   5.237   2.884   5.641  2.4937  1.6040  1.1729
11586TIP3   OH234700   6.447   3.927   4.443  0.0509 -0.4714  0.5031
11586TIP3    H134701   6.445   3.858   4.509  0.6125  0.5669  1.6482
11586TIP3    H234702   6.530   3.972   4.458 -0.5238  0.7726  0.1394
11587TIP3   OH234703   3.618   1.138   3.264 -0.1111  0.0416  0.1411
11587TIP3    H134704   3.692   1.196   3.243 -0.0306  0.2743  1.0566
11587TIP3    H234705   3.627   1.119   3.357 -1.0143 -0.2131  0.1875
11588TIP3   OH234706   7.920   0.903   5.511 -0.2235  0.4699  0.8901
11588TIP3    H134707   7.909   0.947   5.596 -2.2211  1.3943  0.2120
11588TIP3    H234708   8.008   0.865   5.515  0.1115  1.3271  2.9836
11589TIP3   OH234709   3.674   4.941   0.606  0.4668  0.1480  0.1923
11589TIP3    H134710   3.691   4.972   0.694 -0.0933  1.6776 -0.1956
11589TIP3    H234711   3.699   5.014   0.549 -0.0584 -0.4406 -0.8434
11590TIP3   OH234712   8.244   6.572   5.793 -0.1220  0.2062 -0.0594
11590TIP3    H134713   8.191   6.630   5.737 -0.1085 -1.6723 -2.1714
11590TIP3    H234714   8.286   6.512   5.731  0.5715 -1.4767  1.9437
11591TIP3   OH234715   6.171   4.417   6.742  0.2955 -0.0085  0.1974
11591TIP3    H134716   6.243   4.367   6.778  0.9184  0.6258 -0.1421
11591TIP3    H234717   6.154   4.485   6.806  0.7692  0.5378 -0.2439
11592TIP3   OH234718   4.837   7.273   3.296  0.2078 -0.0628  0.2767
11592TIP3    H134719   4.932   7.280   3.289  0.2364 -1.3638 -1.1334
11592TIP3    H234720   4.805   7.297   3.209 -0.4963 -2.9157 -0.3454
11593TIP3   OH234721   3.838   0.134   2.472 -0.0401 -0.0841  0.0217
11593TIP3    H134722   3.856   0.054   2.422  2.1161  0.5425 -0.3502
11593TIP3    H234723   3.886   0.122   2.554  0.3874  0.8394 -0.0799
11594TIP3   OH234724   6.916   4.351   0.993 -0.3253 -0.1075 -0.4828
11594TIP3    H134725   6.985   4.301   1.038 -2.2257 -2.9126 -0.4358
11594TIP3    H234726   6.855   4.376   1.063 -1.6312 -1.6772 -0.9832
11595TIP3   OH234727   7.669   6.797   2.082 -0.0498  0.1844  0.1769
11595TIP3    H134728   7.582   6.774   2.049 -0.0697 -0.3661  0.5897
11595TIP3    H234729   7.712   6.713   2.097  0.3202  0.4401  0.5898
11596TIP3   OH234730   5.425   6.826   0.006  0.3495 -0.0823  0.4158
11596TIP3    H134731   5.384   6.877   0.077 -0.6979  0.8565 -0.8144
11596TIP3    H234732   5.377   6.743   0.006  1.2371 -0.6329  1.6273
11597TIP3   OH234733   5.963   6.327   3.946 -0.3237  0.1161 -0.2376
11597TIP3    H134734   6.035   6.334   3.883  0.1161 -1.6268  0.0184
11597TIP3    H234735   6.007   6.322   4.031 -0.6944 -1.3467 -0.1089
11598TIP3   OH234736   5.274   1.456   0.606 -0.1545  0.1867 -0.0823
11598TIP3    H134737   5.222   1.392   0.559 -0.4637 -0.6766  1.3673
11598TIP3    H234738   5.357   1.460   0.558  0.4420 -2.4216  0.6099
11599TIP3   OH234739   7.198   5.704   3.132 -0.4432  0.3726  0.4015
11599TIP3    H134740   7.274   5.651   3.157  0.1219  1.0155  0.0755
11599TIP3    H234741   7.183   5.682   3.040 -1.8396 -1.1624  0.9353
11600TIP3   OH234742   2.658   1.614   6.685  0.1223  0.9520  0.2705
11600TIP3    H134743   2.583   1.577   6.639  1.2046 -0.6834 -0.2573
11600TIP3    H234744   2.660   1.706   6.659 -1.1365  0.7964 -0.4247
11601TIP3   OH234745   2.681   0.491   1.391 -0.0874 -0.3426 -0.4602
11601TIP3    H134746   2.642   0.427   1.332 -1.0831  0.5464 -0.7940
11601TIP3    H234747   2.623   0.493   1.467 -1.2349  1.5838 -1.3138
11602TIP3   OH234748   4.164   0.384   4.447  0.2008  0.4185 -0.1637
11602TIP3    H134749   4.254   0.390   4.479  0.6559 -2.0958 -0.7837
11602TIP3    H234750   4.173   0.363   4.354 -1.0313 -0.1267 -0.1775
11603TIP3   OH234751   7.189   3.321   3.230  0.1338  0.1770  0.2674
11603TIP3    H134752   7.140   3.329   3.149 -0.2470 -1.2059  0.3422
11603TIP3    H234753   7.148   3.385   3.289  0.4509  1.2322 -0.6197
11604TIP3   OH234754   1.246   5.678   1.952 -0.3658  0.1580 -0.4117
11604TIP3    H134755   1.244   5.646   2.043 -0.4581  0.2175 -0.3932
11604TIP3    H234756   1.175   5.629   1.909  0.8258 -1.2266 -0.8980
11605TIP3   OH234757   3.357   7.763   3.352 -0.2659  0.4296 -0.1847
11605TIP3    H134758   3.379   7.806   3.434 -2.2872  2.2349 -0.5017
11605TIP3    H234759   3.295   7.694   3.376 -2.2106  2.0538 -0.2630
11606TIP3   OH234760   1.801   4.379   5.293 -0.1923 -0.8525  0.1078
11606TIP3    H134761   1.882   4.330   5.284 -0.9658 -2.2018  0.2156
11606TIP3    H234762   1.827   4.471   5.289  1.7770 -1.1114  3.7003
11607TIP3   OH234763   1.658   7.113   5.050  0.0725  0.5625 -0.1056
11607TIP3    H134764   1.600   7.181   5.085 -0.3887 -0.2390  0.7300
11607TIP3    H234765   1.686   7.147   4.965 -2.4366  0.5275 -1.0345
11608TIP3   OH234766   4.110   0.650   5.072  0.1718 -0.4093  0.1603
11608TIP3    H134767   4.065   0.622   5.151 -1.1653  0.2026 -0.3492
11608TIP3    H234768   4.167   0.577   5.049 -1.2697 -1.6399  0.3191
11609TIP3   OH234769   3.891   3.863   5.746 -0.0214  0.0158 -0.6132
11609TIP3    H134770   3.882   3.945   5.794  2.1801  0.2092 -0.4227
11609TIP3    H234771   3.926   3.801   5.810  0.2727 -0.5014 -1.2584
11610TIP3   OH234772   0.400   4.664   5.780 -0.0366  0.0296 -0.1269
11610TIP3    H134773   0.490   4.667   5.749 -0.4479 -0.6527 -1.4710
11610TIP3    H234774   0.376   4.571   5.774 -0.3436 -0.0389  1.6939
11611TIP3   OH234775   3.368   1.148   5.340 -0.1040  0.1370 -0.2233
11611TIP3    H134776   3.443   1.101   5.377 -0.1597 -0.7247 -1.1582
11611TIP3    H234777   3.402   1.234   5.317 -0.0766  0.7232  1.8236
11612TIP3   OH234778   7.477   5.601   4.746  0.2938  0.2400 -0.4703
11612TIP3    H134779   7.472   5.649   4.829  2.6232 -0.2356  0.0150
11612TIP3    H234780   7.563   5.622   4.712 -0.2165 -0.4293 -2.2690
11613TIP3   OH234781   0.562   3.865   3.573  0.4090 -0.2924 -0.6262
11613TIP3    H134782   0.592   3.813   3.498  0.1618 -1.3321 -0.0264
11613TIP3    H234783   0.597   3.820   3.649  0.1446  0.4025 -0.0829
11614TIP3   OH234784   3.086   6.377   2.383 -0.0464  0.5390  0.2466
11614TIP3    H134785   3.052   6.304   2.332 -0.7048  0.6686  0.4964
11614TIP3    H234786   3.071   6.454   2.327 -0.9252  0.7039  0.6954
11615TIP3   OH234787   7.065   6.014   4.699 -0.2917 -0.2587 -0.8511
11615TIP3    H134788   7.019   6.097   4.684 -0.5348 -0.2276  0.0427
11615TIP3    H234789   7.025   5.979   4.778  2.0366  0.3311  0.6598
11616TIP3   OH234790   2.217   4.661   3.727  0.3189 -0.6437  0.0952
11616TIP3    H134791   2.272   4.673   3.805 -1.2815 -0.3656  1.2349
11616TIP3    H234792   2.158   4.589   3.750 -0.6833 -0.0516 -0.5488
11617TIP3   OH234793   6.859   0.961   1.357  0.0311 -0.1734  0.1398
11617TIP3    H134794   6.936   1.018   1.358 -1.2858  1.7345  0.4517
11617TIP3    H234795   6.842   0.942   1.449  0.6941 -1.4459  0.0129
11618TIP3   OH234796   3.976   5.452   1.397  0.3571  0.2462  0.2645
11618TIP3    H134797   4.016   5.404   1.469  0.3382  0.1911  0.2385
11618TIP3    H234798   4.037   5.523   1.378  0.2169  0.4380  0.5341
11619TIP3   OH234799   7.560   2.750   5.870 -0.7072 -0.3552  0.0838
11619TIP3    H134800   7.531   2.749   5.779 -1.5297 -1.9891  0.3276
11619TIP3    H234801   7.599   2.664   5.883 -0.3307 -0.0239  1.1949
11620TIP3   OH234802   7.479   5.663   3.407 -0.1378 -0.1980  0.1329
11620TIP3    H134803   7.505   5.631   3.320 -0.8544  0.2717 -0.2581
11620TIP3    H234804   7.388   5.636   3.417 -0.2453  0.2844  0.4858
11621TIP3   OH234805   3.049   3.429   0.009  0.4815 -0.6298 -0.1405
11621TIP3    H134806   3.013   3.379   0.082 -0.0203 -0.0398  0.0197
11621TIP3    H234807   3.087   3.507   0.050  2.6446 -1.5601 -0.1969
11622TIP3   OH234808   1.725   5.654   4.428 -0.0901  0.2336 -0.2920
11622TIP3    H134809   1.632   5.667   4.447 -0.2213 -0.1906 -0.6226
11622TIP3    H234810   1.753   5.735   4.386 -0.4696  0.1211 -0.7709
11623TIP3   OH234811   0.906   3.493   5.376 -0.0094  0.7411  0.3960
11623TIP3    H134812   0.922   3.479   5.283 -0.3959  0.5129  0.3615
11623TIP3    H234813   0.994   3.499   5.415  0.2053 -1.3038  0.3321
11624TIP3   OH234814   2.574   5.079   4.881  0.4034 -0.0913  0.4216
11624TIP3    H134815   2.503   5.143   4.881  0.4831  0.0136  1.0532
11624TIP3    H234816   2.598   5.069   4.789 -0.4970 -0.2126  0.1896
11625TIP3   OH234817   2.289   7.693   6.503 -0.1952  0.2106  0.0381
11625TIP3    H134818   2.246   7.654   6.427 -1.6287 -1.3240  1.5390
11625TIP3    H234819   2.244   7.776   6.517 -0.9790 -0.2245  0.1213
11626TIP3   OH234820   7.649   3.535   2.050  0.1983 -0.3689 -0.8014
11626TIP3    H134821   7.675   3.462   1.993 -0.8102 -1.5712  0.2249
11626TIP3    H234822   7.587   3.497   2.112  0.7744  1.0431  0.7220
11627TIP3   OH234823   2.902   5.292   4.184 -0.4246  0.2616 -0.0410
11627TIP3    H134824   2.840   5.255   4.247  0.1372 -0.0189  0.3624
11627TIP3    H234825   2.974   5.228   4.181 -0.3781  0.3437 -0.8645
11628TIP3   OH234826   0.591   1.963   5.145  0.2153 -0.4023  0.0359
11628TIP3    H134827   0.512   1.995   5.189 -1.3811 -0.5035 -2.5248
11628TIP3    H234828   0.642   2.042   5.126 -0.1367 -0.1415  0.1718
11629TIP3   OH234829   5.464   6.377   2.324  0.5270  0.0435  0.4434
11629TIP3    H134830   5.515   6.395   2.245 -0.5145 -0.1429 -0.3064
11629TIP3    H234831   5.511   6.306   2.367  0.3614 -0.8467 -0.7750
11630TIP3   OH234832   5.935   1.960   1.201  0.9993  0.1663  0.1331
11630TIP3    H134833   5.876   2.008   1.143  2.1505 -0.0268 -1.2347
11630TIP3    H234834   5.916   1.995   1.288 -0.1927  1.0476 -0.4570
11631TIP3   OH234835   5.130   2.357   3.273  0.4711 -0.1366 -0.0179
11631TIP3    H134836   5.150   2.415   3.347 -0.0823  0.2943 -0.2071
11631TIP3    H234837   5.216   2.339   3.234  0.9334 -1.4054  1.4857
11632TIP3   OH234838   3.411   3.657   5.420 -0.0944  0.1150  0.4733
11632TIP3    H134839   3.444   3.732   5.469  2.4118 -1.1280  0.8412
11632TIP3    H234840   3.474   3.586   5.438 -1.6358 -1.7176 -0.8689
11633TIP3   OH234841   1.824   5.493   2.246 -0.1225 -0.5898  0.1252
11633TIP3    H134842   1.742   5.448   2.225 -1.2304  0.7297  1.3866
11633TIP3    H234843   1.796   5.573   2.291  1.8446  0.2611 -0.0740
11634TIP3   OH234844   2.102   4.399   5.777 -0.6040  0.0948  0.0051
11634TIP3    H134845   2.059   4.483   5.788  0.1306  0.6653 -1.2795
11634TIP3    H234846   2.186   4.420   5.736 -0.6645 -1.3010 -0.8980
11635TIP3   OH234847   7.740   2.067   0.434 -0.3147 -0.1035  0.1857
11635TIP3    H134848   7.666   2.008   0.420  0.0854 -0.7815  0.8207
11635TIP3    H234849   7.806   2.012   0.476 -0.2423  1.0212  1.5955
11636TIP3   OH234850   0.283   5.515   6.423  0.2340 -0.0314 -0.3213
11636TIP3    H134851   0.236   5.519   6.506 -0.0429  2.2507 -0.5122
11636TIP3    H234852   0.298   5.607   6.400  1.5874 -0.6349 -2.0823
11637TIP3   OH234853   8.099   3.133   3.894  0.0906  0.1833 -0.8979
11637TIP3    H134854   8.184   3.140   3.849  0.3906  1.1983 -0.2127
11637TIP3    H234855   8.110   3.058   3.953  1.2569  1.4835  0.6478
11638TIP3   OH234856   2.324   2.335   3.912 -0.5651 -0.6238 -0.4566
11638TIP3    H134857   2.280   2.259   3.951 -1.3569 -0.3747 -0.8329
11638TIP3    H234858   2.313   2.405   3.976 -3.2884  0.2408 -1.7139
11639TIP3   OH234859   1.646   3.963   3.546 -0.0708 -0.3649 -0.4207
11639TIP3    H134860   1.592   3.986   3.621  1.0710  1.0667  0.0001
11639TIP3    H234861   1.607   4.010   3.473 -0.9169 -1.4043 -0.6553
11640TIP3   OH234862   6.387   1.196   3.278  0.6523 -0.4302  0.7296
11640TIP3    H134863   6.347   1.265   3.331  1.0270  0.4665 -0.1210
11640TIP3    H234864   6.318   1.131   3.267  0.5081 -0.5418  2.1280
11641TIP3   OH234865   2.411   4.883   6.004 -0.5843  0.2340  0.0978
11641TIP3    H134866   2.438   4.971   5.978 -1.8344  0.6707  0.2366
11641TIP3    H234867   2.317   4.890   6.020 -0.2018 -0.3306  3.2489
11642TIP3   OH234868   2.307   4.362   5.158  0.1427 -0.3158  0.0059
11642TIP3    H134869   2.371   4.304   5.116 -0.7993  0.1880 -2.2908
11642TIP3    H234870   2.319   4.446   5.114 -1.0967  0.1702  0.5632
11643TIP3   OH234871   5.704   2.157   0.335  0.2448 -0.3083  0.4273
11643TIP3    H134872   5.768   2.086   0.342  0.4686 -0.1047  0.4807
11643TIP3    H234873   5.650   2.150   0.414  1.3914  0.6618  1.3491
11644TIP3   OH234874   8.124   6.004   2.094 -0.1500  0.0859 -0.2098
11644TIP3    H134875   8.100   5.997   2.186 -0.5217  2.2767 -0.0689
11644TIP3    H234876   8.219   6.003   2.093 -0.1414  0.2964  0.2386
11645TIP3   OH234877   6.058   1.765   3.949 -0.0466  0.2403  0.2009
11645TIP3    H134878   6.011   1.684   3.929  0.5998 -0.3938  1.1518
11645TIP3    H234879   6.012   1.833   3.899 -1.3261 -0.5216  0.3059
11646TIP3   OH234880   0.584   4.914   1.731  0.1080  0.0626  0.7035
11646TIP3    H134881   0.638   4.913   1.811 -0.6511  2.1801  1.3027
11646TIP3    H234882   0.542   5.000   1.732 -0.9791 -0.4017 -1.3004
11647TIP3   OH234883   5.130   6.958   2.591  0.0740  0.0346  0.2034
11647TIP3    H134884   5.123   7.047   2.627 -3.0354 -0.2033  0.5062
11647TIP3    H234885   5.157   6.971   2.500  2.3987  1.0409  0.9684
11648TIP3   OH234886   3.461   5.407   4.839 -0.2253 -0.1554  0.1533
11648TIP3    H134887   3.555   5.387   4.835 -0.1390  0.3039 -0.1587
11648TIP3    H234888   3.427   5.347   4.905  0.6167  0.9083  1.6113
11649TIP3   OH234889   6.736   2.206   3.552  0.0353 -0.6874 -0.0749
11649TIP3    H134890   6.690   2.267   3.493  0.9609 -0.2048 -0.3180
11649TIP3    H234891   6.813   2.255   3.581  0.6268 -1.6288 -0.0128
11650TIP3   OH234892   3.418   3.850   1.129  0.3772 -0.4956  0.1796
11650TIP3    H134893   3.450   3.782   1.188  0.0506  0.3948  1.4068
11650TIP3    H234894   3.439   3.817   1.041  1.1625 -1.6892  0.7925
11651TIP3   OH234895   7.739   6.027   6.115  0.3209 -0.0197 -0.1643
11651TIP3    H134896   7.825   6.064   6.136  1.9012 -3.4061 -0.0240
11651TIP3    H234897   7.692   6.028   6.198  0.9118  0.1914  0.1796
11652TIP3   OH234898   1.992   3.446   5.681  0.0297 -0.2510  0.5631
11652TIP3    H134899   2.010   3.527   5.633  1.1806  0.3986  2.0180
11652TIP3    H234900   2.078   3.404   5.692 -0.3332 -0.8508  1.2367
11653TIP3   OH234901   2.589   4.217   2.923 -0.0635 -0.0421 -0.4752
11653TIP3    H134902   2.569   4.254   3.009 -1.0046 -2.6755  0.5551
11653TIP3    H234903   2.664   4.159   2.939  0.6809  0.5050 -1.7828
11654TIP3   OH234904   3.147   1.940   3.536 -0.6292 -0.7038  0.2313
11654TIP3    H134905   3.219   2.003   3.539 -0.4502 -0.8832 -0.1796
11654TIP3    H234906   3.068   1.994   3.528 -0.4280 -0.5437 -0.7802
11655TIP3   OH234907   0.347   4.292   0.818  0.4475  0.7475 -0.1139
11655TIP3    H134908   0.378   4.225   0.758 -0.7819  0.1565 -0.1141
11655TIP3    H234909   0.409   4.290   0.891  1.0354  0.3689 -0.6203
11656TIP3   OH234910   6.936   4.824   2.794  0.1892 -0.4374  0.2098
11656TIP3    H134911   6.866   4.887   2.807 -0.0684 -0.2974 -1.6030
11656TIP3    H234912   6.942   4.777   2.878 -0.6337  0.9343  1.0819
11657TIP3   OH234913   2.392   7.672   3.134 -0.2048 -0.0182 -0.2780
11657TIP3    H134914   2.381   7.615   3.058 -2.2425 -1.5891  1.0615
11657TIP3    H234915   2.485   7.694   3.135  0.3087 -1.8331 -1.9406
11658TIP3   OH234916   6.471   6.828   2.089 -0.1174  0.4775 -0.7219
11658TIP3    H134917   6.412   6.763   2.052 -1.1804  0.8737  0.2167
11658TIP3    H234918   6.444   6.836   2.181 -0.2715  2.4877 -0.8829
11659TIP3   OH234919   1.190   2.197   2.447 -0.4018 -0.0928  0.2085
11659TIP3    H134920   1.179   2.162   2.536  0.9193 -1.4211 -0.1266
11659TIP3    H234921   1.110   2.248   2.432  0.4315  2.3963  3.1395
11660TIP3   OH234922   5.938   1.956   3.776  0.1218 -0.3352 -0.9155
11660TIP3    H134923   5.976   1.990   3.695  1.0672  0.1687 -0.2755
11660TIP3    H234924   5.853   1.999   3.782  0.8100  1.0464 -0.7257
11661TIP3   OH234925   6.693   7.451   1.774 -0.4353 -0.3107  0.7095
11661TIP3    H134926   6.651   7.536   1.788 -1.1414 -0.5603  0.1601
11661TIP3    H234927   6.704   7.446   1.679  1.6221  0.1104  0.8719
11662TIP3   OH234928   6.883   7.107   5.064  0.0913 -0.4532  0.0936
11662TIP3    H134929   6.966   7.081   5.025 -0.9353  1.5049 -3.8895
11662TIP3    H234930   6.819   7.101   4.993 -2.5349  1.2784  2.0749
11663TIP3   OH234931   0.878   1.787   6.367  0.2931  0.2992  0.5447
11663TIP3    H134932   0.783   1.775   6.366  0.4844 -1.6072  0.9108
11663TIP3    H234933   0.908   1.728   6.437  1.8239  0.1497 -0.2030
11664TIP3   OH234934   2.541   1.030   0.756  0.1619 -0.4982 -0.0710
11664TIP3    H134935   2.513   1.065   0.671  0.1024  2.2335  0.9970
11664TIP3    H234936   2.460   1.021   0.806  0.5075  2.3116  1.1820
11665TIP3   OH234937   1.946   1.816   4.788 -0.2978 -0.0823 -0.0005
11665TIP3    H134938   2.021   1.836   4.843 -0.5837 -1.4973  0.9588
11665TIP3    H234939   1.928   1.723   4.805 -2.9444  0.4795  0.6609
11666TIP3   OH234940   3.210   3.269   5.576 -0.4488  0.7142  0.1854
11666TIP3    H134941   3.169   3.328   5.512 -0.0727  1.8115  0.9246
11666TIP3    H234942   3.246   3.328   5.643 -0.9625 -0.4073  1.4870
11667TIP3   OH234943   6.433   2.436   3.122  0.1170 -0.2409  0.1683
11667TIP3    H134944   6.402   2.347   3.103  1.6160 -1.3354  2.3585
11667TIP3    H234945   6.510   2.447   3.067 -0.2690 -0.1478 -0.3601
11668TIP3   OH234946   3.040   6.770   6.730  0.1147  0.6075 -0.0866
11668TIP3    H134947   3.126   6.752   6.768  0.0588  2.0000  0.7333
11668TIP3    H234948   2.991   6.812   6.800 -0.9653  0.6076 -0.8207
11669TIP3   OH234949   7.798   6.329   0.510 -0.0670  0.4296 -0.1222
11669TIP3    H134950   7.874   6.365   0.465  0.2814  2.4329  1.8989
11669TIP3    H234951   7.827   6.244   0.543  1.4263  1.2722  0.8331
11670TIP3   OH234952   4.329   6.914   6.712 -0.4253  0.7376  0.0914
11670TIP3    H134953   4.409   6.862   6.706 -1.0536 -0.2731  0.1516
11670TIP3    H234954   4.357   7.004   6.697  0.7355  0.4159  0.2461
11671TIP3   OH234955   5.341   7.482   5.933  0.1086  0.0679 -0.3329
11671TIP3    H134956   5.359   7.451   5.845 -0.0428  0.6725 -0.5842
11671TIP3    H234957   5.350   7.405   5.989 -0.7022 -0.5062 -0.9916
11672TIP3   OH234958   4.318   5.516   3.330 -0.1100 -0.1708 -0.1882
11672TIP3    H134959   4.250   5.581   3.313 -1.0743 -1.6559 -2.4600
11672TIP3    H234960   4.393   5.545   3.279 -0.4613 -0.6665 -1.0096
11673TIP3   OH234961   0.514   3.154   2.763 -0.5399  0.3967  0.4091
11673TIP3    H134962   0.438   3.150   2.821 -0.5796 -0.9205  0.2944
11673TIP3    H234963   0.568   3.080   2.789  1.0783  1.6976  0.9517
11674TIP3   OH234964   4.428   3.019   1.764 -0.3805 -0.4555 -0.1304
11674TIP3    H134965   4.466   2.998   1.679  0.8179 -2.5346  0.8435
11674TIP3    H234966   4.364   2.950   1.780  0.0258 -0.5906  1.0088
11675TIP3   OH234967   7.756   7.303   3.348  0.2782  0.4589  0.4725
11675TIP3    H134968   7.671   7.258   3.351  1.1443 -1.9797 -3.6926
11675TIP3    H234969   7.735   7.395   3.363 -3.3409  0.1183 -1.4503
11676TIP3   OH234970   0.560   1.073   1.715 -0.1587  0.0796  0.5012
11676TIP3    H134971   0.651   1.067   1.743 -0.4150 -0.6808  1.2079
11676TIP3    H234972   0.540   0.986   1.679 -0.5019  0.3508  0.0268
11677TIP3   OH234973   7.262   4.096   4.824  0.0841 -0.2234 -0.4646
11677TIP3    H134974   7.220   4.018   4.789  2.2038 -0.8622 -1.7645
11677TIP3    H234975   7.250   4.162   4.756  0.1007 -0.0595 -0.3089
11678TIP3   OH234976   3.071   6.048   0.014 -0.6416  0.3775  0.0156
11678TIP3    H134977   2.994   5.992   0.023  0.5993 -1.4489 -0.1356
11678TIP3    H234978   3.074   6.099   0.095 -1.1929 -0.6111  0.6774
11679TIP3   OH234979   0.952   2.673   3.145  0.3896  0.1472 -0.0937
11679TIP3    H134980   1.011   2.685   3.071  1.5404  0.9870  0.9286
11679TIP3    H234981   1.006   2.633   3.213 -0.7742 -1.0744  0.1591
11680TIP3   OH234982   0.229   1.516   5.050  0.5153 -0.0891  0.1171
11680TIP3    H134983   0.254   1.443   5.106 -0.7473 -0.0108  0.8199
11680TIP3    H234984   0.187   1.579   5.109  0.4434  0.6374 -0.6838
11681TIP3   OH234985   5.153   3.635   2.529 -0.3466 -0.1837 -0.3081
11681TIP3    H134986   5.229   3.653   2.473  0.0981  0.4417  0.4836
11681TIP3    H234987   5.089   3.701   2.504  0.2927  0.8646  0.7233
11682TIP3   OH234988   6.384   7.331   5.720  0.0817 -0.9002 -0.2335
11682TIP3    H134989   6.325   7.404   5.699  0.1573 -0.3412  1.3480
11682TIP3    H234990   6.328   7.254   5.716 -0.3377 -0.5887 -0.5204
11683TIP3   OH234991   6.872   3.743   6.481 -0.3983 -1.1000 -0.2678
11683TIP3    H134992   6.827   3.823   6.455 -0.5239 -1.3159 -0.7232
11683TIP3    H234993   6.837   3.722   6.568  1.5181  0.7575  1.0323
11684TIP3   OH234994   7.844   4.970   4.899 -0.2052 -0.1976 -0.1871
11684TIP3    H134995   7.882   4.883   4.888  0.3386  0.1336 -1.1007
11684TIP3    H234996   7.905   5.028   4.853 -0.7782  0.6109  0.0509
11685TIP3   OH234997   7.261   3.430   6.731 -0.1131 -0.6818 -0.2990
11685TIP3    H134998   7.255   3.410   6.637  2.7280  0.5557 -0.8190
11685TIP3    H234999   7.323   3.367   6.765  0.0094 -0.1637  0.4536
11686TIP3   OH235000   7.725   1.399   0.483  0.2666  0.7448  0.0977
11686TIP3    H135001   7.811   1.433   0.509  0.2010  0.0813  1.2402
11686TIP3    H235002   7.746   1.333   0.416  0.3793  3.0067 -2.2585
11687TIP3   OH235003   2.862   1.777   0.303  0.4115 -0.1937 -0.2556
11687TIP3    H135004   2.882   1.762   0.396  2.0953 -1.2566 -0.7435
11687TIP3    H235005   2.886   1.868   0.288  0.0156  0.0205  0.3771
11688TIP3   OH235006   0.814   4.864   2.309 -0.0315  0.2429 -0.0322
11688TIP3    H135007   0.773   4.779   2.291 -1.2714  0.9431 -0.6177
11688TIP3    H235008   0.747   4.929   2.287  0.6650  1.3694  1.0283
11689TIP3   OH235009   1.342   4.733   4.519  0.0260  0.7909 -0.8338
11689TIP3    H135010   1.408   4.684   4.568  0.8633  1.4971 -1.2171
11689TIP3    H235011   1.260   4.715   4.565  0.7472  1.2648  0.7193
11690TIP3   OH235012   2.921   4.167   3.870  0.2718 -0.7670  0.1513
11690TIP3    H135013   2.935   4.128   3.957  0.8252 -0.9247 -0.0050
11690TIP3    H235014   2.894   4.093   3.815  2.0764 -1.1246 -0.3339
11691TIP3   OH235015   4.417   0.117   1.196 -0.0360 -0.1002  0.5680
11691TIP3    H135016   4.401   0.110   1.102 -0.6696 -1.4548  0.7608
11691TIP3    H235017   4.512   0.112   1.205  0.0307  0.0880  0.0059
11692TIP3   OH235018   7.391   4.397   3.371 -0.1856  0.2206  0.3212
11692TIP3    H135019   7.486   4.385   3.367 -0.2205 -0.8432  1.6576
11692TIP3    H235020   7.356   4.308   3.363 -1.0174  0.5005  0.7729
11693TIP3   OH235021   5.802   4.697   1.465  0.4317  0.9261 -0.4371
11693TIP3    H135022   5.804   4.681   1.560 -0.6313  0.9268 -0.4011
11693TIP3    H235023   5.892   4.721   1.443  0.9548 -0.2061  0.3640
11694TIP3   OH235024   8.024   6.453   1.532 -0.4541 -0.3078  0.0652
11694TIP3    H135025   7.958   6.416   1.591 -0.3063  0.8517  1.0090
11694TIP3    H235026   8.025   6.394   1.456 -2.2882 -0.5724  0.2025
11695TIP3   OH235027   1.766   0.873   5.537  0.6100  0.0300 -0.6749
11695TIP3    H135028   1.849   0.827   5.551  0.6076  0.0424 -0.6222
11695TIP3    H235029   1.715   0.856   5.616  0.4168 -0.2941 -0.8626
11696TIP3   OH235030   1.491   7.644   4.155 -0.1287  0.4787 -0.2903
11696TIP3    H135031   1.514   7.686   4.072 -0.1533  0.1755 -0.4505
11696TIP3    H235032   1.574   7.634   4.201 -0.0727  0.3523 -0.4171
11697TIP3   OH235033   1.502   3.841   0.086 -0.0606  0.2755 -0.6993
11697TIP3    H135034   1.525   3.919   0.036  0.5592  0.8447  0.4509
11697TIP3    H235035   1.582   3.789   0.087 -0.1118  0.2048 -0.3956
11698TIP3   OH235036   4.149   2.362   6.586  0.1321 -0.7047  0.2192
11698TIP3    H135037   4.092   2.346   6.661  0.3705  1.5295  0.9513
11698TIP3    H235038   4.118   2.445   6.550 -0.0634 -1.7761 -2.2914
11699TIP3   OH235039   0.015   6.812   1.525 -0.5603  1.0024 -0.2363
11699TIP3    H135040   0.094   6.845   1.567 -2.2002  2.3504  2.0258
11699TIP3    H235041  -0.045   6.794   1.598 -0.9971 -4.0897 -1.4878
11700TIP3   OH235042   5.847   5.912   3.425 -0.6054 -0.5861 -0.1014
11700TIP3    H135043   5.809   5.896   3.511 -0.2195 -2.2674 -0.2074
11700TIP3    H235044   5.934   5.872   3.430  0.5267  1.6924 -0.4115
11701TIP3   OH235045   1.950   1.066   1.437 -0.1112  0.4728  0.1517
11701TIP3    H135046   2.036   1.085   1.401 -0.0998 -1.0291 -0.7281
11701TIP3    H235047   1.959   1.081   1.531  1.4549 -0.7128  0.2289
11702TIP3   OH235048   2.788   6.469   4.700  0.3173  0.1652  0.8505
11702TIP3    H135049   2.862   6.485   4.758  1.1198 -0.3361 -0.0187
11702TIP3    H235050   2.801   6.380   4.669  1.6560  1.3842 -2.5329
11703TIP3   OH235051   5.579   0.953   3.905 -0.0988 -0.3947  0.2066
11703TIP3    H135052   5.502   0.995   3.944  0.4938 -0.3581  1.3834
11703TIP3    H235053   5.594   0.875   3.959  0.0039 -1.0486 -0.7369
11704TIP3   OH235054   0.427   6.619   2.958  0.2620 -1.2178  0.2091
11704TIP3    H135055   0.405   6.712   2.964  0.6082 -0.9685 -1.8199
11704TIP3    H235056   0.346   6.574   2.983 -0.4642 -0.3593 -0.5445
11705TIP3   OH235057   6.988   5.736   1.968  0.5534 -0.6493  0.1332
11705TIP3    H135058   7.043   5.802   2.011  1.0745 -0.4470 -0.8078
11705TIP3    H235059   6.934   5.701   2.038  0.1904  0.8427  0.6491
11706TIP3   OH235060   0.121   6.259   2.807  0.8880  0.4174  0.2522
11706TIP3    H135061   0.180   6.200   2.854  0.8340 -1.0137 -1.3805
11706TIP3    H235062   0.168   6.282   2.727 -0.0960  0.5960 -0.2941
11707TIP3   OH235063   6.057   2.201   2.090 -0.3480 -0.7195  0.5720
11707TIP3    H135064   6.150   2.209   2.069 -0.7763  0.7754 -0.9818
11707TIP3    H235065   6.030   2.290   2.112 -1.7881 -0.7889 -0.7636
11708TIP3   OH235066   2.116   7.115   2.488 -0.5841 -0.1836  0.2160
11708TIP3    H135067   2.096   7.208   2.492 -1.2815 -0.3006 -0.2206
11708TIP3    H235068   2.145   7.100   2.398  2.7692  0.1942  1.1276
11709TIP3   OH235069   4.222   2.473   5.516  0.6528  0.1444  0.0702
11709TIP3    H135070   4.258   2.562   5.519  0.6154  0.1739 -0.3081
11709TIP3    H235071   4.142   2.482   5.464 -0.3126  0.2237  1.4997
11710TIP3   OH235072   0.664   4.692   6.505  0.4570  0.1401  0.3604
11710TIP3    H135073   0.723   4.756   6.466 -0.8284  1.1065 -0.0586
11710TIP3    H235074   0.707   4.666   6.586  1.6448  0.4989 -0.1397
11711TIP3   OH235075   6.949   3.007   3.319 -0.1758 -0.2937 -0.7292
11711TIP3    H135076   6.964   3.031   3.227 -0.9400  2.2646 -0.2729
11711TIP3    H235077   6.856   3.025   3.334 -0.1944 -1.2317  0.4104
11712TIP3   OH235078   0.720   2.570   0.108 -0.1257  0.5839  0.8506
11712TIP3    H135079   0.703   2.621   0.188 -2.6007  1.0417  0.0975
11712TIP3    H235080   0.642   2.516   0.097  0.1358  0.5888 -1.3064
11713TIP3   OH235081   6.912   6.178   2.344  0.0752  0.4473  0.3793
11713TIP3    H135082   6.856   6.255   2.334  0.8559  0.9188 -0.5404
11713TIP3    H235083   6.968   6.198   2.419 -0.7682  0.0943  1.1236
11714TIP3   OH235084   6.758   0.810   0.792 -0.4990  0.0832  0.4941
11714TIP3    H135085   6.722   0.772   0.872  0.7014  0.6052  1.3096
11714TIP3    H235086   6.704   0.888   0.777 -1.0358 -0.2798  0.5149
11715TIP3   OH235087   2.611   2.171   3.725  0.0050  0.1592 -0.3122
11715TIP3    H135088   2.681   2.237   3.723 -2.0272  2.5138  1.3892
11715TIP3    H235089   2.628   2.120   3.804 -1.6619  2.6300  1.7995
11716TIP3   OH235090   3.794   7.225   1.304 -0.1054  0.9326  0.0353
11716TIP3    H135091   3.738   7.155   1.267 -0.4587  1.6534 -0.8500
11716TIP3    H235092   3.782   7.217   1.398 -0.1715 -0.1781 -0.0434
11717TIP3   OH235093   2.915   4.944   6.116 -0.2486 -0.3116 -0.3321
11717TIP3    H135094   2.860   4.952   6.038  0.0971 -1.6630 -0.7402
11717TIP3    H235095   2.897   4.856   6.149 -1.5992  0.7512  2.0790
11718TIP3   OH235096   3.606   2.949   0.670  0.0648  0.5614  0.6347
11718TIP3    H135097   3.581   2.990   0.752 -0.6669 -0.1611  0.7829
11718TIP3    H235098   3.702   2.943   0.674  0.4893  4.1870 -0.3294
11719TIP3   OH235099   0.431   1.885   3.232 -0.1266  0.4019  0.1349
11719TIP3    H135100   0.380   1.963   3.213  0.1297  0.7978  0.9934
11719TIP3    H235101   0.431   1.879   3.328  0.5194 -0.2034  0.1118
11720TIP3   OH235102   3.923   3.506   4.577  0.1545  0.5830 -0.1254
11720TIP3    H135103   3.993   3.520   4.640  0.8762 -0.3481 -0.6847
11720TIP3    H235104   3.848   3.480   4.630  1.2349 -1.9791  0.3025
11721TIP3   OH235105   6.565   2.336   0.504 -0.4572  0.6495  0.4348
11721TIP3    H135106   6.528   2.351   0.417  0.9467  2.1838  0.0422
11721TIP3    H235107   6.634   2.271   0.490  1.0613  2.2864 -0.0129
11722TIP3   OH235108   5.761   4.815   5.311  0.3194 -0.1170  0.2599
11722TIP3    H135109   5.694   4.839   5.375  0.8060 -1.3326  1.2494
11722TIP3    H235110   5.711   4.781   5.237 -0.1774 -0.6309  0.8260
11723TIP3   OH235111   7.621   7.117   0.039 -0.6521  0.0679 -0.1779
11723TIP3    H135112   7.694   7.073   0.080 -2.0909 -0.5004  1.9263
11723TIP3    H235113   7.653   7.205   0.019  0.8600 -0.4795 -0.2402
11724TIP3   OH235114   2.093   4.401   3.431  0.6893  0.0754  0.1221
11724TIP3    H135115   2.021   4.383   3.491  0.4181  1.1896  0.1520
11724TIP3    H235116   2.076   4.489   3.399  1.6295  0.0578 -0.4649
11725TIP3   OH235117   2.813   5.081   3.390 -0.1981  0.1364 -0.1808
11725TIP3    H135118   2.743   5.017   3.383  0.0161 -0.0017 -1.1481
11725TIP3    H235119   2.806   5.114   3.480 -1.4453  0.0802 -0.2406
11726TIP3   OH235120   3.694   0.105   1.013  0.3349  0.2772 -0.6446
11726TIP3    H135121   3.683   0.083   0.921 -0.4768  1.0551 -0.7401
11726TIP3    H235122   3.672   0.198   1.020  2.4653  0.8009 -0.0220
11727TIP3   OH235123   5.803   5.851   3.691  0.1129 -0.7359 -0.1564
11727TIP3    H135124   5.725   5.899   3.718 -0.0799 -1.2457  0.2061
11727TIP3    H235125   5.873   5.884   3.748  0.4536  0.6176 -1.3021
11728TIP3   OH235126   5.548   4.721   5.164 -0.0120  0.4731  0.1956
11728TIP3    H135127   5.514   4.794   5.111 -3.5980 -0.6578  0.6657
11728TIP3    H235128   5.470   4.673   5.190  1.8984 -1.1251  3.5118
11729TIP3   OH235129   3.248   7.207   0.203  0.2852  0.3968  0.3793
11729TIP3    H135130   3.161   7.196   0.165  0.1720  1.1485  0.4022
11729TIP3    H235131   3.302   7.240   0.131  0.3453  0.7284  0.5717
11730TIP3   OH235132   7.822   3.404   0.719  0.6155 -0.3201  0.7571
11730TIP3    H135133   7.775   3.446   0.647  1.6634 -2.3790 -1.2419
11730TIP3    H235134   7.767   3.329   0.742  2.1482 -2.0104 -0.7434
11731TIP3   OH235135   7.099   5.010   6.588  0.3406  0.2003  0.0537
11731TIP3    H135136   7.103   5.010   6.493 -0.1696 -0.2914  0.0244
11731TIP3    H235137   7.027   4.950   6.609  0.2321  0.5528  0.7370
11732TIP3   OH235138   8.283   1.250   3.506 -0.3368 -0.1768  0.1935
11732TIP3    H135139   8.296   1.188   3.579  0.4055  0.4159  0.5842
11732TIP3    H235140   8.312   1.334   3.541 -0.3662  0.1965 -0.6631
11733TIP3   OH235141   5.283   2.701   4.630 -0.5026 -0.2933 -0.3090
11733TIP3    H135142   5.260   2.702   4.537  1.1359  1.7622 -0.7632
11733TIP3    H235143   5.378   2.714   4.631 -0.4748 -0.3504  1.6610
11734TIP3   OH235144   3.269   7.138   4.232  0.3441  0.2541  0.4015
11734TIP3    H135145   3.220   7.169   4.307 -0.9344 -1.8119  0.4919
11734TIP3    H235146   3.323   7.066   4.266  0.3683 -0.1600 -0.4725
11735TIP3   OH235147   3.398   3.716   4.187 -0.2376  0.1642 -0.1854
11735TIP3    H135148   3.428   3.739   4.099 -0.8260  0.8254 -0.2203
11735TIP3    H235149   3.479   3.704   4.238  0.0955  0.3100 -0.6771
11736TIP3   OH235150   2.680   0.028   2.516 -0.0225 -0.3027  0.5101
11736TIP3    H135151   2.614  -0.002   2.454 -0.4419  0.8041  0.3878
11736TIP3    H235152   2.694   0.120   2.493  2.7972 -0.9209 -0.5541
11737TIP3   OH235153   3.972   1.919   6.099  0.9999 -0.1030  0.6876
11737TIP3    H135154   4.066   1.899   6.090  1.3333  0.8130  1.9199
11737TIP3    H235155   3.968   2.014   6.100 -0.1750 -0.0778 -1.2776
11738TIP3   OH235156   2.447   4.426   5.436 -0.6722  0.3497 -0.0834
11738TIP3    H135157   2.398   4.418   5.354 -0.8782 -0.1720  0.0929
11738TIP3    H235158   2.483   4.339   5.452  0.1904  0.6783 -0.1281
11739TIP3   OH235159   6.991   6.974   2.411  0.2282 -0.0505  0.2521
11739TIP3    H135160   7.023   6.987   2.500  0.1025  0.5063  0.2244
11739TIP3    H235161   7.026   7.048   2.362  0.1937 -0.2865 -0.1326
11740TIP3   OH235162   1.691   5.604   3.775  0.4469 -0.1397  0.3191
11740TIP3    H135163   1.610   5.656   3.777  0.4675  0.0401 -1.5806
11740TIP3    H235164   1.759   5.666   3.749  0.6661 -0.8387 -0.8938
11741TIP3   OH235165   5.748   1.143   5.262  0.0143  0.8978  0.1790
11741TIP3    H135166   5.774   1.168   5.350 -0.8392 -1.3318  1.1311
11741TIP3    H235167   5.746   1.047   5.263 -1.2861  0.8240 -1.8802
11742TIP3   OH235168   0.873   3.649   3.678 -0.0154  0.0350 -0.3542
11742TIP3    H135169   0.951   3.639   3.732  0.2978 -0.0059 -0.8088
11742TIP3    H235170   0.906   3.682   3.594 -0.3969 -0.7162 -0.8093
11743TIP3   OH235171   2.667   1.536   2.591 -0.1739  0.6383 -0.0234
11743TIP3    H135172   2.693   1.514   2.681 -2.2864  1.5777  0.8842
11743TIP3    H235173   2.575   1.560   2.598 -0.7941 -0.6078 -2.7110
11744TIP3   OH235174   7.475   5.109   4.464 -0.7227  0.2448 -0.8105
11744TIP3    H135175   7.385   5.126   4.436  0.0541  0.5477 -3.4389
11744TIP3    H235176   7.516   5.196   4.468 -0.4765  0.0934  0.1416
11745TIP3   OH235177   1.314   6.824   4.989  0.3199  0.3828 -0.2130
11745TIP3    H135178   1.258   6.862   4.922  0.2205  0.5523 -0.0344
11745TIP3    H235179   1.353   6.747   4.947  0.4250  0.6123 -0.5308
11746TIP3   OH235180   3.694   5.381   1.320  0.0178 -0.2379  0.0444
11746TIP3    H135181   3.783   5.384   1.353  0.3927  0.0435 -0.9599
11746TIP3    H235182   3.695   5.311   1.254  0.2932  1.7098 -2.1422
11747TIP3   OH235183   7.773   5.947   6.448 -0.4713 -0.6438  0.1104
11747TIP3    H135184   7.685   5.973   6.421 -0.0895  0.5416 -0.0713
11747TIP3    H235185   7.807   6.024   6.495  0.2834 -1.2676  0.6239
11748TIP3   OH235186   4.998   2.208   5.556 -0.0952 -0.0275  0.2017
11748TIP3    H135187   4.951   2.125   5.562 -0.5864  0.1288 -1.2759
11748TIP3    H235188   4.931   2.275   5.570 -0.1315  0.1634 -0.8061
11749TIP3   OH235189   1.301   7.423   0.304  0.2010 -0.0641  0.3255
11749TIP3    H135190   1.242   7.482   0.257 -0.9107 -1.1161  0.3858
11749TIP3    H235191   1.340   7.478   0.372 -0.6913  0.6507  0.2777
11750TIP3   OH235192   6.279   4.289   1.623 -0.2689 -0.3569  0.0477
11750TIP3    H135193   6.304   4.353   1.556 -0.1664 -0.1810  0.2554
11750TIP3    H235194   6.362   4.250   1.651 -0.2182  0.2854  0.7968
11751TIP3   OH235195   0.258   6.321   1.733 -0.0955 -0.0146  0.5362
11751TIP3    H135196   0.302   6.244   1.769  0.0834  0.0926  0.5464
11751TIP3    H235197   0.195   6.285   1.670  1.6391 -0.0732 -1.2774
11752TIP3   OH235198   2.745   7.302   4.069 -0.1725  0.1478 -0.2794
11752TIP3    H135199   2.836   7.271   4.072 -1.0155 -2.4657  0.9473
11752TIP3    H235200   2.752   7.398   4.074  2.4572 -0.0314  3.3457
11753TIP3   OH235201   4.603   3.785   1.617 -0.3147 -0.0081 -0.4918
11753TIP3    H135202   4.578   3.877   1.605  0.5405  0.3382  0.2063
11753TIP3    H235203   4.522   3.736   1.605 -0.6206  0.7623 -1.7338
11754TIP3   OH235204   1.703   4.011   0.855  0.4257  0.6110  0.4036
11754TIP3    H135205   1.709   3.921   0.888 -1.8475  0.6701  1.1681
11754TIP3    H235206   1.670   4.001   0.766 -2.0066  0.6789  1.2249
11755TIP3   OH235207   7.017   1.029   2.975  0.1468  0.4206 -0.0984
11755TIP3    H135208   7.113   1.020   2.978 -0.0250 -1.8182  0.1784
11755TIP3    H235209   6.990   0.970   2.905 -1.0793  0.7877  0.0477
11756TIP3   OH235210   0.068   6.987   5.936 -0.3533 -0.2632 -0.3344
11756TIP3    H135211   0.033   6.925   5.999  2.6521  0.9745  2.8834
11756TIP3    H235212   0.110   6.933   5.869 -0.7227 -1.6715  0.5334
11757TIP3   OH235213   0.631   1.267   5.809 -0.0184 -0.3201  0.4396
11757TIP3    H135214   0.661   1.349   5.771  0.1445 -0.9793 -0.8960
11757TIP3    H235215   0.656   1.273   5.901 -0.0100  1.1166  0.3637
11758TIP3   OH235216   6.100   4.694   6.347  0.3849  0.4315  0.0553
11758TIP3    H135217   6.043   4.622   6.372  0.7301 -0.4162 -1.5083
11758TIP3    H235218   6.171   4.653   6.298  1.3998  1.6779  0.4198
11759TIP3   OH235219   0.273   3.192   1.846 -0.0648 -0.3283 -0.5722
11759TIP3    H135220   0.357   3.230   1.872  1.2626 -1.3204 -3.0957
11759TIP3    H235221   0.256   3.227   1.759 -0.8742 -2.2565 -1.2476
11760TIP3   OH235222   2.613   7.096   3.922  0.1198 -0.5716  0.2400
11760TIP3    H135223   2.669   7.164   3.961  0.7987 -0.4954 -0.8365
11760TIP3    H235224   2.612   7.117   3.829 -3.3938  0.6768  0.4020
11761TIP3   OH235225   1.931   0.729   0.388  0.4003 -0.1177  0.3398
11761TIP3    H135226   1.942   0.636   0.410 -0.4114 -0.3184 -0.0695
11761TIP3    H235227   1.837   0.743   0.391  0.2331 -0.0663 -2.5853
11762TIP3   OH235228   2.927   4.293   5.191  0.0994 -0.0274 -0.4164
11762TIP3    H135229   3.021   4.297   5.208 -0.2223 -0.2788  1.6486
11762TIP3    H235230   2.892   4.373   5.231 -0.9426 -1.5738  1.9602
11763TIP3   OH235231   5.598   2.419   5.835  0.6434  0.1850  0.1161
11763TIP3    H135232   5.671   2.369   5.799  0.3120  0.6304 -1.2184
11763TIP3    H235233   5.621   2.431   5.927  2.0700  0.0083 -0.1914
11764TIP3   OH235234   4.827   1.397   6.691 -0.0553  0.4177  0.2092
11764TIP3    H135235   4.734   1.388   6.712 -0.1163 -1.6815 -0.7505
11764TIP3    H235236   4.828   1.426   6.599  0.2572  2.2834  0.7675
11765TIP3   OH235237   0.515   6.923   2.292 -0.1958  0.2702 -0.0418
11765TIP3    H135238   0.436   6.911   2.240 -0.4774  0.3832  0.3544
11765TIP3    H235239   0.586   6.920   2.228 -0.5950  1.3636 -0.5605
11766TIP3   OH235240   3.464   4.835   6.579  0.3852  0.0354  0.4568
11766TIP3    H135241   3.443   4.929   6.577 -0.8559 -0.1913  1.3983
11766TIP3    H235242   3.385   4.792   6.544  0.3902 -0.7121  1.3243
11767TIP3   OH235243   1.078   0.297   1.990 -0.0282 -0.0504  0.4665
11767TIP3    H135244   1.152   0.357   1.994 -0.2336  0.2450 -0.0453
11767TIP3    H235245   1.044   0.295   2.080  0.8580 -0.5368  0.8072
11768TIP3   OH235246   5.900   0.393   0.076 -0.2820  0.1475  0.3884
11768TIP3    H135247   5.941   0.449   0.010  0.8781  0.4394  1.3135
11768TIP3    H235248   5.812   0.429   0.087 -0.1597  0.6872 -0.3018
11769TIP3   OH235249   2.963   2.811   3.557 -0.0166 -0.1384 -0.3097
11769TIP3    H135250   2.930   2.810   3.467  1.1557  0.0951 -0.7606
11769TIP3    H235251   2.931   2.894   3.593 -1.1084 -0.5672 -0.2562
11770TIP3   OH235252   5.566   1.736   2.338  0.0794  0.2485  0.2787
11770TIP3    H135253   5.472   1.748   2.325  0.2158 -0.0854 -1.1747
11770TIP3    H235254   5.593   1.812   2.389 -0.3235  2.5026 -2.6168
11771TIP3   OH235255   0.964   6.545   5.694  0.0564 -0.0674 -0.1427
11771TIP3    H135256   0.998   6.634   5.691  0.6613 -0.2304  1.0796
11771TIP3    H235257   0.880   6.553   5.740  0.0344 -0.0989 -0.1780
11772TIP3   OH235258   7.505   0.313   5.775 -0.4773 -0.1074  0.2365
11772TIP3    H135259   7.444   0.387   5.769 -0.7965 -0.4594 -1.3206
11772TIP3    H235260   7.590   0.353   5.789 -0.4141  0.6818 -2.1098
11773TIP3   OH235261   5.820   1.565   5.148 -0.0807  0.1397  0.2661
11773TIP3    H135262   5.769   1.544   5.227 -0.3711 -0.1677  0.0012
11773TIP3    H235263   5.827   1.481   5.102 -1.5296  0.6706 -0.9757
11774TIP3   OH235264   6.601   4.992   5.699  0.1027  0.2328  0.2319
11774TIP3    H135265   6.637   5.061   5.641  2.1372 -0.4210  0.6300
11774TIP3    H235266   6.668   4.981   5.766 -0.2016 -2.0961  0.2117
11775TIP3   OH235267   0.825   5.802   4.139  0.3329 -0.3110  0.0511
11775TIP3    H135268   0.786   5.735   4.083  1.7950 -0.7853 -0.4619
11775TIP3    H235269   0.912   5.816   4.101  0.7393  0.5418  1.2586
11776TIP3   OH235270   4.399   3.070   6.604  0.2759  0.1685 -0.4882
11776TIP3    H135271   4.391   3.076   6.699 -1.0159  0.0767 -0.5819
11776TIP3    H235272   4.484   3.110   6.585  0.7025 -0.1077  0.7257
11777TIP3   OH235273   0.761   1.352  -0.025 -0.0683  0.2229  0.7011
11777TIP3    H135274   0.692   1.417  -0.009 -1.3888 -1.0522  0.3626
11777TIP3    H235275   0.778   1.313   0.061  1.0400  1.2771  0.9878
11778TIP3   OH235276   0.274   1.515   6.692  0.2214  0.5134  0.5041
11778TIP3    H135277   0.225   1.482   6.767 -0.1116 -0.8470 -0.2686
11778TIP3    H235278   0.207   1.536   6.627  0.5328  1.2294  0.3938
11779TIP3   OH235279   7.879   5.375   5.235 -0.1103  0.8018  0.0985
11779TIP3    H135280   7.812   5.378   5.167  1.2713  1.5929 -1.2938
11779TIP3    H235281   7.901   5.282   5.242 -0.9611  0.6010  0.1878
11780TIP3   OH235282   7.890   2.829   0.948  0.0620  0.3255 -0.0360
11780TIP3    H135283   7.965   2.787   0.989 -0.4656  1.2258  1.9976
11780TIP3    H235284   7.893   2.800   0.857  0.4517 -3.0588  0.9052
11781TIP3   OH235285   1.506   0.521   0.821 -0.0181  0.0548 -0.0753
11781TIP3    H135286   1.454   0.466   0.879  0.9578 -1.5220 -0.6427
11781TIP3    H235287   1.557   0.577   0.880 -1.9492  1.3218  0.4911
11782TIP3   OH235288   7.492   1.865   4.151 -0.2301  0.3106 -0.1624
11782TIP3    H135289   7.397   1.875   4.155 -0.1562  0.7100  0.9772
11782TIP3    H235290   7.506   1.788   4.095 -1.2202  0.1133 -0.1587
11783TIP3   OH235291   7.986   1.514   1.291 -0.1248  0.0213 -0.4847
11783TIP3    H135292   7.904   1.514   1.339  0.0030  1.7748 -0.2129
11783TIP3    H235293   7.963   1.481   1.204 -0.9449 -0.2698 -0.1653
11784TIP3   OH235294   3.922   3.934   1.254  0.3546 -0.1854  0.3793
11784TIP3    H135295   3.912   3.991   1.178  2.2294  2.0531  1.6461
11784TIP3    H235296   3.872   3.978   1.323  0.5809 -0.9188  1.0263
11785TIP3   OH235297   2.320   5.252   4.843  0.2554 -0.0074  0.0038
11785TIP3    H135298   2.253   5.256   4.775 -0.2252  0.5014  0.4918
11785TIP3    H235299   2.271   5.257   4.925  0.7851 -1.0855  0.4109
11786TIP3   OH235300   0.663   3.476   5.512  0.2094  0.0187 -0.1427
11786TIP3    H135301   0.726   3.504   5.445 -0.0393  0.0825 -0.3520
11786TIP3    H235302   0.604   3.551   5.521 -0.0062 -0.1515 -0.1537
11787TIP3   OH235303   0.040   7.777   1.725  0.0646 -0.1223  0.3412
11787TIP3    H135304   0.068   7.844   1.788  0.0008 -0.7566  1.0640
11787TIP3    H235305  -0.055   7.782   1.725  0.1021  1.1040 -1.0858
11788TIP3   OH235306   3.797   3.892   3.843  0.0527 -0.2684  0.1786
11788TIP3    H135307   3.855   3.921   3.773  0.5618  2.7391  1.6839
11788TIP3    H235308   3.851   3.896   3.922 -1.6059  0.6312  1.3263
11789TIP3   OH235309   0.381   4.586   6.688  0.5667 -0.5304  0.1143
11789TIP3    H135310   0.372   4.594   6.593  1.3056 -2.7886 -0.2131
11789TIP3    H235311   0.358   4.672   6.722 -0.9865 -0.0257 -2.0211
11790TIP3   OH235312   7.524   4.234   1.801 -0.0269 -0.1641  0.1408
11790TIP3    H135313   7.472   4.290   1.744  0.1333  0.4710  0.6070
11790TIP3    H235314   7.562   4.294   1.865  0.3619 -0.7729  0.4884
11791TIP3   OH235315   2.135   4.813   1.548 -0.7085  0.4673 -0.2418
11791TIP3    H135316   2.044   4.841   1.537 -0.5560  0.4170 -1.9038
11791TIP3    H235317   2.140   4.730   1.500  0.2176  0.5049 -0.2182
11792TIP3   OH235318   6.274   1.727   2.605  0.0423  0.1609 -0.2901
11792TIP3    H135319   6.198   1.752   2.552 -0.3149 -0.5855 -0.1516
11792TIP3    H235320   6.322   1.666   2.550  0.0006 -0.1416  0.0083
11793TIP3   OH235321   2.648   0.916   2.763 -0.0654 -0.4222  0.7744
11793TIP3    H135322   2.721   0.942   2.707 -1.4460 -0.4796 -1.1618
11793TIP3    H235323   2.656   0.821   2.769 -0.9492 -0.6557 -0.9760
11794TIP3   OH235324   2.848   5.156   4.452  0.1019  0.0936  0.2033
11794TIP3    H135325   2.754   5.173   4.454  0.2595  0.9565  0.6777
11794TIP3    H235326   2.860   5.082   4.511 -0.1971  0.4113  0.6657
11795TIP3   OH235327   6.145   6.871   4.526  0.6929  0.5441  0.1802
11795TIP3    H135328   6.163   6.950   4.576 -1.6994  1.9187 -0.9502
11795TIP3    H235329   6.057   6.845   4.554  1.0603 -1.1701 -0.1711
11796TIP3   OH235330   7.589   4.548   2.531  0.2155  0.5397 -0.2317
11796TIP3    H135331   7.640   4.479   2.489 -0.6727  0.4931 -1.2784
11796TIP3    H235332   7.654   4.612   2.559  0.9110  0.0929 -0.7954
11797TIP3   OH235333   3.610   3.336   5.741 -0.4802 -0.1241 -0.0173
11797TIP3    H135334   3.633   3.244   5.728 -0.2325  0.0708 -1.0258
11797TIP3    H235335   3.532   3.333   5.797 -0.9678 -0.9796 -0.7203
11798TIP3   OH235336   0.104   6.579   0.427  0.2487 -0.6030 -0.5146
11798TIP3    H135337   0.170   6.576   0.358 -0.0542  0.5386 -0.8720
11798TIP3    H235338   0.109   6.492   0.468  1.5409 -0.7465 -0.9171
11799TIP3   OH235339   8.098   2.906   3.090 -0.3417 -0.1845  0.3005
11799TIP3    H135340   8.092   2.995   3.124  1.8506 -0.3743  1.3749
11799TIP3    H235341   8.066   2.851   3.162 -2.9211 -0.2891 -0.8126
11800TIP3   OH235342   4.512   3.609   6.713 -0.3855 -0.2168 -0.1052
11800TIP3    H135343   4.556   3.674   6.767 -0.1086 -0.9992  0.6289
11800TIP3    H235344   4.563   3.529   6.724 -0.9189 -0.6567 -0.7159
11801TIP3   OH235345   0.754   1.042   2.964  0.2911 -0.3712  0.6965
11801TIP3    H135346   0.753   1.122   3.017  1.3791  0.1213  0.0095
11801TIP3    H235347   0.691   1.060   2.893  1.4384  0.4060 -0.1639
11802TIP3   OH235348   5.755   0.229   0.318  0.1492  0.5707  0.7201
11802TIP3    H135349   5.839   0.243   0.362  0.7831  1.4033 -0.6782
11802TIP3    H235350   5.741   0.310   0.269  0.1920 -0.8076 -1.7219
11803TIP3   OH235351   7.658   0.696   2.107  0.5739  0.1356  0.6326
11803TIP3    H135352   7.653   0.603   2.131  2.3437 -0.4941 -1.1763
11803TIP3    H235353   7.591   0.707   2.040  0.2875  0.1981  0.9276
11804TIP3   OH235354   7.108   6.595   4.306 -0.0396 -0.3592 -0.2519
11804TIP3    H135355   7.062   6.561   4.383 -0.0924  0.4424  0.0800
11804TIP3    H235356   7.039   6.610   4.241  0.1407 -2.2191 -0.9328
11805TIP3   OH235357   7.363   6.147   4.301 -0.4500 -0.2891 -0.2497
11805TIP3    H135358   7.326   6.115   4.384 -0.1062 -2.1841 -0.7748
11805TIP3    H235359   7.288   6.151   4.242 -0.4960 -0.0584 -0.1788
11806TIP3   OH235360   7.859   3.420   1.357 -0.7174 -0.5734 -0.0637
11806TIP3    H135361   7.941   3.406   1.310 -1.3036 -0.9097 -1.0062
11806TIP3    H235362   7.865   3.510   1.389  0.0632 -0.6365 -0.0189
11807TIP3   OH235363   5.640   5.145   3.875 -0.3217  0.2535 -0.9084
11807TIP3    H135364   5.634   5.087   3.800  2.5804 -0.4011 -0.7479
11807TIP3    H235365   5.676   5.227   3.840  0.4545  0.1593 -0.3610
11808TIP3   OH235366   1.854   6.132   0.103  0.0515 -0.1228 -0.1887
11808TIP3    H135367   1.892   6.158   0.020  0.9797 -1.5128 -0.2318
11808TIP3    H235368   1.920   6.154   0.168 -0.6431  0.8951  0.1812
11809TIP3   OH235369   0.201   1.317   4.211  0.0811  0.2405 -0.1964
11809TIP3    H135370   0.268   1.291   4.274  1.1514  0.4807 -1.2128
11809TIP3    H235371   0.146   1.239   4.201  0.4163 -0.0774  0.3688
11810TIP3   OH235372   7.700   7.514   1.636  0.2524 -0.0710 -0.1145
11810TIP3    H135373   7.647   7.463   1.698 -0.5524  0.3773 -0.4108
11810TIP3    H235374   7.658   7.498   1.551  0.3618  0.5955 -0.2955
11811TIP3   OH235375   3.697   2.900   6.330  0.1942  0.3688  0.5053
11811TIP3    H135376   3.665   2.876   6.243  1.2794  0.5460  0.0357
11811TIP3    H235377   3.711   2.994   6.326  1.6312  0.1756  0.3715
11812TIP3   OH235378   0.468   7.115   3.246 -0.3606 -0.2009  0.0635
11812TIP3    H135379   0.438   7.028   3.219 -0.1865 -0.0397 -0.6901
11812TIP3    H235380   0.562   7.114   3.229 -0.6203  0.7337 -1.7686
11813TIP3   OH235381   3.866   5.726   5.947 -0.2640  0.1195  0.0585
11813TIP3    H135382   3.916   5.762   6.019 -1.6742 -0.8166  1.5802
11813TIP3    H235383   3.905   5.640   5.931  0.1463  0.3901 -0.4096
11814TIP3   OH235384   6.668   5.819   3.964  0.0588 -0.3902 -0.1824
11814TIP3    H135385   6.661   5.728   3.934  0.8028  0.2384 -2.4034
11814TIP3    H235386   6.731   5.859   3.905 -0.8580  1.8176  0.2520
11815TIP3   OH235387   4.522   5.319   0.176  0.1697  0.5081 -0.2297
11815TIP3    H135388   4.585   5.296   0.244 -1.6854 -0.9844  1.0939
11815TIP3    H235389   4.555   5.402   0.140  1.7797  0.8226  1.7609
11816TIP3   OH235390   4.535   6.885   1.202 -0.0278 -0.5329  0.9655
11816TIP3    H135391   4.614   6.883   1.147  0.3562  0.3256  1.4634
11816TIP3    H235392   4.486   6.961   1.171 -1.2557 -1.7213 -0.1149
11817TIP3   OH235393   1.048   6.197   3.325  0.3749  0.7996 -0.0393
11817TIP3    H135394   1.037   6.230   3.236  0.6837  0.1636 -0.3167
11817TIP3    H235395   1.129   6.237   3.357  0.6813  0.4157 -0.3294
11818TIP3   OH235396   5.176   0.860   3.104  0.4082  0.0815 -0.4524
11818TIP3    H135397   5.091   0.899   3.080  0.7023 -0.1337 -1.9585
11818TIP3    H235398   5.188   0.789   3.040  1.2615 -0.5471  0.3862
11819TIP3   OH235399   0.453   7.318   1.545 -0.2228 -0.4747 -0.7077
11819TIP3    H135400   0.476   7.411   1.539 -1.0493 -0.0949  1.2633
11819TIP3    H235401   0.494   7.278   1.468  0.9816  1.3432 -1.0715
11820TIP3   OH235402   7.714   5.632   5.337 -0.1886  0.3266 -0.5383
11820TIP3    H135403   7.767   5.556   5.313 -0.1765  0.2397 -0.2374
11820TIP3    H235404   7.629   5.615   5.295 -0.5380 -0.3880  0.4080
11821TIP3   OH235405   8.226   5.943   0.365 -0.3885 -0.0334 -0.1742
11821TIP3    H135406   8.282   5.913   0.293  1.3794 -0.3885  1.2847
11821TIP3    H235407   8.186   6.024   0.332  2.3925  1.2615 -0.7169
11822TIP3   OH235408   1.152   1.488   0.784 -0.0570  0.0050 -0.4283
11822TIP3    H135409   1.232   1.538   0.802 -1.8246  1.9494  3.1076
11822TIP3    H235410   1.094   1.550   0.739 -0.5811 -0.4663 -0.4180
11823TIP3   OH235411   1.851   3.534   6.003  0.3844 -0.4424  0.0869
11823TIP3    H135412   1.783   3.479   5.965 -0.9753 -0.0774  1.8418
11823TIP3    H235413   1.886   3.583   5.929 -1.5599 -0.3243 -0.8322
11824TIP3   OH235414   0.999   2.745   4.688 -0.1801 -0.0986  0.0519
11824TIP3    H135415   0.942   2.749   4.611 -1.0889 -1.6408  0.5987
11824TIP3    H235416   0.966   2.671   4.738  0.9544  0.3313  1.4979
11825TIP3   OH235417   0.688   3.142   1.536  0.2029  0.3772 -0.7192
11825TIP3    H135418   0.686   3.236   1.521 -0.2670  0.3148 -1.0551
11825TIP3    H235419   0.679   3.133   1.631  1.1680  0.6981 -0.5976
11826TIP3   OH235420   3.453   3.385   1.114  0.1789  0.1378 -0.2654
11826TIP3    H135421   3.425   3.418   1.028 -0.4742 -0.4732 -0.2983
11826TIP3    H235422   3.494   3.460   1.157 -0.0571  0.6143 -0.8649
11827TIP3   OH235423   4.157   0.332   0.099 -0.4997  0.0642  0.2992
11827TIP3    H135424   4.164   0.369   0.187 -0.2528 -0.2037  0.3921
11827TIP3    H235425   4.109   0.398   0.049  0.0602  0.5750  0.4301
11828TIP3   OH235426   0.726   6.824   5.085  0.1705  0.7723 -0.6733
11828TIP3    H135427   0.729   6.748   5.143  2.2196  1.6613  0.4700
11828TIP3    H235428   0.660   6.802   5.019 -0.2283 -1.4157  0.3990
11829TIP3   OH235429   8.319   0.024   6.464  0.0729  0.1444  0.4717
11829TIP3    H135430   8.290  -0.048   6.409  1.4037  0.3058 -0.4844
11829TIP3    H235431   8.241   0.079   6.475 -0.0854  0.4927 -1.8698
11830TIP3   OH235432   3.061   5.962   6.699  0.4137 -0.4815  0.7423
11830TIP3    H135433   3.109   6.013   6.633  0.2315  1.1727  1.8204
11830TIP3    H235434   3.012   6.028   6.748 -2.0102 -1.9616  0.4856
11831TIP3   OH235435   1.608   5.384   2.127 -0.3032 -0.5192 -0.0268
11831TIP3    H135436   1.593   5.461   2.072 -0.2672 -0.8665 -0.5287
11831TIP3    H235437   1.521   5.360   2.159 -0.2279  0.1659  0.7429
11832TIP3   OH235438   2.208   4.216   1.665  0.4857  1.1872 -0.5364
11832TIP3    H135439   2.298   4.184   1.659  0.5001  1.0732  0.2216
11832TIP3    H235440   2.174   4.177   1.746 -0.2769  1.1489 -0.8649
11833TIP3   OH235441   7.678   6.208   1.404 -0.0146  0.9684  0.3804
11833TIP3    H135442   7.624   6.283   1.379 -0.0030 -0.3145 -4.4215
11833TIP3    H235443   7.619   6.132   1.395  0.8119  0.0527  2.0680
11834TIP3   OH235444   8.011   3.741   5.198 -0.1170  0.4498  0.2462
11834TIP3    H135445   8.052   3.665   5.240 -0.5407  0.6386  1.0252
11834TIP3    H235446   8.025   3.813   5.259  3.1613  1.8709 -1.9164
11835TIP3   OH235447   1.245   2.412   5.035 -0.2509  0.2397  0.6056
11835TIP3    H135448   1.252   2.375   5.123  0.5273  0.2826  0.5708
11835TIP3    H235449   1.208   2.341   4.982 -0.5989  0.1714  0.9393
11836TIP3   OH235450   0.910   6.469   0.666 -0.0865 -0.1321  0.0271
11836TIP3    H135451   1.001   6.443   0.653 -0.7887 -1.7424 -2.1274
11836TIP3    H235452   0.881   6.420   0.743  1.2141  1.5047  1.6360
11837TIP3   OH235453   6.831   5.208   3.776 -0.6017  0.5244  0.1577
11837TIP3    H135454   6.882   5.289   3.768  1.3025 -0.6230  0.2119
11837TIP3    H235455   6.752   5.225   3.724 -1.0617  2.9988  1.5240
11838TIP3   OH235456   2.036   1.294   5.073 -0.2514  0.0940  0.0613
11838TIP3    H135457   1.986   1.376   5.075  0.5057  0.5578  0.8099
11838TIP3    H235458   2.122   1.319   5.040 -0.0733 -0.4405  0.1120
11839TIP3   OH235459   5.420   5.446   1.610 -0.4483  0.4087  0.1790
11839TIP3    H135460   5.359   5.405   1.549  0.3318  0.4236 -0.6309
11839TIP3    H235461   5.497   5.466   1.557 -1.0948  3.7137  0.3230
11840TIP3   OH235462   5.491   6.148   5.443 -0.2207  0.1273 -0.3158
11840TIP3    H135463   5.437   6.203   5.500 -1.0118 -0.0963 -0.8284
11840TIP3    H235464   5.578   6.151   5.482 -0.9738 -0.9569  1.5963
11841TIP3   OH235465   0.184   1.448   3.537  0.1861 -0.4271 -0.1297
11841TIP3    H135466   0.160   1.541   3.536 -0.1295 -0.4938  0.5042
11841TIP3    H235467   0.247   1.438   3.465  0.1636  0.2594 -0.2491
11842TIP3   OH235468   3.465   1.833   1.156 -0.2605  0.3930 -0.0229
11842TIP3    H135469   3.410   1.818   1.233 -0.4443 -0.1755 -0.2605
11842TIP3    H235470   3.479   1.745   1.119 -0.3421  0.6769 -0.7499
11843TIP3   OH235471   2.084   7.655   3.547  0.0849  0.4236 -0.2524
11843TIP3    H135472   2.120   7.664   3.459 -0.3105 -0.1355 -0.4779
11843TIP3    H235473   2.000   7.699   3.543  0.2608  0.7787 -0.0315
11844TIP3   OH235474   5.041   4.000   1.829 -0.6486  0.4874  0.1281
11844TIP3    H135475   5.118   3.979   1.777 -0.4464  0.5183  0.4157
11844TIP3    H235476   5.047   4.094   1.845  0.6498  0.0859  2.3690
11845TIP3   OH235477   3.373   3.960   0.649  0.5876  0.2935  0.3680
11845TIP3    H135478   3.402   3.891   0.589  1.0595  1.8802 -1.3269
11845TIP3    H235479   3.453   3.993   0.688  0.3654 -0.0380  1.1338
11846TIP3   OH235480   3.851   5.594   4.652  0.4633 -0.2772 -0.1703
11846TIP3    H135481   3.936   5.573   4.690  0.5894 -1.1392 -0.8917
11846TIP3    H235482   3.789   5.538   4.699 -0.3505  2.9397  2.9875
11847TIP3   OH235483   6.307   3.656   0.401  0.7638  0.2559 -0.3310
11847TIP3    H135484   6.252   3.650   0.323 -0.5736  0.3857  0.5804
11847TIP3    H235485   6.259   3.713   0.461  1.3551 -0.5207  0.9347
11848TIP3   OH235486   6.222   3.808   3.792 -0.6011  0.2244  0.4337
11848TIP3    H135487   6.290   3.828   3.728  0.0016  0.2691  1.0732
11848TIP3    H235488   6.166   3.743   3.749 -0.2581  0.3189 -0.1632
11849TIP3   OH235489   4.616   0.207   0.669  0.2024 -0.4336 -0.1666
11849TIP3    H135490   4.657   0.175   0.589  0.3202 -1.6608  0.3543
11849TIP3    H235491   4.650   0.296   0.680  0.6709 -0.4812 -1.1313
11850TIP3   OH235492   6.381   1.522   0.756 -0.1971 -0.1708  0.4337
11850TIP3    H135493   6.407   1.430   0.758  1.0102  0.1550  1.9882
11850TIP3    H235494   6.380   1.548   0.848  4.0837  2.5389  0.0006
11851TIP3   OH235495   4.602   0.949   5.304 -0.0325 -0.0740 -0.2528
11851TIP3    H135496   4.590   0.967   5.211 -2.2895 -1.9300 -0.4348
11851TIP3    H235497   4.695   0.929   5.314  0.4415  1.1281 -1.8795
11852TIP3   OH235498   3.946   2.099   2.203  0.5996 -0.1249  0.7785
11852TIP3    H135499   3.974   2.189   2.221 -0.1981  0.2956  0.0414
11852TIP3    H235500   3.992   2.076   2.122  2.3446 -1.1301  2.0115
11853TIP3   OH235501   2.253   4.284   3.772 -0.1243  0.6381  0.2610
11853TIP3    H135502   2.268   4.192   3.795  3.3096  1.5775  2.5232
11853TIP3    H235503   2.282   4.291   3.681  0.7520 -0.2941  0.4565
11854TIP3   OH235504   2.543   2.779   1.168  0.1316 -0.1636  0.2259
11854TIP3    H135505   2.552   2.843   1.239  0.0707 -1.1736  1.1842
11854TIP3    H235506   2.544   2.831   1.088  0.7794  0.9629  0.9372
11855TIP3   OH235507   1.013   5.657   0.703  0.5784  0.0012  0.6294
11855TIP3    H135508   1.046   5.654   0.793  2.8497 -2.8720 -0.1288
11855TIP3    H235509   1.089   5.636   0.649 -1.0309  0.1708 -1.8605
11856TIP3   OH235510   1.520   1.966   4.080  0.0512  0.7731  0.0688
11856TIP3    H135511   1.532   2.049   4.034 -1.1948  1.6592  1.2496
11856TIP3    H235512   1.514   1.990   4.172 -0.0640 -0.6734  0.4739
11857TIP3   OH235513   8.179   4.477   0.391  0.4634  0.2229  0.0858
11857TIP3    H135514   8.169   4.505   0.482 -1.4951 -0.2286  0.0586
11857TIP3    H235515   8.199   4.383   0.397  1.4831  0.4190  0.0427
11858TIP3   OH235516   1.526   4.437   0.571  0.4028 -0.4075 -0.2228
11858TIP3    H135517   1.578   4.395   0.640  0.9405 -0.2362 -0.5132
11858TIP3    H235518   1.503   4.366   0.511  0.8218 -0.3894 -0.4100
11859TIP3   OH235519   2.856   6.574   1.792  0.2479 -0.3162 -0.1284
11859TIP3    H135520   2.919   6.523   1.741  1.4795 -0.8916  1.8562
11859TIP3    H235521   2.908   6.642   1.835 -1.0141  1.2188 -0.9080
11860TIP3   OH235522   6.000   3.722   0.319 -0.7391 -0.0791  0.3245
11860TIP3    H135523   5.911   3.756   0.321 -1.0502 -0.8536  0.0661
11860TIP3    H235524   6.017   3.693   0.408 -0.7008  0.1644  0.3981
11861TIP3   OH235525   5.636   5.016   2.068 -0.0195  0.5061  0.0863
11861TIP3    H135526   5.693   5.079   2.023  0.5738 -0.1389 -0.1024
11861TIP3    H235527   5.689   4.985   2.142  0.0010 -0.2972 -0.2447
11862TIP3   OH235528   2.681   5.145   0.033 -0.1433 -0.4122  0.1887
11862TIP3    H135529   2.740   5.112  -0.035  1.1250 -1.5347  1.7534
11862TIP3    H235530   2.637   5.067   0.065 -0.8009  0.1210  0.5997
11863TIP3   OH235531   0.355   7.452   1.283  0.0360 -0.4824  0.2470
11863TIP3    H135532   0.372   7.363   1.251  0.7219 -1.1983  2.4066
11863TIP3    H235533   0.437   7.499   1.269 -0.3395 -0.1413 -0.9327
11864TIP3   OH235534   0.354   3.441   1.426  0.3906 -0.2702  0.3292
11864TIP3    H135535   0.268   3.484   1.429 -0.8441 -2.5509 -0.1684
11864TIP3    H235536   0.410   3.503   1.380 -1.2935  0.8037 -0.3680
11865TIP3   OH235537   5.111   2.649   4.839  0.5806  0.7666 -0.6558
11865TIP3    H135538   5.192   2.664   4.789  0.0055  1.2656 -1.4806
11865TIP3    H235539   5.124   2.565   4.881  1.5751  0.8873 -0.6843
11866TIP3   OH235540   0.507   2.478   6.460  0.6688  0.5502 -0.7009
11866TIP3    H135541   0.603   2.479   6.466  0.6779 -1.8347  0.6536
11866TIP3    H235542   0.488   2.401   6.407 -0.5177 -0.3342  0.9323
11867TIP3   OH235543   7.426   0.060   4.815  0.0656  0.8474  0.3064
11867TIP3    H135544   7.506   0.052   4.762 -0.9354 -2.2072 -0.9743
11867TIP3    H235545   7.457   0.080   4.903  2.1130  1.4438 -0.5010
11868TIP3   OH235546   5.013   6.673   4.731 -0.5733 -0.0918  0.7685
11868TIP3    H135547   4.929   6.633   4.707 -0.2894 -0.4566  0.3577
11868TIP3    H235548   5.079   6.618   4.688  0.0247 -1.2811  3.0744
11869TIP3   OH235549   2.536   2.034   3.970  0.3104 -0.5099  0.2700
11869TIP3    H135550   2.488   2.035   4.052  2.5100 -0.7928  1.6451
11869TIP3    H235551   2.604   1.967   3.983  1.4019  0.2113 -1.3505
11870TIP3   OH235552   2.967   5.637   2.020  0.0650 -0.0628 -0.1528
11870TIP3    H135553   2.933   5.671   1.937  1.5873 -0.5169 -1.0025
11870TIP3    H235554   2.970   5.713   2.078  1.1830  0.7811 -1.2666
11871TIP3   OH235555   5.328   0.522   3.875  0.0560 -0.4111  0.3295
11871TIP3    H135556   5.272   0.597   3.895 -1.6447 -1.9620  1.7194
11871TIP3    H235557   5.412   0.561   3.850 -0.2242  1.9486  2.5875
11872TIP3   OH235558   7.062   0.582   0.149  0.1944  0.0679 -0.1483
11872TIP3    H135559   7.033   0.639   0.078 -0.2345 -0.6553 -0.5695
11872TIP3    H235560   7.015   0.613   0.226  0.6102  0.8137 -0.1842
11873TIP3   OH235561   1.832   6.501   3.785  0.3549  0.2095  0.5511
11873TIP3    H135562   1.818   6.486   3.878 -0.0270  1.9454  0.7994
11873TIP3    H235563   1.907   6.560   3.781 -0.4830  1.2545 -0.1558
11874TIP3   OH235564   4.406   3.992   5.765 -0.0966 -0.0698  0.5625
11874TIP3    H135565   4.357   3.985   5.847  0.8713  1.7160  1.3620
11874TIP3    H235566   4.479   3.931   5.775 -0.9239 -1.1103  0.2977
11875TIP3   OH235567   1.446   2.218   4.924 -0.6719  0.1849 -0.0564
11875TIP3    H135568   1.352   2.215   4.940 -0.5475 -1.0245  0.5992
11875TIP3    H235569   1.480   2.141   4.971  0.6496  0.6770 -0.1775
11876TIP3   OH235570   8.150   6.180   5.701 -0.3153 -0.0242 -0.6167
11876TIP3    H135571   8.238   6.146   5.720 -1.0832 -1.9132 -0.3408
11876TIP3    H235572   8.152   6.197   5.607  0.2821 -0.2275 -0.6485
11877TIP3   OH235573   3.114   2.732   5.894  0.4192  0.3676  0.0353
11877TIP3    H135574   3.199   2.731   5.938 -0.1161  1.0253  1.1248
11877TIP3    H235575   3.114   2.653   5.840  0.9715 -0.6625  1.4792
11878TIP3   OH235576   8.252   3.930   3.861 -0.3480  0.7064  0.2952
11878TIP3    H135577   8.193   3.998   3.828  0.7993  1.1092 -1.0510
11878TIP3    H235578   8.216   3.848   3.828 -0.8482  0.8197  0.5549
11879TIP3   OH235579   3.934   0.734   4.212 -1.2931  0.3736 -0.2539
11879TIP3    H135580   3.908   0.643   4.224 -0.5255 -0.1572 -2.1451
11879TIP3    H235581   3.943   0.743   4.117  0.9016  1.7479  0.0216
11880TIP3   OH235582   7.269   0.387   1.902 -0.3140 -0.7057  0.1859
11880TIP3    H135583   7.347   0.332   1.896 -0.2530 -0.9346  2.3366
11880TIP3    H235584   7.197   0.329   1.877  0.0307 -0.9622 -0.2183
11881TIP3   OH235585   4.404   2.675   3.031 -0.2849  0.6971 -0.1944
11881TIP3    H135586   4.421   2.621   3.109  1.2254  0.2255 -0.8164
11881TIP3    H235587   4.310   2.690   3.033 -0.2027  1.2652  2.0860
11882TIP3   OH235588   6.007   1.376   3.299 -0.3384 -0.2446  0.2573
11882TIP3    H135589   5.923   1.394   3.256  0.6281 -0.1611 -1.6968
11882TIP3    H235590   6.013   1.442   3.368 -1.4708  0.3362 -0.1704
11883TIP3   OH235591   0.182   6.503   3.106  0.3542  0.3614 -0.3478
11883TIP3    H135592   0.090   6.486   3.083  0.5481 -1.0929 -0.1531
11883TIP3    H235593   0.182   6.592   3.139 -0.4644  1.4867 -3.1035
11884TIP3   OH235594   3.957   0.076   0.747  0.2496  0.1353 -0.3258
11884TIP3    H135595   3.949   0.117   0.661 -1.3391 -0.1059 -0.3356
11884TIP3    H235596   3.878   0.022   0.755 -0.6190  1.5701  2.0076
11885TIP3   OH235597   6.263   5.132   2.932  0.7264  0.2843  0.2727
11885TIP3    H135598   6.190   5.187   2.961 -0.9591  0.1919 -3.1936
11885TIP3    H235599   6.318   5.190   2.879  0.6924 -0.5839 -0.7636
11886TIP3   OH235600   5.680   3.507   5.768 -0.2587  0.2927  0.1889
11886TIP3    H135601   5.588   3.479   5.764 -0.7717  1.9987 -1.8063
11886TIP3    H235602   5.702   3.529   5.677  1.4254  2.0876  0.9655
11887TIP3   OH235603   4.057   5.181   3.367 -0.5752  0.1087  0.2489
11887TIP3    H135604   4.061   5.191   3.272  2.5227  0.3670  0.3247
11887TIP3    H235605   4.062   5.087   3.383  2.2497  0.1470  0.1202
11888TIP3   OH235606   6.677   0.039   4.184 -0.1513  0.2795 -0.0982
11888TIP3    H135607   6.609   0.020   4.119  0.2372  0.2983 -0.5108
11888TIP3    H235608   6.691   0.134   4.177  0.2751  0.1960 -0.3621
11889TIP3   OH235609   7.736   4.053   6.605 -0.5540  0.4582  0.5233
11889TIP3    H135610   7.747   3.958   6.616  0.8769  0.6426  0.8524
11889TIP3    H235611   7.759   4.090   6.691  1.7666  1.2815 -0.3859
11890TIP3   OH235612   5.957   4.887   1.304 -0.0533  0.2185  0.2910
11890TIP3    H135613   6.008   4.837   1.240  1.4540 -0.8148  2.2099
11890TIP3    H235614   6.013   4.961   1.328 -0.9033  1.0002 -0.0796
11891TIP3   OH235615   5.202   2.926   0.594  0.2505  0.6925  0.7920
11891TIP3    H135616   5.268   2.982   0.551  1.2542  0.0537  1.4482
11891TIP3    H235617   5.200   2.846   0.541  0.2022  0.6025  0.9295
11892TIP3   OH235618   6.233   3.794   4.077 -0.5788 -0.0177 -0.1709
11892TIP3    H135619   6.207   3.791   3.985 -1.4299 -0.6828  0.0861
11892TIP3    H235620   6.239   3.703   4.104  0.4337  0.1538  0.2327
11893TIP3   OH235621   3.807   7.258   2.930 -0.2352 -0.1670  0.4386
11893TIP3    H135622   3.812   7.326   2.997  0.4748 -0.7961  1.0463
11893TIP3    H235623   3.721   7.218   2.942 -1.7368  2.1862 -1.5289
11894TIP3   OH235624   1.423   4.582   0.901  0.5435  0.0551 -0.4446
11894TIP3    H135625   1.367   4.508   0.925  1.8315 -0.6333  0.5392
11894TIP3    H235626   1.373   4.628   0.834 -1.8530  0.2988  1.3620
11895TIP3   OH235627   7.610   2.314   2.533 -0.4188 -0.6419  0.3714
11895TIP3    H135628   7.662   2.302   2.613 -0.9069 -1.8746  0.5325
11895TIP3    H235629   7.519   2.306   2.563 -0.8355  2.6407  0.2979
11896TIP3   OH235630   3.216   5.826   3.192 -0.1870 -0.4242 -0.2733
11896TIP3    H135631   3.167   5.774   3.256 -0.3315  0.4495  0.3485
11896TIP3    H235632   3.300   5.781   3.184 -0.2993 -0.7432  0.2723
11897TIP3   OH235633   6.069   5.302   0.880 -0.1848 -0.9017  0.1999
11897TIP3    H135634   6.072   5.326   0.787  1.1679  0.3880  0.5429
11897TIP3    H235635   6.014   5.369   0.920  1.4463  0.1595  0.7408
11898TIP3   OH235636   6.397   2.984   4.029 -0.7099  0.3047  0.2694
11898TIP3    H135637   6.448   2.938   3.963 -1.0065 -0.5602  0.6319
11898TIP3    H235638   6.348   3.050   3.979  0.3281  0.7906 -0.1474
11899TIP3   OH235639   7.395   0.940   4.116 -0.3028  0.1025 -0.7012
11899TIP3    H135640   7.409   1.034   4.124  1.6600 -0.2071 -0.0308
11899TIP3    H235641   7.339   0.918   4.190  0.7686  0.4768  0.2422
11900TIP3   OH235642   7.939   2.293   0.459 -0.5371 -0.1339  0.0060
11900TIP3    H135643   7.877   2.228   0.425 -0.6440 -0.7536  1.3207
11900TIP3    H235644   7.890   2.375   0.460 -0.2993  0.0712 -1.9748
11901TIP3   OH235645   6.990   6.379   2.575  0.2401  0.1146  0.2091
11901TIP3    H135646   6.981   6.313   2.645  0.0107 -0.7457 -0.6127
11901TIP3    H235647   6.901   6.406   2.556  0.2043 -0.5285 -0.5635
11902TIP3   OH235648   2.788   7.738   4.784 -0.1844  0.2839  0.1352
11902TIP3    H135649   2.767   7.749   4.876  1.4231 -0.0551  0.5604
11902TIP3    H235650   2.818   7.824   4.755 -0.8747  0.4411 -0.1381
11903TIP3   OH235651   7.709   1.028   3.356  0.1180  0.3388 -0.3236
11903TIP3    H135652   7.689   0.983   3.437 -1.4619  0.3263 -0.6862
11903TIP3    H235653   7.715   1.121   3.380  1.7008  0.1469  0.1304
11904TIP3   OH235654   1.003   1.300   2.925  0.1904  0.4863  0.0223
11904TIP3    H135655   1.075   1.342   2.878  0.4627 -0.5665 -0.5273
11904TIP3    H235656   0.933   1.365   2.925 -0.1732  0.2021 -2.6887
11905TIP3   OH235657   0.702   6.932   0.429 -0.8949  0.3645  0.1153
11905TIP3    H135658   0.727   7.025   0.423 -1.7415  0.5287 -1.3637
11905TIP3    H235659   0.712   6.911   0.522 -0.6298  1.9210  0.4773
11906TIP3   OH235660   2.379   3.026   3.235  0.7263 -0.0824  0.1841
11906TIP3    H135661   2.355   3.106   3.280  0.0806  0.2762 -0.7690
11906TIP3    H235662   2.323   3.024   3.157  0.7808 -1.4221  0.1603
11907TIP3   OH235663   0.455   1.161   0.126 -0.7084  0.0089 -0.3032
11907TIP3    H135664   0.406   1.226   0.075 -0.5211  0.0928 -0.3811
11907TIP3    H235665   0.544   1.197   0.129 -0.5805 -0.2932 -0.4287
11908TIP3   OH235666   4.549   6.093   2.242  0.1041 -0.0221  0.4989
11908TIP3    H135667   4.621   6.035   2.268  1.2798  0.5877 -1.2247
11908TIP3    H235668   4.501   6.043   2.176 -0.2406  0.1108  0.6455
11909TIP3   OH235669   2.812   7.672   5.833 -0.2391  0.0864 -0.2817
11909TIP3    H135670   2.908   7.670   5.830 -0.2588  0.0365 -1.1127
11909TIP3    H235671   2.789   7.613   5.905  0.3987  1.4506  1.1041
11910TIP3   OH235672   4.380   0.561   5.568  0.7954  0.2186 -0.2211
11910TIP3    H135673   4.418   0.489   5.617  1.9475 -0.0669 -1.4674
11910TIP3    H235674   4.436   0.636   5.587  0.3424  0.4811  0.0930
11911TIP3   OH235675   4.303   2.295   2.298  0.3475  0.2755 -0.5228
11911TIP3    H135676   4.303   2.202   2.321 -1.3825  0.7163  1.6691
11911TIP3    H235677   4.223   2.308   2.249  0.7413  0.5771 -1.0977
11912TIP3   OH235678   3.972   5.326   0.243  0.2269 -0.0350 -0.7321
11912TIP3    H135679   3.904   5.390   0.263 -0.8828 -1.5460  0.6006
11912TIP3    H235680   3.950   5.294   0.156 -1.3192 -1.0817 -0.0038
11913TIP3   OH235681   1.676   6.692   3.163 -0.4198 -0.2108 -0.0319
11913TIP3    H135682   1.737   6.715   3.094 -0.4947 -0.6982 -0.2728
11913TIP3    H235683   1.674   6.767   3.222  0.5778 -0.2839  0.1018
11914TIP3   OH235684   8.085   2.414   5.203 -0.3906  0.3319 -0.0777
11914TIP3    H135685   8.059   2.501   5.232 -2.1720 -0.6782  1.6205
11914TIP3    H235686   8.053   2.407   5.114 -1.5245  0.9253  0.2672
11915TIP3   OH235687   4.077   6.264   4.263 -0.1887 -0.1318 -0.1598
11915TIP3    H135688   4.028   6.329   4.212  0.2390  0.9669  0.7554
11915TIP3    H235689   4.018   6.189   4.269 -1.9322  1.2186  1.0966
11916TIP3   OH235690   0.759   0.949   5.072 -0.0105  0.0567  0.0699
11916TIP3    H135691   0.783   0.928   5.162  2.3022  0.1205 -0.4918
11916TIP3    H235692   0.685   1.010   5.081  0.1139 -0.0105  1.9073
11917TIP3   OH235693   1.693   3.999   3.140  0.0903 -0.6869  1.3823
11917TIP3    H135694   1.603   3.971   3.126 -0.3186  1.7563 -2.3203
11917TIP3    H235695   1.685   4.086   3.180  0.8432 -0.7392  1.6683
11918TIP3   OH235696   7.587   2.363   4.763  0.1318 -0.1083  0.6022
11918TIP3    H135697   7.503   2.333   4.728 -0.5706  0.2318  1.9325
11918TIP3    H235698   7.639   2.283   4.773 -0.2052 -0.3785  0.2405
11919TIP3   OH235699   1.813   6.940   6.733 -0.1891 -0.1235  0.0398
11919TIP3    H135700   1.734   6.899   6.768 -0.9428  1.2368 -0.0042
11919TIP3    H235701   1.883   6.880   6.757 -1.2657 -1.5334 -0.2128
11920TIP3   OH235702   3.991   2.916   1.335  0.1543  0.2090 -0.0302
11920TIP3    H135703   3.991   3.011   1.318 -1.3517  0.3919  0.8210
11920TIP3    H235704   4.040   2.879   1.262 -0.0414  1.5614 -0.8915
11921TIP3   OH235705   3.512   2.979   4.477  0.1740  0.6778  0.2114
11921TIP3    H135706   3.542   2.990   4.567 -0.1494 -0.1698  0.4373
11921TIP3    H235707   3.592   2.985   4.424  0.7178 -1.0473  0.7625
11922TIP3   OH235708   5.212   6.083   0.010 -0.1763 -0.2630  0.5089
11922TIP3    H135709   5.196   6.157  -0.048 -0.6874  0.2251  1.2551
11922TIP3    H235710   5.297   6.101   0.050  1.0554 -1.4981 -1.4044
11923TIP3   OH235711   1.627   3.739   1.608 -0.2229  0.1812  0.0414
11923TIP3    H135712   1.545   3.787   1.604  0.4001  1.4039  1.2808
11923TIP3    H235713   1.625   3.682   1.531 -1.0727  2.0463 -1.3989
11924TIP3   OH235714   0.642   1.341   4.058  0.0141  1.2526  0.0800
11924TIP3    H135715   0.659   1.319   3.966 -0.6645  3.1462 -0.5524
11924TIP3    H235716   0.587   1.270   4.090 -0.4278  0.9689 -1.2454
11925TIP3   OH235717   6.934   2.681   5.090  0.4012 -0.1772  0.0707
11925TIP3    H135718   7.020   2.645   5.066 -0.1749 -0.0719 -2.5076
11925TIP3    H235719   6.893   2.613   5.143  1.6148 -0.7545  0.2904
11926TIP3   OH235720   6.237   0.956   0.529  0.3156 -0.3380  0.9045
11926TIP3    H135721   6.209   0.940   0.439  2.7821  0.9238 -0.1952
11926TIP3    H235722   6.291   0.881   0.551  0.8873  0.0244  0.7671
11927TIP3   OH235723   0.691   0.439   2.538  0.8369 -0.1965  0.1693
11927TIP3    H135724   0.691   0.365   2.478  0.6861  0.2252 -0.3561
11927TIP3    H235725   0.717   0.401   2.622 -1.6931 -1.3456  0.5321
11928TIP3   OH235726   7.906   4.459   5.435 -0.1651 -0.4645  0.2418
11928TIP3    H135727   7.994   4.464   5.399 -0.1552  4.0538  0.3296
11928TIP3    H235728   7.848   4.477   5.361 -0.5928  1.4388  0.9628
11929TIP3   OH235729   3.385   4.606   4.630 -0.4231 -0.5507 -0.3966
11929TIP3    H135730   3.376   4.595   4.535 -1.0496  1.1679 -0.5697
11929TIP3    H235731   3.306   4.653   4.656  1.6795  3.0288  0.2243
11930TIP3   OH235732   4.161   1.542   2.170  0.7869  0.0941  0.7063
11930TIP3    H135733   4.084   1.579   2.213 -1.9666 -3.0774 -0.9742
11930TIP3    H235734   4.142   1.550   2.076  1.7986 -1.9654  0.2532
11931TIP3   OH235735   8.036   0.313   2.117  0.7160 -0.2572  0.2348
11931TIP3    H135736   7.980   0.242   2.149 -0.9602  0.6744 -0.5415
11931TIP3    H235737   8.004   0.332   2.029  1.9815  0.6121 -0.0673
11932TIP3   OH235738   0.861   5.806   5.591 -0.0053 -0.5825  0.0082
11932TIP3    H135739   0.870   5.894   5.556  0.4968  0.4484  2.4903
11932TIP3    H235740   0.767   5.798   5.611  0.0180 -0.4374  0.1783
11933TIP3   OH235741   4.370   0.517   1.886 -0.5785 -0.3634  0.3735
11933TIP3    H135742   4.300   0.452   1.881 -1.1714  0.2280  0.7630
11933TIP3    H235743   4.332   0.597   1.850  0.0877 -0.1785  0.0504
11934TIP3   OH235744   5.195   0.356   5.162  0.9265  0.2226  0.2297
11934TIP3    H135745   5.152   0.300   5.226 -0.2336 -1.3614 -1.7873
11934TIP3    H235746   5.288   0.350   5.182  0.8652 -2.5860  0.0391
11935TIP3   OH235747   7.057   3.212   0.612 -0.3767  0.1094  0.1196
11935TIP3    H135748   7.018   3.277   0.553 -0.2353 -1.7828 -2.2152
11935TIP3    H235749   7.139   3.187   0.569  0.4082 -0.4099  1.8362
11936TIP3   OH235750   4.178   5.608   1.794  0.0070  0.2276  0.0039
11936TIP3    H135751   4.113   5.666   1.755  1.8311  1.2979 -1.5955
11936TIP3    H235752   4.150   5.520   1.767 -0.6280  0.6847 -0.8994
11937TIP3   OH235753   5.643   7.130   4.958 -0.1960 -0.2561 -0.5263
11937TIP3    H135754   5.547   7.134   4.958 -0.1742  1.2655  0.7307
11937TIP3    H235755   5.665   7.101   5.046  0.5072  2.9927  0.5064
11938TIP3   OH235756   3.232   1.309   4.472 -0.2148  0.6562  0.1477
11938TIP3    H135757   3.150   1.343   4.506 -1.1589  0.2340 -1.5770
11938TIP3    H235758   3.255   1.369   4.400  0.8877  0.6649  0.4920
11939TIP3   OH235759   1.226   2.974   3.931  0.2311 -0.0872  0.0763
11939TIP3    H135760   1.204   2.928   3.850 -2.5967 -0.7484  1.1003
11939TIP3    H235761   1.306   3.022   3.910  1.0553 -2.2482 -2.2806
11940TIP3   OH235762   6.971   2.297   6.682  0.3528 -0.1233  0.2165
11940TIP3    H135763   7.024   2.373   6.709 -0.6867  0.8192 -0.3160
11940TIP3    H235764   7.029   2.222   6.694  1.5221  0.7880  0.4529
11941TIP3   OH235765   0.482   5.550   1.657 -0.4455 -0.1084 -0.4201
11941TIP3    H135766   0.394   5.579   1.679 -0.6668 -1.1223  0.0643
11941TIP3    H235767   0.479   5.534   1.562 -0.4378  0.9656 -0.6243
11942TIP3   OH235768   1.370   6.908   5.935  0.1370  0.6451 -0.1000
11942TIP3    H135769   1.369   6.934   6.027 -0.4993 -0.6627  0.2855
11942TIP3    H235770   1.453   6.861   5.924 -0.2842 -0.1612  0.1016
11943TIP3   OH235771   0.854   0.135   4.240 -0.0712 -0.1948 -0.4579
11943TIP3    H135772   0.912   0.085   4.297 -1.5773 -1.0399  0.4002
11943TIP3    H235773   0.880   0.111   4.151  2.0465  0.8271 -0.1694
11944TIP3   OH235774   4.682   0.536   1.821  0.3574 -0.0295 -0.2146
11944TIP3    H135775   4.672   0.518   1.728 -0.0661 -1.3001  0.0531
11944TIP3    H235776   4.769   0.574   1.829 -0.1450  1.4141 -1.2948
11945TIP3   OH235777   6.650   0.275   5.595 -0.1673  0.4822  0.1377
11945TIP3    H135778   6.698   0.321   5.526  0.2712 -0.5816 -0.2968
11945TIP3    H235779   6.589   0.340   5.629  0.5232  1.4155 -0.3520
11946TIP3   OH235780   0.256   6.662   5.981 -0.1216 -0.3441  0.7107
11946TIP3    H135781   0.306   6.716   5.921 -1.8150  0.2617 -0.2409
11946TIP3    H235782   0.303   6.579   5.986  0.7003  0.0404 -0.4864
11947TIP3   OH235783   8.178   6.895   2.970  0.2271  0.2070  0.1687
11947TIP3    H135784   8.091   6.856   2.975  0.4467 -0.4838 -0.9126
11947TIP3    H235785   8.170   6.979   3.016 -0.7246 -0.3084  0.9747
11948TIP3   OH235786   2.580   2.233   2.854  0.6959 -0.2979 -0.3089
11948TIP3    H135787   2.485   2.234   2.858  0.6393 -1.6163 -0.7158
11948TIP3    H235788   2.605   2.148   2.890  1.7451  0.2014  0.1910
11949TIP3   OH235789   7.845   6.654   1.438  0.3746  0.0630  0.2470
11949TIP3    H135790   7.927   6.607   1.453  1.9841  2.1067 -1.5501
11949TIP3    H235791   7.844   6.723   1.504  0.4993  0.4814 -0.1777
11950TIP3   OH235792   6.613   0.769   1.403  0.0845  0.0390  0.2620
11950TIP3    H135793   6.678   0.834   1.428 -0.5533  1.3783 -1.3311
11950TIP3    H235794   6.548   0.771   1.474  0.4305  0.6342  0.5653
11951TIP3   OH235795   0.387   2.385   4.155  0.0246 -0.6730 -0.0412
11951TIP3    H135796   0.451   2.445   4.116  0.7737 -1.7895 -0.5837
11951TIP3    H235797   0.364   2.325   4.084 -1.1286 -0.7041  0.3420
11952TIP3   OH235798   3.273   7.291   4.003 -0.0840 -0.0671  0.8253
11952TIP3    H135799   3.345   7.353   3.990  0.0011 -0.1888  0.7077
11952TIP3    H235800   3.298   7.243   4.082  0.5642 -0.9236  0.1291
11953TIP3   OH235801   4.091   0.557   1.508  0.3524  0.2408  0.1772
11953TIP3    H135802   4.085   0.465   1.484 -0.8586  0.3113  0.1130
11953TIP3    H235803   4.184   0.573   1.522  0.8721 -0.4320 -2.0413
11954TIP3   OH235804   2.061   6.419   0.298 -0.2494 -1.2050  0.0179
11954TIP3    H135805   2.007   6.447   0.372 -1.2754 -0.3069 -1.0216
11954TIP3    H235806   2.132   6.483   0.295 -1.0640 -0.3013 -0.6801
11955TIP3   OH235807   0.323   3.506   5.786  0.0500 -0.0217  0.0935
11955TIP3    H135808   0.363   3.543   5.707 -0.2104  3.5562  1.4389
11955TIP3    H235809   0.271   3.578   5.822 -3.3272 -2.7919  1.3247
11956TIP3   OH235810   3.259   6.863   1.036 -0.3687 -0.2155  0.1325
11956TIP3    H135811   3.252   6.825   0.948  0.3730 -1.4844  0.6059
11956TIP3    H235812   3.300   6.949   1.022 -1.2215  0.0462 -0.8558
11957TIP3   OH235813   1.299   2.587   0.292  0.0868 -0.0464 -0.0568
11957TIP3    H135814   1.294   2.682   0.277  1.6398  0.1994  0.8020
11957TIP3    H235815   1.210   2.556   0.276 -0.5786  1.6277  0.1477
11958TIP3   OH235816   3.077   7.232   5.149 -0.1138 -1.3566  0.3844
11958TIP3    H135817   3.059   7.321   5.117 -1.1567 -1.8707 -0.5337
11958TIP3    H235818   3.060   7.176   5.073 -2.6077 -2.6376  1.7519
11959TIP3   OH235819   6.260   6.075   4.587  0.0553  0.1193 -0.3089
11959TIP3    H135820   6.200   6.024   4.642  1.3477 -2.1533 -0.8777
11959TIP3    H235821   6.328   6.106   4.647  1.6870 -2.6989 -0.5067
11960TIP3   OH235822   3.317   7.632   0.923  0.6380 -0.3686  0.0243
11960TIP3    H135823   3.389   7.673   0.874 -0.8963  0.1546 -1.9398
11960TIP3    H235824   3.321   7.672   1.010  0.4393  2.5696 -1.1940
11961TIP3   OH235825   5.133   6.274   0.337 -0.4881  0.0506  0.3764
11961TIP3    H135826   5.106   6.204   0.278 -0.5099 -0.2427  0.7266
11961TIP3    H235827   5.222   6.250   0.363 -0.0951  0.7119 -0.3279
11962TIP3   OH235828   4.892   4.237   5.372 -0.1145 -0.0567 -0.0635
11962TIP3    H135829   4.899   4.148   5.336 -0.7409  0.2696 -1.0372
11962TIP3    H235830   4.968   4.246   5.429  0.8181 -0.6722 -1.1761
11963TIP3   OH235831   6.834   1.011   2.423  0.2617 -0.5027  0.3233
11963TIP3    H135832   6.759   0.978   2.473 -0.0344  0.4756  0.5459
11963TIP3    H235833   6.801   1.089   2.379  0.6629 -1.0775 -1.0392
11964TIP3   OH235834   7.188   2.783   1.128  0.3738 -0.3888  0.2274
11964TIP3    H135835   7.252   2.843   1.166  0.8444 -1.5379  1.3010
11964TIP3    H235836   7.226   2.696   1.140 -0.9558 -1.0215  0.0285
11965TIP3   OH235837   1.079   4.899   2.269 -0.6962  0.1766 -0.1991
11965TIP3    H135838   0.985   4.892   2.254 -0.9211  1.9056  0.2178
11965TIP3    H235839   1.107   4.973   2.214  0.5928 -0.8582 -0.9994
11966TIP3   OH235840   1.565   0.742   1.386 -0.1644 -0.1893 -0.2281
11966TIP3    H135841   1.655   0.773   1.390 -0.6302  1.4974 -1.8050
11966TIP3    H235842   1.520   0.789   1.456 -0.1528  0.1152 -0.4277
11967TIP3   OH235843   2.735   5.587   6.417  0.1354  0.3480  0.4137
11967TIP3    H135844   2.763   5.620   6.331  1.3052  0.6843  0.8986
11967TIP3    H235845   2.739   5.664   6.474 -2.0165  0.4527  0.4917
11968TIP3   OH235846   3.139   2.740   4.797 -0.3472  0.1127 -0.3477
11968TIP3    H135847   3.189   2.676   4.847 -2.7799 -0.6089  1.3179
11968TIP3    H235848   3.120   2.810   4.860  0.6877  1.6258 -1.6413
11969TIP3   OH235849   4.943   2.972   2.714 -0.2379 -0.2048  0.1092
11969TIP3    H135850   4.889   2.966   2.793 -0.0400  0.6047  0.3215
11969TIP3    H235851   4.898   2.918   2.649  0.2065 -1.8345  1.1099
11970TIP3   OH235852   6.875   6.239   3.014  0.1910 -0.1284 -0.1738
11970TIP3    H135853   6.957   6.287   3.003 -0.6104  1.4982  0.6387
11970TIP3    H235854   6.902   6.147   3.015  1.9899  0.3510  0.0058
11971TIP3   OH235855   5.025   2.476   1.838  0.3173 -0.1392  0.1200
11971TIP3    H135856   5.108   2.497   1.794 -0.7947  0.5907 -1.7336
11971TIP3    H235857   5.036   2.512   1.926  1.9966 -0.1591 -0.0318
11972TIP3   OH235858   3.445   0.455   6.646 -0.0146 -0.1984  0.0705
11972TIP3    H135859   3.507   0.382   6.648 -0.3214 -0.6224 -2.5186
11972TIP3    H235860   3.500   0.533   6.638  0.2772 -0.1624  1.9368
11973TIP3   OH235861   7.052   4.829   0.983  0.0354 -0.3611 -0.2792
11973TIP3    H135862   7.013   4.773   1.050  1.0238  0.1554  0.7690
11973TIP3    H235863   7.007   4.805   0.902 -0.3840 -1.8221  0.3495
11974TIP3   OH235864   3.043   7.489   0.211  0.7339  0.0825 -0.0745
11974TIP3    H135865   3.038   7.453   0.123  2.2005 -0.6546  0.1129
11974TIP3    H235866   2.977   7.441   0.261  0.3586  0.0412 -0.6030
11975TIP3   OH235867   7.093   6.759   6.481  0.2917 -0.2476  0.1125
11975TIP3    H135868   7.096   6.820   6.407  0.9831  1.1210  1.2245
11975TIP3    H235869   7.003   6.762   6.512  0.1578 -0.3312 -0.2702
11976TIP3   OH235870   0.168   0.841   3.360 -0.2811 -0.6543 -1.2503
11976TIP3    H135871   0.132   0.919   3.317  1.6358 -0.0885 -1.9493
11976TIP3    H235872   0.211   0.793   3.290 -1.2628 -2.2649 -0.7810
11977TIP3   OH235873   3.265   4.991   3.846  0.6555 -0.6404  0.3766
11977TIP3    H135874   3.279   5.080   3.880  0.8915 -0.7787  0.6435
11977TIP3    H235875   3.353   4.961   3.822  0.5720 -0.7911  0.2611
11978TIP3   OH235876   6.172   6.448   5.916  0.4259  0.1068  0.1418
11978TIP3    H135877   6.108   6.509   5.879  0.5225  0.9539  1.3175
11978TIP3    H235878   6.191   6.388   5.844 -1.3780  0.0760 -0.3648
11979TIP3   OH235879   0.445   5.890   6.465  0.6317 -0.2054  0.0199
11979TIP3    H135880   0.462   5.984   6.463 -1.9478  0.3462 -0.0257
11979TIP3    H235881   0.486   5.856   6.385 -0.4691  1.3435 -1.2720
11980TIP3   OH235882   8.127   1.868   5.737  0.0353 -0.2347  0.2741
11980TIP3    H135883   8.120   1.774   5.718 -0.3720  0.0995 -1.4664
11980TIP3    H235884   8.215   1.892   5.709 -0.8251  0.4163 -2.1804
11981TIP3   OH235885   2.913   1.085   3.620 -0.4345  0.4992 -0.3554
11981TIP3    H135886   2.996   1.037   3.608 -1.0789 -1.2154  1.4557
11981TIP3    H235887   2.915   1.114   3.711 -2.6973 -1.5482  0.4728
11982TIP3   OH235888   3.440   1.975   6.263 -0.3179  0.4661 -0.0905
11982TIP3    H135889   3.496   1.957   6.188 -0.3430 -3.2077  0.5929
11982TIP3    H235890   3.495   2.027   6.322  2.2253 -2.3240  0.1984
11983TIP3   OH235891   5.151   2.332   2.188  0.0157 -0.0480 -0.3342
11983TIP3    H135892   5.138   2.293   2.102 -1.5358  2.2680 -1.2545
11983TIP3    H235893   5.245   2.346   2.194  0.6425 -3.4172 -0.0508
11984TIP3   OH235894   0.963   5.632   1.897  0.2951 -0.0355  0.1504
11984TIP3    H135895   0.868   5.637   1.884  0.2343  0.3047  0.6926
11984TIP3    H235896   0.984   5.707   1.952  1.0284  0.4253 -0.7357
11985TIP3   OH235897   4.472   4.379   0.500  0.4209  0.1696  0.4126
11985TIP3    H135898   4.402   4.338   0.551  2.8411 -3.3264  1.3492
11985TIP3    H235899   4.507   4.447   0.558  0.5314 -1.0164  1.7971
11986TIP3   OH235900   7.363   3.886   2.272 -0.4598  0.0686 -0.3548
11986TIP3    H135901   7.375   3.807   2.219  0.3062  0.1749 -0.3371
11986TIP3    H235902   7.339   3.954   2.210  0.7321  0.2648 -0.6041
11987TIP3   OH235903   3.371   0.933   0.267  0.3676 -0.0845 -0.7401
11987TIP3    H135904   3.447   0.875   0.270 -0.3988 -1.0928  0.0124
11987TIP3    H235905   3.406   1.017   0.239  2.0306 -0.1273  1.0224
11988TIP3   OH235906   3.617   1.744   0.809  0.3581 -0.3692 -0.0871
11988TIP3    H135907   3.551   1.814   0.808  2.0182  1.2749 -0.5916
11988TIP3    H235908   3.569   1.666   0.837 -2.2606  0.2324 -2.4709
11989TIP3   OH235909   1.751   0.983   1.162  0.4467 -0.3848 -0.4104
11989TIP3    H135910   1.753   0.962   1.256 -0.0745 -1.0478 -0.5360
11989TIP3    H235911   1.829   0.940   1.127  0.9329  0.3078 -0.2039
11990TIP3   OH235912   6.192   4.859   2.975  0.2526 -0.0371 -0.6197
11990TIP3    H135913   6.250   4.864   3.051 -1.2268 -1.5601  0.6724
11990TIP3    H235914   6.207   4.941   2.929  1.3236  0.8746  1.2254
11991TIP3   OH235915   1.978   6.881   3.385  0.0701  0.0774 -0.3660
11991TIP3    H135916   1.974   6.841   3.298 -0.0153  1.2723 -0.9292
11991TIP3    H235917   1.938   6.816   3.442  0.6565 -0.9817 -1.1142
11992TIP3   OH235918   7.345   3.454   2.978  0.5512 -0.0103 -0.3397
11992TIP3    H135919   7.271   3.510   3.002 -1.3509 -2.3429 -0.4870
11992TIP3    H235920   7.421   3.497   3.019 -1.0375  1.7212  0.9716
11993TIP3   OH235921   4.924   4.312   0.963  0.2918 -0.1184  0.2117
11993TIP3    H135922   4.936   4.369   1.039 -0.4289 -0.4346  0.5793
11993TIP3    H235923   4.829   4.294   0.961  0.5147 -1.4161  0.2082
11994TIP3   OH235924   6.567   4.596   5.784 -0.3146 -0.4089 -0.9407
11994TIP3    H135925   6.627   4.667   5.761 -1.4639  1.1729  0.6606
11994TIP3    H235926   6.522   4.575   5.702  1.2419 -0.4980 -1.8035
11995TIP3   OH235927   0.683   5.864   2.640 -0.0343 -0.0669  0.5340
11995TIP3    H135928   0.662   5.879   2.548 -2.0841  1.0498  1.1183
11995TIP3    H235929   0.760   5.918   2.657 -0.8561  1.3341 -0.0569
11996TIP3   OH235930   1.810   6.169   3.763 -0.5243  0.5696  0.6287
11996TIP3    H135931   1.885   6.208   3.808  0.4891  1.3319 -1.5517
11996TIP3    H235932   1.813   6.207   3.675 -0.8800 -2.6652 -0.9205
11997TIP3   OH235933   2.433   5.450   5.953  0.0116 -0.1205 -0.3697
11997TIP3    H135934   2.381   5.464   6.032  1.3164  4.6542 -0.0327
11997TIP3    H235935   2.518   5.420   5.985  0.1048  0.4561 -0.0622
11998TIP3   OH235936   0.462   5.379   1.036 -0.6384 -0.5054 -0.4238
11998TIP3    H135937   0.373   5.384   1.071 -1.0539  0.0486 -1.5048
11998TIP3    H235938   0.468   5.290   0.999 -0.4570 -0.8236  0.3495
11999TIP3   OH235939   4.038   1.939   5.661  0.6087  0.9087  0.7164
11999TIP3    H135940   4.054   1.855   5.617  0.9238  1.1616  0.3384
11999TIP3    H235941   3.965   1.922   5.720  0.1109  0.5863  0.0211
12000TIP3   OH235942   3.372   5.429   5.480 -0.1607 -0.2863  0.0585
12000TIP3    H135943   3.389   5.521   5.497  0.8049 -0.6475  1.1429
12000TIP3    H235944   3.401   5.415   5.390  0.9529  0.1735  0.3349
12001TIP3   OH235945   3.143   0.409   1.046  0.0975  0.5137  0.5148
12001TIP3    H135946   3.049   0.429   1.046  0.1163  1.0094 -2.1251
12001TIP3    H235947   3.174   0.445   0.963  2.4054 -0.7028  0.7952
12002TIP3   OH235948   5.416   7.656   6.194  0.1575  0.1478 -0.1512
12002TIP3    H135949   5.422   7.588   6.260  3.0689  0.0152 -0.4352
12002TIP3    H235950   5.452   7.616   6.115  1.8010  1.8741 -0.3561
12003TIP3   OH235951   3.360   2.725   2.678  0.0080 -0.4188  0.4811
12003TIP3    H135952   3.327   2.805   2.637 -0.3566 -0.5676  0.4867
12003TIP3    H235953   3.296   2.703   2.745  0.0998 -0.7201  0.4735
12004TIP3   OH235954   6.453   7.420   2.910  0.2965 -0.8992  0.5408
12004TIP3    H135955   6.453   7.327   2.887  1.5257 -0.3592 -1.9168
12004TIP3    H235956   6.402   7.462   2.842 -0.4374  0.2498  1.7452
12005TIP3   OH235957   2.997   6.185   2.205 -0.6305  0.5552 -0.2035
12005TIP3    H135958   3.049   6.107   2.186 -1.1822 -0.0439  0.6517
12005TIP3    H235959   2.986   6.228   2.121  2.1701  1.3106 -0.2896
12006TIP3   OH235960   7.048   1.704   1.491 -0.3234  0.2774 -0.4773
12006TIP3    H135961   7.090   1.783   1.456 -0.1129  0.1011 -0.6322
12006TIP3    H235962   6.976   1.687   1.430  0.3439 -0.3107 -1.1274
12007TIP3   OH235963   1.274   3.813   2.633 -0.2642 -0.1542  0.2028
12007TIP3    H135964   1.275   3.845   2.543  0.8628  1.6481  0.8222
12007TIP3    H235965   1.190   3.844   2.668 -0.9197 -1.2629 -0.3321
12008TIP3   OH235966   5.120   5.304   4.550  0.3418 -0.3393 -0.0982
12008TIP3    H135967   5.089   5.274   4.464  0.5106  2.0801 -1.0765
12008TIP3    H235968   5.050   5.281   4.611 -1.3598  0.9525 -1.4883
12009TIP3   OH235969   4.665   6.172   6.129 -0.5958  0.4019  0.9132
12009TIP3    H135970   4.572   6.163   6.110 -0.3830  1.2194 -0.6850
12009TIP3    H235971   4.669   6.234   6.201 -1.2300  1.8286 -0.2413
12010TIP3   OH235972   4.880   1.428   3.787 -0.8210 -0.3797 -0.7630
12010TIP3    H135973   4.885   1.363   3.716 -0.3271 -0.5804 -0.5511
12010TIP3    H235974   4.852   1.508   3.743  1.6764  0.1148 -1.6500
12011TIP3   OH235975   7.524   4.118   6.459  0.0818 -0.2320 -0.3759
12011TIP3    H135976   7.583   4.087   6.528 -0.4058 -1.2235 -0.3838
12011TIP3    H235977   7.572   4.102   6.377  0.3916  0.3321 -0.3086
12012TIP3   OH235978   3.214   1.210   6.712  0.0789  0.2683  0.1257
12012TIP3    H135979   3.161   1.276   6.667 -1.1214 -1.4304 -1.0865
12012TIP3    H235980   3.150   1.143   6.739  1.2009 -0.2520  1.6345
12013TIP3   OH235981   8.176   6.815   5.678  0.2336  0.5725  0.8367
12013TIP3    H135982   8.270   6.824   5.692  0.4736 -0.3183 -0.0198
12013TIP3    H235983   8.158   6.867   5.600  0.0334  0.6780  0.9526
12014TIP3   OH235984   6.728   6.810   3.359  1.5037 -0.0068 -0.0856
12014TIP3    H135985   6.735   6.743   3.427 -1.4632  1.5729  2.0094
12014TIP3    H235986   6.671   6.770   3.293  0.8860 -0.1122  0.4853
12015TIP3   OH235987   5.979   5.984   5.215 -0.3130 -0.3288 -0.2795
12015TIP3    H135988   5.884   5.976   5.222 -0.2689  0.1582  1.2498
12015TIP3    H235989   6.010   5.894   5.203 -0.9475 -0.4975 -0.7101
12016TIP3   OH235990   5.626   3.761   3.145  0.3143 -0.4000  1.0988
12016TIP3    H135991   5.714   3.740   3.114  0.1017  1.3149 -0.9194
12016TIP3    H235992   5.638   3.779   3.238  2.2416  0.2732  0.7840
12017TIP3   OH235993   2.004   2.747   2.612  0.2566  0.4286 -0.0923
12017TIP3    H135994   1.947   2.681   2.574 -0.2991  0.8532  0.0045
12017TIP3    H235995   1.977   2.753   2.704 -1.2950  2.4612 -0.6185
12018TIP3   OH235996   1.499   6.672   5.515 -0.0004  0.7392  0.5520
12018TIP3    H135997   1.451   6.628   5.445  1.3279  0.9970 -0.5537
12018TIP3    H235998   1.502   6.608   5.586 -0.0515 -0.0951 -0.1915
12019TIP3   OH235999   4.991   1.567   4.598 -0.1072 -0.3534 -0.1275
12019TIP3    H136000   5.068   1.513   4.619  0.3201  0.5929  0.8489
12019TIP3    H236001   5.004   1.591   4.507  1.1446  0.3691  0.2163
12020TIP3   OH236002   0.280   5.585   2.087  0.0446  0.1792  0.2708
12020TIP3    H136003   0.219   5.535   2.141  0.5594 -1.2422 -0.3959
12020TIP3    H236004   0.227   5.617   2.014 -0.3370  0.7920  0.8145
12021TIP3   OH236005   8.086   3.666   3.120  0.0443 -0.3014 -0.3286
12021TIP3    H136006   8.143   3.591   3.137  0.7603  0.2818 -0.1080
12021TIP3    H236007   8.145   3.741   3.121 -0.3161  0.0752 -2.6604
12022TIP3   OH236008   2.496   0.840   4.801 -0.4988 -0.3478  0.2799
12022TIP3    H136009   2.552   0.901   4.753  0.4764 -1.0896  0.4299
12022TIP3    H236010   2.416   0.835   4.750  0.3121 -0.7134 -1.0097
12023TIP3   OH236011   6.319   1.721   4.372  0.6760  0.3614  0.2476
12023TIP3    H136012   6.276   1.666   4.306  2.1258  1.6127 -1.8761
12023TIP3    H236013   6.258   1.793   4.387  1.3832  1.5124 -1.8825
12024TIP3   OH236014   0.881   0.772   1.947  0.7099  0.4585 -0.3336
12024TIP3    H136015   0.884   0.677   1.956 -0.3619  0.4282 -0.1302
12024TIP3    H236016   0.791   0.795   1.970  1.1013  1.5776  0.1409
12025TIP3   OH236017   4.989   3.965   3.556 -0.0314 -0.1550 -0.2217
12025TIP3    H136018   4.932   4.017   3.613  0.7493 -0.3162  0.7547
12025TIP3    H236019   5.059   4.026   3.531 -0.8645  0.1937 -1.8358
12026TIP3   OH236020   2.820   3.904   4.839  0.6545  0.1581 -0.6138
12026TIP3    H136021   2.812   3.921   4.745 -0.0072  0.7309 -0.4587
12026TIP3    H236022   2.861   3.983   4.874 -0.6917  0.6895 -0.1695
12027TIP3   OH236023   6.522   1.240   4.681  1.1362  0.1928  0.0082
12027TIP3    H136024   6.475   1.292   4.615 -0.3224 -1.0571  0.0102
12027TIP3    H236025   6.591   1.196   4.632  0.3854 -0.3259 -0.5990
12028TIP3   OH236026   0.437   4.682   1.660 -0.3114 -0.0283 -0.3849
12028TIP3    H136027   0.502   4.618   1.687 -0.7034  0.1605  1.0532
12028TIP3    H236028   0.484   4.765   1.660 -0.6483  0.1853  1.1504
12029TIP3   OH236029   5.934   1.347   5.808 -0.3997  0.0545 -0.1494
12029TIP3    H136030   6.005   1.351   5.872 -0.1403  0.3886 -0.4473
12029TIP3    H236031   5.976   1.316   5.728 -0.6110  0.1616 -0.3033
12030TIP3   OH236032   3.939   4.578   0.596 -0.3205 -0.0649  0.1114
12030TIP3    H136033   3.989   4.611   0.520  0.5139 -2.1946 -0.3286
12030TIP3    H236034   3.903   4.495   0.567 -0.5211 -0.6288  1.8621
12031TIP3   OH236035   7.815   2.815   1.985  0.5391  0.0265 -0.5013
12031TIP3    H136036   7.896   2.854   2.019  0.4527 -0.9809  0.9916
12031TIP3    H236037   7.816   2.726   2.020 -1.2700  0.0295 -0.3559
12032TIP3   OH236038   3.627   5.608   2.367 -0.3518 -0.5737  0.1542
12032TIP3    H136039   3.719   5.627   2.347 -0.0951 -0.8411  1.0232
12032TIP3    H236040   3.580   5.630   2.287  0.0564  2.5612  0.6308
12033TIP3   OH236041   6.606   3.944   1.445  1.0077 -0.1953 -0.3796
12033TIP3    H136042   6.601   4.024   1.393  0.6756 -0.2676 -0.4597
12033TIP3    H236043   6.612   3.873   1.381 -0.5884 -0.3822 -0.3702
12034TIP3   OH236044   0.066   5.480   2.170  0.8171  0.1706  0.0361
12034TIP3    H136045  -0.015   5.436   2.143  0.4334  0.9692 -0.1329
12034TIP3    H236046   0.059   5.487   2.265  1.4296 -1.1887  0.2041
12035TIP3   OH236047   6.981   2.732   2.204  0.4173  0.3563 -0.4579
12035TIP3    H136048   6.969   2.719   2.110  2.8449  1.4930 -1.0172
12035TIP3    H236049   6.909   2.789   2.230 -0.0091  0.4396 -1.7365
12036TIP3   OH236050   7.354   1.152   2.221 -0.0532 -0.4861  0.0952
12036TIP3    H136051   7.431   1.096   2.219  0.0512 -0.3255 -0.7878
12036TIP3    H236052   7.311   1.137   2.136 -1.8936 -1.8180  1.1784
12037TIP3   OH236053   6.913   6.988   0.192  0.0358 -0.1190 -0.1153
12037TIP3    H136054   6.989   6.961   0.141  1.4812  1.0182  1.2984
12037TIP3    H236055   6.910   6.926   0.265 -2.0409 -1.7632 -1.4883
12038TIP3   OH236056   7.501   7.057   1.664  0.0068  0.3355  0.6007
12038TIP3    H136057   7.508   7.036   1.571  2.9554  0.8250  0.5926
12038TIP3    H236058   7.428   7.119   1.670  1.6963  2.8514 -1.9734
12039TIP3   OH236059   0.742   4.575   3.603 -0.0037  0.0304  0.6218
12039TIP3    H136060   0.771   4.615   3.521  2.4591 -2.7747 -0.0654
12039TIP3    H236061   0.774   4.634   3.671  2.7049 -0.1435 -0.3579
12040TIP3   OH236062   2.923   6.525   6.617  0.0590 -0.1043  0.2914
12040TIP3    H136063   2.930   6.433   6.595  2.2161 -0.0579  0.5422
12040TIP3    H236064   2.965   6.533   6.703 -1.2059  0.9340  0.8624
12041TIP3   OH236065   1.529   6.034   3.241 -0.0625  0.3893  0.5808
12041TIP3    H136066   1.492   5.949   3.265  1.6974 -0.4559  0.5209
12041TIP3    H236067   1.618   6.032   3.278  0.5648  1.5487 -0.7843
12042TIP3   OH236068   0.992   3.051   5.679  0.1204 -0.0808 -0.3772
12042TIP3    H136069   0.981   2.976   5.620  2.0865 -0.9858  0.3042
12042TIP3    H236070   1.018   3.013   5.762 -0.6798  1.2910  0.5388
12043TIP3   OH236071   3.755   5.817   1.031 -0.7330  0.6904  0.5721
12043TIP3    H136072   3.680   5.865   1.064 -1.4590 -0.1931  0.2565
12043TIP3    H236073   3.796   5.877   0.968 -2.1844  0.5675 -0.5469
12044TIP3   OH236074   0.658   3.465   4.144 -0.0224  0.2439 -0.4051
12044TIP3    H136075   0.600   3.391   4.161  0.2611  0.1554  0.2470
12044TIP3    H236076   0.605   3.527   4.095  0.1235 -0.9380 -2.1395
12045TIP3   OH236077   0.901   6.894   2.753  0.3272  0.3960 -0.0576
12045TIP3    H136078   0.848   6.965   2.715  0.6456  0.6484 -0.0417
12045TIP3    H236079   0.882   6.818   2.698 -0.4929  0.3266  0.2983
12046TIP3   OH236080   5.788   3.995   0.760 -0.7013  0.6883  0.4425
12046TIP3    H136081   5.723   4.032   0.700 -0.8218  1.1600  0.8541
12046TIP3    H236082   5.829   4.071   0.801  1.2905  0.4628 -1.0060
12047TIP3   OH236083   0.936   4.720   3.809  0.0885 -0.3400 -0.2362
12047TIP3    H136084   0.995   4.761   3.745 -1.0049 -0.4613 -1.3524
12047TIP3    H236085   0.977   4.636   3.829  1.6224  0.6181  1.0054
12048TIP3   OH236086   3.866   6.014   4.275  0.0381 -0.6420  0.0352
12048TIP3    H136087   3.781   6.030   4.233 -0.0753 -1.0213  0.1131
12048TIP3    H236088   3.885   5.922   4.254  1.1327 -0.1617 -1.2536
12049TIP3   OH236089   8.069   0.170   1.373 -0.4577  0.6879 -0.5173
12049TIP3    H136090   8.152   0.218   1.376  0.5925 -0.9688 -1.6702
12049TIP3    H236091   8.082   0.104   1.305 -1.9367 -1.0532  0.8162
12050TIP3   OH236092   8.238   2.540   6.278 -0.0122 -0.0489  0.3183
12050TIP3    H136093   8.277   2.477   6.217  0.3516 -0.2516  0.7537
12050TIP3    H236094   8.312   2.570   6.331 -0.5762 -1.1557  1.8144
12051TIP3   OH236095   6.588   5.192   0.194  0.4198  0.1193  0.7503
12051TIP3    H136096   6.650   5.221   0.261  2.0626 -0.5788 -0.4001
12051TIP3    H236097   6.547   5.272   0.162  1.0794  0.6447  1.1947
12052TIP3   OH236098   1.202   0.695   2.055 -1.2873  0.1545  0.1128
12052TIP3    H136099   1.142   0.770   2.058 -1.1531  0.2394  0.7263
12052TIP3    H236100   1.221   0.684   1.962 -0.6738  1.3876  0.0788
12053TIP3   OH236101   5.039   6.061   0.213  0.6799 -0.0853  0.0725
12053TIP3    H136102   5.095   6.048   0.136  1.7124  1.4574  0.5305
12053TIP3    H236103   5.024   5.972   0.246  1.5850 -0.6444 -0.9388
12054TIP3   OH236104   0.613   4.658   4.801 -0.2292 -0.5053  0.0272
12054TIP3    H136105   0.616   4.734   4.860  0.2224 -1.6894  1.6026
12054TIP3    H236106   0.705   4.634   4.789 -0.4189 -1.8008  0.9349
12055TIP3   OH236107   1.294   4.476   4.145  0.2870  0.6182 -0.4556
12055TIP3    H136108   1.357   4.408   4.120  0.0435  0.7332 -1.4260
12055TIP3    H236109   1.348   4.548   4.176  0.5449 -0.0714  0.7686
12056TIP3   OH236110   3.637   2.442   2.374 -0.0483 -0.0636 -0.4614
12056TIP3    H136111   3.730   2.436   2.397  0.3639  2.2914 -1.2547
12056TIP3    H236112   3.595   2.375   2.428  1.9139 -0.1655  1.0545
12057TIP3   OH236113   3.024   5.741   2.956  0.0583 -0.5109  0.0980
12057TIP3    H136114   3.092   5.727   2.889  0.2801  1.5981 -0.2035
12057TIP3    H236115   3.068   5.792   3.024 -1.6694  3.0520 -1.1981
12058TIP3   OH236116   1.198   7.616   4.764  0.4959  0.1780 -0.5825
12058TIP3    H136117   1.117   7.663   4.783 -0.4125 -2.0551  1.6318
12058TIP3    H236118   1.170   7.541   4.712  1.5158  0.5050 -1.6594
12059TIP3   OH236119   1.663   5.550   0.949 -0.7573 -0.6363 -0.0679
12059TIP3    H136120   1.580   5.526   0.990 -0.5275  1.6814  2.0155
12059TIP3    H236121   1.715   5.587   1.020  0.6302  1.3665 -1.9686
12060TIP3   OH236122   0.363   7.620   0.309  0.1140  0.7530 -0.5008
12060TIP3    H136123   0.333   7.630   0.219 -1.2497  0.9055 -0.0520
12060TIP3    H236124   0.297   7.563   0.350 -0.7208  2.7188  1.0516
12061TIP3   OH236125   4.172   0.673   4.513  0.0270  0.0063 -0.1295
12061TIP3    H136126   4.227   0.637   4.583 -0.6899 -0.4157  0.2218
12061TIP3    H236127   4.109   0.604   4.494 -0.4042  0.4981 -0.5082
12062TIP3   OH236128   5.732   2.223   3.338  0.4215 -0.0079  0.2818
12062TIP3    H136129   5.758   2.315   3.344  1.0431 -0.1247 -0.5426
12062TIP3    H236130   5.728   2.205   3.245  2.3884 -1.3860  0.4023
12063TIP3   OH236131   5.403   1.094   0.445 -0.0489  0.0460  0.0341
12063TIP3    H136132   5.396   1.004   0.477  0.9062 -0.2254 -0.4929
12063TIP3    H236133   5.437   1.144   0.520 -1.6998  0.2284  0.7129
12064TIP3   OH236134   5.260   6.627   0.459  0.2363 -0.2793  0.2974
12064TIP3    H136135   5.244   6.691   0.528  1.0958  1.2005 -0.8090
12064TIP3    H236136   5.259   6.542   0.503 -1.0807  0.4666  1.7859
12065TIP3   OH236137   0.952   5.920   3.432 -0.6797  0.4708  0.5086
12065TIP3    H136138   1.046   5.941   3.429 -0.5154 -0.2355 -1.7728
12065TIP3    H236139   0.909   6.004   3.417 -0.3773  0.6380  0.5612
12066TIP3   OH236140   5.482   3.202   4.588 -0.1519 -0.0039 -0.3964
12066TIP3    H136141   5.409   3.186   4.528  0.3738  1.1647 -1.4025
12066TIP3    H236142   5.457   3.280   4.637  0.2551  0.2044 -0.5077
12067TIP3   OH236143   3.888   6.725   1.293 -0.4702 -0.8216  0.7617
12067TIP3    H136144   3.939   6.749   1.370 -1.1436 -0.1892  1.0169
12067TIP3    H236145   3.798   6.720   1.324 -0.7469 -0.5506  0.0118
12068TIP3   OH236146   1.770   1.165   4.970  0.2402  0.5960  0.5913
12068TIP3    H136147   1.860   1.134   4.973  0.2713  0.4925 -0.8265
12068TIP3    H236148   1.723   1.110   5.033  0.6475 -1.1609 -0.5903
12069TIP3   OH236149   2.022   3.959   6.790 -0.0396 -0.1553 -0.0762
12069TIP3    H136150   2.037   3.867   6.767  0.0462  0.1533 -1.3609
12069TIP3    H236151   1.930   3.974   6.769  0.3331  0.4408 -1.3652
12070TIP3   OH236152   6.272   3.494   1.486 -1.2017 -0.3911 -0.2035
12070TIP3    H136153   6.226   3.578   1.479  2.2151  1.7823  0.9468
12070TIP3    H236154   6.313   3.496   1.573 -1.0098 -3.3402 -0.1114
12071TIP3   OH236155   2.106   6.293   4.554 -0.4062  0.2570 -0.0540
12071TIP3    H136156   2.191   6.273   4.516 -0.8326  1.2266 -1.5908
12071TIP3    H236157   2.075   6.210   4.590  1.8867  0.2037  2.0677
12072TIP3   OH236158   3.197   5.791   6.342 -0.2586 -0.1293 -0.9933
12072TIP3    H136159   3.224   5.819   6.254 -0.3178 -0.6152 -1.1686
12072TIP3    H236160   3.177   5.872   6.388 -2.5763  0.0754 -2.1846
12073TIP3   OH236161   1.949   3.206   5.525 -0.3553 -0.4659  0.0130
12073TIP3    H136162   2.036   3.177   5.552 -0.7359 -0.9439  0.7601
12073TIP3    H236163   1.943   3.297   5.552  0.9311  0.4600 -2.5304
12074TIP3   OH236164   6.042   6.649   4.033 -0.5412 -0.5068  0.0368
12074TIP3    H136165   6.056   6.627   4.125  0.5965  3.5969  1.0238
12074TIP3    H236166   5.975   6.717   4.034 -0.1297  0.0150 -2.1525
12075TIP3   OH236167   6.223   0.974   1.143 -0.1189  0.4521  0.2718
12075TIP3    H136168   6.170   1.054   1.151  0.1182  0.8917 -1.9410
12075TIP3    H236169   6.287   0.995   1.075  0.6580 -1.2581  0.4484
12076TIP3   OH236170   7.731   7.333   5.562 -0.3859 -0.3253  0.2697
12076TIP3    H136171   7.695   7.320   5.650  1.4575 -0.9114  0.9914
12076TIP3    H236172   7.808   7.387   5.576  0.2542 -0.9041 -0.9161
12077TIP3   OH236173   7.137   1.058   5.212  0.5344  0.7741 -0.4811
12077TIP3    H136174   7.195   1.133   5.202  0.3247  0.8078 -1.5436
12077TIP3    H236175   7.117   1.031   5.123  2.4151 -1.9454 -0.2205
12078TIP3   OH236176   0.533   0.123   4.579 -0.3015 -0.0982 -1.0354
12078TIP3    H136177   0.458   0.119   4.638 -1.4336 -1.0133 -2.4618
12078TIP3    H236178   0.539   0.035   4.541  1.6833 -0.1273 -0.7600
12079TIP3   OH236179   3.513   4.633   5.707  0.3378 -0.5568 -0.4258
12079TIP3    H136180   3.452   4.704   5.685  0.5708 -0.3652 -0.4589
12079TIP3    H236181   3.542   4.653   5.796 -0.0526 -0.9383 -0.2113
12080TIP3   OH236182   2.144   4.241   0.528  0.2175 -0.6565  1.1556
12080TIP3    H136183   2.186   4.193   0.599  1.7083  1.2208  1.6362
12080TIP3    H236184   2.099   4.314   0.572 -0.8533 -0.8011  0.3443
12081TIP3   OH236185   1.476   0.149   5.221  0.2632  0.1094 -0.0975
12081TIP3    H136186   1.466   0.179   5.311  2.0125  3.3296 -0.8140
12081TIP3    H236187   1.564   0.178   5.195 -0.4872  0.1145 -3.0869
12082TIP3   OH236188   4.747   0.174   3.377 -0.3060 -0.0128 -0.4075
12082TIP3    H136189   4.691   0.102   3.406 -0.1648 -0.6373 -1.6519
12082TIP3    H236190   4.770   0.152   3.287 -0.5914  1.8082 -0.9524
12083TIP3   OH236191   0.014   4.941   3.990  0.2880 -0.0106  0.3018
12083TIP3    H136192  -0.051   4.872   3.976 -0.1467  0.3349  0.5527
12083TIP3    H236193   0.076   4.904   4.053 -0.4300  0.1289  1.1137
12084TIP3   OH236194   2.346   7.222   1.449  0.1331 -0.0215 -0.6024
12084TIP3    H136195   2.279   7.182   1.505  1.1905  0.9630  1.4836
12084TIP3    H236196   2.409   7.152   1.434 -0.2750 -0.3579 -0.7803
12085TIP3   OH236197   2.033   4.488   4.281 -0.3210  0.0663 -0.1549
12085TIP3    H136198   2.035   4.428   4.355  1.0927  1.8285  1.3359
12085TIP3    H236199   2.022   4.432   4.205  0.2096 -2.0066  1.2081
12086TIP3   OH236200   2.086   7.628   3.016  0.0904 -0.4385 -0.0257
12086TIP3    H136201   2.165   7.675   3.044 -0.4844 -0.2170  1.3013
12086TIP3    H236202   2.021   7.648   3.083 -0.4413 -2.4359  0.1277
12087TIP3   OH236203   2.285   4.542   0.183  0.4832  0.3666 -0.3402
12087TIP3    H136204   2.204   4.497   0.206  1.6192 -0.6329  2.0292
12087TIP3    H236205   2.267   4.583   0.099 -1.3298 -2.8159 -1.6790
12088TIP3   OH236206   7.192   2.609   3.594  0.0716 -0.6422 -0.1468
12088TIP3    H136207   7.283   2.640   3.593  0.6593 -2.0441  1.9599
12088TIP3    H236208   7.148   2.666   3.657 -0.7057  0.3706 -1.5464
12089TIP3   OH236209   2.364   5.511   4.407  0.1282  0.1284  0.0125
12089TIP3    H136210   2.375   5.547   4.319 -0.7176 -1.1790 -0.6708
12089TIP3    H236211   2.302   5.439   4.395 -0.6087  0.4102  1.8162
12090TIP3   OH236212   6.079   0.183   5.244 -0.1524 -0.3156 -0.2246
12090TIP3    H136213   6.149   0.137   5.290  0.5514  0.3059 -0.6416
12090TIP3    H236214   6.029   0.227   5.313 -0.9512 -1.8231  0.1928
12091TIP3   OH236215   6.480   3.901   5.725 -0.1570 -0.5874 -0.1370
12091TIP3    H136216   6.469   3.907   5.820  0.2599 -0.1481 -0.1166
12091TIP3    H236217   6.429   3.823   5.701 -1.5262  0.1551  0.2373
12092TIP3   OH236218   0.519   3.238   4.173 -0.0313  0.6326 -0.0010
12092TIP3    H136219   0.530   3.188   4.254 -1.5301  1.4462  0.7678
12092TIP3    H236220   0.435   3.208   4.138 -0.3645  1.7195 -0.1742
12093TIP3   OH236221   3.126   4.915   4.975 -0.3503  0.0403 -0.3617
12093TIP3    H136222   3.045   4.870   4.998 -1.0221 -0.4501 -3.3251
12093TIP3    H236223   3.099   5.006   4.957  0.0001  0.2157 -0.0079
12094TIP3   OH236224   8.009   4.745   4.853  0.0373 -0.3149  0.1001
12094TIP3    H136225   8.059   4.712   4.928  1.2704 -0.6515 -0.8315
12094TIP3    H236226   8.074   4.753   4.783 -1.1589 -0.3727 -1.0446
12095TIP3   OH236227   2.031   2.673   4.555  0.4485  0.2005  0.1120
12095TIP3    H136228   1.988   2.589   4.573  0.3603  0.3720  0.6964
12095TIP3    H236229   2.005   2.730   4.627  1.2996  0.4449  0.2367
12096TIP3   OH236230   3.285   1.572   4.043 -0.7400 -0.0894 -0.3022
12096TIP3    H136231   3.361   1.629   4.051 -0.0703 -1.0888  0.7972
12096TIP3    H236232   3.216   1.628   4.007  0.3686  0.9536 -0.8492
12097TIP3   OH236233   4.388   6.904   3.614 -0.2357  0.2514 -0.3314
12097TIP3    H136234   4.408   6.821   3.570  1.4487  0.4443  0.0006
12097TIP3    H236235   4.366   6.964   3.542  1.5616  0.3070 -0.8851
12098TIP3   OH236236   2.396   4.437   1.704 -0.4154  0.5769 -0.6397
12098TIP3    H136237   2.337   4.376   1.749  1.1903 -1.0641 -0.6313
12098TIP3    H236238   2.375   4.427   1.611  0.4957 -0.7890 -0.7274
12099TIP3   OH236239   6.202   0.610   3.600 -0.2637  0.1440 -0.2453
12099TIP3    H136240   6.256   0.683   3.629 -0.6415  0.3733 -0.1103
12099TIP3    H236241   6.176   0.632   3.511 -0.2807  0.1197 -0.2467
12100TIP3   OH236242   8.172   6.178   4.015  0.7407  0.5118  0.2617
12100TIP3    H136243   8.085   6.170   3.975  1.3651 -1.0687 -0.8920
12100TIP3    H236244   8.154   6.197   4.107 -0.7832  1.5755 -0.2005
12101TIP3   OH236245   3.332   1.400   6.196 -0.5257 -0.4577 -0.8689
12101TIP3    H136246   3.372   1.353   6.269  0.6199 -1.7029 -2.2405
12101TIP3    H236247   3.259   1.448   6.235  1.9259  1.5231  1.6864
12102TIP3   OH236248   7.090   3.180   1.009 -0.1506 -0.0031 -0.7152
12102TIP3    H136249   7.035   3.229   1.070 -0.2625  0.2352 -1.0040
12102TIP3    H236250   7.168   3.157   1.059 -0.6476 -0.6262 -0.1949
12103TIP3   OH236251   3.158   5.702   0.669  0.0678  0.3298  0.6290
12103TIP3    H136252   3.098   5.740   0.604 -0.1079 -0.0034  0.5932
12103TIP3    H236253   3.245   5.726   0.638 -0.0594  1.2129  0.9252
12104TIP3   OH236254   3.610   1.007   6.245 -0.3582  0.5146  0.2467
12104TIP3    H136255   3.654   1.047   6.169  3.9747 -0.4101  1.9748
12104TIP3    H236256   3.623   1.070   6.316  0.5935 -0.9609  1.4405
12105TIP3   OH236257   7.920   1.188   2.121  0.5652 -0.6812 -0.6564
12105TIP3    H136258   7.946   1.242   2.045  2.8010 -1.1875 -0.3001
12105TIP3    H236259   8.001   1.146   2.150  0.1889  0.8185  3.1061
12106TIP3   OH236260   4.143   5.678   1.372  0.7622  0.0109 -0.1751
12106TIP3    H136261   4.061   5.703   1.328  1.0534  1.5480  0.0882
12106TIP3    H236262   4.164   5.753   1.428  1.6654 -0.9157  0.7628
12107TIP3   OH236263   7.015   6.012   1.265  0.0851  0.0168 -0.1563
12107TIP3    H136264   6.956   5.953   1.312 -1.5854  0.3406 -1.7465
12107TIP3    H236265   7.069   5.953   1.212  0.9830 -0.2560  1.0138
12108TIP3   OH236266   0.577   4.432   2.454  0.4375 -0.3386  0.3739
12108TIP3    H136267   0.648   4.380   2.491  1.4338  1.9520  1.9061
12108TIP3    H236268   0.525   4.459   2.530 -1.4247 -1.0136 -0.6105
12109TIP3   OH236269   4.859   0.505   0.475 -0.2649  0.2832  0.2167
12109TIP3    H136270   4.926   0.485   0.540 -0.5447  0.7529  0.6582
12109TIP3    H236271   4.895   0.472   0.393  0.7143  0.9396  0.3612
12110TIP3   OH236272   5.093   0.045   1.473 -0.3305 -0.0615  0.2743
12110TIP3    H136273   5.147  -0.011   1.418 -0.5424  0.3165 -0.3412
12110TIP3    H236274   5.003   0.023   1.448 -0.4184  0.3837  0.1846
12111TIP3   OH236275   0.864   4.462   6.638 -0.1445  0.0850 -0.3328
12111TIP3    H136276   0.853   4.498   6.550  0.7931  1.7816  0.2060
12111TIP3    H236277   0.938   4.510   6.675 -0.0634 -1.0941  1.1409
12112TIP3   OH236278   7.343   5.176   0.360 -0.2209 -0.1580 -0.3080
12112TIP3    H136279   7.283   5.158   0.288 -1.6347 -0.6587  0.9557
12112TIP3    H236280   7.377   5.089   0.385 -0.6908 -0.1353  0.4265
12113TIP3   OH236281   6.253   0.675   5.537 -0.1444 -0.4496 -0.0205
12113TIP3    H136282   6.305   0.698   5.459  1.0211  1.1510  1.1695
12113TIP3    H236283   6.234   0.759   5.578 -4.3085 -0.8506 -0.6740
12114TIP3   OH236284   8.253   1.676   3.347 -0.6961  0.1352  0.0409
12114TIP3    H136285   8.272   1.759   3.303 -2.5539  1.7541  2.0315
12114TIP3    H236286   8.308   1.678   3.426  0.3362 -1.2685 -0.6104
12115TIP3   OH236287   3.219   4.843   0.494  0.2469 -0.3185  0.5757
12115TIP3    H136288   3.195   4.927   0.532 -0.0329  0.3720 -1.0155
12115TIP3    H236289   3.231   4.784   0.569 -1.6627  0.5783  1.6545
12116TIP3   OH236290   2.202   6.243   2.914  0.3017  0.2143  0.3781
12116TIP3    H136291   2.262   6.307   2.875  1.6912 -1.6082 -0.6574
12116TIP3    H236292   2.130   6.295   2.948  1.0743  2.2695 -0.9404
12117TIP3   OH236293   2.022   7.254   3.334  0.2175  0.4792  0.1795
12117TIP3    H136294   2.088   7.192   3.305 -0.1216  0.7532 -1.2746
12117TIP3    H236295   2.014   7.239   3.428  0.9779 -0.8517  0.0541
12118TIP3   OH236296   0.030   0.381   2.435  0.5163  0.2960 -0.3752
12118TIP3    H136297   0.069   0.324   2.368  0.3531  0.5017 -0.6439
12118TIP3    H236298   0.007   0.461   2.389 -0.1965  0.1924 -0.2143
12119TIP3   OH236299   3.801   3.552   5.039 -0.1549  0.1692 -0.1500
12119TIP3    H136300   3.831   3.468   5.074  0.0118  0.4058  0.2903
12119TIP3    H236301   3.864   3.573   4.970 -0.9026 -0.6480 -1.1107
12120TIP3   OH236302   4.857   2.665   4.725 -0.0805 -0.1592 -0.4796
12120TIP3    H136303   4.880   2.657   4.633  0.8714  0.5848 -0.3341
12120TIP3    H236304   4.941   2.681   4.769 -0.3260 -1.8732  0.7004
12121TIP3   OH236305   3.140   0.394   0.032 -0.0798 -0.0075 -0.4860
12121TIP3    H136306   3.148   0.364  -0.058 -0.1509 -1.3580 -0.0621
12121TIP3    H236307   3.199   0.469   0.038  2.7133 -2.0407 -0.7354
12122TIP3   OH236308   0.274   0.704   1.783  0.2208 -0.5954  0.3768
12122TIP3    H136309   0.261   0.795   1.757 -1.7468 -0.6127  1.1121
12122TIP3    H236310   0.340   0.708   1.853 -0.6241  0.4034  1.1466
12123TIP3   OH236311   7.563   3.718   1.644  0.1651 -0.2620 -0.2778
12123TIP3    H136312   7.564   3.812   1.623 -1.7201 -0.2556 -0.5545
12123TIP3    H236313   7.470   3.695   1.640  0.5446 -1.9970  0.4809
12124TIP3   OH236314   4.576   5.030   0.558  0.1454 -0.7397  0.0945
12124TIP3    H136315   4.668   5.003   0.566  0.0369 -1.1514 -0.0372
12124TIP3    H236316   4.567   5.101   0.622  0.7818 -0.0830 -0.5197
12125TIP3   OH236317   3.888   2.779   0.638 -0.4701  0.5667 -0.0736
12125TIP3    H136318   3.885   2.692   0.677  1.7037 -0.3192 -1.7056
12125TIP3    H236319   3.863   2.766   0.547  0.2196  1.5844 -0.4277
12126TIP3   OH236320   3.853   4.049   1.005 -0.7162 -0.3679  0.5157
12126TIP3    H136321   3.758   4.044   0.994 -0.6543 -2.2405  0.5833
12126TIP3    H236322   3.883   4.094   0.925 -1.4045 -2.7300 -1.1900
12127TIP3   OH236323   4.953   7.532   6.385 -0.0351 -0.0733  0.5722
12127TIP3    H136324   5.026   7.511   6.327  0.5994 -0.6182  1.5392
12127TIP3    H236325   4.949   7.628   6.384 -0.1044 -0.0693 -0.4304
12128TIP3   OH236326   5.058   5.108   5.665 -0.1207  0.4053 -0.6741
12128TIP3    H136327   5.005   5.106   5.745  1.1403 -0.5793  0.1834
12128TIP3    H236328   5.145   5.135   5.694 -0.5257  4.0362 -2.3568
12129TIP3   OH236329   6.901   0.574   1.004 -0.8014 -0.3584  0.0282
12129TIP3    H136330   6.841   0.550   0.934 -1.1342  1.7039 -0.4711
12129TIP3    H236331   6.966   0.630   0.961 -1.3273  1.4146  1.4049
12130TIP3   OH236332   6.272   4.472   1.873 -0.0120  0.1949 -0.2167
12130TIP3    H136333   6.180   4.454   1.892 -0.7241  1.7101 -1.9376
12130TIP3    H236334   6.299   4.399   1.817 -0.2279 -0.1437  0.1170
12131TIP3   OH236335   1.157   7.113   6.610 -0.5273  0.6734 -0.9020
12131TIP3    H136336   1.247   7.102   6.582  0.2320  0.2493  1.4624
12131TIP3    H236337   1.121   7.024   6.613 -0.3951  0.6458  0.0302
12132TIP3   OH236338   3.599   2.673   5.719  0.4049 -0.3907 -0.0083
12132TIP3    H136339   3.639   2.716   5.643 -0.8109 -1.4378 -1.3087
12132TIP3    H236340   3.671   2.657   5.779  1.3802  0.6206 -0.8808
12133TIP3   OH236341   6.772   5.636   2.563 -0.1664  0.2788  0.0877
12133TIP3    H136342   6.866   5.622   2.558 -0.3306 -1.3916  1.1421
12133TIP3    H236343   6.745   5.652   2.472  0.9557 -0.3972 -0.3793
12134TIP3   OH236344   5.971   4.487   0.113  0.1620 -0.0439  0.1806
12134TIP3    H136345   5.947   4.479   0.020  0.7920 -3.9329  0.1626
12134TIP3    H236346   6.001   4.577   0.122 -0.8874  0.8016 -3.1351
12135TIP3   OH236347   4.941   3.116   0.325  0.4453  0.2507 -0.1174
12135TIP3    H136348   4.958   3.094   0.416  2.4344  0.7241 -0.3378
12135TIP3    H236349   4.892   3.198   0.328 -0.2258 -0.1649  0.5238
12136TIP3   OH236350   2.811   4.070   3.462  0.2350 -1.0138  0.0337
12136TIP3    H136351   2.766   4.135   3.517  0.4867 -0.0329 -0.8929
12136TIP3    H236352   2.878   4.120   3.416  1.3883 -2.2051  0.3642
12137TIP3   OH236353   7.281   4.162   6.583  0.2020  0.3829  0.5200
12137TIP3    H136354   7.296   4.256   6.572  0.7696  0.2068 -0.3662
12137TIP3    H236355   7.362   4.122   6.550 -0.6253 -0.4682 -0.5355
12138TIP3   OH236356   7.721   1.221   1.039  0.0880 -0.0357 -0.5426
12138TIP3    H136357   7.640   1.209   1.089  0.4351 -0.8107 -0.1496
12138TIP3    H236358   7.715   1.157   0.968 -0.1677  0.7071 -1.2105
12139TIP3   OH236359   7.431   7.624   2.356  0.2792  0.5302  0.0627
12139TIP3    H136360   7.379   7.700   2.380 -2.2102 -1.5955  1.9721
12139TIP3    H236361   7.516   7.639   2.397 -1.3908  0.6305  3.9661
12140TIP3   OH236362   3.437   6.296   4.624  0.5979 -0.2134 -0.3331
12140TIP3    H136363   3.428   6.289   4.719  2.8582  0.2936 -0.0205
12140TIP3    H236364   3.482   6.215   4.598 -1.3286 -1.0607 -1.2390
12141TIP3   OH236365   1.858   4.445   6.532 -0.1903  0.6946 -0.3159
12141TIP3    H136366   1.920   4.482   6.469 -0.3035 -0.6227 -1.2342
12141TIP3    H236367   1.851   4.512   6.600  1.4321  1.3243 -0.7093
12142TIP3   OH236368   7.541   4.789   3.986  0.5943 -0.4385  0.3521
12142TIP3    H136369   7.550   4.832   4.071  0.5714  1.1109 -0.3965
12142TIP3    H236370   7.508   4.702   4.007  1.6432 -0.4940  2.0058
12143TIP3   OH236371   1.297   3.237   1.542  0.3032  0.7799  0.0844
12143TIP3    H136372   1.380   3.248   1.589  0.4743 -1.2848  0.3383
12143TIP3    H236373   1.319   3.254   1.450  1.4068 -1.3005 -0.0812
12144TIP3   OH236374   3.740   7.114   4.895  0.2833 -0.0458  0.3519
12144TIP3    H136375   3.716   7.194   4.847  0.4843  0.1775  0.6203
12144TIP3    H236376   3.825   7.135   4.935  0.5603 -0.5554  0.0470
12145TIP3   OH236377   6.719   3.394   3.016  0.7523  0.6040 -0.0202
12145TIP3    H136378   6.753   3.449   2.945 -0.2459  1.3494  0.0668
12145TIP3    H236379   6.786   3.397   3.084  0.8875  1.3791 -0.1853
12146TIP3   OH236380   0.767   6.661   4.792  0.4185  0.4548 -0.9625
12146TIP3    H136381   0.762   6.756   4.778  0.2668  0.5130 -0.5283
12146TIP3    H236382   0.677   6.631   4.786  0.4417  0.3698 -0.8891
12147TIP3   OH236383   1.391   7.774   3.120  0.1727  0.3714  0.3526
12147TIP3    H136384   1.469   7.778   3.175  0.8001 -2.1064 -0.2306
12147TIP3    H236385   1.417   7.817   3.039  0.5478  0.5554  0.5660
12148TIP3   OH236386   2.251   0.883   0.742  0.3619  0.8177 -0.0533
12148TIP3    H136387   2.157   0.866   0.732  0.7230 -1.0546 -0.5313
12148TIP3    H236388   2.289   0.861   0.657  1.3105  0.9982  0.3114
12149TIP3   OH236389   1.507   4.659   0.238  0.4815  0.4263 -0.4521
12149TIP3    H136390   1.511   4.679   0.331  0.0214  0.7973 -0.5037
12149TIP3    H236391   1.537   4.568   0.231 -0.7815 -0.0735  0.2346
12150TIP3   OH236392   4.368   3.287   6.080 -0.9073 -0.1530  0.0857
12150TIP3    H136393   4.328   3.232   6.012  1.2287 -1.4792 -0.1867
12150TIP3    H236394   4.296   3.305   6.141 -1.8066 -3.1261  0.0940
12151TIP3   OH236395   4.834   4.519   1.777 -0.4155 -0.5160  0.2301
12151TIP3    H136396   4.821   4.436   1.823 -1.8715  0.1633  1.0848
12151TIP3    H236397   4.904   4.563   1.825 -0.9523 -0.4302  0.9409
12152TIP3   OH236398   3.323   1.650   2.118  0.0569  0.2182 -0.2892
12152TIP3    H136399   3.245   1.631   2.066  0.5114 -0.1474 -0.8408
12152TIP3    H236400   3.394   1.604   2.074  0.3159 -0.7706  1.0802
12153TIP3   OH236401   1.151   3.413   5.756 -0.3114 -0.3491  0.0784
12153TIP3    H136402   1.142   3.368   5.672 -0.1748 -1.4440  0.6289
12153TIP3    H236403   1.239   3.452   5.753 -0.6398  0.3522 -0.6208
12154TIP3   OH236404   5.741   3.920   6.632 -0.2142 -0.2418  0.6681
12154TIP3    H136405   5.688   3.930   6.553 -1.7785  2.0481  1.8908
12154TIP3    H236406   5.720   3.832   6.664 -1.3147 -0.3484 -0.2660
12155TIP3   OH236407   0.619   1.143   0.792 -0.0359  0.1784 -0.3497
12155TIP3    H136408   0.538   1.192   0.800 -0.7696 -1.1540  0.8789
12155TIP3    H236409   0.591   1.055   0.768  0.9556 -0.5228  0.9438
12156TIP3   OH236410   3.589   1.548   4.540 -0.4094 -0.1424  0.0185
12156TIP3    H136411   3.680   1.531   4.516 -0.4935 -0.7200  0.0888
12156TIP3    H236412   3.542   1.554   4.456 -0.1207  1.3044 -0.0581
12157TIP3   OH236413   3.015   7.053   3.325 -0.1407 -0.6253 -0.3456
12157TIP3    H136414   3.009   6.958   3.334 -1.0906 -0.5599 -0.2016
12157TIP3    H236415   3.048   7.083   3.409  0.0195 -0.8137 -0.3404
12158TIP3   OH236416   8.116   2.062   6.672  0.0521 -0.5008  0.2028
12158TIP3    H136417   8.026   2.035   6.694 -0.9589  2.4386  0.0329
12158TIP3    H236418   8.112   2.083   6.579  0.0573  2.5320  0.8094
12159TIP3   OH236419   0.122   4.565   6.116  0.4657 -0.2763  0.0813
12159TIP3    H136420   0.113   4.487   6.062 -0.6794  1.4378 -2.3983
12159TIP3    H236421   0.067   4.630   6.073  0.3385  1.5424  2.7902
12160TIP3   OH236422   0.317  -0.022   5.650 -0.1636 -0.5307 -0.0967
12160TIP3    H136423   0.243  -0.018   5.711 -0.2794 -0.7313 -0.2219
12160TIP3    H236424   0.323   0.067   5.614  0.7571 -0.0515  1.1987
12161TIP3   OH236425   3.740   0.086   5.079 -0.0171  0.5534  0.0526
12161TIP3    H136426   3.808   0.043   5.130  0.0720  0.8581  0.1950
12161TIP3    H236427   3.675   0.112   5.144  0.6020  1.9089  0.1705
12162TIP3   OH236428   5.391   1.160   2.480  0.0358  0.3990 -0.2772
12162TIP3    H136429   5.466   1.124   2.432  0.0337 -1.4434  1.0144
12162TIP3    H236430   5.430   1.218   2.545  0.0687  2.4580 -2.0156
12163TIP3   OH236431   0.267   1.540   1.540  0.3382  0.2801  0.0317
12163TIP3    H136432   0.315   1.498   1.611 -2.6488 -1.4281  1.2375
12163TIP3    H236433   0.270   1.477   1.468  0.8436  0.6755 -0.2975
12164TIP3   OH236434   1.244   5.473   3.712 -0.2429 -0.2323 -0.3840
12164TIP3    H136435   1.245   5.379   3.696  1.6331 -0.5926  1.3716
12164TIP3    H236436   1.151   5.497   3.711 -0.8127 -2.2395 -0.0861
12165TIP3   OH236437   4.173   3.701   4.912 -0.2914  0.0560 -0.0822
12165TIP3    H136438   4.186   3.631   4.976 -1.0129  0.0393  0.0561
12165TIP3    H236439   4.182   3.782   4.964 -2.7142  0.0443  0.4682
12166TIP3   OH236440   3.027   4.712   3.351  0.3937  0.1626 -0.2966
12166TIP3    H136441   3.099   4.670   3.304 -0.2578 -0.0852 -1.1051
12166TIP3    H236442   3.056   4.716   3.442  1.2912 -0.2129 -0.5565
12167TIP3   OH236443   2.885   2.880   1.566  0.0154 -0.3724 -0.0494
12167TIP3    H136444   2.795   2.850   1.572 -1.0933  2.3142 -1.5775
12167TIP3    H236445   2.907   2.907   1.655 -1.1388  0.0808  0.1168
12168TIP3   OH236446   5.635   6.315   2.126  0.2479 -0.1891 -0.4399
12168TIP3    H136447   5.714   6.269   2.153  0.2121  0.1109  0.1969
12168TIP3    H236448   5.592   6.255   2.065  0.3661 -0.8660  0.1331
12169TIP3   OH236449   5.663   4.913   3.699 -0.5480  0.3547  0.2309
12169TIP3    H136450   5.689   4.831   3.740 -3.0978  0.2527  1.8380
12169TIP3    H236451   5.653   4.891   3.606  0.6487 -0.6393  0.3142
12170TIP3   OH236452   1.835   5.062   5.424 -0.1441  0.0264  0.3603
12170TIP3    H136453   1.780   5.053   5.501 -0.9118  0.6968 -0.0962
12170TIP3    H236454   1.789   5.014   5.355 -0.6589  1.3448 -0.2562
12171TIP3   OH236455   5.239   4.725   1.147  0.0683 -0.1778 -0.2552
12171TIP3    H136456   5.160   4.765   1.183 -0.4316  0.2644 -1.7505
12171TIP3    H236457   5.288   4.695   1.223 -0.9767  0.6080  0.7606
12172TIP3   OH236458   1.887   0.847   2.519 -0.2488  0.0741  0.1586
12172TIP3    H136459   1.819   0.908   2.494 -0.9287 -0.1144  1.4513
12172TIP3    H236460   1.850   0.798   2.593  0.0997 -2.1948 -1.0511
12173TIP3   OH236461   0.144   3.893   5.725  0.4806 -0.6505 -0.0910
12173TIP3    H136462   0.185   3.834   5.788 -1.9011 -0.6935  1.5895
12173TIP3    H236463   0.064   3.848   5.699 -1.8009  1.9449  1.7990
12174TIP3   OH236464   2.559   5.373   6.385 -0.1805 -0.1037  0.2304
12174TIP3    H136465   2.580   5.306   6.450  0.0710 -0.4089 -0.1596
12174TIP3    H236466   2.616   5.446   6.406 -0.1676 -0.1660  0.4125
12175TIP3   OH236467   4.809   6.076   6.390  0.0498 -0.3381 -0.3236
12175TIP3    H136468   4.769   6.134   6.325 -1.2023 -0.1837  0.5568
12175TIP3    H236469   4.898   6.061   6.357 -0.0559  0.9678 -1.2723
12176TIP3   OH236470   5.333   1.782   3.922  0.1934 -0.3043  0.4671
12176TIP3    H136471   5.263   1.840   3.892 -1.1616 -1.8259  0.5664
12176TIP3    H236472   5.354   1.729   3.846  0.8103 -0.2881  0.6237
12177TIP3   OH236473   1.538   6.180   5.435  0.5260 -0.5826 -0.2258
12177TIP3    H136474   1.555   6.254   5.377 -0.8234  0.1089  0.2218
12177TIP3    H236475   1.443   6.174   5.440  0.5138  0.4421  3.1843
12178TIP3   OH236476   6.838   2.029   0.207  0.1336 -0.3627 -0.5296
12178TIP3    H136477   6.815   2.062   0.294 -0.5211  0.4182 -0.9862
12178TIP3    H236478   6.882   2.103   0.164 -1.8833  0.1810 -1.7796
12179TIP3   OH236479   2.845   7.394   2.588 -0.2346 -0.1281  0.2577
12179TIP3    H136480   2.846   7.306   2.624 -0.8148 -0.7167 -1.1223
12179TIP3    H236481   2.837   7.382   2.493  3.0630  1.2944 -0.3386
12180TIP3   OH236482   3.670   4.680   3.913 -0.1014  0.2589 -0.2740
12180TIP3    H136483   3.601   4.613   3.920  0.8207 -0.7281 -0.4218
12180TIP3    H236484   3.676   4.698   3.820 -0.9018  1.1615 -0.1660
12181TIP3   OH236485   7.068   5.845   0.689 -0.2125 -0.5254  0.2883
12181TIP3    H136486   7.019   5.927   0.693  1.6777  0.6763  0.0975
12181TIP3    H236487   7.043   5.805   0.605 -0.8328  0.0692  0.1902
12182TIP3   OH236488   4.648   3.643   1.899  0.0902 -0.2686 -0.3254
12182TIP3    H136489   4.615   3.656   1.810 -1.5836  0.9685  0.4245
12182TIP3    H236490   4.719   3.706   1.908 -0.9821  0.9729 -0.2134
12183TIP3   OH236491   3.997   0.097   0.472 -0.1169  0.0872 -0.0888
12183TIP3    H136492   3.912   0.110   0.429  0.2388 -0.3261 -0.9625
12183TIP3    H236493   4.061   0.100   0.400  0.9418  3.0641  0.8257
12184TIP3   OH236494   5.918   3.638   5.586 -0.2909  0.2884 -0.3453
12184TIP3    H136495   5.930   3.556   5.538  0.0621 -0.1713  0.5080
12184TIP3    H236496   5.883   3.699   5.521  0.2649 -0.2913 -1.2097
12185TIP3   OH236497   8.135   3.346   6.032  0.0293 -0.7820  0.4130
12185TIP3    H136498   8.090   3.390   6.105 -1.2574 -1.2700 -0.0547
12185TIP3    H236499   8.225   3.335   6.063 -0.1914  0.1082  1.4429
12186TIP3   OH236500   8.107   4.683   6.056 -0.6480  0.3139 -0.1340
12186TIP3    H136501   8.057   4.734   5.993 -4.0946  0.1654  2.1864
12186TIP3    H236502   8.116   4.741   6.132  1.6091 -0.1918  0.0558
12187TIP3   OH236503   0.811   2.102   1.373 -0.6110 -0.4337 -0.6492
12187TIP3    H136504   0.861   2.145   1.304  0.1438 -0.5526 -0.1819
12187TIP3    H236505   0.877   2.066   1.432 -1.2246 -1.7341 -0.7146
12188TIP3   OH236506   4.459   4.279   4.077 -0.1967 -0.2488 -0.0465
12188TIP3    H136507   4.391   4.336   4.114 -0.4904 -1.6084  1.6134
12188TIP3    H236508   4.414   4.197   4.059  0.5881 -0.5173 -0.8636
12189TIP3   OH236509   1.052   1.302   2.477  0.8298 -0.3852 -0.0594
12189TIP3    H136510   1.073   1.384   2.521 -1.4654  0.3388 -0.1616
12189TIP3    H236511   0.970   1.320   2.430  0.0227 -2.8339  0.2324
12190TIP3   OH236512   1.294   0.436   2.081 -0.6143 -0.8945 -0.7520
12190TIP3    H136513   1.258   0.525   2.080 -2.7265 -1.7017 -2.4858
12190TIP3    H236514   1.388   0.449   2.065 -0.6749  1.0623  0.1854
12191TIP3   OH236515   3.330   4.966   5.821 -0.1049 -0.1522 -0.1008
12191TIP3    H136516   3.415   5.000   5.849 -0.3285  0.5846 -0.2884
12191TIP3    H236517   3.287   4.937   5.902  0.1337 -0.0888  0.0472
12192TIP3   OH236518   1.318   6.217   0.791  0.0200 -0.6623 -0.3375
12192TIP3    H136519   1.336   6.158   0.718  0.6012  0.6906 -1.3183
12192TIP3    H236520   1.236   6.183   0.829  1.0705 -2.9478  0.0702
12193TIP3   OH236521   5.123   3.313   2.422 -0.6388  0.5543 -0.5889
12193TIP3    H136522   5.088   3.389   2.375 -3.0777  0.2958  0.6619
12193TIP3    H236523   5.053   3.286   2.481  0.9410 -1.3988  0.5466
12194TIP3   OH236524   8.095   6.552   5.212  0.7305  0.6108  0.0768
12194TIP3    H136525   8.190   6.547   5.202  0.9586  1.9089  1.3017
12194TIP3    H236526   8.081   6.558   5.307 -0.5981  0.1762 -0.0689
12195TIP3   OH236527   7.498   5.616   2.301 -0.0870 -0.0305  0.4775
12195TIP3    H136528   7.454   5.652   2.225  0.6527 -1.1706 -0.5280
12195TIP3    H236529   7.472   5.524   2.303 -0.1302 -0.0150  1.6425
12196TIP3   OH236530   7.782   7.202   5.287  0.1505 -0.3476  0.1058
12196TIP3    H136531   7.774   7.114   5.323 -1.2483  0.4118  1.7560
12196TIP3    H236532   7.804   7.257   5.362 -0.7857  0.9850 -0.5621
12197TIP3   OH236533   1.512   0.466   5.066  0.1099  0.0966  0.1095
12197TIP3    H136534   1.427   0.505   5.086 -1.6943 -2.4053 -1.9494
12197TIP3    H236535   1.492   0.394   5.006  3.7067 -0.6923 -0.3917
12198TIP3   OH236536   6.974   1.753   5.259  0.1305  0.3337  0.3821
12198TIP3    H136537   6.976   1.726   5.351 -1.1282  0.5037  0.4752
12198TIP3    H236538   6.884   1.738   5.232  0.8304 -1.2303 -1.3089
12199TIP3   OH236539   2.972   2.321   4.639  0.2020  0.2293 -0.3346
12199TIP3    H136540   2.879   2.304   4.628 -0.0547  1.6914 -0.6844
12199TIP3    H236541   2.984   2.411   4.607  1.3027  0.9429  1.8847
12200TIP3   OH236542   6.231   6.593   3.616 -0.0718  0.3208 -0.4386
12200TIP3    H136543   6.222   6.678   3.659  0.2215  0.7740 -1.2637
12200TIP3    H236544   6.319   6.594   3.579 -0.1645 -0.2415 -0.6823
12201TIP3   OH236545   1.422   0.799   3.272  0.1290 -0.5319 -0.0006
12201TIP3    H136546   1.397   0.707   3.261  0.4115 -0.5387 -0.5998
12201TIP3    H236547   1.399   0.819   3.363  1.1263 -1.5261  0.4848
12202TIP3   OH236548   3.312   2.171   2.831 -0.3653 -0.0134  0.1633
12202TIP3    H136549   3.300   2.242   2.768  0.2321 -0.6964 -0.7620
12202TIP3    H236550   3.367   2.108   2.784  0.7923 -0.1722  1.6620
12203TIP3   OH236551   7.744   5.174   3.597 -0.4267 -0.4457 -0.2557
12203TIP3    H136552   7.723   5.085   3.570 -1.0519 -0.5409  0.5231
12203TIP3    H236553   7.770   5.166   3.689  0.5096  0.0376 -0.4646
12204TIP3   OH236554   5.477   3.755   5.259 -0.1270 -0.6171 -0.1801
12204TIP3    H136555   5.528   3.758   5.340 -0.0430 -0.4242 -0.2385
12204TIP3    H236556   5.438   3.668   5.258 -0.6458 -0.3980  0.3835
12205TIP3   OH236557   2.102   4.101   3.345  0.5641 -0.0073  0.4424
12205TIP3    H136558   2.119   4.194   3.364  0.8507 -0.3385  1.9707
12205TIP3    H236559   2.020   4.083   3.391  0.5770 -0.5455  0.2513
12206TIP3   OH236560   0.993   3.914   4.499 -0.5597  0.3884  0.1606
12206TIP3    H136561   0.987   3.913   4.404  0.8108  0.8567  0.0412
12206TIP3    H236562   0.941   3.839   4.528  0.2025 -0.6358 -1.0384
12207TIP3   OH236563   6.970   1.411   1.082  0.6402  0.0583 -0.1246
12207TIP3    H136564   7.040   1.364   1.036 -0.3152 -0.3776 -1.2118
12207TIP3    H236565   6.979   1.386   1.173  1.5517 -0.4376 -0.3436
12208TIP3   OH236566   1.471   3.396   6.390 -0.4687  0.5350 -0.7061
12208TIP3    H136567   1.400   3.458   6.372 -3.0390 -1.9630 -0.0604
12208TIP3    H236568   1.490   3.407   6.483 -1.6574 -0.2651 -0.3432
12209TIP3   OH236569   3.566   6.954   0.180 -0.5189 -0.2020  0.1423
12209TIP3    H136570   3.496   6.983   0.239 -0.1957 -0.6935  0.7768
12209TIP3    H236571   3.605   7.036   0.148 -0.8555  0.0709  0.4156
12210TIP3   OH236572   4.030   5.510   5.946  0.3653 -0.1632 -0.3312
12210TIP3    H136573   4.049   5.456   5.869  0.0874  0.0349 -0.5360
12210TIP3    H236574   3.993   5.448   6.010 -0.6539 -0.0861 -0.8311
12211TIP3   OH236575   4.113   4.476   0.065  0.0823  0.1309 -0.2569
12211TIP3    H136576   4.165   4.545   0.024 -0.1558  0.2105 -0.4289
12211TIP3    H236577   4.081   4.424  -0.009  2.7955 -2.0529 -0.0540
12212TIP3   OH236578   0.018   0.452   3.727 -0.0402 -0.3131 -0.0301
12212TIP3    H136579   0.108   0.481   3.737  0.0380 -0.7770  0.7030
12212TIP3    H236580   0.018   0.400   3.647  0.1683  0.3242 -0.4531
12213TIP3   OH236581   0.339   4.864   2.954  0.1758  0.6340 -0.0331
12213TIP3    H136582   0.296   4.795   3.004  4.3068 -2.4980 -0.2174
12213TIP3    H236583   0.365   4.929   3.019 -4.0420  2.4584  0.1092
12214TIP3   OH236584   4.020   5.204   5.137  0.0033 -0.2650 -0.4813
12214TIP3    H136585   4.106   5.197   5.097  1.1580  0.8534  1.5994
12214TIP3    H236586   4.028   5.277   5.199 -1.8212 -1.3876  1.2268
12215TIP3   OH236587   3.743   5.969   3.764  0.1373  0.1840  0.5049
12215TIP3    H136588   3.660   5.924   3.744  0.2382  0.2802 -0.1589
12215TIP3    H236589   3.743   5.979   3.859  0.3939 -1.7645  0.7391
12216TIP3   OH236590   3.614   4.082   3.740 -0.0246  0.8617 -0.3882
12216TIP3    H136591   3.637   4.175   3.743 -0.0678  0.8608 -0.0454
12216TIP3    H236592   3.676   4.040   3.800  0.5465  0.5504 -1.1618
12217TIP3   OH236593   3.502   0.085   4.166 -0.5037  0.4143 -0.2392
12217TIP3    H136594   3.421   0.110   4.121 -1.0308  0.1220  0.5133
12217TIP3    H236595   3.472   0.033   4.241  0.3467  0.8147  0.3950
12218TIP3   OH236596   7.763   3.070   5.412  0.2371 -0.1005  0.4117
12218TIP3    H136597   7.671   3.044   5.405  0.1571 -0.3005  1.8806
12218TIP3    H236598   7.765   3.160   5.382 -0.1413 -0.5895 -1.1723
12219TIP3   OH236599   1.136   4.885   5.913 -0.4679  0.6086 -0.0172
12219TIP3    H136600   1.074   4.815   5.932  0.9685 -0.6974  0.0389
12219TIP3    H236601   1.139   4.889   5.817  1.0446 -0.9487 -0.0816
12220TIP3   OH236602   3.265   3.825   6.635 -0.1699  0.1237 -0.4450
12220TIP3    H136603   3.318   3.882   6.691 -1.2208  0.4169  0.2818
12220TIP3    H236604   3.192   3.880   6.606 -1.8544 -1.0654  1.2094
12221TIP3   OH236605   3.916   3.254   0.246  0.0020 -0.0781 -0.0028
12221TIP3    H136606   3.894   3.312   0.320 -1.3690  0.4460 -0.7838
12221TIP3    H236607   3.923   3.167   0.285 -1.0387  0.1369  0.7099
12222TIP3   OH236608   4.227   2.265   3.494 -0.4590 -0.4372 -0.5638
12222TIP3    H136609   4.322   2.265   3.478 -0.2825  2.2805 -0.0339
12222TIP3    H236610   4.195   2.186   3.451  1.9115 -0.9069 -1.6117
12223TIP3   OH236611   3.897   6.608   5.985  0.0630  0.1061  0.1217
12223TIP3    H136612   3.901   6.533   6.046  0.8391 -0.3519 -0.4649
12223TIP3    H236613   3.849   6.675   6.033  1.0999 -0.0548  1.4635
12224TIP3   OH236614   5.568   5.617   2.281  0.5378 -0.2114 -0.0471
12224TIP3    H136615   5.629   5.578   2.219 -1.1527 -0.9697 -1.3041
12224TIP3    H236616   5.568   5.557   2.356  0.6607 -0.6911 -0.4283
12225TIP3   OH236617   7.237   2.353   5.633 -0.2000  0.0382 -0.6992
12225TIP3    H136618   7.212   2.386   5.547 -0.3779  1.2395 -0.2101
12225TIP3    H236619   7.299   2.282   5.615  2.6444  2.6108 -1.8015
12226TIP3   OH236620   1.872   6.153   0.950  0.1163 -0.6045 -0.3727
12226TIP3    H136621   1.898   6.242   0.927 -0.4090 -0.4845 -0.5180
12226TIP3    H236622   1.948   6.117   0.996  1.0297 -0.7191 -1.9208
12227TIP3   OH236623   6.744   1.044   4.888  0.0744 -0.2391 -0.3200
12227TIP3    H136624   6.650   1.035   4.874  0.0042 -0.1034  0.0490
12227TIP3    H236625   6.776   1.088   4.810 -0.1679 -0.2943 -0.4515
12228TIP3   OH236626   2.408   0.242   1.608 -0.6002  0.2072  0.1678
12228TIP3    H136627   2.360   0.167   1.575  2.1055 -1.1288 -1.0995
12228TIP3    H236628   2.362   0.268   1.687 -2.0312 -2.3343  0.2617
12229TIP3   OH236629   8.010   0.266   3.392 -0.7516 -0.1291  0.6746
12229TIP3    H136630   8.025   0.230   3.305 -1.1008 -1.5469  1.1590
12229TIP3    H236631   7.970   0.351   3.377  0.1939  0.1236 -0.5418
12230TIP3   OH236632   7.182   0.981   5.960 -0.7204  0.2414  0.3160
12230TIP3    H136633   7.090   1.004   5.972 -0.9804 -0.4242 -0.3700
12230TIP3    H236634   7.182   0.915   5.890  0.2290 -0.0997  0.6201
12231TIP3   OH236635   7.994   4.377   1.030  0.0413  0.1799  0.2993
12231TIP3    H136636   8.073   4.386   1.083  0.3149  0.2155 -0.1110
12231TIP3    H236637   7.995   4.285   1.002  0.8895  0.6079 -1.1730
12232TIP3   OH236638   3.088   1.647   5.674  0.1279  0.4124  0.4975
12232TIP3    H136639   3.157   1.714   5.669  0.9542 -0.3609  1.1303
12232TIP3    H236640   3.016   1.690   5.719 -0.1255  1.4881 -0.8901
12233TIP3   OH236641   7.486   2.470   2.857  0.1612  0.4403 -0.4811
12233TIP3    H136642   7.475   2.559   2.824  0.6175  0.1853 -1.3323
12233TIP3    H236643   7.430   2.416   2.801  1.7053 -0.1363 -1.5280
12234TIP3   OH236644   0.368   0.994   5.989 -0.9564  0.6328 -0.3827
12234TIP3    H136645   0.404   1.076   5.956 -1.9925  0.3302 -2.4683
12234TIP3    H236646   0.275   1.013   6.006 -0.7178  0.4392  1.2456
12235TIP3   OH236647   1.405   1.187   0.016  0.0196 -0.8697  0.1401
12235TIP3    H136648   1.470   1.172   0.085  0.0904 -1.7345 -0.1049
12235TIP3    H236649   1.329   1.134   0.042  0.2927 -1.7357 -0.7803
12236TIP3   OH236650   7.364   4.099   0.264  0.0715  0.3155 -0.3325
12236TIP3    H136651   7.364   4.169   0.329  1.5215  1.1127 -1.1359
12236TIP3    H236652   7.326   4.139   0.186 -0.2559 -0.1785 -0.4274
12237TIP3   OH236653   7.134   3.550   1.157 -0.7891  0.8245 -0.0576
12237TIP3    H136654   7.066   3.581   1.098 -0.8364  0.3153 -0.2787
12237TIP3    H236655   7.094   3.478   1.206 -0.2883  0.2312 -0.5000
12238TIP3   OH236656   7.280   7.550   3.418  0.2306 -0.3424 -0.0047
12238TIP3    H136657   7.215   7.588   3.476 -0.1959 -0.4195 -0.4269
12238TIP3    H236658   7.234   7.479   3.373  0.4172  0.0050 -0.7638
12239TIP3   OH236659   2.447   6.437   2.146  0.0158  0.0711  0.0702
12239TIP3    H136660   2.484   6.379   2.079 -2.7270  0.0405 -1.5719
12239TIP3    H236661   2.509   6.509   2.152  0.8720 -0.4470 -1.7693
12240TIP3   OH236662   3.211   4.170   6.262 -0.4255 -0.0357  0.1539
12240TIP3    H136663   3.248   4.155   6.349 -1.2892 -0.2242  0.5027
12240TIP3    H236664   3.283   4.152   6.201 -0.0529 -0.7446  0.7931
12241TIP3   OH236665   6.781   3.540   2.187  0.3516 -0.4830 -0.7792
12241TIP3    H136666   6.861   3.540   2.238 -0.6290 -1.5815  0.8586
12241TIP3    H236667   6.797   3.476   2.117  1.3298  0.2645 -1.2595
12242TIP3   OH236668   6.691   7.647   3.765  0.1141  0.4595 -0.0175
12242TIP3    H136669   6.616   7.629   3.709  1.1455 -3.8733 -0.3903
12242TIP3    H236670   6.754   7.692   3.709 -0.4203 -0.2043 -1.1750
12243TIP3   OH236671   6.890   0.407   4.234 -0.0661  0.8013  0.6749
12243TIP3    H136672   6.944   0.335   4.266  3.1490  2.4739 -0.4917
12243TIP3    H236673   6.816   0.411   4.295  0.2188 -2.6641  1.4291
12244TIP3   OH236674   7.693   4.063   4.416 -0.2473  0.4315 -0.6138
12244TIP3    H136675   7.674   4.083   4.508  0.4581  0.9192 -0.5628
12244TIP3    H236676   7.787   4.081   4.407 -0.3617  0.6227 -1.4869
12245TIP3   OH236677   0.495   6.866   4.949 -0.0651  0.1912 -0.0898
12245TIP3    H136678   0.483   6.887   4.856 -1.0601  1.3043  0.2705
12245TIP3    H236679   0.411   6.829   4.976  0.3103 -0.3873  0.3181
12246TIP3   OH236680   6.151   2.759   2.421 -0.4321  0.6881 -0.1466
12246TIP3    H136681   6.161   2.695   2.350 -2.6247 -0.3704  0.4140
12246TIP3    H236682   6.091   2.717   2.482  0.4119  2.1023  1.7489
12247TIP3   OH236683   1.485   5.480   6.408  0.5430 -0.3603  0.2385
12247TIP3    H136684   1.575   5.469   6.376  0.0897 -0.2802 -1.1404
12247TIP3    H236685   1.481   5.572   6.436  0.2113  0.4328 -2.1477
12248TIP3   OH236686   7.356   5.603   6.502 -0.0495 -0.4060  0.6629
12248TIP3    H136687   7.300   5.588   6.426  0.3490 -0.8639  0.4555
12248TIP3    H236688   7.296   5.605   6.576 -0.7133  2.0617  0.1683
12249TIP3   OH236689   7.780   3.679   1.462  0.0985 -0.6059 -0.6504
12249TIP3    H136690   7.734   3.750   1.418 -0.0390 -1.1425 -1.3781
12249TIP3    H236691   7.711   3.628   1.504  0.3364  1.0081  1.9386
12250TIP3   OH236692   4.137   6.073   4.652  0.5502 -0.1896  0.1569
12250TIP3    H136693   4.145   6.160   4.693  0.5667  0.1227 -0.5018
12250TIP3    H236694   4.214   6.025   4.683  0.5543  0.0332  0.5051
12251TIP3   OH236695   1.677   2.990   5.957  0.3885  0.8541  0.2699
12251TIP3    H136696   1.610   2.985   5.889  0.3124  1.9524  0.2424
12251TIP3    H236697   1.689   2.900   5.987 -1.1056  0.6459  0.2883
12252TIP3   OH236698   0.913   3.498   2.218  0.5888  0.4632 -0.8140
12252TIP3    H136699   0.990   3.445   2.240  1.6213  1.6678 -1.3663
12252TIP3    H236700   0.935   3.586   2.251 -0.1056  1.0647 -1.9032
12253TIP3   OH236701   5.050   5.899   6.338 -0.6531 -0.2758 -0.6255
12253TIP3    H136702   5.138   5.934   6.328  0.4335 -2.1603  1.3533
12253TIP3    H236703   5.052   5.816   6.291 -0.9117 -0.9599  0.5290
12254TIP3   OH236704   5.899   0.592   5.698  0.3563  0.1870 -0.0690
12254TIP3    H136705   5.841   0.543   5.757  0.5631  0.9093  0.7700
12254TIP3    H236706   5.854   0.592   5.614  0.1463 -1.0517  0.0246
12255TIP3   OH236707   3.052   1.233   5.710  0.0933  0.2740  0.0639
12255TIP3    H136708   3.077   1.185   5.631  0.5341 -0.6474  0.7476
12255TIP3    H236709   3.131   1.280   5.735  0.1224  0.1178  0.2689
12256TIP3   OH236710   8.247   4.213   0.464  0.2855 -0.4612  0.1064
12256TIP3    H136711   8.252   4.118   0.472 -3.5292 -0.9314 -1.3126
12256TIP3    H236712   8.193   4.241   0.538  1.6925  0.7385  0.7409
12257TIP3   OH236713   4.997   2.323   6.677 -0.0507 -0.0371 -0.3580
12257TIP3    H136714   5.055   2.250   6.655  0.8200  0.9974 -1.6472
12257TIP3    H236715   5.057   2.391   6.708 -0.9185 -0.1089  1.6695
12258TIP3   OH236716   6.573   4.434   1.437  0.0272  0.5949  0.1722
12258TIP3    H136717   6.530   4.349   1.443 -1.4308  1.3998  3.5121
12258TIP3    H236718   6.501   4.497   1.438  1.1464  1.9404 -0.3566
12259TIP3   OH236719   0.647   7.041   2.007  0.0026 -0.6798  0.1221
12259TIP3    H136720   0.667   6.954   1.973 -1.5669 -0.7866 -0.5955
12259TIP3    H236721   0.580   7.076   1.948  0.6455  1.0511  0.3566
12260TIP3   OH236722   0.501   2.087   6.607  0.2009  0.5609 -0.6081
12260TIP3    H136723   0.457   2.022   6.553  1.2735  1.0393 -2.0993
12260TIP3    H236724   0.431   2.125   6.661 -0.6341 -0.9369 -0.5937
12261TIP3   OH236725   6.755   0.984   5.304  0.5465 -0.4552 -0.4280
12261TIP3    H136726   6.697   1.053   5.274 -1.1072 -1.1765  0.9369
12261TIP3    H236727   6.825   1.030   5.351 -1.1773  0.3123  1.5260
12262TIP3   OH236728   6.159   0.923   4.783  0.3954 -0.4410  0.0331
12262TIP3    H136729   6.091   0.948   4.846  0.2066  1.4035 -0.8417
12262TIP3    H236730   6.126   0.954   4.699  1.6754 -0.8261 -0.6382
12263TIP3   OH236731   3.818   6.672   1.993  0.4004 -0.0706  0.1658
12263TIP3    H136732   3.810   6.767   1.997 -1.9170 -0.0050 -2.6445
12263TIP3    H236733   3.767   6.641   2.068  0.2375  0.8510  0.4567
12264TIP3   OH236734   3.644   7.194   6.019 -0.5533 -0.1691 -0.4521
12264TIP3    H136735   3.650   7.286   6.044 -1.6330  0.0257 -0.8529
12264TIP3    H236736   3.734   7.169   5.996  0.3311 -0.0995  2.5311
12265TIP3   OH236737   3.395   0.879   1.352  0.3062  0.0217 -0.3315
12265TIP3    H136738   3.319   0.845   1.304  0.9364  0.2924 -1.5746
12265TIP3    H236739   3.429   0.804   1.400 -0.8850 -0.0402  0.4467
12266TIP3   OH236740   1.721   7.130   0.879 -0.3283  0.6727 -0.3309
12266TIP3    H136741   1.630   7.139   0.910 -0.1634  2.1685 -0.1948
12266TIP3    H236742   1.735   7.207   0.824  0.1184 -0.7852 -2.3521
12267TIP3   OH236743   0.568   6.357   0.701  0.5307  0.2110  0.1573
12267TIP3    H136744   0.487   6.392   0.740 -0.7563 -0.4960 -1.7364
12267TIP3    H236745   0.568   6.265   0.727  0.4362  0.0813 -0.3077
12268TIP3   OH236746   6.829   2.011   1.328  0.1582 -0.4748 -0.4420
12268TIP3    H136747   6.910   2.011   1.379  0.5773 -1.5797 -1.0534
12268TIP3    H236748   6.759   2.015   1.393  0.6929 -0.7854  0.1653
12269TIP3   OH236749   6.450   2.831   0.035 -0.5058  0.1725 -0.2583
12269TIP3    H136750   6.508   2.803   0.106 -0.3207  1.1790 -0.0011
12269TIP3    H236751   6.398   2.753   0.015  2.0508 -1.2942 -1.6394
12270TIP3   OH236752   8.104   6.984   4.107 -0.2242  0.1693  0.1279
12270TIP3    H136753   8.121   7.060   4.051 -1.1595  0.2242 -0.0892
12270TIP3    H236754   8.009   6.976   4.109 -0.1644 -0.4499  0.8953
12271TIP3   OH236755   7.629   6.878   4.998  0.0230 -0.6575 -0.3528
12271TIP3    H136756   7.596   6.872   5.088 -3.4918 -0.0505 -1.4224
12271TIP3    H236757   7.680   6.958   4.996  0.5074 -0.9086  1.1894
12272TIP3   OH236758   7.244   6.776   5.880 -0.3231  0.0179  0.1785
12272TIP3    H136759   7.282   6.712   5.820  0.1056  0.3864  0.0456
12272TIP3    H236760   7.248   6.734   5.966  1.4617  0.4708  0.3624
12273TIP3   OH236761   7.227   3.721   4.929  0.5982 -0.5949 -0.1120
12273TIP3    H136762   7.319   3.734   4.950  0.3202 -0.0732  0.8612
12273TIP3    H236763   7.186   3.805   4.951 -0.4354 -1.4461  1.4659
12274TIP3   OH236764   1.889   2.095   3.027  0.0625 -0.5488 -0.7718
12274TIP3    H136765   1.961   2.039   2.998  1.8257  1.0779  0.2796
12274TIP3    H236766   1.835   2.038   3.082  1.9458 -1.2056  0.5047
12275TIP3   OH236767   2.096   5.440   0.644  0.3630  0.3456 -0.1681
12275TIP3    H136768   2.047   5.439   0.726 -0.1185 -1.1830 -0.4364
12275TIP3    H236769   2.042   5.490   0.583 -0.7572 -1.0536 -0.3701
12276TIP3   OH236770   3.106   1.355   1.172  0.8271  0.0825  0.1150
12276TIP3    H136771   3.160   1.407   1.232  0.2698  2.2373 -1.1846
12276TIP3    H236772   3.019   1.395   1.176  0.2178 -1.1157 -0.5268
12277TIP3   OH236773   3.664   5.009   5.233  0.1985  0.1172 -0.2521
12277TIP3    H136774   3.713   5.085   5.264 -0.3447  1.2744 -2.0557
12277TIP3    H236775   3.654   5.024   5.139 -0.0894 -2.1132 -0.6360
12278TIP3   OH236776   5.564   7.528   6.764 -0.5193  0.2927 -0.3586
12278TIP3    H136777   5.632   7.472   6.726 -1.7026 -0.2147 -1.8107
12278TIP3    H236778   5.483   7.482   6.746 -1.3725  1.5067  0.2460
12279TIP3   OH236779   6.109   1.797   2.816  0.0518  0.3247  0.1490
12279TIP3    H136780   6.184   1.776   2.760 -0.9891 -1.9607 -0.5314
12279TIP3    H236781   6.127   1.751   2.898  0.5326  1.8546  0.9360
12280TIP3   OH236782   5.084   1.116   3.897  0.0432 -0.2066  0.1900
12280TIP3    H136783   5.085   1.170   3.976  2.0711 -0.3837  0.3377
12280TIP3    H236784   5.093   1.178   3.825  1.5623 -0.2365  0.3179
12281TIP3   OH236785   0.041   3.588   0.695  0.2031 -0.3377 -0.0172
12281TIP3    H136786   0.104   3.564   0.627  0.1546 -1.0791  0.1919
12281TIP3    H236787  -0.005   3.507   0.715 -1.1690  0.2958 -0.5133
12282TIP3   OH236788   6.594   1.761   4.063  0.5431 -0.4951  0.1565
12282TIP3    H136789   6.498   1.757   4.062  0.4308  0.9655  1.1111
12282TIP3    H236790   6.616   1.767   4.156  1.2709  3.0958 -0.0936
12283TIP3   OH236791   2.088   3.083   6.752  0.0217  0.1944 -0.2611
12283TIP3    H136792   2.059   3.024   6.821  1.1642  0.0540  0.1174
12283TIP3    H236793   2.183   3.075   6.752  0.0362  0.0199 -2.0171
12284TIP3   OH236794   8.253   7.501   6.383  0.6080 -0.1974 -0.0762
12284TIP3    H136795   8.240   7.596   6.389  2.3249  0.2497 -2.1192
12284TIP3    H236796   8.179   7.470   6.331 -0.0840 -0.0524  0.7903
12285TIP3   OH236797   7.408   1.179   5.495  0.2490 -0.0984  0.3205
12285TIP3    H136798   7.341   1.205   5.431  0.4365 -0.4302 -0.0110
12285TIP3    H236799   7.482   1.236   5.475  0.2201 -0.0294  0.4079
12286TIP3   OH236800   3.882   6.029   4.542 -0.3998  0.0815  0.3787
12286TIP3    H136801   3.878   6.033   4.447  1.5620  0.9182  0.2685
12286TIP3    H236802   3.976   6.029   4.562 -0.7397 -1.2934  2.2757
12287TIP3   OH236803   2.873   3.706   3.552  0.6768  0.2882 -0.4869
12287TIP3    H136804   2.931   3.666   3.487 -1.3006 -1.1342 -1.5067
12287TIP3    H236805   2.863   3.640   3.620  0.6192  0.7071 -0.0798
12288TIP3   OH236806   6.625   1.768   0.816 -0.8065 -0.3371  0.0288
12288TIP3    H136807   6.690   1.784   0.748  0.7825 -0.0455  1.5533
12288TIP3    H236808   6.568   1.846   0.813 -0.3564 -0.0232 -0.5164
12289TIP3   OH236809   3.788   2.103   0.839  0.5661  0.2761  0.2440
12289TIP3    H136810   3.861   2.124   0.896  0.2717  1.9341  0.0678
12289TIP3    H236811   3.825   2.044   0.773  1.5969  0.6233  0.4928
12290TIP3   OH236812   5.618   4.434   6.442 -0.3777  0.2468  0.0909
12290TIP3    H136813   5.612   4.526   6.417  0.4705 -0.0701 -1.4101
12290TIP3    H236814   5.661   4.435   6.527 -0.5564  1.2438  0.1821
12291TIP3   OH236815   7.542   6.297   0.473  0.2866 -0.5418  0.0126
12291TIP3    H136816   7.513   6.210   0.500  3.1879 -1.4490  0.6324
12291TIP3    H236817   7.637   6.296   0.487  0.4683  2.6859 -0.0975
12292TIP3   OH236818   6.302   7.011   5.191  0.2817 -0.1748  0.1570
12292TIP3    H136819   6.256   7.060   5.260  0.2457 -1.3409  0.9927
12292TIP3    H236820   6.235   6.996   5.124  0.0981  0.2822  0.2368
12293TIP3   OH236821   2.142   2.234   6.217 -0.0083  0.6613  0.1769
12293TIP3    H136822   2.173   2.145   6.201  0.6735  0.9987 -0.4212
12293TIP3    H236823   2.061   2.240   6.166  0.3554  0.6325 -0.4094
12294TIP3   OH236824   5.050   2.284   4.636  0.1268  0.2330 -1.0402
12294TIP3    H136825   5.057   2.195   4.602 -2.1877 -1.2203  1.8437
12294TIP3    H236826   4.980   2.324   4.584  0.2507 -0.0706 -1.4476
12295TIP3   OH236827   1.048   7.425   4.587  0.2789 -0.3643  0.4464
12295TIP3    H136828   1.039   7.470   4.503  0.2164 -1.8533 -0.3781
12295TIP3    H236829   0.989   7.473   4.646  0.7604  1.0654 -0.1820
12296TIP3   OH236830   2.185   1.564   2.329  0.5490  0.6519  0.0942
12296TIP3    H136831   2.204   1.534   2.418  1.7987 -0.8288 -0.6231
12296TIP3    H236832   2.262   1.539   2.278 -0.7584  0.0819 -1.7128
12297TIP3   OH236833   0.031   4.107   2.706 -0.2292 -0.3480 -0.0785
12297TIP3    H136834   0.056   4.105   2.614  1.1064 -0.4632  0.2654
12297TIP3    H236835  -0.016   4.025   2.720 -0.8895 -0.1014 -0.7573
12298TIP3   OH236836   0.996   7.522   6.064 -0.5035 -0.2645 -0.1521
12298TIP3    H136837   1.002   7.472   5.983  3.0401  1.2103 -0.9652
12298TIP3    H236838   1.030   7.463   6.131 -0.2174 -0.3508 -0.3697
12299TIP3   OH236839   3.928   0.499   4.549  0.3411 -0.1565  0.0921
12299TIP3    H136840   3.991   0.453   4.494  1.3321 -1.3332  2.0858
12299TIP3    H236841   3.868   0.541   4.488  2.2877 -0.0681 -1.8713
12300TIP3   OH236842   0.256   2.576   2.677  0.1182 -0.0570  0.1379
12300TIP3    H136843   0.203   2.566   2.598 -1.3489  1.1504  0.8904
12300TIP3    H236844   0.313   2.651   2.659 -0.7744  0.7232  0.4741
12301TIP3   OH236845   0.950   5.488   2.169  0.1317 -0.2881  0.3777
12301TIP3    H136846   0.877   5.546   2.189 -1.6334 -1.3235 -2.4355
12301TIP3    H236847   0.980   5.517   2.082  2.8578 -0.1596  1.2797
12302TIP3   OH236848   7.647   3.630   3.417  0.3040 -0.5797  0.0104
12302TIP3    H136849   7.664   3.609   3.509  0.7358 -1.4544 -0.2562
12302TIP3    H236850   7.726   3.602   3.371  0.7957  1.3900 -0.4456
12303TIP3   OH236851   2.695   3.834   5.080 -0.1708 -0.0702  0.4807
12303TIP3    H136852   2.754   3.835   5.005 -0.4490 -0.7609  0.2440
12303TIP3    H236853   2.698   3.923   5.114  0.8285 -0.0382  0.3376
12304TIP3   OH236854   2.919   3.541   5.363 -0.0363  0.0421 -0.5354
12304TIP3    H136855   2.915   3.576   5.452 -0.1908  0.9103 -0.8695
12304TIP3    H236856   3.000   3.490   5.361 -1.3133 -2.1880  0.8563
12305TIP3   OH236857   7.699   3.008   3.672  0.7912  0.5026 -0.2286
12305TIP3    H136858   7.628   3.023   3.611  0.1344  0.5180  0.5201
12305TIP3    H236859   7.719   3.094   3.708 -0.6290  0.1695  1.5058
12306TIP3   OH236860   5.490   0.171   3.331 -0.0324  0.4616  0.4115
12306TIP3    H136861   5.525   0.127   3.409 -0.3261 -0.0792  0.2482
12306TIP3    H236862   5.514   0.113   3.258  1.5529  1.7123 -0.0962
12307TIP3   OH236863   3.275   0.889   2.752  0.3742 -0.2743 -0.3816
12307TIP3    H136864   3.328   0.968   2.745 -1.6751  1.2325  0.4325
12307TIP3    H236865   3.336   0.823   2.786  2.0955  0.9526 -0.9593
12308TIP3   OH236866   0.966   4.620   5.936  0.0757  0.0558  0.0109
12308TIP3    H136867   1.000   4.534   5.913 -0.7422  0.2404 -2.0789
12308TIP3    H236868   0.882   4.602   5.978 -0.2153 -0.1818 -0.6542
12309TIP3   OH236869   7.741   6.963   1.822  0.9454  0.4715  0.1873
12309TIP3    H136870   7.675   6.963   1.753  1.5271  1.8385 -0.3865
12309TIP3    H236871   7.699   6.916   1.895  0.4255 -1.2200 -1.1487
12310TIP3   OH236872   7.202   3.532   4.017 -0.4213  0.3989 -0.3945
12310TIP3    H136873   7.247   3.569   3.941  0.3602  0.5518  0.1309
12310TIP3    H236874   7.139   3.470   3.980  0.8235 -0.4756 -1.1208
12311TIP3   OH236875   3.649   4.474   4.663 -0.0153  0.3763 -0.1755
12311TIP3    H136876   3.564   4.515   4.680 -0.7077 -1.3485  0.7947
12311TIP3    H236877   3.665   4.489   4.570 -2.5358 -1.2362 -0.9718
12312TIP3   OH236878   5.110   3.674   4.517 -0.5885 -0.4838  0.1731
12312TIP3    H136879   5.082   3.588   4.485  1.3946 -1.1752  0.1960
12312TIP3    H236880   5.204   3.667   4.528 -0.3940  1.6487  0.3855
12313TIP3   OH236881   3.463   0.987   1.958 -0.6691 -0.2835  1.0796
12313TIP3    H136882   3.378   1.012   1.923 -0.2651  1.3962  1.1993
12313TIP3    H236883   3.465   1.025   2.046  0.6127  0.6375  0.6807
12314TIP3   OH236884   3.229   3.859   6.059  0.1862 -0.2859 -0.2371
12314TIP3    H136885   3.158   3.809   6.020  0.4777 -0.2998 -0.7547
12314TIP3    H236886   3.222   3.842   6.153 -0.7758  0.0852 -0.2324
12315TIP3   OH236887   3.378   7.656   0.564 -0.1745 -0.1424  0.6229
12315TIP3    H136888   3.346   7.566   0.557  0.8685 -0.5450  0.8530
12315TIP3    H236889   3.472   7.649   0.542 -0.3839  1.1078 -0.8308
12316TIP3   OH236890   5.113   7.452   4.468  0.3336 -0.0783 -0.1092
12316TIP3    H136891   5.062   7.440   4.549 -1.8065 -1.4919 -1.5449
12316TIP3    H236892   5.087   7.539   4.436  0.2929 -0.0008  0.1317
12317TIP3   OH236893   0.748   0.216   3.317  0.2534 -0.0890 -0.0198
12317TIP3    H136894   0.820   0.223   3.379 -0.7043 -1.6322  1.3275
12317TIP3    H236895   0.777   0.153   3.252  0.0026 -0.9818  0.7221
12318TIP3   OH236896   6.244   5.148   1.782 -0.2310 -0.2707 -0.3862
12318TIP3    H136897   6.205   5.115   1.701 -0.2349  2.4352 -1.5629
12318TIP3    H236898   6.181   5.210   1.816  1.8523  2.4129 -1.0574
12319TIP3   OH236899   5.100   0.097   0.896 -0.3549 -0.8912 -0.3722
12319TIP3    H136900   5.076   0.119   0.806  0.6535 -1.7037 -0.8666
12319TIP3    H236901   5.103   0.001   0.897 -2.7975 -1.0624  1.2073
12320TIP3   OH236902   8.313   1.132   4.547  0.5975 -0.1826  0.2394
12320TIP3    H136903   8.242   1.127   4.484 -1.0988 -0.8725  2.1013
12320TIP3    H236904   8.315   1.224   4.574 -0.3675 -0.3588  0.9722
12321TIP3   OH236905   7.669   6.051   4.266 -0.0995  0.4053  0.4810
12321TIP3    H136906   7.712   5.966   4.277  0.6916  0.8212  0.6234
12321TIP3    H236907   7.579   6.029   4.241 -0.1058 -0.4781  1.2351
12322TIP3   OH236908   0.761   4.453   1.556  0.6995 -0.2579 -0.2888
12322TIP3    H136909   0.851   4.424   1.538  0.5078 -1.8281  1.0499
12322TIP3    H236910   0.708   4.406   1.491  0.7588  0.0815 -0.5870
12323TIP3   OH236911   4.106   1.683   0.205 -0.1855  0.5487  0.0091
12323TIP3    H136912   4.159   1.752   0.243  0.8802 -0.3363  0.1921
12323TIP3    H236913   4.114   1.695   0.110 -0.8480  1.2860  0.0429
12324TIP3   OH236914   2.073   4.924   5.363 -0.6344  0.0451 -0.0707
12324TIP3    H136915   1.992   4.973   5.351  0.2747  2.1860  1.7872
12324TIP3    H236916   2.139   4.975   5.315  0.3109  0.6256  1.7679
12325TIP3   OH236917   6.150   1.019   5.579  0.4446  0.0423 -0.4189
12325TIP3    H136918   6.199   1.018   5.662 -0.6979  0.8961  0.3030
12325TIP3    H236919   6.113   1.107   5.575  0.4314 -0.0091 -1.8330
12326TIP3   OH236920   5.583   2.242   6.468  0.1732  0.3723  0.1273
12326TIP3    H136921   5.498   2.231   6.427  0.1984 -0.4877  0.2859
12326TIP3    H236922   5.619   2.321   6.428  0.5621 -0.8716 -2.1554
12327TIP3   OH236923   1.486   4.000   0.672 -0.6246  0.1082 -0.1623
12327TIP3    H136924   1.391   4.005   0.685 -0.8771  1.5107 -2.0772
12327TIP3    H236925   1.496   3.969   0.582  0.5601  3.6942 -1.4392
12328TIP3   OH236926   6.136   4.484   1.288  0.2212  0.5001  0.2042
12328TIP3    H136927   6.085   4.454   1.363 -0.7473  0.5889 -0.4078
12328TIP3    H236928   6.153   4.405   1.237 -0.3759  0.6535 -0.2343
12329TIP3   OH236929   0.336   0.489   1.606  0.2640  0.4080 -0.5528
12329TIP3    H136930   0.298   0.572   1.634 -2.4464 -1.1633  0.8473
12329TIP3    H236931   0.281   0.422   1.647  0.3560 -2.1138 -4.0516
12330TIP3   OH236932   6.726   0.608   3.600 -0.1324  0.6585 -0.6655
12330TIP3    H136933   6.747   0.684   3.653  1.2033  0.5958 -1.0620
12330TIP3    H236934   6.725   0.641   3.510 -1.8576  0.6588 -0.6781
12331TIP3   OH236935   2.011   4.729   4.402 -0.3367  0.3472  0.1396
12331TIP3    H136936   1.966   4.729   4.318 -0.2377 -0.9411  0.0736
12331TIP3    H236937   2.069   4.653   4.399  0.9288  1.2465  0.7136
12332TIP3   OH236938   0.325   7.600   4.775 -0.0582  0.1500  0.0195
12332TIP3    H136939   0.398   7.635   4.724 -0.5350 -1.4137 -1.8590
12332TIP3    H236940   0.360   7.588   4.863  2.1151 -0.9860 -0.9369
12333TIP3   OH236941   3.558   1.327   6.630  0.1697  0.3338  0.4396
12333TIP3    H136942   3.580   1.255   6.688 -2.3560 -0.4146  0.6068
12333TIP3    H236943   3.628   1.329   6.565  1.2161 -1.0742  1.4802
12334TIP3   OH236944   0.062   4.984   0.953 -0.8582 -0.0042  0.1107
12334TIP3    H136945   0.102   4.905   0.988  0.6697  1.5097  1.9634
12334TIP3    H236946   0.130   5.023   0.897 -0.9060  0.9206  0.6780
12335TIP3   OH236947   3.399   6.816   6.358  0.0159  0.1865  0.0096
12335TIP3    H136948   3.345   6.883   6.400 -1.5645 -0.9797 -0.0764
12335TIP3    H236949   3.412   6.848   6.269  1.3247  1.4964  0.6244
12336TIP3   OH236950   7.597   6.527   5.727  0.0855  0.0309  0.2983
12336TIP3    H136951   7.621   6.443   5.688  1.1291  0.1531  0.6340
12336TIP3    H236952   7.621   6.592   5.661  0.4995  0.1404  0.5490
12337TIP3   OH236953   0.197   5.266   1.024 -0.0498 -0.1533  0.2429
12337TIP3    H136954   0.116   5.224   0.995 -0.7403  1.3257 -0.0870
12337TIP3    H236955   0.263   5.238   0.961 -1.1047  1.4399 -1.7148
12338TIP3   OH236956   4.470   1.152   2.685 -0.2218 -0.0749  0.5164
12338TIP3    H136957   4.395   1.092   2.679 -1.3867  1.4111 -0.7827
12338TIP3    H236958   4.451   1.220   2.621  1.4453  1.2706  1.3684
12339TIP3   OH236959   4.594   6.933   1.743 -0.1927 -0.0165  0.2810
12339TIP3    H136960   4.596   6.907   1.651  1.5562 -0.3979  0.4003
12339TIP3    H236961   4.652   7.009   1.748 -0.8062  0.4270  0.9752
12340TIP3   OH236962   0.789   3.102   0.980 -0.5144  0.0725 -0.0315
12340TIP3    H136963   0.729   3.043   0.933  0.5926 -0.7333 -0.4603
12340TIP3    H236964   0.834   3.045   1.043 -1.9613  1.1135  2.0851
12341TIP3   OH236965   5.652   1.352   3.534 -0.0614 -0.0724  0.0113
12341TIP3    H136966   5.682   1.386   3.449 -0.0824 -0.2531 -0.0694
12341TIP3    H236967   5.611   1.268   3.513  2.4229 -1.5350  0.5001
12342TIP3   OH236968   3.149   7.254   2.116  0.1361  0.5012  0.5872
12342TIP3    H136969   3.241   7.255   2.144  0.7921 -1.0212 -1.2616
12342TIP3    H236970   3.106   7.196   2.178  1.2171 -1.5259 -0.4367
12343TIP3   OH236971   2.471   3.550   2.189  0.0630 -0.3123 -0.4319
12343TIP3    H136972   2.382   3.559   2.154 -0.7125 -0.8401  1.2836
12343TIP3    H236973   2.522   3.516   2.116 -1.1488 -0.0083 -1.4495
12344TIP3   OH236974   5.388   2.787   1.280  0.0173 -0.5018  0.5704
12344TIP3    H136975   5.380   2.745   1.365 -1.4483  1.4316  1.4596
12344TIP3    H236976   5.378   2.716   1.217 -1.1119 -1.6604  1.9907
12345TIP3   OH236977   0.957   3.045   3.954 -0.2377  0.3415  0.4578
12345TIP3    H136978   0.921   3.123   3.997 -0.3419  1.1622 -1.0509
12345TIP3    H236979   1.048   3.041   3.984 -0.3909  0.7064  0.9888
12346TIP3   OH236980   6.674   3.164   2.548  0.0740 -0.5576  0.6558
12346TIP3    H136981   6.696   3.129   2.635 -2.3213 -1.4792  0.9769
12346TIP3    H236982   6.715   3.102   2.487 -0.3373 -1.3714  1.1816
12347TIP3   OH236983   2.098   5.525   1.663  0.0654  0.2233 -0.8331
12347TIP3    H136984   2.143   5.510   1.746  0.0870 -0.7184 -0.9961
12347TIP3    H236985   2.144   5.599   1.624  0.5686  0.1673 -0.3611
12348TIP3   OH236986   7.213   6.485   0.364 -0.4411  0.0208  0.2242
12348TIP3    H136987   7.233   6.478   0.457  0.9512  0.7292  0.0092
12348TIP3    H236988   7.283   6.436   0.321 -0.4111  0.6713 -0.4908
12349TIP3   OH236989   4.229   1.179   1.936  0.0706  0.4542 -0.0988
12349TIP3    H136990   4.169   1.156   1.865  0.3737 -0.2896 -0.1208
12349TIP3    H236991   4.316   1.165   1.899  0.2242 -1.0118  0.7436
12350TIP3   OH236992   1.705   6.258   0.470  0.0570  0.5746 -0.2291
12350TIP3    H136993   1.657   6.331   0.510  1.1043  1.4929 -0.6083
12350TIP3    H236994   1.668   6.252   0.382  0.0326  0.7085 -0.2292
12351TIP3   OH236995   7.660   7.146   2.941  0.1213 -0.0865 -0.6765
12351TIP3    H136996   7.589   7.122   2.881 -1.0977  0.4467  0.5170
12351TIP3    H236997   7.695   7.062   2.972 -1.9191 -0.4114  0.9232
12352TIP3   OH236998   7.204   4.477   5.675 -0.1143 -0.0103 -0.3819
12352TIP3    H136999   7.193   4.554   5.732 -2.1215  1.8404 -3.0189
12352TIP3    H237000   7.267   4.506   5.609 -0.1127 -1.0314 -0.8318
12353TIP3   OH237001   7.316   4.814   1.754  0.1222 -0.3564 -0.0026
12353TIP3    H137002   7.256   4.740   1.760  0.3236 -0.7580 -2.2079
12353TIP3    H237003   7.384   4.785   1.693  0.2815  1.5895 -0.8165
12354TIP3   OH237004   5.126   5.010   2.690 -0.3470 -0.2561  0.2213
12354TIP3    H137005   5.132   4.921   2.657 -0.0182  0.1324 -0.8125
12354TIP3    H237006   5.191   5.014   2.760  2.1768  0.1049 -1.9814
12355TIP3   OH237007   3.963   0.518   3.372 -0.5340 -0.2853 -0.0239
12355TIP3    H137008   3.869   0.508   3.385 -0.1731 -2.0033  1.9350
12355TIP3    H237009   3.994   0.429   3.354  0.7545  0.1941 -0.2947
12356TIP3   OH237010   4.800   7.327   4.918  0.1943 -0.1101  0.3156
12356TIP3    H137011   4.781   7.328   5.012 -1.0161  0.4373  0.0861
12356TIP3    H237012   4.794   7.235   4.893 -0.8840 -0.1116  0.5306
12357TIP3   OH237013   4.598   7.748   4.167 -0.1820  0.2618 -0.3536
12357TIP3    H137014   4.652   7.818   4.129  1.6023 -1.1314 -0.4936
12357TIP3    H237015   4.521   7.794   4.201  0.2894  2.1198 -1.6241
12358TIP3   OH237016   6.153   2.751   6.411  0.2294  0.3252 -0.0335
12358TIP3    H137017   6.215   2.805   6.460  1.1772 -0.9889  0.2876
12358TIP3    H237018   6.197   2.666   6.403 -1.5970 -0.7249  0.3657
12359TIP3   OH237019   1.030   6.218   2.776  0.2440  0.2709  0.3495
12359TIP3    H137020   1.069   6.262   2.700  0.4433 -2.1065 -1.0164
12359TIP3    H237021   0.937   6.240   2.771  0.4985  1.4047  0.3495
12360TIP3   OH237022   4.499   5.576   5.111  0.1488  0.3604  1.0302
12360TIP3    H137023   4.594   5.578   5.102  0.0077 -0.2177 -1.8086
12360TIP3    H237024   4.473   5.667   5.117  0.7904  0.7659 -1.2130
12361TIP3   OH237025   4.466   3.005   5.847 -0.1714  0.0313 -0.4019
12361TIP3    H137026   4.454   3.010   5.941  1.0196 -1.6792 -0.0942
12361TIP3    H237027   4.378   3.004   5.811 -0.6675 -0.2065  0.7734
12362TIP3   OH237028   7.214   4.668   4.021 -0.1337 -0.2755  0.2776
12362TIP3    H137029   7.208   4.667   3.925 -1.1963 -0.8327  0.3441
12362TIP3    H237030   7.217   4.576   4.046 -1.3090 -0.1674  0.8592
12363TIP3   OH237031   3.979   3.266   2.266 -0.0679 -0.9818  0.1724
12363TIP3    H137032   4.033   3.233   2.337  2.9868  1.3841 -0.8425
12363TIP3    H237033   4.016   3.227   2.187  1.3727  1.8746 -0.6957
12364TIP3   OH237034   8.156   0.799   5.808  0.1391  0.0074 -0.2195
12364TIP3    H137035   8.155   0.707   5.782  1.3454  0.0067 -0.3093
12364TIP3    H237036   8.114   0.800   5.894 -2.4389 -0.2094 -1.3782
12365TIP3   OH237037   6.411   2.416   0.270  0.1981  0.2991 -0.3014
12365TIP3    H137038   6.347   2.479   0.238 -0.1466 -0.5409 -1.3319
12365TIP3    H237039   6.471   2.403   0.196  1.3856  0.8370  0.5415
12366TIP3   OH237040   7.133   5.759   1.151  0.0277 -0.0551 -0.5470
12366TIP3    H137041   7.087   5.675   1.153 -0.2487  0.0622  2.1317
12366TIP3    H237042   7.185   5.760   1.232  0.1917  2.2577 -0.6099
12367TIP3   OH237043   7.831   3.212   3.800 -0.3878  0.3219  0.1397
12367TIP3    H137044   7.915   3.171   3.818  0.3200  1.5176 -0.3035
12367TIP3    H237045   7.845   3.305   3.817 -1.1659  0.7724 -1.4155
12368TIP3   OH237046   5.348   4.504   0.733 -0.2165  0.0826  0.2193
12368TIP3    H137047   5.324   4.412   0.742 -1.1372 -0.1244 -3.0395
12368TIP3    H237048   5.444   4.504   0.737 -0.1043 -1.3114 -1.2199
12369TIP3   OH237049   7.500   7.184   5.412  0.3520  0.0710 -0.2418
12369TIP3    H137050   7.546   7.134   5.479  1.4564  0.3765 -0.7484
12369TIP3    H237051   7.518   7.275   5.434 -2.5639  0.3634  1.3277
12370TIP3   OH237052   2.732   1.464   3.888  0.6907  0.3068  0.6947
12370TIP3    H137053   2.736   1.523   3.812  1.8070  1.9353  1.9714
12370TIP3    H237054   2.722   1.377   3.849  1.0222  1.1043 -1.3142
12371TIP3   OH237055   2.189   0.653   6.144  0.5629 -1.1331 -0.4011
12371TIP3    H137056   2.139   0.681   6.220 -0.8624 -0.6631 -1.4594
12371TIP3    H237057   2.123   0.637   6.077  1.7600 -1.7671 -1.4691
12372TIP3   OH237058   0.358   1.961   0.267  0.0856  0.3472  0.5285
12372TIP3    H137059   0.420   2.028   0.238  0.1548 -0.3827 -1.1392
12372TIP3    H237060   0.326   1.993   0.352 -0.1107  2.6437 -0.3262
12373TIP3   OH237061   7.106   7.108   6.094 -0.2393 -0.0783  0.1901
12373TIP3    H137062   7.176   7.170   6.075  0.2248 -0.5197  0.4127
12373TIP3    H237063   7.038   7.126   6.029 -0.8181  1.7362  1.2340
12374TIP3   OH237064   3.892   7.480   5.440 -0.7649  0.1037  0.5185
12374TIP3    H137065   3.838   7.404   5.419  1.4321 -1.1434 -0.8668
12374TIP3    H237066   3.937   7.501   5.359  0.5714  1.3313  1.5352
12375TIP3   OH237067   5.712   4.359   5.486 -0.5364  0.5289  0.2575
12375TIP3    H137068   5.684   4.395   5.401  2.7797  2.1736 -0.3120
12375TIP3    H237069   5.682   4.423   5.550  0.8203  1.6944 -0.2181
12376TIP3   OH237070   2.487   1.695   0.999 -0.5645 -0.4282  0.5156
12376TIP3    H137071   2.424   1.737   1.056 -1.3070 -0.2790 -0.3934
12376TIP3    H237072   2.468   1.729   0.912  0.2625 -0.9716  0.1013
12377TIP3   OH237073   6.679   5.539   3.856 -0.2273 -0.4118 -0.4397
12377TIP3    H137074   6.716   5.526   3.769 -1.3669 -2.1168 -0.7087
12377TIP3    H237075   6.600   5.485   3.858 -0.4952 -0.0506  1.4934
12378TIP3   OH237076   8.029   2.611   3.070 -0.0262  0.1778 -0.2026
12378TIP3    H137077   7.995   2.667   3.000  0.9442  0.6557 -0.3086
12378TIP3    H237078   7.951   2.575   3.112 -0.7242  2.2122  0.3642
12379TIP3   OH237079   0.867   7.679   5.331 -0.4403  0.1596 -0.4124
12379TIP3    H137080   0.866   7.674   5.426 -2.8352 -1.3790 -0.4584
12379TIP3    H237081   0.945   7.731   5.311  0.9503 -0.7118  2.2955
12380TIP3   OH237082   3.090   4.147   2.701 -0.2796  0.2741 -0.5913
12380TIP3    H137083   3.045   4.231   2.697 -1.3880 -0.3000 -0.5524
12380TIP3    H237084   3.102   4.121   2.610 -2.4287 -0.7872 -0.6328
12381TIP3   OH237085   0.547   6.849   6.737  0.1486 -0.3322  0.2970
12381TIP3    H137086   0.599   6.780   6.694  1.2574  1.3400 -1.1779
12381TIP3    H237087   0.611   6.900   6.786 -0.1305  1.3785 -1.0214
12382TIP3   OH237088   5.106   4.966   1.358 -0.0812  0.4281 -0.0580
12382TIP3    H137089   5.028   4.912   1.346 -0.0405  0.1782  0.7606
12382TIP3    H237090   5.090   5.043   1.304 -1.4351  0.9375  1.0293
12383TIP3   OH237091   5.666   1.894   1.570 -0.5764 -0.0936  0.3086
12383TIP3    H137092   5.654   1.826   1.636  0.3694 -0.5315  0.0525
12383TIP3    H237093   5.578   1.926   1.551 -1.0834 -1.5257  0.1427
12384TIP3   OH237094   7.975   4.750   5.778  0.2784  0.2739  0.1878
12384TIP3    H137095   7.907   4.818   5.775 -0.8959 -0.7181  2.0017
12384TIP3    H237096   7.928   4.669   5.761  0.7845 -0.5352  2.2470
12385TIP3   OH237097   1.735   5.751   4.091  0.4896 -0.2746 -0.2162
12385TIP3    H137098   1.692   5.666   4.105  0.6299 -0.4871 -1.0468
12385TIP3    H237099   1.726   5.768   3.998 -1.6843  1.8002  0.2718
12386TIP3   OH237100   3.086   1.635   0.586  0.2806 -0.5421 -0.1296
12386TIP3    H137101   2.995   1.665   0.582  0.5670  0.1510 -3.0415
12386TIP3    H237102   3.106   1.635   0.680 -2.3473  0.3533  0.5287
12387TIP3   OH237103   0.091   4.611   0.231  0.5926 -0.1924  0.1276
12387TIP3    H137104   0.027   4.570   0.290 -1.0771  0.9979 -0.7605
12387TIP3    H237105   0.113   4.694   0.273  0.6040 -0.0457 -0.1671
12388TIP3   OH237106   4.326   1.967   4.534 -0.0540  0.7654 -0.3015
12388TIP3    H137107   4.384   2.042   4.548 -0.0345  0.7035 -0.0534
12388TIP3    H237108   4.335   1.914   4.613 -0.8348  1.0125 -0.0394
12389TIP3   OH237109   2.574   0.041   4.987 -0.1886  0.4594 -0.4056
12389TIP3    H137110   2.645   0.101   5.010  0.3867  0.2433 -1.5426
12389TIP3    H237111   2.580  -0.029   5.052 -1.9377  2.3964  2.0094
12390TIP3   OH237112   5.954   7.773   4.322  0.3182 -0.6490  0.1602
12390TIP3    H137113   6.003   7.843   4.278 -0.7302 -0.7669 -1.2592
12390TIP3    H237114   6.014   7.698   4.322  0.9701 -0.1378  0.5243
12391TIP3   OH237115   4.520   2.305   1.684  0.4350  0.3172  0.7232
12391TIP3    H137116   4.605   2.283   1.646  1.2331  1.7527  1.5833
12391TIP3    H237117   4.516   2.255   1.765  0.2683 -0.0577  0.4878
12392TIP3   OH237118   1.617   6.172   0.225 -0.3857 -0.5742  0.4612
12392TIP3    H137119   1.699   6.157   0.178 -1.0531  2.1230 -1.8276
12392TIP3    H237120   1.557   6.105   0.193  0.5065 -1.8026  1.2505
12393TIP3   OH237121   0.568   3.308   5.272 -0.2734 -0.4871 -0.5205
12393TIP3    H137122   0.594   3.266   5.354  1.3851 -0.6528 -1.0967
12393TIP3    H237123   0.578   3.402   5.288 -0.6971 -0.4738 -0.3086
12394TIP3   OH237124   2.227   1.033   1.804  0.4556  0.6971  0.4810
12394TIP3    H137125   2.314   1.071   1.794  1.1708 -1.0705 -0.3372
12394TIP3    H237126   2.237   0.965   1.870 -0.7044  1.5730  1.5995
12395TIP3   OH237127   1.061   0.574   4.187 -0.0316 -0.1773  0.0959
12395TIP3    H137128   1.034   0.665   4.172  1.4998  0.6886  2.1485
12395TIP3    H237129   0.984   0.532   4.224 -0.5946  0.4173 -0.3767
12396TIP3   OH237130   5.711   7.415   5.810  0.1187  0.0084 -0.5706
12396TIP3    H137131   5.717   7.482   5.742  1.7956  0.3368 -0.1318
12396TIP3    H237132   5.724   7.462   5.892  0.3343 -0.7068 -0.1796
12397TIP3   OH237133   3.080   7.560   3.481 -0.3642  0.2352 -0.1711
12397TIP3    H137134   3.154   7.526   3.431 -1.2395 -2.0306 -0.0350
12397TIP3    H237135   3.003   7.531   3.433 -1.1921 -0.2905  1.4131
12398TIP3   OH237136   2.982   0.963   1.604 -0.0054 -0.5188 -0.2707
12398TIP3    H137137   3.063   1.012   1.601  0.1156 -0.7250 -0.3703
12398TIP3    H237138   2.969   0.944   1.697  0.9555 -1.9625 -0.4118
12399TIP3   OH237139   0.800   4.694   3.337 -0.7942  0.0513 -0.4933
12399TIP3    H137140   0.731   4.746   3.296 -0.9755  0.0883 -0.1434
12399TIP3    H237141   0.801   4.612   3.288  0.5750  0.9737 -2.1038
12400TIP3   OH237142   5.309   3.256   3.673  0.5182  0.3271 -0.0529
12400TIP3    H137143   5.375   3.325   3.671  0.7199  0.1130 -1.4183
12400TIP3    H237144   5.249   3.283   3.743  1.9387  0.5980  1.1109
12401TIP3   OH237145   6.797   4.007   0.925 -0.4891  0.0843 -0.6896
12401TIP3    H137146   6.738   4.069   0.883 -1.0372 -0.8615 -1.3220
12401TIP3    H237147   6.815   3.941   0.859 -0.9833 -1.1772  0.3867
12402TIP3   OH237148   1.648   6.932   3.297  0.4202 -0.0596 -0.3801
12402TIP3    H137149   1.603   7.012   3.270  1.6032  0.6726 -0.2760
12402TIP3    H237150   1.675   6.949   3.387 -0.6085 -1.1863  0.1778
12403TIP3   OH237151   7.681   0.013   4.724  0.1777  0.5777 -0.5280
12403TIP3    H137152   7.732   0.061   4.789  1.4877  0.2146 -1.2607
12403TIP3    H237153   7.741  -0.001   4.651 -0.8447 -0.2362 -1.2504
12404TIP3   OH237154   3.887   5.118   5.928 -0.4530 -0.2101  0.4263
12404TIP3    H137155   3.874   5.059   6.002 -1.2953 -1.7793 -0.9132
12404TIP3    H237156   3.937   5.067   5.864 -1.9813  0.1265 -1.1360
12405TIP3   OH237157   4.591   4.730   0.452 -0.0793 -0.1951 -0.0724
12405TIP3    H137158   4.552   4.781   0.524  1.1221  1.6230 -0.6423
12405TIP3    H237159   4.621   4.649   0.494 -0.4382  0.3172  1.2412
12406TIP3   OH237160   3.221   3.129   3.420  0.8167 -0.2538 -0.1357
12406TIP3    H137161   3.243   3.051   3.471  2.5395  0.3937  0.1816
12406TIP3    H237162   3.181   3.189   3.483 -0.5447 -0.8708 -0.3882
12407TIP3   OH237163   2.304   7.695   5.639 -0.0441  0.6703 -0.1225
12407TIP3    H137164   2.377   7.635   5.620 -0.5614  0.2565 -0.8203
12407TIP3    H237165   2.251   7.695   5.560 -0.4448  1.5002  0.1370
12408TIP3   OH237166   1.867   6.647   0.722 -0.0604  0.3535 -0.3869
12408TIP3    H137167   1.848   6.560   0.756  0.8573  0.7655  1.3285
12408TIP3    H237168   1.928   6.685   0.786 -0.3319  2.2077 -1.1499
12409TIP3   OH237169   7.220   4.924   3.140 -0.3520  0.2301  1.3380
12409TIP3    H137170   7.171   4.990   3.092 -0.0855  1.8383  3.1439
12409TIP3    H237171   7.230   4.852   3.079 -1.1570  1.6309 -0.5379
12410TIP3   OH237172   2.351   4.093   6.291 -0.5441  0.0960  1.0223
12410TIP3    H137173   2.359   3.998   6.290  0.1833  0.1534 -0.7201
12410TIP3    H237174   2.259   4.110   6.271 -0.0488 -0.2425 -1.9946
12411TIP3   OH237175   8.239   0.944   0.397  0.2788  0.0375  0.5284
12411TIP3    H137176   8.331   0.919   0.407 -0.4496 -2.5130  1.5900
12411TIP3    H237177   8.238   0.998   0.318  2.5877 -0.3816  0.1218
12412TIP3   OH237178   0.530   5.865   4.850  0.1261 -0.5232 -0.4028
12412TIP3    H137179   0.604   5.841   4.905 -0.2571  1.1487  0.9185
12412TIP3    H237180   0.565   5.929   4.788  0.5519 -2.3807 -2.2142
12413TIP3   OH237181   1.202   1.524   4.989 -0.5658 -0.1029  0.5545
12413TIP3    H137182   1.204   1.463   4.915  0.9383 -1.0572  1.3322
12413TIP3    H237183   1.208   1.610   4.948 -0.5142 -0.5697 -0.4795
12414TIP3   OH237184   1.196   4.658   2.296 -0.6217 -0.2443  0.5225
12414TIP3    H137185   1.179   4.749   2.274  0.2288 -0.0764  0.5305
12414TIP3    H237186   1.180   4.610   2.215 -2.0126 -0.2214  0.7658
12415TIP3   OH237187   6.710   7.385   1.078 -0.1180 -0.4371 -0.4980
12415TIP3    H137188   6.792   7.364   1.121 -1.2549 -0.7656  1.6237
12415TIP3    H237189   6.736   7.423   0.994  2.1621 -1.0647 -0.1364
12416TIP3   OH237190   1.181   6.277   1.183 -0.5170  0.0640 -0.2594
12416TIP3    H137191   1.144   6.240   1.263 -3.2832  0.0885 -1.4021
12416TIP3    H237192   1.166   6.371   1.190 -0.0554  0.1573 -0.4694
12417TIP3   OH237193   4.393   0.157   0.047  0.1425  0.0474 -0.0124
12417TIP3    H137194   4.364   0.067   0.034  0.8690 -0.0373 -1.2673
12417TIP3    H237195   4.443   0.178  -0.032  1.3421  1.0144  0.9539
12418TIP3   OH237196   7.348   6.213   4.733 -0.0970 -0.2682  0.6113
12418TIP3    H137197   7.365   6.284   4.672  0.8333 -0.2160  0.9201
12418TIP3    H237198   7.326   6.138   4.677  2.0107 -0.5718  0.1159
12419TIP3   OH237199   1.693   6.181   5.733 -0.3515 -0.2024 -0.1519
12419TIP3    H137200   1.675   6.138   5.649  0.0635 -0.5867 -0.0529
12419TIP3    H237201   1.786   6.162   5.750  0.1435  1.6633 -0.6289
12420TIP3   OH237202   8.047   6.295   3.665  0.3385  0.1676  0.1241
12420TIP3    H137203   7.981   6.320   3.601  0.4627  0.0128 -0.0657
12420TIP3    H237204   8.109   6.241   3.616  0.0362 -0.5768  0.5355
12421TIP3   OH237205   8.201   5.905   5.491  0.1813  0.2141 -0.0429
12421TIP3    H137206   8.160   5.910   5.405  0.0953 -1.4788 -0.1306
12421TIP3    H237207   8.272   5.970   5.488  0.4222 -0.0834 -1.5266
12422TIP3   OH237208   4.867   5.954   4.739  0.0367 -0.1375  0.3293
12422TIP3    H137209   4.882   5.863   4.763  0.7913  0.1795  1.1042
12422TIP3    H237210   4.951   5.984   4.704 -0.3049  0.1671 -0.2470
12423TIP3   OH237211   0.183   4.588   5.027  0.1886 -0.4538 -0.2727
12423TIP3    H137212   0.277   4.600   5.041  0.1650 -0.8606  0.2454
12423TIP3    H237213   0.157   4.663   4.973  0.7340 -0.1349 -0.0970
12424TIP3   OH237214   3.510   7.142   2.648  0.1097  0.2367 -0.0198
12424TIP3    H137215   3.441   7.200   2.616  0.0472 -0.1542 -0.6117
12424TIP3    H237216   3.587   7.165   2.596  0.0618 -0.2601 -0.3221
12425TIP3   OH237217   0.374   0.180   5.163 -0.1760 -0.2914 -0.3996
12425TIP3    H137218   0.347   0.226   5.243 -0.7345 -0.6899 -0.3500
12425TIP3    H237219   0.467   0.199   5.154 -0.3230  0.5445 -0.1810
12426TIP3   OH237220   2.956   1.030   3.055 -0.1206  0.0584  0.5646
12426TIP3    H137221   2.884   0.970   3.075  0.1232 -0.1524  0.8296
12426TIP3    H237222   3.032   0.972   3.041 -0.2225  0.1993 -0.7813
12427TIP3   OH237223   5.209   1.137   4.588 -0.0366  0.1006 -0.3308
12427TIP3    H137224   5.291   1.088   4.593  0.8333  1.5045 -0.1662
12427TIP3    H237225   5.147   1.086   4.640  0.7889 -0.8754 -0.2755
12428TIP3   OH237226   1.721   4.643   3.627 -0.4546  0.0131  0.3221
12428TIP3    H137227   1.778   4.689   3.565  0.8444 -1.4035  0.4059
12428TIP3    H237228   1.654   4.602   3.572 -1.3813  1.6049  0.2138
12429TIP3   OH237229   2.157   2.293   0.053  0.4060  1.0435 -0.2183
12429TIP3    H137230   2.198   2.210   0.027 -0.8000  0.3896 -0.1010
12429TIP3    H237231   2.176   2.353  -0.020  1.0059  0.5751 -0.4554
12430TIP3   OH237232   1.790   6.410   6.564  0.5747  0.6312 -0.5706
12430TIP3    H137233   1.815   6.502   6.569  0.6462  0.5761  0.2095
12430TIP3    H237234   1.743   6.402   6.481  0.3471  1.4233 -0.5225
12431TIP3   OH237235   6.144   2.452   4.765 -0.5579 -0.8284 -0.3470
12431TIP3    H137236   6.148   2.544   4.793 -0.7352 -0.9664  0.1423
12431TIP3    H237237   6.050   2.434   4.758 -0.5183 -0.7833 -1.0928
12432TIP3   OH237238   4.219   5.290   2.434  0.3332 -0.5922  0.1591
12432TIP3    H137239   4.185   5.232   2.366  0.8771  0.4263 -1.0060
12432TIP3    H237240   4.169   5.372   2.423  1.5120  0.1166 -0.0494
12433TIP3   OH237241   4.367   3.866   2.547  0.1433 -0.2353  0.7380
12433TIP3    H137242   4.293   3.806   2.541 -0.3046  0.2560  1.3161
12433TIP3    H237243   4.339   3.934   2.608 -0.0050  1.4780 -1.1052
12434TIP3   OH237244   3.078   0.681   0.809 -0.0972 -0.7675 -0.2457
12434TIP3    H137245   3.131   0.731   0.872 -0.8916  0.4709 -0.5231
12434TIP3    H237246   3.136   0.612   0.778  0.8535 -0.3667  0.5927
12435TIP3   OH237247   5.537   0.383   4.130 -0.2631  0.9664  0.2642
12435TIP3    H137248   5.563   0.418   4.215 -0.7506 -0.4087  0.9996
12435TIP3    H237249   5.455   0.337   4.146 -0.6682  1.1746 -1.0744
12436TIP3   OH237250   4.891   1.130   1.898  0.1686  0.7861  0.3349
12436TIP3    H137251   4.940   1.188   1.840 -2.4542  1.3700 -1.4955
12436TIP3    H237252   4.836   1.188   1.950 -0.9750  0.0526 -0.0311
12437TIP3   OH237253   3.742   3.383   4.728  0.5218  0.5584  0.2744
12437TIP3    H137254   3.685   3.434   4.785  1.4359  0.5585  1.2143
12437TIP3    H237255   3.772   3.311   4.783 -0.3497 -0.7460 -0.8772
12438TIP3   OH237256   5.377   1.347   4.063  0.0464  0.8576 -0.2706
12438TIP3    H137257   5.415   1.435   4.058 -0.1830  0.8990 -1.4065
12438TIP3    H237258   5.408   1.303   3.985 -0.1933  0.0592  0.0764
12439TIP3   OH237259   7.530   2.978   2.158 -0.1823 -0.3011  0.2799
12439TIP3    H137260   7.449   2.999   2.204  0.0689 -0.8330  0.9776
12439TIP3    H237261   7.598   2.979   2.225  0.3460 -0.1547 -0.2446
12440TIP3   OH237262   6.314   6.834   3.403 -0.7161 -0.4432 -0.7723
12440TIP3    H137263   6.338   6.858   3.493 -0.8008 -2.4336 -0.1708
12440TIP3    H237264   6.389   6.863   3.350  0.7152 -1.8507  0.3667
12441TIP3   OH237265   2.331   3.359   2.354  0.6454 -0.6386 -0.0275
12441TIP3    H137266   2.241   3.388   2.359 -0.0754 -2.9519  2.2871
12441TIP3    H237267   2.376   3.429   2.306 -1.9466  1.4816  0.4154
12442TIP3   OH237268   3.786   5.084   2.414  0.4219  0.0144 -0.2416
12442TIP3    H137269   3.706   5.043   2.445  1.3325 -1.5972  0.1071
12442TIP3    H237270   3.777   5.177   2.437 -0.6757 -0.4116  1.1558
12443TIP3   OH237271   2.082   2.243   1.495  0.3043 -0.0811  0.7986
12443TIP3    H137272   2.047   2.328   1.523  0.1207  0.7405 -1.7129
12443TIP3    H237273   2.159   2.264   1.443 -1.9365 -0.9762 -3.3554
12444TIP3   OH237274   3.571   6.700   0.367  0.1456  0.3462 -0.4902
12444TIP3    H137275   3.519   6.620   0.362 -1.5506  1.4070 -1.1845
12444TIP3    H237276   3.539   6.753   0.293  0.5726  1.9970  0.4575
12445TIP3   OH237277   3.126   3.816   1.681  0.4380  0.0610  0.1591
12445TIP3    H137278   3.141   3.738   1.627 -0.2236  1.6619 -2.4999
12445TIP3    H237279   3.213   3.838   1.716  1.1281 -0.3517 -1.2294
12446TIP3   OH237280   5.021   2.634   5.602 -0.0566 -0.3997 -0.0419
12446TIP3    H137281   5.013   2.728   5.587 -0.2600 -0.5663 -1.0981
12446TIP3    H237282   5.115   2.617   5.596 -0.1066 -0.4132 -0.9373
12447TIP3   OH237283   4.896   0.313   3.149 -0.3529  0.0603  0.1438
12447TIP3    H137284   4.920   0.368   3.224 -0.6261  1.7755 -0.9703
12447TIP3    H237285   4.965   0.246   3.145  1.3522  1.7387  0.1368
12448TIP3   OH237286   0.500   6.186   0.459  0.2767  0.7857  0.2189
12448TIP3    H137287   0.547   6.247   0.516 -0.9708  1.6071  0.4141
12448TIP3    H237288   0.450   6.242   0.400  1.1286 -0.0667 -1.3556
12449TIP3   OH237289   2.303   0.612   3.584  0.6865 -0.1421 -0.1787
12449TIP3    H137290   2.330   0.689   3.535 -0.2684  0.4797  0.2432
12449TIP3    H237291   2.249   0.646   3.656  1.1695 -1.1099  0.6752
12450TIP3   OH237292   6.287   3.547   4.722  0.2807 -0.4194  1.1613
12450TIP3    H137293   6.258   3.619   4.777  0.9191  0.0278  0.9245
12450TIP3    H237294   6.314   3.479   4.784 -0.3424 -0.4648  1.3843
12451TIP3   OH237295   1.332   1.563   5.212  0.4537 -0.0552 -0.1871
12451TIP3    H137296   1.419   1.524   5.216  0.1450 -0.6917  1.0333
12451TIP3    H237297   1.290   1.523   5.136  1.7895  1.5476 -1.8367
12452TIP3   OH237298   4.341   6.621   2.745 -0.3615  0.1162 -0.0615
12452TIP3    H137299   4.311   6.678   2.674 -1.2944  0.0364  0.2500
12452TIP3    H237300   4.419   6.577   2.711 -0.8425  0.0282 -1.0591
12453TIP3   OH237301   6.393   5.563   6.492  0.1983 -0.0129  0.1212
12453TIP3    H137302   6.448   5.488   6.470  1.1227  0.9014 -0.7863
12453TIP3    H237303   6.422   5.589   6.580  0.1349 -0.4681  0.2804
12454TIP3   OH237304   7.699   2.558   3.083 -0.0337  0.3778 -0.0857
12454TIP3    H137305   7.666   2.501   3.152  0.3697 -1.3407 -1.2578
12454TIP3    H237306   7.642   2.542   3.008 -0.4186  2.1602 -0.2141
12455TIP3   OH237307   6.951   6.744   5.940  0.3934  0.1657  0.4069
12455TIP3    H137308   6.930   6.651   5.930 -1.9615  0.6844 -0.1792
12455TIP3    H237309   6.873   6.782   5.982  1.7673  1.7038  1.7115
12456TIP3   OH237310   2.346   3.403   6.452 -0.6040 -0.2995 -0.2341
12456TIP3    H137311   2.414   3.374   6.513 -1.3034  0.7766  1.1165
12456TIP3    H237312   2.292   3.325   6.439  0.3553 -0.9165 -0.6011
12457TIP3   OH237313   6.087   4.925   4.913 -0.0602 -1.1135  0.5034
12457TIP3    H137314   5.992   4.931   4.919 -0.5291 -2.2847 -3.3547
12457TIP3    H237315   6.103   4.844   4.865  2.6306  0.8801 -2.3703
12458TIP3   OH237316   4.467   4.973   5.992 -0.2527 -0.2271 -0.3943
12458TIP3    H137317   4.526   5.046   5.977  0.9074 -0.8493  0.9205
12458TIP3    H237318   4.385   5.013   6.020  0.2436  0.5908 -0.0830
12459TIP3   OH237319   1.449   7.188   1.646 -0.5013 -0.2579 -0.4782
12459TIP3    H137320   1.490   7.102   1.633 -1.6793 -0.5652 -2.6320
12459TIP3    H237321   1.506   7.232   1.710  1.8170 -1.5277 -1.5245
12460TIP3   OH237322   3.358   3.014   1.684  0.2191  0.1706  0.5921
12460TIP3    H137323   3.311   2.999   1.602 -0.6906  0.1599  1.1022
12460TIP3    H237324   3.440   3.056   1.657  0.0803 -0.1371 -0.3430
12461TIP3   OH237325   7.765   0.278   4.007  0.1256 -0.0052  1.2857
12461TIP3    H137326   7.808   0.362   4.026  0.4504 -0.0132  0.6048
12461TIP3    H237327   7.690   0.302   3.952  0.1553 -0.1521  1.1816
12462TIP3   OH237328   7.992   2.694   6.262 -0.4874 -0.3190 -0.6382
12462TIP3    H137329   8.079   2.657   6.278 -0.6343 -0.7612 -0.8275
12462TIP3    H237330   7.933   2.618   6.263 -1.0489  0.1046  0.6950
12463TIP3   OH237331   0.772   3.684   0.135 -0.0341  0.1323 -0.1062
12463TIP3    H137332   0.710   3.737   0.084 -0.1227  0.0916 -0.0401
12463TIP3    H237333   0.720   3.647   0.206  0.0226 -0.0654 -0.1662
12464TIP3   OH237334   6.040   3.297   2.841 -0.1224  0.0533  0.1862
12464TIP3    H137335   6.117   3.275   2.893 -0.4051 -0.7160  0.2918
12464TIP3    H237336   5.979   3.335   2.903 -0.0196  0.2024  0.1969
12465TIP3   OH237337   4.363   0.034   3.332  0.2393 -0.2151  0.4124
12465TIP3    H137338   4.368   0.129   3.346  0.3149 -0.1858  0.1910
12465TIP3    H237339   4.281   0.008   3.374  0.0425  0.0039  0.1654
12466TIP3   OH237340   2.045   7.818   2.080 -0.7815 -0.0399 -0.5627
12466TIP3    H137341   2.118   7.757   2.070  0.6646  1.4999  0.2585
12466TIP3    H237342   1.999   7.789   2.159  0.9703  0.9266  0.8814
12467TIP3   OH237343   8.068   5.054   5.301  0.2855 -0.1022 -0.0501
12467TIP3    H137344   8.132   5.011   5.244  1.4096  0.0189  1.0684
12467TIP3    H237345   7.993   5.073   5.244  0.1751 -2.5410 -0.8485
12468TIP3   OH237346   5.772   6.352   2.526 -0.0673 -0.7252 -0.2741
12468TIP3    H137347   5.761   6.429   2.582 -2.0217 -2.0497  1.3366
12468TIP3    H237348   5.846   6.305   2.565 -1.4578 -1.6740  1.3489
12469TIP3   OH237349   0.102   6.722   3.282  0.5954  0.2351 -0.5598
12469TIP3    H137350   0.155   6.791   3.322  0.7272  0.2333 -0.7268
12469TIP3    H237351   0.034   6.768   3.234 -0.3316  0.2123  0.6937
12470TIP3   OH237352   4.849   6.729   4.191 -0.2543 -0.0169 -0.3709
12470TIP3    H137353   4.794   6.697   4.120 -2.0930  2.3525 -0.1720
12470TIP3    H237354   4.898   6.801   4.152  1.3248 -0.8974 -0.0563
12471TIP3   OH237355   1.165   0.175   0.760  0.0142 -0.8027  0.3978
12471TIP3    H137356   1.117   0.139   0.834 -2.2660 -1.3031 -1.2289
12471TIP3    H237357   1.100   0.223   0.709  1.7703  0.6495 -0.6259
12472TIP3   OH237358   5.342   5.162   5.748  0.6360  0.0303  0.0137
12472TIP3    H137359   5.380   5.123   5.827  3.1366 -0.5624 -1.3774
12472TIP3    H237360   5.362   5.255   5.755  0.2410  0.0848  0.4079
12473TIP3   OH237361   2.530   2.852   3.061  0.5153 -0.1413 -0.0751
12473TIP3    H137362   2.462   2.871   3.126  1.2670 -0.4821  0.8326
12473TIP3    H237363   2.549   2.938   3.022  0.7614  0.2547  0.8766
12474TIP3   OH237364   2.924   2.331   0.815  0.1490  0.8359 -0.7556
12474TIP3    H137365   2.935   2.344   0.720  1.5414 -0.4810 -0.8119
12474TIP3    H237366   2.960   2.244   0.832 -0.8426  0.7029  0.8818
12475TIP3   OH237367   4.480   6.663   1.484 -0.7070  0.7032  0.1534
12475TIP3    H137368   4.388   6.685   1.467 -0.6076  1.8625  0.9915
12475TIP3    H237369   4.529   6.736   1.446 -0.0355 -0.4336 -1.2575
12476TIP3   OH237370   1.088   1.181   5.303  0.1615 -0.1676 -0.5023
12476TIP3    H137371   1.078   1.259   5.357 -1.2492 -0.3674 -0.4490
12476TIP3    H237372   1.181   1.180   5.279  0.6191  0.4147  1.1409
12477TIP3   OH237373   4.350   6.630   3.508  0.2172  0.2482 -0.0211
12477TIP3    H137374   4.408   6.666   3.441  0.0268 -0.4956 -0.6087
12477TIP3    H237375   4.267   6.614   3.461 -0.0371  0.0653  0.4830
12478TIP3   OH237376   1.749   1.261   2.717 -0.4285  0.0512  0.4928
12478TIP3    H137377   1.663   1.241   2.679 -1.8626  2.4152  2.2109
12478TIP3    H237378   1.747   1.356   2.732  2.3076  0.0882  1.0971
12479TIP3   OH237379   1.174   2.746   6.637  0.5548  0.0533  0.3012
12479TIP3    H137380   1.184   2.821   6.696 -1.1722  0.2396  0.4155
12479TIP3    H237381   1.252   2.693   6.651  2.6966  2.6190 -0.9824
12480TIP3   OH237382   6.945   1.973   6.596  0.0074  0.1954 -0.6184
12480TIP3    H137383   6.909   2.001   6.511  0.8831  1.5702 -0.5725
12480TIP3    H237384   7.024   2.026   6.606  0.9580 -1.3303  0.1949
12481TIP3   OH237385   7.310   3.213   3.753 -0.2702  0.5977  0.3362
12481TIP3    H137386   7.372   3.246   3.689 -0.4311  1.4348  0.6101
12481TIP3    H237387   7.252   3.155   3.702  0.0134  0.7261 -0.1369
12482TIP3   OH237388   1.749   2.763   4.070 -0.6167 -0.2077  0.3978
12482TIP3    H137389   1.803   2.768   4.150 -2.7788 -0.1860  1.9355
12482TIP3    H237390   1.711   2.850   4.062  0.3744  0.1115 -1.3197
12483TIP3   OH237391   2.372   0.432   4.957 -0.0465 -0.0921 -0.5417
12483TIP3    H137392   2.344   0.524   4.949  1.4763  0.3080 -1.6976
12483TIP3    H237393   2.393   0.406   4.868  0.2293 -1.3448 -0.1212
12484TIP3   OH237394   5.146   2.371   1.615 -0.3836 -0.1970  0.2023
12484TIP3    H137395   5.130   2.339   1.704 -1.2291  2.4705  1.1187
12484TIP3    H237396   5.110   2.303   1.558 -1.5469 -1.1132  1.9389
12485TIP3   OH237397   2.744   3.530   2.344 -0.2292 -0.0810  0.3171
12485TIP3    H137398   2.692   3.484   2.279  1.0490 -1.5949  0.3105
12485TIP3    H237399   2.720   3.490   2.427  1.6442 -1.5455  0.1957
12486TIP3   OH237400   4.762   2.185   2.576 -0.6178  0.0295 -0.0417
12486TIP3    H137401   4.709   2.253   2.618  0.2464  0.1922  0.8238
12486TIP3    H237402   4.762   2.209   2.483 -2.0816 -0.0147 -0.0722
12487TIP3   OH237403   0.194   7.394   1.655  0.1314  0.2843 -0.2769
12487TIP3    H137404   0.162   7.442   1.579 -0.5419  0.6866  0.2545
12487TIP3    H237405   0.277   7.356   1.626  0.2768  1.1005 -0.9581
12488TIP3   OH237406   5.576   4.209   6.330 -0.2154  0.2212 -0.0598
12488TIP3    H137407   5.517   4.164   6.390 -0.1839  0.2936  0.0247
12488TIP3    H237408   5.614   4.280   6.381  2.2466 -1.6014  0.7952
12489TIP3   OH237409   5.381   3.212   5.282 -0.4697  0.1985 -0.1626
12489TIP3    H137410   5.335   3.144   5.233 -0.5385  0.1215  0.0070
12489TIP3    H237411   5.442   3.164   5.338 -1.2893  0.2130  0.7598
12490TIP3   OH237412   7.780   6.157   3.693  0.5428  0.0612  0.3768
12490TIP3    H137413   7.685   6.175   3.690  0.2891 -1.0575  1.2153
12490TIP3    H237414   7.814   6.223   3.753  0.2898  0.4098  0.1484
12491TIP3   OH237415   1.161   3.581   1.959  0.2954 -0.0806  0.1517
12491TIP3    H137416   1.218   3.640   1.909 -0.1726  0.2052 -0.0569
12491TIP3    H237417   1.184   3.493   1.928  1.5755 -0.0924  1.0535
12492TIP3   OH237418   2.359   2.349   0.643 -0.1881  0.0879 -0.3466
12492TIP3    H137419   2.441   2.358   0.691  0.5244  0.4576 -1.5889
12492TIP3    H237420   2.325   2.264   0.670  1.0732 -0.4940 -0.5081
12493TIP3   OH237421   4.718   2.746   6.456  0.1924 -0.3677 -0.0631
12493TIP3    H137422   4.635   2.719   6.417  0.4106  0.2256 -0.9672
12493TIP3    H237423   4.747   2.670   6.507 -1.3122 -0.2896  0.9637
12494TIP3   OH237424   6.987   3.679   0.964 -0.3089  0.3006 -0.0061
12494TIP3    H137425   7.011   3.643   0.878 -0.5816 -1.9492  0.8073
12494TIP3    H237426   7.059   3.738   0.985  0.0526  0.4577 -1.5225
12495TIP3   OH237427   2.771   3.350   3.056  0.4995 -0.3827  0.0973
12495TIP3    H137428   2.710   3.287   3.019  2.9234 -1.7055 -1.8750
12495TIP3    H237429   2.824   3.380   2.982  2.2010  0.7827  1.6853
12496TIP3   OH237430   0.561   4.035   6.458  0.4206  0.0769  0.1113
12496TIP3    H137431   0.615   4.005   6.531 -0.8624 -1.1707  0.5943
12496TIP3    H237432   0.522   4.117   6.489  1.6096  0.7295 -0.0573
12497TIP3   OH237433   2.852   6.189   2.834  0.3980  0.1679 -0.7129
12497TIP3    H137434   2.912   6.219   2.766  0.6293 -0.8826 -0.9941
12497TIP3    H237435   2.778   6.152   2.786 -0.0452  0.6076 -0.3729
12498TIP3   OH237436   2.886   2.920   1.885 -0.5767  0.0703 -0.1830
12498TIP3    H137437   2.847   2.834   1.901  1.0317 -0.7212 -0.3340
12498TIP3    H237438   2.811   2.980   1.882 -1.6022 -1.0481  1.5892
12499TIP3   OH237439   2.145   7.342   2.278 -0.0383  0.0803  0.0546
12499TIP3    H137440   2.077   7.355   2.345  0.5408 -0.3215  0.7428
12499TIP3    H237441   2.131   7.253   2.246 -0.4414  0.3450 -0.5128
12500TIP3   OH237442   3.216   2.577   1.255 -0.2790 -0.0225 -0.1416
12500TIP3    H137443   3.154   2.642   1.290 -0.5678 -0.3053 -0.1252
12500TIP3    H237444   3.224   2.512   1.324  0.6306  0.3966  0.1668
12501TIP3   OH237445   1.605   7.449   4.778  0.8134 -0.2408 -0.2456
12501TIP3    H137446   1.564   7.443   4.864  2.5698 -0.2790  0.6462
12501TIP3    H237447   1.561   7.523   4.735 -0.1395 -0.2741  0.6474
12502TIP3   OH237448   7.342   6.418   3.273  0.0013 -0.0483 -0.0994
12502TIP3    H137449   7.269   6.359   3.290  1.1458 -0.9664  2.0126
12502TIP3    H237450   7.320   6.498   3.322 -1.0075  0.9078 -2.0239
12503TIP3   OH237451   4.524   0.310   1.508  0.4519  0.8923 -0.0206
12503TIP3    H137452   4.601   0.260   1.534  0.5708  1.2884  0.4045
12503TIP3    H237453   4.549   0.348   1.423  0.3998  0.3232 -0.2894
12504TIP3   OH237454   7.971   3.663   1.637 -0.4145 -0.3948 -0.1440
12504TIP3    H137455   8.043   3.607   1.610  0.6405  0.6224  0.4630
12504TIP3    H237456   7.916   3.672   1.559  1.5390  0.9655 -1.4585
12505TIP3   OH237457   1.947   6.627   5.942 -0.3193 -0.1940  0.3005
12505TIP3    H137458   2.041   6.641   5.931 -0.4445  0.5778  0.1183
12505TIP3    H237459   1.906   6.694   5.887 -0.9745  0.1632  1.1936
12506TIP3   OH237460   4.995   0.689   1.478 -0.3548 -0.0600  0.0147
12506TIP3    H137461   5.076   0.683   1.529 -0.7503  1.1297  0.8408
12506TIP3    H237462   4.988   0.782   1.457  0.2164 -0.6025 -2.9916
12507TIP3   OH237463   0.142   0.290   6.377 -0.2631  0.5620  0.3527
12507TIP3    H137464   0.113   0.370   6.420 -0.9776  0.1255  0.6872
12507TIP3    H237465   0.093   0.220   6.419  1.6740 -0.2866  1.3584
12508TIP3   OH237466   5.124   0.091   4.819  0.1242  0.0696 -0.8844
12508TIP3    H137467   5.044   0.137   4.845  1.1800  0.7111  1.5527
12508TIP3    H237468   5.094   0.022   4.760 -2.4180 -0.5249  0.9107
12509TIP3   OH237469   7.509   1.202   4.102 -0.3464 -1.1838 -0.6507
12509TIP3    H137470   7.536   1.269   4.039  1.8593 -1.4436 -0.0647
12509TIP3    H237471   7.420   1.228   4.127  0.2478  1.2814 -0.7925
12510TIP3   OH237472   8.288   1.135   1.085  0.5874  0.0054  0.0899
12510TIP3    H137473   8.208   1.187   1.075  0.1472 -0.3265  1.6348
12510TIP3    H237474   8.356   1.198   1.107  0.3339  0.0915  0.6442
12511TIP3   OH237475   4.692   4.435   1.434 -0.4684  1.0921 -0.7163
12511TIP3    H137476   4.686   4.477   1.520 -2.1345  0.8941 -0.7077
12511TIP3    H237477   4.644   4.493   1.375 -0.9475  0.2910 -1.1297
12512TIP3   OH237478   6.706   5.956   0.307  0.2706 -0.1588  0.1691
12512TIP3    H137479   6.667   6.002   0.233  0.2343 -0.5384 -0.0504
12512TIP3    H237480   6.724   6.024   0.371  2.1169  0.5162 -0.9563
12513TIP3   OH237481   1.268   3.551   3.046  0.8699  0.0272  0.1875
12513TIP3    H137482   1.202   3.483   3.034  2.7447 -1.6474 -1.5832
12513TIP3    H237483   1.318   3.522   3.122  0.5723  0.4015  0.5255
12514TIP3   OH237484   2.444   5.390   1.915 -0.7017  0.2702 -0.8434
12514TIP3    H137485   2.380   5.324   1.889 -1.5397 -0.3549  2.2834
12514TIP3    H237486   2.401   5.474   1.897 -1.4098 -0.1093 -0.9675
12515TIP3   OH237487   3.148   0.170   6.175  0.1519 -0.0033  0.3224
12515TIP3    H137488   3.196   0.093   6.203 -0.0846 -0.4540 -0.4850
12515TIP3    H237489   3.206   0.214   6.113  0.3209  0.5143  0.8429
12516TIP3   OH237490   1.825   4.241   5.867  0.2750  0.5907  0.3008
12516TIP3    H137491   1.916   4.226   5.892  0.5204  1.8173  0.1897
12516TIP3    H237492   1.829   4.272   5.777 -0.2964  0.2415  0.1471
12517TIP3   OH237493   6.868   4.835   0.743  0.5293 -0.3625 -0.8498
12517TIP3    H137494   6.794   4.857   0.686 -1.1878 -0.6681  1.1637
12517TIP3    H237495   6.856   4.743   0.764  0.8135 -0.1283  0.4176
12518TIP3   OH237496   2.764   2.406   3.576  0.1926  0.1854  0.1809
12518TIP3    H137497   2.733   2.492   3.605 -0.7435  0.0990 -0.5260
12518TIP3    H237498   2.686   2.362   3.542  0.4938 -1.2977  1.3220
12519TIP3   OH237499   8.116   0.231   2.498  0.3659 -0.6244 -0.0558
12519TIP3    H137500   8.201   0.273   2.495  0.5945 -1.0920 -0.2986
12519TIP3    H237501   8.053   0.302   2.488  0.7021 -0.1922  0.8072
12520TIP3   OH237502   4.877   3.350   4.910  0.2940  0.2660 -0.1954
12520TIP3    H137503   4.851   3.379   4.997 -0.3866  0.3322 -0.4088
12520TIP3    H237504   4.825   3.271   4.895 -1.8531  1.8284 -1.6778
12521TIP3   OH237505   6.153   1.858   0.070 -0.3088 -0.0611  0.6694
12521TIP3    H137506   6.237   1.899   0.049 -0.2576 -1.7217 -3.1846
12521TIP3    H237507   6.177   1.772   0.106 -0.2565 -0.7852 -1.0025
12522TIP3   OH237508   2.486   2.456   4.259 -0.2168  0.0450 -0.3228
12522TIP3    H137509   2.414   2.463   4.322 -0.0641  1.4531 -0.2811
12522TIP3    H237510   2.477   2.368   4.222 -1.6236 -0.0018  0.0837
12523TIP3   OH237511   0.102   5.162   6.339  0.6723 -0.3991 -0.1372
12523TIP3    H137512   0.057   5.245   6.355  1.6015  0.1329 -0.2199
12523TIP3    H237513   0.047   5.097   6.383 -0.9929 -0.0044 -1.4829
12524TIP3   OH237514   1.466   6.290   3.756 -1.0232  0.2486 -0.4441
12524TIP3    H137515   1.549   6.314   3.798 -0.9179 -0.3524 -0.3000
12524TIP3    H237516   1.473   6.326   3.667  0.4218 -1.7914 -1.2400
12525TIP3   OH237517   1.467   2.373   3.036 -0.3320 -0.3523 -0.1212
12525TIP3    H137518   1.424   2.296   2.999 -1.4111  0.9786 -1.7976
12525TIP3    H237519   1.409   2.399   3.109 -1.0005 -0.0824 -0.7299
12526TIP3   OH237520   2.974   1.987   3.087  0.1570 -0.1071  0.0308
12526TIP3    H137521   3.032   2.059   3.064 -0.5419  0.4899  0.1078
12526TIP3    H237522   3.030   1.924   3.131  0.9332  0.0459 -0.7017
12527TIP3   OH237523   5.578   1.419   0.517  0.0700  0.1201  0.7182
12527TIP3    H137524   5.661   1.425   0.564  0.0860  0.1822  0.6813
12527TIP3    H237525   5.591   1.471   0.438  0.5506 -1.1940 -0.0933
12528TIP3   OH237526   1.671   5.069   6.025 -0.6774 -0.2994  0.1855
12528TIP3    H137527   1.597   5.082   6.084 -0.3666  0.6389  0.3728
12528TIP3    H237528   1.652   5.125   5.949  1.6936  3.2126  1.9246
12529TIP3   OH237529   0.058   6.512   4.569  0.0387 -1.0651  0.0110
12529TIP3    H137530   0.028   6.603   4.571 -0.0761 -1.1199  1.7096
12529TIP3    H237531  -0.001   6.469   4.507  0.2781  0.0534 -1.0394
12530TIP3   OH237532   3.009   0.281   5.569  0.9250 -0.2304 -0.5267
12530TIP3    H137533   3.009   0.370   5.533 -2.8414 -0.2649 -0.9949
12530TIP3    H237534   3.020   0.293   5.663  1.0503  0.6848 -0.6469
12531TIP3   OH237535   2.320   5.629   5.123  0.2261 -0.3967  0.3545
12531TIP3    H137536   2.260   5.693   5.084  0.2656 -1.1342 -0.9620
12531TIP3    H237537   2.407   5.667   5.109  0.2693 -0.8695 -0.6963
12532TIP3   OH237538   1.177   6.096   6.657  0.0497 -0.0509 -0.1790
12532TIP3    H137539   1.197   6.020   6.712  2.6554  0.8830  0.2980
12532TIP3    H237540   1.243   6.093   6.588 -0.5060  1.1903 -0.7883
12533TIP3   OH237541   0.053   6.387   2.178  0.4678  0.0987 -0.5762
12533TIP3    H137542   0.062   6.293   2.165  1.6064  0.2287 -0.8367
12533TIP3    H237543  -0.019   6.412   2.120  1.0845 -0.3994 -1.5954
12534TIP3   OH237544   7.950   3.809   5.658 -0.4440 -0.2881  0.2617
12534TIP3    H137545   7.932   3.717   5.674  1.1132 -0.5809  0.5078
12534TIP3    H237546   7.866   3.853   5.670 -0.9027 -1.4775  1.5980
12535TIP3   OH237547   6.170   4.726   1.174  0.6301  0.9829 -0.5182
12535TIP3    H137548   6.265   4.733   1.165  0.8694 -0.9681  0.0106
12535TIP3    H237549   6.155   4.637   1.205 -1.4479  0.8908 -1.5841
12536TIP3   OH237550   2.067   1.978   1.532 -0.0946 -0.0221  0.1551
12536TIP3    H137551   2.058   2.073   1.541 -0.3291  0.1067 -1.2540
12536TIP3    H237552   2.003   1.954   1.466 -2.8098 -1.7508  3.1335
12537TIP3   OH237553   2.199   4.785   3.080 -0.2314 -0.0395 -0.0751
12537TIP3    H137554   2.216   4.837   3.158  0.5502  0.6044 -0.6555
12537TIP3    H237555   2.283   4.743   3.061 -1.3239 -3.3495  1.6426
12538TIP3   OH237556   1.926   5.685   3.191  0.7103 -0.2198 -0.1396
12538TIP3    H137557   1.943   5.776   3.216  1.3842 -0.0346 -1.2069
12538TIP3    H237558   1.872   5.692   3.113  1.0976 -0.7300 -0.4553
12539TIP3   OH237559   7.410   7.702   0.163 -0.6515  0.1256 -0.0254
12539TIP3    H137560   7.397   7.723   0.255 -0.7582  0.4908 -0.1215
12539TIP3    H237561   7.504   7.713   0.148 -0.7327  0.7092 -0.1169
12540TIP3   OH237562   0.383   2.462   4.992  0.0431 -0.1253 -0.1231
12540TIP3    H137563   0.307   2.405   4.985  0.2413 -0.5652  1.0291
12540TIP3    H237564   0.359   2.541   4.943 -1.5392  0.1391  0.9890
12541TIP3   OH237565   0.411   0.890   2.369 -0.3454 -0.3102 -0.1399
12541TIP3    H137566   0.458   0.973   2.367 -0.3937 -0.2565 -2.7255
12541TIP3    H237567   0.476   0.825   2.340 -0.5506 -1.0364  0.9938
12542TIP3   OH237568   2.578   6.673   5.820 -0.0407 -0.3183  0.4011
12542TIP3    H137569   2.560   6.619   5.743  1.8854 -0.4495 -0.0176
12542TIP3    H237570   2.493   6.683   5.863 -1.3789  0.5605 -2.2173
12543TIP3   OH237571   3.833   6.049   0.901  0.4896  0.2918  0.3149
12543TIP3    H137572   3.905   6.090   0.853  0.5954 -1.1140 -0.8323
12543TIP3    H237573   3.794   6.119   0.952  1.1275  1.6218 -0.9559
12544TIP3   OH237574   5.973   7.455   5.985 -0.6165  0.2331  0.1861
12544TIP3    H137575   5.984   7.497   5.899  0.6529 -0.8575 -0.2377
12544TIP3    H237576   5.944   7.525   6.043  1.4337  1.7468 -0.4741
12545TIP3   OH237577   2.198   1.505   2.848 -0.0317 -0.0928 -0.8418
12545TIP3    H137578   2.143   1.430   2.868  0.9729 -1.1039 -1.7127
12545TIP3    H237579   2.262   1.507   2.919 -0.6469  0.5506 -0.2958
12546TIP3   OH237580   7.041   3.918   4.965 -0.1515 -0.3973  0.4264
12546TIP3    H137581   6.971   3.979   4.942  0.3099  0.5291  1.3891
12546TIP3    H237582   7.025   3.897   5.057 -0.4788 -1.9980  0.0354
12547TIP3   OH237583   1.711   3.576   6.269 -0.3398  0.0292  0.3151
12547TIP3    H137584   1.626   3.613   6.246 -0.0494  1.1494  0.9803
12547TIP3    H237585   1.750   3.551   6.185 -1.6574 -1.2841  0.0633
12548TIP3   OH237586   5.746   5.110   5.995 -0.1809  0.5366 -0.1830
12548TIP3    H137587   5.788   5.129   5.911 -0.0329 -1.2340 -0.5473
12548TIP3    H237588   5.763   5.188   6.048  0.1217  1.5003 -1.6301
12549TIP3   OH237589   0.880   0.807   2.810  0.3266 -0.2503  0.2343
12549TIP3    H137590   0.871   0.899   2.833  2.6244  0.3420 -0.9262
12549TIP3    H237591   0.831   0.798   2.728  1.4561  0.3750 -0.5298
12550TIP3   OH237592   4.889   0.941   1.367 -0.6090  0.2738  0.3778
12550TIP3    H137593   4.810   0.964   1.317 -0.1469  1.1306  0.0251
12550TIP3    H237594   4.896   1.008   1.434 -0.0636  0.3210  0.2776
12551TIP3   OH237595   1.338   2.813   0.501 -0.2738  0.4798 -0.2777
12551TIP3    H137596   1.357   2.751   0.571 -1.1284  0.6311  0.0989
12551TIP3    H237597   1.399   2.790   0.432  0.4750  0.2217  0.4509
12552TIP3   OH237598   3.265   5.992   0.656 -0.1136  0.7575 -0.4305
12552TIP3    H137599   3.177   6.012   0.623 -1.1006 -0.3939  1.3680
12552TIP3    H237600   3.301   5.931   0.592 -1.1872  0.1325 -0.4610
12553TIP3   OH237601   4.742   4.911   3.085 -0.1206 -0.0146 -0.4417
12553TIP3    H137602   4.674   4.954   3.137  0.1815 -2.1493  1.9549
12553TIP3    H237603   4.825   4.945   3.120  0.1540  1.9041 -2.7351
12554TIP3   OH237604   4.988   5.002   4.798  0.6322 -0.1989  0.1355
12554TIP3    H137605   4.902   4.962   4.813  0.1735  0.1033 -1.4230
12554TIP3    H237606   4.969   5.094   4.783  1.3678  0.0797  0.8448
12555TIP3   OH237607   7.483   7.343   2.637  0.0798 -0.1258  0.2547
12555TIP3    H137608   7.536   7.272   2.674 -0.6505 -0.7583  0.1138
12555TIP3    H237609   7.546   7.408   2.606  0.7871 -1.1301 -0.4426
12556TIP3   OH237610   7.061   4.061   6.367  0.1080 -0.5533 -0.0735
12556TIP3    H137611   7.127   4.100   6.425  1.2667 -0.5957 -1.3109
12556TIP3    H237612   7.085   4.092   6.279 -2.1373  0.2702 -0.4715
12557TIP3   OH237613   3.357   3.039   5.668 -0.0554  0.6689 -0.3315
12557TIP3    H137614   3.305   3.110   5.630  0.5629  0.2898 -1.9730
12557TIP3    H237615   3.421   3.016   5.600 -0.5321 -1.7668 -0.0705
12558TIP3   OH237616   0.283   6.317   4.131  0.4220  0.2980 -0.7779
12558TIP3    H137617   0.238   6.234   4.145 -0.7721  0.9804 -0.4402
12558TIP3    H237618   0.356   6.296   4.073  2.2454 -1.6471  1.9667
12559TIP3   OH237619   5.532   3.710   6.561 -0.0441  0.1816 -0.3303
12559TIP3    H137620   5.507   3.701   6.469  0.6800  2.4082 -0.8039
12559TIP3    H237621   5.459   3.759   6.600  0.0569  0.0173  0.0610
12560TIP3   OH237622   6.233   0.646   2.095 -0.3155 -0.1049 -0.5989
12560TIP3    H137623   6.152   0.674   2.137 -0.3337  0.1260 -0.7833
12560TIP3    H237624   6.271   0.583   2.155 -0.1580  0.4950 -0.0664
12561TIP3   OH237625   4.753   2.700   5.414 -0.7804  0.0571  0.0867
12561TIP3    H137626   4.738   2.629   5.477 -0.5706 -0.0068  0.0665
12561TIP3    H237627   4.758   2.779   5.468 -0.0784 -0.0630  0.2084
12562TIP3   OH237628   0.948   4.263   0.356  0.3458 -0.0354 -0.9318
12562TIP3    H137629   0.964   4.317   0.433  1.3456  0.0186 -1.1752
12562TIP3    H237630   0.869   4.300   0.317 -0.3540 -0.2440  0.2169
12563TIP3   OH237631   7.549   3.554   6.563 -0.0282  0.0214 -0.6130
12563TIP3    H137632   7.636   3.519   6.541  0.3778 -0.0376  0.9551
12563TIP3    H237633   7.547   3.640   6.522  1.1885  0.4436  0.1445
12564TIP3   OH237634   7.445   5.331   3.461 -0.7248  0.2576  0.3711
12564TIP3    H137635   7.370   5.381   3.429 -1.1505 -0.9486 -0.5808
12564TIP3    H237636   7.411   5.243   3.477  0.4095 -0.2220  0.2586
12565TIP3   OH237637   2.379   6.761   1.871  0.3440 -0.5269  0.0638
12565TIP3    H137638   2.403   6.785   1.781  0.5456  0.5550  0.3826
12565TIP3    H237639   2.461   6.766   1.920  0.0708 -0.1335  0.4969
12566TIP3   OH237640   6.232   3.608   1.161 -0.5229  0.2389  0.5344
12566TIP3    H137641   6.139   3.599   1.141 -0.6261 -0.9154  1.4014
12566TIP3    H237642   6.236   3.680   1.224 -0.5446  1.7884 -1.1788
12567TIP3   OH237643   8.077   0.115   5.237  0.1473 -0.0148 -0.3648
12567TIP3    H137644   8.148   0.077   5.289  0.1331 -0.8241 -0.9052
12567TIP3    H237645   8.011   0.140   5.301  1.0715  1.1146  0.1792
12568TIP3   OH237646   0.085   0.834   5.458  0.1795 -0.0115  0.2160
12568TIP3    H137647   0.003   0.871   5.491 -0.4447 -0.1114 -1.1628
12568TIP3    H237648   0.142   0.831   5.534 -0.8694  0.7009  1.0591
12569TIP3   OH237649   2.928   1.536   4.866  0.3265  0.1764  0.2246
12569TIP3    H137650   2.987   1.500   4.932  1.3642  0.9067 -0.2707
12569TIP3    H237651   2.841   1.528   4.904  0.7759 -0.6033  1.1262
12570TIP3   OH237652   5.993   5.753   5.653 -0.5775 -0.2633  0.4401
12570TIP3    H137653   5.930   5.710   5.595  0.8749 -2.7870  0.6066
12570TIP3    H237654   6.079   5.724   5.622  0.6243  3.0340  0.2548
12571TIP3   OH237655   1.298   3.517   2.280 -0.1485 -0.4791 -0.4269
12571TIP3    H137656   1.338   3.576   2.216 -0.2252  0.1165  0.0647
12571TIP3    H237657   1.246   3.456   2.228  0.9063 -0.8934 -1.0397
12572TIP3   OH237658   6.277   7.699   5.975  0.0207  0.0673  0.6160
12572TIP3    H137659   6.364   7.705   5.934 -0.1013 -1.4199  0.0631
12572TIP3    H237660   6.216   7.694   5.902 -0.3675 -0.6456  0.9719
12573TIP3   OH237661   5.340   6.144   5.001  0.1748  0.0678 -0.1516
12573TIP3    H137662   5.331   6.197   5.080  0.4349  0.9637 -0.7119
12573TIP3    H237663   5.421   6.175   4.960  1.1887 -1.8136  0.2865
12574TIP3   OH237664   1.670   3.328   1.385 -0.5524 -0.8464 -0.2625
12574TIP3    H137665   1.629   3.294   1.306  1.8173 -1.9505 -1.1024
12574TIP3    H237666   1.676   3.422   1.370 -0.6191 -0.9764 -1.1546
12575TIP3   OH237667   1.221   0.226   3.008  0.7676  0.6865  0.1534
12575TIP3    H137668   1.316   0.214   3.015  0.8666 -0.2051 -1.8278
12575TIP3    H237669   1.198   0.180   2.927 -1.5365 -0.0746  1.1573
12576TIP3   OH237670   7.127   7.028   2.668  0.3584  0.0443 -0.0059
12576TIP3    H137671   7.216   7.051   2.641  1.1506 -0.8299  1.6962
12576TIP3    H237672   7.139   6.973   2.746 -1.7040  1.0257  1.0849
12577TIP3   OH237673   7.128   2.561   0.130 -0.2079  0.5681  0.2664
12577TIP3    H137674   7.216   2.526   0.112 -0.1406  1.0619 -0.3573
12577TIP3    H237675   7.109   2.531   0.219 -0.6680 -2.1355 -0.6573
12578TIP3   OH237676   5.363   7.087   2.995  0.4622  0.6298  0.1084
12578TIP3    H137677   5.276   7.047   2.991  0.3238  1.0437 -1.5135
12578TIP3    H237678   5.390   7.075   3.086 -1.0745  0.0463  0.5239
12579TIP3   OH237679   6.867   2.470   0.037  0.2635  0.1849  0.0165
12579TIP3    H137680   6.946   2.513   0.069  0.2252 -0.0768  0.4794
12579TIP3    H237681   6.820   2.537  -0.013  0.9084  0.2659 -0.4936
12580TIP3   OH237682   4.990   7.747   0.612 -0.1852 -0.1839 -0.0222
12580TIP3    H137683   5.071   7.735   0.562  0.0501 -3.0505  0.8374
12580TIP3    H237684   4.923   7.760   0.545  0.6986  0.1696 -0.8637
12581TIP3   OH237685   6.310   0.342   6.498  0.2065  0.6816  0.3598
12581TIP3    H137686   6.233   0.356   6.552 -0.4589 -0.7902 -0.1606
12581TIP3    H237687   6.278   0.294   6.422  1.8078 -1.1051  0.7394
12582TIP3   OH237688   3.015   5.574   2.316  0.2525 -0.5117 -0.5217
12582TIP3    H137689   2.994   5.529   2.234  0.1760 -1.5958  0.0679
12582TIP3    H237690   3.108   5.555   2.330  0.0906 -0.9479  0.0016
12583TIP3   OH237691   1.844   3.022   0.646  0.9464  0.8117  0.2114
12583TIP3    H137692   1.855   3.093   0.583  0.5499  0.6748 -0.0206
12583TIP3    H237693   1.831   3.065   0.730  0.3390  1.0280  0.0132
12584TIP3   OH237694   4.719   0.628   1.542  0.6810  0.3735 -0.1682
12584TIP3    H137695   4.648   0.688   1.517 -0.1889 -0.2074  0.7794
12584TIP3    H237696   4.799   0.676   1.524  0.0560  1.0308 -1.3474
12585TIP3   OH237697   0.403   2.598   5.839  0.1431  0.1817  0.4355
12585TIP3    H137698   0.487   2.615   5.797  0.1952  0.0073  0.4709
12585TIP3    H237699   0.338   2.613   5.770 -0.0148  3.1196  1.0976
12586TIP3   OH237700   2.378   3.696   4.154  0.0476  0.1039  0.1145
12586TIP3    H137701   2.454   3.658   4.110 -1.6403 -0.8919 -2.1471
12586TIP3    H237702   2.383   3.664   4.244 -0.3637 -4.3279 -1.1909
12587TIP3   OH237703   5.582   5.547   5.327  0.2750  0.7032 -0.0245
12587TIP3    H137704   5.571   5.600   5.247  1.7505 -1.1820 -1.5687
12587TIP3    H237705   5.496   5.548   5.368 -0.7555  1.1347 -2.0450
12588TIP3   OH237706   7.805   1.069   1.268 -0.0491 -0.1979  0.0162
12588TIP3    H137707   7.792   1.131   1.197 -0.7309  1.9096  1.8762
12588TIP3    H237708   7.793   1.120   1.348  1.5010 -2.2500  1.7049
12589TIP3   OH237709   5.828   2.830   5.793 -0.1386 -0.1037  0.4875
12589TIP3    H137710   5.854   2.776   5.867  0.6393 -1.0625 -0.4448
12589TIP3    H237711   5.757   2.781   5.752 -0.2328  0.1769  0.3115
12590TIP3   OH237712   7.471   5.189   2.075 -0.3498  0.6990  0.1850
12590TIP3    H137713   7.438   5.102   2.098 -1.9779  1.1461 -0.2990
12590TIP3    H237714   7.491   5.183   1.981 -1.0889  1.0163  0.0028
12591TIP3   OH237715   6.133   2.524   3.888 -0.0095 -0.1052  0.4948
12591TIP3    H137716   6.071   2.497   3.820 -0.2027 -0.0995  0.6681
12591TIP3    H237717   6.202   2.458   3.884  0.8626  0.8393 -0.8700
12592TIP3   OH237718   4.795   4.139   2.420 -0.3661 -0.0425  0.1898
12592TIP3    H137719   4.812   4.115   2.329  2.2702 -2.3569  1.1381
12592TIP3    H237720   4.712   4.097   2.442 -1.5113  1.3072 -1.3035
12593TIP3   OH237721   2.547   0.147   2.100 -0.0989 -0.0597  0.1354
12593TIP3    H137722   2.642   0.137   2.112 -0.2943 -1.8530  0.5096
12593TIP3    H237723   2.530   0.110   2.013 -0.6557 -1.3655  0.7773
12594TIP3   OH237724   7.681   5.280   1.476  0.0257 -0.1170 -0.0569
12594TIP3    H137725   7.600   5.331   1.476 -0.0502 -0.2377 -0.3525
12594TIP3    H237726   7.655   5.193   1.445  0.1749 -0.3040  0.3353
12595TIP3   OH237727   5.619   0.735   0.598 -0.2253 -0.1630 -0.1755
12595TIP3    H137728   5.531   0.750   0.565  0.3933  1.2558 -1.2876
12595TIP3    H237729   5.643   0.817   0.642  1.0203 -0.0017 -1.0841
12596TIP3   OH237730   1.862   7.410   5.277  0.3496  0.5180  0.2052
12596TIP3    H137731   1.900   7.466   5.208 -0.3854  1.3343  0.4464
12596TIP3    H237732   1.773   7.443   5.288  0.8611  1.2833  2.4725
12597TIP3   OH237733   5.725   2.630   2.494 -0.4482 -0.3294  0.1034
12597TIP3    H137734   5.684   2.701   2.543 -1.4794 -1.6846  1.2801
12597TIP3    H237735   5.817   2.635   2.517 -0.5507  0.4524  0.3766
12598TIP3   OH237736   7.222   7.507   1.879 -0.4856  0.4290  0.4955
12598TIP3    H137737   7.286   7.549   1.821 -2.0147  2.1065 -0.0753
12598TIP3    H237738   7.228   7.556   1.961 -0.8402  0.4130  0.5319
12599TIP3   OH237739   5.216   5.025   6.176  0.2146 -0.0672 -0.2602
12599TIP3    H137740   5.189   5.022   6.267  2.3701 -0.4504  0.4209
12599TIP3    H237741   5.225   5.119   6.156  0.9409 -0.0029  0.3269
12600TIP3   OH237742   2.739   5.886   5.463 -0.1738  0.5363  0.0068
12600TIP3    H137743   2.719   5.946   5.534 -2.4772 -0.0282 -0.0987
12600TIP3    H237744   2.670   5.820   5.466 -0.2037  0.3276 -2.5778
12601TIP3   OH237745   7.469   2.536   3.556  0.4902  0.7826  0.2248
12601TIP3    H137746   7.562   2.556   3.546  0.0782  3.0507  0.4746
12601TIP3    H237747   7.466   2.441   3.559  2.5493  0.5025 -2.2959
12602TIP3   OH237748   6.881   1.590   3.174  0.3454  0.6999  0.6366
12602TIP3    H137749   6.802   1.551   3.137  0.7086  1.4844 -1.0917
12602TIP3    H237750   6.860   1.604   3.266 -1.2843  0.3035  0.3657
12603TIP3   OH237751   2.062   0.043   0.323  0.0275 -0.2766 -0.4024
12603TIP3    H137752   1.967   0.055   0.322  0.0863  0.9429  1.6855
12603TIP3    H237753   2.075  -0.051   0.317 -1.2502 -0.4105 -1.6467
12604TIP3   OH237754   6.303   2.051   0.632 -0.3742  0.1625 -0.2933
12604TIP3    H137755   6.259   2.018   0.711 -2.0175  0.4615 -1.0615
12604TIP3    H237756   6.259   2.007   0.560 -0.1750  1.3330 -1.1488
12605TIP3   OH237757   1.676   0.049   4.218 -0.0978  0.7023 -0.1658
12605TIP3    H137758   1.762   0.060   4.259  0.0160  0.3130 -0.2968
12605TIP3    H237759   1.675  -0.042   4.190 -1.2000  0.2394  1.2843
12606TIP3   OH237760   7.353   1.717   1.661 -0.3818 -0.0654  0.3249
12606TIP3    H137761   7.386   1.634   1.626 -0.9887 -0.5053  0.7661
12606TIP3    H237762   7.294   1.691   1.732 -0.5815  0.7485  0.4669
12607TIP3   OH237763   2.971   0.019   5.533 -0.2242  0.0230  0.5472
12607TIP3    H137764   3.037   0.013   5.464 -1.2351  0.8915 -0.5440
12607TIP3    H237765   2.981   0.107   5.569  0.4491 -0.5044  1.6969
12608TIP3   OH237766   5.957   5.459   1.260  0.6320 -0.2754 -0.5463
12608TIP3    H137767   5.900   5.483   1.334 -0.3113 -2.8811 -0.3036
12608TIP3    H237768   6.045   5.473   1.293  0.2027  1.1944  0.0809
12609TIP3   OH237769   0.473   4.387   3.904  0.1110 -0.2089 -0.7896
12609TIP3    H137770   0.469   4.379   3.809 -2.3248 -0.9498 -0.6964
12609TIP3    H237771   0.523   4.467   3.919 -0.1998  0.3986 -2.7071
12610TIP3   OH237772   2.677   5.386   6.074 -0.3168  0.2931 -0.0776
12610TIP3    H137773   2.678   5.482   6.069  3.1187  0.3412 -1.3186
12610TIP3    H237774   2.749   5.364   6.133  0.0030 -1.5003 -1.0496
12611TIP3   OH237775   4.103   6.061   2.617 -0.2877  0.4074 -0.1820
12611TIP3    H137776   4.156   6.131   2.579 -0.3259  0.1943 -0.6291
12611TIP3    H237777   4.109   6.076   2.712 -0.9536  1.5175 -0.2886
12612TIP3   OH237778   3.999   6.363   1.508 -0.0082 -0.0152  0.1372
12612TIP3    H137779   4.007   6.421   1.583 -1.1026 -0.3121  0.5020
12612TIP3    H237780   4.060   6.399   1.443  1.6126 -0.2590  1.4543
12613TIP3   OH237781   5.482   5.108   5.956  0.0267 -0.3331  0.3090
12613TIP3    H137782   5.454   5.027   5.997  2.3693 -3.1566 -3.0217
12613TIP3    H237783   5.578   5.107   5.964  0.1432  2.2588  0.2694
12614TIP3   OH237784   3.615   1.466   3.973  0.0318  0.2435 -0.0562
12614TIP3    H137785   3.535   1.457   3.921  0.3695  0.1049 -0.5568
12614TIP3    H237786   3.671   1.394   3.945  0.1590  0.0636  0.6217
12615TIP3   OH237787   6.139   0.699   6.293  0.1085 -0.1289  0.1188
12615TIP3    H137788   6.216   0.711   6.348  1.2694 -0.9234 -1.2493
12615TIP3    H237789   6.146   0.609   6.260 -0.5447  0.2914 -1.2761
12616TIP3   OH237790   6.170   0.348   1.298  0.6048  0.5760  0.5756
12616TIP3    H137791   6.192   0.305   1.380  0.6076 -0.6611 -0.0387
12616TIP3    H237792   6.084   0.387   1.313  0.6083  0.3617  1.1651
12617TIP3   OH237793   5.322   1.241   1.697  0.1707 -0.2002 -0.5828
12617TIP3    H137794   5.375   1.265   1.621  1.3649  0.2826  0.3640
12617TIP3    H237795   5.371   1.275   1.772 -2.3124  1.7213  0.2691
12618TIP3   OH237796   1.516   1.685   3.465 -0.3650  0.2894 -0.3823
12618TIP3    H137797   1.485   1.763   3.511  1.9867  1.2808 -0.3889
12618TIP3    H237798   1.488   1.612   3.521  0.5795  1.3522  1.5502
12619TIP3   OH237799   5.435   7.611   4.002 -0.3140 -0.0811  0.6196
12619TIP3    H137800   5.488   7.601   3.923 -0.4920 -0.2611  0.5199
12619TIP3    H237801   5.402   7.700   3.997 -2.6635 -0.9276 -1.0136
12620TIP3   OH237802   6.558   1.065   0.969 -0.2507  0.5311 -0.2693
12620TIP3    H137803   6.528   1.016   0.893 -0.2291  0.0150  0.0503
12620TIP3    H237804   6.530   1.013   1.045 -0.4285  1.1249  0.0815
12621TIP3   OH237805   3.039   6.171   0.276  0.7317  0.0395  0.3231
12621TIP3    H137806   2.985   6.250   0.283  1.1538  0.4090 -0.4069
12621TIP3    H237807   3.069   6.154   0.365  0.5718  0.6614  0.5007
12622TIP3   OH237808   8.234   1.984   0.712 -0.2715  0.1885  0.2039
12622TIP3    H137809   8.261   2.068   0.674  0.4932 -0.5415 -0.9181
12622TIP3    H237810   8.305   1.961   0.772 -0.9662  0.8114  1.3084
12623TIP3   OH237811   2.796   6.000   4.333 -0.7141 -0.3393  0.1106
12623TIP3    H137812   2.783   5.954   4.416  1.6167 -0.9248  0.2141
12623TIP3    H237813   2.884   5.975   4.306 -0.9474  0.8713 -1.9066
12624TIP3   OH237814   6.059   4.743   0.180  0.1077 -0.3483 -0.0835
12624TIP3    H137815   6.100   4.789   0.254  2.3557 -1.6376 -0.4514
12624TIP3    H237816   6.103   4.778   0.103 -0.4942 -0.7525 -0.6168
12625TIP3   OH237817   5.768   2.653   0.599 -0.1351 -0.4026  0.3942
12625TIP3    H137818   5.847   2.685   0.643  0.1375 -0.3341 -0.1281
12625TIP3    H237819   5.711   2.729   0.594  0.3844 -0.0587 -0.5648
12626TIP3   OH237820   1.055   0.604   5.498  0.1148  0.1535 -0.2565
12626TIP3    H137821   1.000   0.667   5.451 -0.8739  0.0093  0.6614
12626TIP3    H237822   1.039   0.623   5.591 -0.0635 -1.3157  0.0384
12627TIP3   OH237823   0.643   0.617   0.377 -0.4301 -0.4154  0.0170
12627TIP3    H137824   0.619   0.624   0.284  1.5209 -0.5181 -0.5341
12627TIP3    H237825   0.730   0.655   0.382 -1.1323  1.1171  2.1379
12628TIP3   OH237826   3.490   1.500   0.933 -0.2996  0.0811  0.2357
12628TIP3    H137827   3.490   1.501   1.029  1.1459 -0.3711  0.2726
12628TIP3    H237828   3.401   1.524   0.908 -0.8882 -0.4590  1.7049
12629TIP3   OH237829   7.379   7.569   5.098 -0.4469 -0.4353 -0.1521
12629TIP3    H137830   7.425   7.505   5.044 -0.0541 -1.2899  1.1529
12629TIP3    H237831   7.319   7.518   5.151 -2.5958  0.6171 -1.4576
12630TIP3   OH237832   5.876   3.154   3.224 -0.1306  0.8511 -0.2849
12630TIP3    H137833   5.795   3.205   3.233 -0.5921 -0.0455  0.9179
12630TIP3    H237834   5.852   3.066   3.253  1.4946  0.7674  0.9409
12631TIP3   OH237835   7.212   3.591   4.522 -0.5326  0.1010 -0.1103
12631TIP3    H137836   7.163   3.546   4.453 -2.0735  0.9640  0.3838
12631TIP3    H237837   7.253   3.665   4.479 -1.0497  0.3286 -0.2192
12632TIP3   OH237838   1.715   1.533   3.868 -0.3571  0.4775 -0.1771
12632TIP3    H137839   1.745   1.589   3.796  1.5243  0.4035  0.5093
12632TIP3    H237840   1.701   1.594   3.941  1.0300  0.1642  0.3695
12633TIP3   OH237841   2.505   5.698   5.459  0.1700  0.0814 -0.3171
12633TIP3    H137842   2.514   5.676   5.552 -0.4139  1.6988  0.1541
12633TIP3    H237843   2.411   5.709   5.445  0.3552  1.3139 -0.7164
12634TIP3   OH237844   1.558   5.279   1.405  0.2355 -0.3081 -1.1896
12634TIP3    H137845   1.556   5.262   1.311  0.8100  0.4454 -1.3478
12634TIP3    H237846   1.489   5.344   1.419  1.7624  1.4651 -1.5140
12635TIP3   OH237847   4.399   5.550   2.993 -0.0663 -0.4202  0.3579
12635TIP3    H137848   4.452   5.494   3.050  0.0008 -0.6207  0.0963
12635TIP3    H237849   4.433   5.638   3.009  0.7537 -0.6144 -0.2478
12636TIP3   OH237850   3.586   6.552   6.264  0.0634 -0.0954  0.0089
12636TIP3    H137851   3.583   6.583   6.355 -1.2524  0.1004 -0.0861
12636TIP3    H237852   3.500   6.511   6.250  0.1594  0.0946 -1.2287
12637TIP3   OH237853   7.003   6.403   6.504  0.4657  0.2979 -0.4994
12637TIP3    H137854   7.071   6.380   6.441 -0.3736  0.1390 -1.3650
12637TIP3    H237855   6.925   6.418   6.451 -0.1027  0.7858  0.4489
12638TIP3   OH237856   7.392   0.968   4.848  0.9932 -0.0801  0.3750
12638TIP3    H137857   7.442   1.009   4.919  1.6003  2.3601 -1.3030
12638TIP3    H237858   7.304   0.958   4.883  0.7576  2.9110  0.9298
12639TIP3   OH237859   2.890   7.006   2.280  0.2337  0.1278  0.2753
12639TIP3    H137860   2.937   6.956   2.214  0.7839 -0.2677  0.9568
12639TIP3    H237861   2.926   6.977   2.363 -1.7327 -0.7532  0.8801
12640TIP3   OH237862   2.213   1.363   0.132  0.3237  0.2391  0.0008
12640TIP3    H137863   2.228   1.299   0.063 -0.4936 -0.2862  0.2935
12640TIP3    H237864   2.273   1.435   0.112  0.8017 -0.3391 -0.6887
12641TIP3   OH237865   6.772   6.081   5.381  0.3353 -0.0720 -0.0257
12641TIP3    H137866   6.722   6.162   5.393 -1.1100 -0.8096 -0.8663
12641TIP3    H237867   6.778   6.044   5.469  1.5654  1.2318  0.4795
12642TIP3   OH237868   3.175   3.504   5.454 -0.1840 -0.5695 -0.3026
12642TIP3    H137869   3.253   3.538   5.411  0.9904 -1.5248  0.9695
12642TIP3    H237870   3.186   3.530   5.546 -1.7082 -0.1438 -0.2229
12643TIP3   OH237871   1.757   3.143   4.318 -0.0560 -0.2106 -0.2491
12643TIP3    H137872   1.778   3.185   4.402 -1.3375  2.2284 -1.0655
12643TIP3    H237873   1.694   3.075   4.341  0.5000 -0.3764  0.8730
12644TIP3   OH237874   7.747   1.774   5.659 -0.3742 -0.6909 -0.2140
12644TIP3    H137875   7.755   1.867   5.638 -0.1608 -0.3231  1.3230
12644TIP3    H237876   7.825   1.734   5.620  0.4051  0.0781  0.4986
12645TIP3   OH237877   7.149   2.776   6.143 -0.0517 -0.5655  0.5048
12645TIP3    H137878   7.192   2.804   6.062  0.6370 -0.1210  1.0126
12645TIP3    H237879   7.123   2.858   6.185 -0.6672 -0.8055  0.5998
12646TIP3   OH237880   5.811   6.710   3.492  0.0937  0.2627 -0.7072
12646TIP3    H137881   5.754   6.641   3.457 -0.2959  0.6110 -0.7704
12646TIP3    H237882   5.900   6.682   3.470 -0.0261 -0.5006 -0.2262
12647TIP3   OH237883   5.696   5.858   6.115 -0.4327 -0.2554 -0.2293
12647TIP3    H137884   5.604   5.860   6.089 -1.0255  0.0327  1.7113
12647TIP3    H237885   5.734   5.936   6.074 -1.0270 -0.3701 -1.0338
12648TIP3   OH237886   7.324   5.412   4.409 -0.1640 -0.2171 -0.2552
12648TIP3    H137887   7.300   5.345   4.346  0.3713 -0.2489 -0.4357
12648TIP3    H237888   7.304   5.495   4.365 -0.6015 -0.2510 -0.1251
12649TIP3   OH237889   0.876   7.194   4.389 -0.3138 -0.2237 -0.0043
12649TIP3    H137890   0.830   7.277   4.398  0.9118  0.3559  1.0989
12649TIP3    H237891   0.933   7.206   4.313  0.0152  0.0279  0.2793
12650TIP3   OH237892   4.010   7.359   3.995 -0.3083 -0.3226 -0.0055
12650TIP3    H137893   4.040   7.445   4.025 -1.5430 -0.3008  1.3114
12650TIP3    H237894   4.019   7.362   3.900  2.2450  0.2385  0.1908
12651TIP3   OH237895   7.232   0.537   6.682 -0.1466 -0.6919 -0.0127
12651TIP3    H137896   7.190   0.515   6.764  0.9827  0.0125  0.7881
12651TIP3    H237897   7.186   0.616   6.652  1.7896  1.2665  1.8735
12652TIP3   OH237898   8.251   2.183   2.911  0.1663  0.2142  0.0263
12652TIP3    H137899   8.240   2.181   3.007 -0.8807  0.2069 -0.0808
12652TIP3    H237900   8.319   2.248   2.896  1.2592 -0.6974  0.8489
12653TIP3   OH237901   2.492   3.596   6.097 -0.1233  0.2181  0.4831
12653TIP3    H137902   2.411   3.548   6.078  0.7249 -0.3917 -2.0502
12653TIP3    H237903   2.518   3.632   6.012  2.9170 -0.6521  0.9302
12654TIP3   OH237904   4.840   4.870   0.640 -0.5295  0.4116  0.3628
12654TIP3    H137905   4.890   4.805   0.589  0.3752  0.2696  1.4074
12654TIP3    H237906   4.811   4.822   0.717  0.6453  1.3686  1.4402
12655TIP3   OH237907   7.718   6.512   6.560  0.5783 -0.3060  0.5108
12655TIP3    H137908   7.757   6.572   6.624 -0.3003  0.5047  0.3089
12655TIP3    H237909   7.768   6.526   6.480 -0.3271  1.0144  0.1419
12656TIP3   OH237910   5.473   2.474   3.498  0.0957  0.3697 -0.3657
12656TIP3    H137911   5.382   2.447   3.512  0.0502  0.3615 -0.6669
12656TIP3    H237912   5.525   2.403   3.536 -0.0184 -0.4698 -1.6839
12657TIP3   OH237913   2.169   4.600   0.480 -0.5025 -0.2549 -0.2005
12657TIP3    H137914   2.153   4.691   0.453  2.2199  0.1944 -0.6172
12657TIP3    H237915   2.130   4.547   0.410  0.8616  0.7343 -1.7897
12658TIP3   OH237916   6.053   5.693   1.640 -0.0066  0.3962  0.0361
12658TIP3    H137917   6.064   5.753   1.567  2.0285 -1.0169 -0.9178
12658TIP3    H237918   5.960   5.670   1.639  0.1146 -0.2857 -2.7346
12659TIP3   OH237919   7.730   0.111   5.154  0.4532  0.4044  0.9040
12659TIP3    H137920   7.743   0.019   5.179  0.7089  0.1885  0.0157
12659TIP3    H237921   7.781   0.121   5.073  0.0708  1.2158  0.7540
12660TIP3   OH237922   5.503   0.756   4.766  0.0240  0.2253 -0.0073
12660TIP3    H137923   5.465   0.674   4.798  2.0045 -1.0019 -0.5775
12660TIP3    H237924   5.596   0.749   4.789  0.2365  2.3489 -0.0578
12661TIP3   OH237925   6.773   6.330   3.938 -0.5634  0.1034  0.2449
12661TIP3    H137926   6.698   6.272   3.951 -0.6734  0.5369  1.6024
12661TIP3    H237927   6.847   6.270   3.929 -0.8931 -0.2870  0.0236
12662TIP3   OH237928   7.663   0.373   0.231 -0.2518  0.3480 -0.0360
12662TIP3    H137929   7.727   0.364   0.160 -0.6808  0.3109 -0.4238
12662TIP3    H237930   7.712   0.353   0.311  0.1712  0.1292 -0.3478
12663TIP3   OH237931   7.015   4.433   5.457  0.0086  0.3055  0.2391
12663TIP3    H137932   7.094   4.412   5.506 -0.5352 -1.2180  0.5081
12663TIP3    H237933   6.949   4.372   5.490 -0.4640 -0.5656 -2.1247
12664TIP3   OH237934   6.160   4.443   0.828 -0.3245  0.1212  0.5872
12664TIP3    H137935   6.144   4.532   0.796 -0.4450  0.2083  0.8804
12664TIP3    H237936   6.146   4.387   0.752 -1.0456  0.2879  0.5905
12665TIP3   OH237937   7.502   5.920   3.255  0.2753  0.0299 -0.1907
12665TIP3    H137938   7.466   5.838   3.289 -1.2278  0.8811  0.3759
12665TIP3    H237939   7.490   5.915   3.161 -0.6980 -0.0126 -0.0724
12666TIP3   OH237940   2.621   2.507   6.658 -0.2911  0.3172 -0.0837
12666TIP3    H137941   2.538   2.496   6.611 -0.0305 -1.0558 -0.2619
12666TIP3    H237942   2.597   2.519   6.749 -0.7209  0.8774 -0.2705
12667TIP3   OH237943   0.058   1.253   2.538  0.0528 -0.6460 -0.0584
12667TIP3    H137944   0.050   1.161   2.512  1.2158 -1.2155  1.4908
12667TIP3    H237945   0.146   1.278   2.511 -0.4329  0.1839 -0.9187
12668TIP3   OH237946   5.391   6.554   2.514  0.7393 -0.3058  0.8065
12668TIP3    H137947   5.439   6.624   2.471 -0.4617 -0.4931 -0.9434
12668TIP3    H237948   5.408   6.476   2.460 -1.8152 -0.2871 -0.1818
12669TIP3   OH237949   4.478   1.247   5.263 -0.1467 -0.0277 -0.0940
12669TIP3    H137950   4.537   1.187   5.217  1.0362  1.6789 -0.8916
12669TIP3    H237951   4.396   1.242   5.213  0.4852  0.2809 -1.1987
12670TIP3   OH237952   5.604   3.978   6.195  0.4640  0.4406  0.7673
12670TIP3    H137953   5.610   4.059   6.245  0.2369  1.3920 -0.6961
12670TIP3    H237954   5.583   4.006   6.106  0.7515 -1.2073  0.1475
12671TIP3   OH237955   1.958   2.453   6.104  0.0103  0.1122 -0.0151
12671TIP3    H137956   1.870   2.421   6.125 -0.1271 -0.4081 -1.2706
12671TIP3    H237957   1.946   2.546   6.086 -0.0968  0.2658  0.8043
12672TIP3   OH237958   6.755   4.706   1.886 -0.1205  0.1879 -0.6926
12672TIP3    H137959   6.731   4.654   1.963 -0.1262  0.9348 -0.1823
12672TIP3    H237960   6.680   4.697   1.827 -0.4629  0.2450 -0.2782
12673TIP3   OH237961   6.846   3.311   6.780  0.6343  0.0773  0.1281
12673TIP3    H137962   6.763   3.337   6.820  0.7537 -0.4344  0.7156
12673TIP3    H237963   6.826   3.300   6.687  0.4449  1.6943 -0.0575
12674TIP3   OH237964   0.752   6.927   6.498 -0.4174  0.2787 -0.1056
12674TIP3    H137965   0.820   6.995   6.497  0.2537 -0.3762 -1.2401
12674TIP3    H237966   0.670   6.975   6.482  0.2317  0.6911 -2.6017
12675TIP3   OH237967   7.897   4.135   5.511  0.3548 -0.3571  0.1690
12675TIP3    H137968   7.867   4.159   5.424 -0.2133 -2.5141 -0.3046
12675TIP3    H237969   7.837   4.066   5.539  0.4125  0.3939  2.3675
12676TIP3   OH237970   6.611   5.464   1.222  0.6578  0.2441  0.1492
12676TIP3    H137971   6.580   5.541   1.175 -1.0423 -0.5163 -0.0340
12676TIP3    H237972   6.575   5.474   1.311 -0.5775 -0.8736 -0.1928
12677TIP3   OH237973   6.820   6.820   1.804 -0.1680  0.1967 -0.4571
12677TIP3    H137974   6.864   6.890   1.755  2.4983  1.1725  2.9218
12677TIP3    H237975   6.891   6.761   1.831 -1.1599  0.3435  2.9629
12678TIP3   OH237976   8.275   7.273   0.515  0.3337 -0.2119  0.6721
12678TIP3    H137977   8.207   7.284   0.582 -1.3471 -0.5558 -0.9056
12678TIP3    H237978   8.258   7.186   0.478 -0.1539  0.7696 -1.6082
12679TIP3   OH237979   2.702   7.620   4.308 -0.0942  0.0550  0.2927
12679TIP3    H137980   2.797   7.633   4.308 -0.1361  0.3750 -0.1613
12679TIP3    H237981   2.676   7.636   4.399  0.4539 -1.3397  0.7207
12680TIP3   OH237982   7.940   5.771   1.291 -0.5165 -0.5172  0.4062
12680TIP3    H137983   7.870   5.791   1.230 -0.4981  0.6857  0.7471
12680TIP3    H237984   7.929   5.678   1.311 -1.2494 -0.6348 -0.4909
12681TIP3   OH237985   7.758   5.833   1.047  0.4293 -0.1461  0.2448
12681TIP3    H137986   7.674   5.869   1.019  0.2422 -0.1123  0.8337
12681TIP3    H237987   7.823   5.884   0.999  0.1167 -0.1375 -0.1782
12682TIP3   OH237988   0.847   2.861   5.536  0.0840 -0.1765  0.1272
12682TIP3    H137989   0.872   2.935   5.480  1.6581 -0.6257  0.1891
12682TIP3    H237990   0.826   2.790   5.476  0.6225 -0.3018  0.0824
12683TIP3   OH237991   3.383   7.169   4.782  0.1977 -0.7794 -0.3096
12683TIP3    H137992   3.346   7.084   4.804  1.0752 -1.0832  0.0239
12683TIP3    H237993   3.368   7.223   4.860 -1.0845 -0.3559 -0.8093
12684TIP3   OH237994   6.283   1.757   4.806 -0.1058 -0.0801  0.0772
12684TIP3    H137995   6.346   1.787   4.740  1.0111 -0.8851  0.7330
12684TIP3    H237996   6.226   1.697   4.758  0.4266 -0.3219 -0.2676
12685TIP3   OH237997   2.769   4.643   3.007  0.2568  0.1905  0.2644
12685TIP3    H137998   2.825   4.567   3.026  0.5574  0.4484  0.4173
12685TIP3    H237999   2.822   4.699   2.950 -0.3600 -0.2150 -0.7346
12686TIP3   OH238000   3.332   0.417   4.556 -0.4764 -0.2880  0.2504
12686TIP3    H138001   3.266   0.405   4.626 -0.3954 -0.0200  0.3733
12686TIP3    H238002   3.284   0.397   4.475 -1.3829  2.1544  0.0994
12687TIP3   OH238003   0.807   4.155   1.211 -0.1183  0.0825 -0.4838
12687TIP3    H138004   0.766   4.126   1.292  0.5785  0.4595  0.0105
12687TIP3    H238005   0.777   4.092   1.145 -2.2327  0.8824 -0.3408
12688TIP3   OH238006   4.406   6.249   5.749  0.4050 -0.4908  0.1144
12688TIP3    H138007   4.440   6.307   5.681  0.8542 -1.6328 -0.6390
12688TIP3    H238008   4.313   6.272   5.754  0.7862  1.1245  0.6759
12689TIP3   OH238009   5.300   2.897   1.545 -0.0346 -0.3480 -0.0076
12689TIP3    H138010   5.207   2.920   1.553  0.1116  0.6182 -0.8521
12689TIP3    H238011   5.329   2.941   1.465  0.6237 -2.4274 -0.9899
12690TIP3   OH238012   4.718   0.516   0.845 -0.1738 -0.3149  0.8437
12690TIP3    H138013   4.741   0.604   0.875 -0.2759 -0.4305  1.2774
12690TIP3    H238014   4.769   0.458   0.901 -0.7306 -0.5447  1.1252
12691TIP3   OH238015   4.006   3.549   0.156 -0.1416 -0.0536  0.1321
12691TIP3    H138016   4.060   3.485   0.202  0.2178 -0.3552 -0.6992
12691TIP3    H238017   3.924   3.552   0.206  1.1247  1.4697  2.2697
12692TIP3   OH238018   8.068   4.992   3.520 -0.1347 -0.8958 -0.4046
12692TIP3    H138019   8.120   4.977   3.599 -0.0539 -0.8988 -0.4575
12692TIP3    H238020   8.031   5.079   3.531  1.4873 -0.0495 -1.2527
12693TIP3   OH238021   3.761   4.668   2.728  0.3262 -0.6655 -0.0026
12693TIP3    H138022   3.702   4.722   2.779  0.3243 -0.7309  0.0648
12693TIP3    H238023   3.834   4.650   2.787  0.6647 -0.1487 -0.2581
12694TIP3   OH238024   1.239   4.853   5.504 -0.3737 -0.1060  0.2876
12694TIP3    H138025   1.279   4.825   5.422  0.0497  1.1638  0.0258
12694TIP3    H238026   1.271   4.943   5.516 -1.1381  0.0374  1.3868
12695TIP3   OH238027   8.005   5.307   3.343 -0.0984 -0.2914 -0.5572
12695TIP3    H138028   8.052   5.339   3.420  0.6971 -0.7920 -0.8299
12695TIP3    H238029   7.919   5.350   3.348  0.5783  1.0938 -0.3808
12696TIP3   OH238030   6.321   2.127   3.919 -0.0307 -0.0334 -0.2959
12696TIP3    H138031   6.329   2.064   3.848  1.2698  1.2704 -1.3834
12696TIP3    H238032   6.227   2.133   3.936 -0.1715 -2.3645 -0.0110
12697TIP3   OH238033   4.966   6.895   0.863 -0.3029  0.0675  0.4297
12697TIP3    H138034   4.964   6.986   0.833  2.1526  0.0247 -0.0558
12697TIP3    H238035   5.000   6.899   0.952  1.9733 -0.4531 -0.3456
12698TIP3   OH238036   3.833   6.047   0.067  0.2608  0.0955 -0.2734
12698TIP3    H138037   3.906   6.006   0.115 -0.8001 -1.7414 -0.1237
12698TIP3    H238038   3.810   5.982   0.001 -2.2526 -0.0992  0.7081
12699TIP3   OH238039   1.584   3.738   5.864  0.2219 -0.0904  0.2162
12699TIP3    H138040   1.658   3.782   5.905  0.6571 -0.0347 -0.5976
12699TIP3    H238041   1.622   3.696   5.787 -0.8238  1.0613 -0.9756
12700TIP3   OH238042   5.752   4.409   0.272 -0.5663 -0.0831  0.7476
12700TIP3    H138043   5.818   4.423   0.204 -1.2981  2.0023  0.3926
12700TIP3    H238044   5.692   4.345   0.234  0.2460 -0.6102  0.3339
12701TIP3   OH238045   4.531   0.806   4.215 -0.0997 -0.2170 -0.0782
12701TIP3    H138046   4.513   0.870   4.146 -1.0927 -1.0471 -0.6382
12701TIP3    H238047   4.622   0.822   4.240 -0.1283  0.9738 -0.6469
12702TIP3   OH238048   2.327   1.674   4.381  0.4724  0.2723 -0.2509
12702TIP3    H138049   2.254   1.633   4.428  1.0699 -0.9209 -0.3173
12702TIP3    H238050   2.404   1.622   4.405  0.6183 -1.4081 -3.6274
12703TIP3   OH238051   0.272   0.510   3.184  0.6889  0.9515  0.3493
12703TIP3    H138052   0.233   0.425   3.164  2.4298  0.2578 -0.2837
12703TIP3    H238053   0.218   0.574   3.137 -0.2288  0.1365  0.2779
12704TIP3   OH238054   3.963   2.877   2.730  0.2291  0.2149  0.4432
12704TIP3    H138055   3.900   2.922   2.674  0.6700 -0.0766 -0.3055
12704TIP3    H238056   4.015   2.823   2.670  0.5472 -0.3087  1.1616
12705TIP3   OH238057   6.524   1.934   3.274  0.2331  0.4001 -0.2502
12705TIP3    H138058   6.566   1.978   3.201 -0.6530  0.2856 -0.8452
12705TIP3    H238059   6.596   1.901   3.328  0.9034 -0.1882 -1.4860
12706TIP3   OH238060   5.042   2.047   0.377  0.0684  0.1279  0.1965
12706TIP3    H138061   5.043   2.016   0.286  0.8294  0.9416 -0.0879
12706TIP3    H238062   5.004   2.134   0.372  1.3743  0.7466  0.4387
12707TIP3   OH238063   6.061   2.387   3.393 -0.5896  0.2199 -0.3372
12707TIP3    H138064   6.039   2.417   3.305 -0.6619 -3.0523 -1.5780
12707TIP3    H238065   6.008   2.442   3.451 -2.3706  0.9083 -2.4825
12708TIP3   OH238066   8.287   3.924   0.458  0.2409  0.0389 -0.1385
12708TIP3    H138067   8.200   3.919   0.500  0.7309  0.4534  0.9756
12708TIP3    H238068   8.280   3.869   0.381 -0.9911 -0.0174 -0.0061
12709TIP3   OH238069   7.979   7.778   3.157 -0.1452  1.1908  0.1243
12709TIP3    H138070   7.886   7.766   3.140  0.0632  0.1276 -0.3407
12709TIP3    H238071   7.988   7.768   3.252 -0.4805  1.1347  0.1503
12710TIP3   OH238072   1.107   2.327   3.507 -0.8411  0.7055 -0.3574
12710TIP3    H138073   1.095   2.232   3.512  1.2397  0.4659  1.4827
12710TIP3    H238074   1.057   2.361   3.581  0.3131  0.7614  0.4334
12711TIP3   OH238075   6.858   4.969   6.715  0.0354  0.2063  0.4840
12711TIP3    H138076   6.801   4.936   6.784 -0.5897  0.4857  0.1142
12711TIP3    H238077   6.809   4.952   6.634 -0.4074  2.1626  0.2845
12712TIP3   OH238078   2.135   7.399   3.551 -0.1717  0.5821  0.0530
12712TIP3    H138079   2.212   7.433   3.506 -0.6767  1.3101 -0.2687
12712TIP3    H238080   2.093   7.476   3.589 -0.5537  0.1489  0.5251
12713TIP3   OH238081   2.658   4.497   1.803  0.2093  0.0749  0.0263
12713TIP3    H138082   2.645   4.444   1.882 -1.1116  0.6053  0.1831
12713TIP3    H238083   2.577   4.485   1.752  0.2905  1.1716 -0.3913
12714TIP3   OH238084   3.690   1.018   2.274 -0.2235 -0.3140 -0.7785
12714TIP3    H138085   3.626   1.028   2.345 -0.5661  0.5780 -1.1955
12714TIP3    H238086   3.770   1.056   2.308 -0.0701 -0.9050 -0.4673
12715TIP3   OH238087   6.456   0.035   3.022  0.4834  0.0615  0.1708
12715TIP3    H138088   6.434  -0.029   3.089  0.9776  0.0457  0.3161
12715TIP3    H238089   6.436   0.120   3.062  1.4347  0.0956  0.5982
12716TIP3   OH238090   7.996   1.814   5.394 -0.1960  0.2542 -0.2461
12716TIP3    H138091   8.092   1.816   5.399 -0.2535  0.5221  1.2136
12716TIP3    H238092   7.971   1.902   5.366 -0.0688  0.6093  0.7470
12717TIP3   OH238093   4.601   1.078   6.268  0.4808  0.2802 -0.6117
12717TIP3    H138094   4.573   0.987   6.271  0.2590  0.3727  0.6921
12717TIP3    H238095   4.608   1.104   6.359  0.8778  1.4737 -0.9618
12718TIP3   OH238096   0.166   5.878   1.074  0.5603  0.6164  0.6312
12718TIP3    H138097   0.136   5.933   1.002  0.2978 -0.5045 -0.1403
12718TIP3    H238098   0.184   5.793   1.034 -1.0752 -0.5214  2.1053
12719TIP3   OH238099   4.904   4.683   6.130  0.0286 -0.3333  0.1800
12719TIP3    H138100   4.960   4.735   6.073 -0.3282  1.7155  1.6152
12719TIP3    H238101   4.831   4.656   6.074 -0.0558  1.2006 -0.4836
12720TIP3   OH238102   3.096   5.437   5.018 -0.9988 -0.3616 -0.2733
12720TIP3    H138103   3.039   5.501   5.060 -2.4369 -1.5354 -0.3522
12720TIP3    H238104   3.097   5.363   5.079 -0.7089 -0.9141 -0.9429
12721TIP3   OH238105   3.291   2.153   3.607 -0.1327 -0.2759 -0.3264
12721TIP3    H138106   3.361   2.192   3.555  0.1295 -0.9169 -0.4631
12721TIP3    H238107   3.335   2.106   3.677 -0.4031 -1.0003 -0.6354
12722TIP3   OH238108   0.833   3.597   1.971 -0.3477  0.3434 -0.3532
12722TIP3    H138109   0.882   3.673   1.941 -2.0498  2.3956  1.6773
12722TIP3    H238110   0.881   3.566   2.048 -0.7522  0.6802  0.0419
12723TIP3   OH238111   5.994   2.560   6.287  0.4227  0.1095 -0.3064
12723TIP3    H138112   6.051   2.488   6.315  1.2325  0.6751 -0.4888
12723TIP3    H238113   6.023   2.635   6.338 -0.6112  0.2626  0.0908
12724TIP3   OH238114   5.579   7.038   6.033  0.2036  0.0706  0.2934
12724TIP3    H138115   5.579   7.063   5.941  0.0022  1.6462  0.6893
12724TIP3    H238116   5.524   7.104   6.076  2.6490  1.1690  1.9798
12725TIP3   OH238117   3.580   4.212   5.115 -0.5157  0.3422  0.3419
12725TIP3    H138118   3.585   4.117   5.128  0.7206  0.1528 -1.1861
12725TIP3    H238119   3.667   4.235   5.081 -1.2905  1.7849 -0.7378
12726TIP3   OH238120   0.627   3.713   5.815  0.2633 -0.2034  0.1003
12726TIP3    H138121   0.647   3.795   5.769 -1.9128  0.0413 -0.4957
12726TIP3    H238122   0.579   3.661   5.751 -0.2575 -1.0705  1.1710
12727TIP3   OH238123   8.033   6.021   2.344 -0.0001  0.3965  0.2857
12727TIP3    H138124   7.996   6.109   2.337 -1.6827 -0.1514  1.5668
12727TIP3    H238125   8.054   6.011   2.437  0.3040 -0.5111  0.1312
12728TIP3   OH238126   0.723   0.534   6.667 -0.6965 -0.3917  0.2500
12728TIP3    H138127   0.750   0.600   6.730 -1.0613  0.9344 -0.9387
12728TIP3    H238128   0.681   0.466   6.721  2.2708 -1.1669  1.8309
12729TIP3   OH238129   2.953   3.962   3.158 -0.2633  0.1217 -0.0225
12729TIP3    H138130   3.002   3.884   3.132  0.1670  0.3090  0.2153
12729TIP3    H238131   2.878   3.929   3.206 -0.3975 -0.1724 -0.4327
12730TIP3   OH238132   1.755   2.950   3.785  0.2009  0.3449  0.3548
12730TIP3    H138133   1.825   2.904   3.832 -1.5354 -2.0183  0.8548
12730TIP3    H238134   1.747   2.903   3.702 -0.7053  0.6642  0.2519
12731TIP3   OH238135   4.854   2.190   3.127 -0.4345  0.7082  0.3914
12731TIP3    H138136   4.890   2.108   3.092 -0.6152 -0.1955  2.1822
12731TIP3    H238137   4.761   2.185   3.104 -0.3484  0.6552  0.0481
12732TIP3   OH238138   6.161   1.186   3.658 -0.0291  1.0986  0.1888
12732TIP3    H138139   6.077   1.232   3.663 -0.0006  1.0468  2.6965
12732TIP3    H238140   6.167   1.139   3.741  1.9421  0.1178 -0.4512
12733TIP3   OH238141   1.272   7.581   2.153 -0.2416  0.0773 -0.5442
12733TIP3    H138142   1.322   7.615   2.079  0.1064 -0.1997 -0.4394
12733TIP3    H238143   1.319   7.502   2.180 -1.8378 -1.3518 -1.7137
12734TIP3   OH238144   1.495   4.371   1.759  0.9136  0.1801 -0.0314
12734TIP3    H138145   1.491   4.292   1.813  1.4148  1.3618  1.8300
12734TIP3    H238146   1.577   4.363   1.711  0.0784 -1.2666 -1.2633
12735TIP3   OH238147   5.959   3.043   1.672 -0.2940 -0.3387 -0.3552
12735TIP3    H138148   5.915   3.117   1.714  0.7421  0.7250 -1.1109
12735TIP3    H238149   5.900   3.017   1.601 -0.3252  0.2208 -0.5347
12736TIP3   OH238150   6.540   6.175   0.932 -0.2363 -0.2087 -0.1071
12736TIP3    H138151   6.453   6.213   0.932  0.6639  2.0318  0.4901
12736TIP3    H238152   6.586   6.219   0.860  0.2176 -1.8649 -0.8718
12737TIP3   OH238153   4.498   2.802   1.056 -0.3714  0.3479 -0.4174
12737TIP3    H138154   4.530   2.722   1.097  1.3281  0.3609 -1.5948
12737TIP3    H238155   4.512   2.789   0.962  1.0805  2.4320 -0.5719
12738TIP3   OH238156   5.890   0.776   0.537 -0.2595  0.4655 -0.1891
12738TIP3    H138157   5.802   0.750   0.563 -0.4709  1.2239 -0.1314
12738TIP3    H238158   5.881   0.800   0.444  0.3726 -1.6910 -0.8792
12739TIP3   OH238159   0.302   3.870   3.110 -0.5705 -0.4379 -0.4264
12739TIP3    H138160   0.368   3.931   3.144 -1.4577  0.3841 -0.1413
12739TIP3    H238161   0.324   3.786   3.150 -0.2270  0.0243  0.3775
12740TIP3   OH238162   6.889   7.274   5.647 -0.2869 -0.2592  0.2963
12740TIP3    H138163   6.921   7.347   5.594 -0.8326  0.1379  0.5053
12740TIP3    H238164   6.794   7.279   5.641 -0.3601 -0.1759  1.3391
12741TIP3   OH238165   1.995   3.232   0.272 -0.9666  0.0314  0.3987
12741TIP3    H138166   1.999   3.141   0.302 -2.4586 -0.6563 -1.2799
12741TIP3    H238167   1.953   3.279   0.344  3.9110  0.5367  3.3715
12742TIP3   OH238168   1.402   6.836   0.805 -0.2452  0.2978  0.1741
12742TIP3    H138169   1.327   6.786   0.774  0.0143 -0.4343  0.6988
12742TIP3    H238170   1.475   6.807   0.749  0.0595 -0.4648  0.9344
12743TIP3   OH238171   7.958   6.442   0.949 -0.0010 -0.4457 -0.4992
12743TIP3    H138172   8.034   6.468   0.896 -0.1450 -0.5928 -0.7842
12743TIP3    H238173   7.892   6.415   0.884 -0.4264  0.0233 -0.2741
12744TIP3   OH238174   4.390   0.091   1.454 -0.2895 -0.1770 -0.1135
12744TIP3    H138175   4.434   0.162   1.500 -1.6668  0.0810  0.8478
12744TIP3    H238176   4.386   0.120   1.362 -1.3475  1.2738  0.3554
12745TIP3   OH238177   8.133   3.914   2.006  0.1301  0.2862 -0.1025
12745TIP3    H138178   8.038   3.922   2.014  0.1635 -0.5136  1.3617
12745TIP3    H238179   8.153   3.826   2.040  1.2864 -0.0212 -1.4519
12746TIP3   OH238180   8.229   5.856   3.952 -0.7186 -0.1678 -0.4034
12746TIP3    H138181   8.145   5.810   3.962 -0.6617 -0.1743  0.0573
12746TIP3    H238182   8.221   5.933   4.008 -0.7017  0.2353 -0.9447
12747TIP3   OH238183   7.609   7.761   4.697  0.0910  0.0215  0.2892
12747TIP3    H138184   7.628   7.853   4.678  1.2291 -0.4288 -0.8822
12747TIP3    H238185   7.571   7.762   4.784 -3.0929  1.9746 -0.9426
12748TIP3   OH238186   7.394   1.168   2.834  0.3133 -0.1358 -0.3460
12748TIP3    H138187   7.421   1.251   2.873  1.6564  0.0679 -1.6427
12748TIP3    H238188   7.379   1.110   2.909 -1.0308  1.3552  0.5942
12749TIP3   OH238189   5.207   0.856   5.055  0.4323 -0.5757 -0.2018
12749TIP3    H138190   5.264   0.889   5.124  0.0180 -2.3763  1.0476
12749TIP3    H238191   5.246   0.889   4.974  1.7648  0.3415  0.7705
12750TIP3   OH238192   1.947   1.455   6.108 -0.0775  0.5654  0.0963
12750TIP3    H138193   1.899   1.373   6.117 -1.9213  1.6591  0.7258
12750TIP3    H238194   1.887   1.514   6.062  0.2113  2.2949  1.7759
12751TIP3   OH238195   1.557   2.406   1.775  0.0867  0.5491 -0.5079
12751TIP3    H138196   1.651   2.427   1.772  0.4860 -1.1753 -2.2134
12751TIP3    H238197   1.538   2.370   1.688 -1.9060 -0.2577  0.2088
12752TIP3   OH238198   5.182   1.519   5.150 -0.2892  0.5699  0.9226
12752TIP3    H138199   5.257   1.569   5.183  0.3677 -0.0939  0.4559
12752TIP3    H238200   5.121   1.515   5.224 -0.5095  2.3227  0.8776
12753TIP3   OH238201   6.809   6.111   1.651 -0.0840  0.3493 -0.0641
12753TIP3    H138202   6.878   6.045   1.650  1.1695  1.5813 -1.9131
12753TIP3    H238203   6.729   6.062   1.666  1.1009 -1.1983  1.5976
12754TIP3   OH238204   1.438   7.193   0.958  0.7953 -0.5240 -0.1353
12754TIP3    H138205   1.405   7.188   1.048  2.3117 -1.2908  0.4113
12754TIP3    H238206   1.373   7.146   0.906  0.0950 -0.4065  0.6117
12755TIP3   OH238207   1.723   2.285   6.504 -0.2719  0.4198  0.0010
12755TIP3    H138208   1.662   2.212   6.495 -0.6363  0.8714 -1.5887
12755TIP3    H238209   1.783   2.258   6.574 -1.2705 -0.7509  0.4455
12756TIP3   OH238210   4.446   5.672   1.835  0.0892 -0.3319  0.4648
12756TIP3    H138211   4.514   5.605   1.838 -0.2720 -0.8070 -1.2140
12756TIP3    H238212   4.365   5.624   1.820 -0.2878  0.4064  0.0703
12757TIP3   OH238213   0.541   7.054   5.180 -0.3263 -0.4749 -0.6820
12757TIP3    H138214   0.535   7.002   5.099  2.1009 -0.1166 -1.1565
12757TIP3    H238215   0.622   7.103   5.171 -0.0657 -0.2997  1.9359
12758TIP3   OH238216   5.191   1.606   5.763  0.3506 -0.0714 -0.0839
12758TIP3    H138217   5.185   1.618   5.858 -0.9661 -2.3353  0.1878
12758TIP3    H238218   5.101   1.599   5.734  0.7320  0.8468 -1.5824
12759TIP3   OH238219   5.277   6.766   5.196  0.4995  0.2017 -0.4112
12759TIP3    H138220   5.205   6.826   5.179  1.5113  0.6823 -3.7912
12759TIP3    H238221   5.237   6.679   5.191 -0.4959  0.4568  1.9170
12760TIP3   OH238222   3.825   7.700   1.947  0.5535  0.2929 -0.1595
12760TIP3    H138223   3.854   7.633   1.885  1.1436 -1.3998  1.8010
12760TIP3    H238224   3.797   7.773   1.893  1.5621 -0.8618 -2.3681
12761TIP3   OH238225   4.017   6.450   5.072  0.1009 -0.0748 -0.2190
12761TIP3    H138226   3.971   6.451   4.988 -0.3186  0.9044 -0.0034
12761TIP3    H238227   3.960   6.401   5.131  0.4353 -0.8341 -0.5186
12762TIP3   OH238228   3.894   4.014   1.628  0.1048  0.3689  0.1291
12762TIP3    H138229   3.985   3.994   1.609  0.3886  1.9215 -0.3419
12762TIP3    H238230   3.898   4.085   1.693 -0.6899  1.7660 -1.2564
12763TIP3   OH238231   1.008   3.698   2.910  0.6474  0.1671 -0.1733
12763TIP3    H138232   1.018   3.645   2.831 -0.4463 -2.2195  1.1614
12763TIP3    H238233   0.921   3.738   2.902  0.1528 -0.8032  0.1802
12764TIP3   OH238234   0.247   4.255   2.752 -0.7959 -0.5676 -0.1033
12764TIP3    H138235   0.255   4.284   2.843 -0.8218 -0.2212 -0.2131
12764TIP3    H238236   0.159   4.216   2.747 -0.7024 -0.8054  0.0800
12765TIP3   OH238237   2.605   3.405   1.964 -0.5453 -0.4698 -0.0665
12765TIP3    H138238   2.665   3.405   1.889 -1.0880  0.6182 -0.5290
12765TIP3    H238239   2.526   3.361   1.931 -0.8580  0.1867 -0.2065
12766TIP3   OH238240   0.042   0.993   5.913 -0.5799 -0.5464 -0.9759
12766TIP3    H138241   0.066   0.984   6.005  1.3445  0.0011 -1.3820
12766TIP3    H238242  -0.009   0.914   5.894  1.7008 -2.3243 -0.2310
12767TIP3   OH238243   1.793   7.167   1.166  0.8889  0.9559 -0.5048
12767TIP3    H138244   1.769   7.165   1.073  2.1950  0.9311 -0.8496
12767TIP3    H238245   1.781   7.076   1.195  0.8930  0.8785 -0.7458
12768TIP3   OH238246   2.440   6.848   2.386 -0.5552 -0.0490  0.5800
12768TIP3    H138247   2.387   6.842   2.307 -0.2498 -0.1620  0.3811
12768TIP3    H238248   2.482   6.934   2.380 -2.0425  0.7968  1.5911
12769TIP3   OH238249   2.198   3.992   3.034  0.0591  0.0012 -0.4065
12769TIP3    H138250   2.254   4.022   2.962 -0.9749  0.0619 -1.1962
12769TIP3    H238251   2.260   3.966   3.103  1.0435  1.4041 -0.7136
12770TIP3   OH238252   5.390   5.145   3.631  0.2328 -0.1649 -0.7130
12770TIP3    H138253   5.315   5.204   3.638  0.5185  0.0469  0.9439
12770TIP3    H238254   5.365   5.083   3.562 -1.3438  0.0833 -0.4066
12771TIP3   OH238255   1.679   2.615   6.562  0.2239  0.2557  0.3502
12771TIP3    H138256   1.732   2.588   6.487 -0.1462  0.6183 -0.0437
12771TIP3    H238257   1.677   2.710   6.557  1.6965  0.4155  1.8545
12772TIP3   OH238258   4.401   0.873   5.951 -0.2906  0.4199 -0.3533
12772TIP3    H138259   4.319   0.883   5.903  0.2934  1.5669 -1.1802
12772TIP3    H238260   4.466   0.914   5.894  0.5988  0.9429  1.0052
12773TIP3   OH238261   8.239   7.395   4.355  0.1460 -0.0251 -0.1671
12773TIP3    H138262   8.183   7.319   4.373  0.1204  0.3228  1.4517
12773TIP3    H238263   8.217   7.457   4.425  1.5243  0.7052 -0.3453
12774TIP3   OH238264   4.325   4.458   4.432 -0.7279  0.6987  0.0368
12774TIP3    H138265   4.340   4.403   4.508  0.3943  0.1452 -0.5695
12774TIP3    H238266   4.411   4.496   4.411 -0.9267  0.5268 -1.1894
12775TIP3   OH238267   2.927   6.273   6.486 -0.1999 -0.2672 -0.2179
12775TIP3    H138268   2.975   6.266   6.404  0.2113 -1.2244  0.0899
12775TIP3    H238269   2.852   6.215   6.476 -0.3383 -0.1209 -0.0482
12776TIP3   OH238270   5.896   4.347   4.393 -0.1257  0.0179  0.1513
12776TIP3    H138271   5.809   4.378   4.418  0.2347  1.2082 -0.0053
12776TIP3    H238272   5.935   4.315   4.475 -0.1024  1.0288  0.5517
12777TIP3   OH238273   5.646   4.086   5.547  0.4988 -0.2882  0.4053
12777TIP3    H138274   5.668   4.074   5.639  0.8353  0.0846  0.3764
12777TIP3    H238275   5.668   4.178   5.529  0.9115 -0.4924 -0.1754
12778TIP3   OH238276   2.181   4.202   6.555  0.5518  0.0151  0.0460
12778TIP3    H138277   2.219   4.117   6.534 -1.3022 -0.6823 -0.7338
12778TIP3    H238278   2.145   4.233   6.471 -0.7304  0.5307  0.7615
12779TIP3   OH238279   1.008   7.593   4.361  0.2558  0.0189 -0.2170
12779TIP3    H138280   1.103   7.607   4.356  0.3975 -0.7929 -0.0694
12779TIP3    H238281   0.971   7.657   4.301  0.9433 -0.0934 -0.7789
12780TIP3   OH238282   5.962   4.907   4.221 -0.0020  0.2927  0.1884
12780TIP3    H138283   6.011   4.963   4.162  1.3569 -0.6678  0.3663
12780TIP3    H238284   6.029   4.861   4.272 -1.0887 -0.9395  0.5537
12781TIP3   OH238285   4.255   2.136   3.999 -0.3465  0.3227  0.3118
12781TIP3    H138286   4.299   2.130   3.915  1.1993  0.3053  1.0995
12781TIP3    H238287   4.256   2.229   4.022 -0.0115  0.2326  0.6844
12782TIP3   OH238288   2.669   0.562   1.752 -0.0005  0.3458  0.0969
12782TIP3    H138289   2.598   0.572   1.689 -1.3001 -0.9485  1.2997
12782TIP3    H238290   2.637   0.605   1.831  0.6140 -0.1165  0.6075
12783TIP3   OH238291   7.173   0.411   0.784 -0.1143  0.3005  0.0477
12783TIP3    H138292   7.128   0.496   0.790  1.3134  1.0702  0.2577
12783TIP3    H238293   7.215   0.401   0.870  2.2066  0.8481 -0.9474
12784TIP3   OH238294   5.154   2.816   6.501  0.0885 -0.1925  0.2058
12784TIP3    H138295   5.158   2.825   6.406 -2.1113 -0.1480  0.0661
12784TIP3    H238296   5.233   2.861   6.533  0.0286  1.2607 -1.5268
12785TIP3   OH238297   5.970   0.289   6.337 -0.5483 -0.5554 -0.1533
12785TIP3    H138298   5.934   0.377   6.346  0.0367 -0.4169  1.0133
12785TIP3    H238299   6.011   0.270   6.422  2.9954 -0.2803 -1.6099
12786TIP3   OH238300   0.178   7.582   1.443 -0.3464  0.9647  1.0586
12786TIP3    H138301   0.230   7.547   1.370 -0.7640  1.4726  0.5040
12786TIP3    H238302   0.229   7.655   1.476  0.3630  0.0731  1.9959
12787TIP3   OH238303   5.379   7.560   1.314  0.2282 -0.0807 -0.0567
12787TIP3    H138304   5.402   7.468   1.328  2.0767  0.3181 -0.1526
12787TIP3    H238305   5.296   7.557   1.268 -0.6201 -1.6585  1.4446
12788TIP3   OH238306   5.029   1.796   3.303  0.2374  0.0809  0.3849
12788TIP3    H138307   5.042   1.875   3.251  0.3036 -0.7601 -0.9245
12788TIP3    H238308   4.935   1.780   3.297  0.6024 -1.7138 -2.1462
12789TIP3   OH238309   1.709   7.555   4.278 -0.0263  0.0968 -0.5964
12789TIP3    H138310   1.792   7.586   4.315 -0.2018 -0.5439  0.3683
12789TIP3    H238311   1.668   7.507   4.350  0.1405 -2.2391 -1.9734
12790TIP3   OH238312   5.744   5.345   6.151 -0.3223 -0.5844  0.2894
12790TIP3    H138313   5.790   5.428   6.139 -0.6261 -0.3812  0.5334
12790TIP3    H238314   5.784   5.306   6.229 -1.6884  0.3657  1.5059
12791TIP3   OH238315   8.106   2.633   2.530 -0.1097 -0.0243  0.2126
12791TIP3    H138316   8.105   2.595   2.618 -1.5495  1.2097  0.7761
12791TIP3    H238317   8.196   2.622   2.500  0.3430 -0.7139  1.7352
12792TIP3   OH238318   1.741   1.835   2.110 -0.4377 -0.2078  0.4743
12792TIP3    H138319   1.698   1.771   2.166 -0.7021 -1.0612 -0.6832
12792TIP3    H238320   1.801   1.881   2.169 -1.4678 -0.3588  1.6764
12793TIP3   OH238321   6.777   3.822   1.177  0.3304  0.5086  0.0304
12793TIP3    H138322   6.787   3.829   1.082  0.9209  0.4729  0.0854
12793TIP3    H238323   6.867   3.817   1.210  0.1217 -1.5873  0.4373
12794TIP3   OH238324   1.493   6.739   0.147 -0.0022 -0.5658 -0.1244
12794TIP3    H138325   1.436   6.732   0.224 -1.5983 -1.7393 -1.3219
12794TIP3    H238326   1.448   6.687   0.080  1.4326  0.2448 -1.7922
12795TIP3   OH238327   0.743   0.233   0.947 -0.4838  0.1664 -0.6523
12795TIP3    H138328   0.662   0.193   0.977 -0.2388  0.0077 -0.1834
12795TIP3    H238329   0.742   0.321   0.984 -0.5705  0.2598 -0.8755
12796TIP3   OH238330   1.068   3.766   6.008 -0.2525  0.9711  0.6882
12796TIP3    H138331   1.023   3.717   5.939 -1.0773  0.1723  1.7358
12796TIP3    H238332   1.044   3.857   5.992 -1.4520  0.6706  0.6060
12797TIP3   OH238333   8.182   1.189   4.231 -0.2258  0.0188  0.5467
12797TIP3    H138334   8.203   1.144   4.149 -2.2207  0.3700 -0.2192
12797TIP3    H238335   8.208   1.280   4.216 -1.7079  0.3554 -0.2256
12798TIP3   OH238336   5.633   3.468   6.290 -0.1284 -0.0947 -0.1268
12798TIP3    H138337   5.548   3.509   6.275  0.3324  1.0658  0.2864
12798TIP3    H238338   5.676   3.470   6.204  0.0599  0.7467 -0.0309
12799TIP3   OH238339   4.850   5.850   0.759 -0.3015  0.1217  0.1218
12799TIP3    H138340   4.790   5.775   0.760  0.3287 -0.6457 -3.7568
12799TIP3    H238341   4.935   5.812   0.781 -0.1333 -0.1949 -1.0039
12800TIP3   OH238342   6.176   6.875   4.255 -0.1619 -0.0019 -0.1897
12800TIP3    H138343   6.089   6.900   4.224 -1.0386  0.6882  2.5099
12800TIP3    H238344   6.166   6.870   4.350  2.6691 -0.3188  0.1607
12801TIP3   OH238345   5.173   0.755   2.019  0.3513  0.0760  0.9578
12801TIP3    H138346   5.266   0.743   2.042  0.2908  0.4749  1.4087
12801TIP3    H238347   5.169   0.841   1.979  0.1908  0.0151  0.8431
12802TIP3   OH238348   7.601   7.631   5.311 -0.1039 -0.3555 -0.3578
12802TIP3    H138349   7.602   7.545   5.269  0.1717 -0.8785  0.6802
12802TIP3    H238350   7.508   7.652   5.321 -0.2921 -1.8998  1.9928
12803TIP3   OH238351   1.711   4.514   5.710  0.5605  0.7841  0.0511
12803TIP3    H138352   1.695   4.587   5.651  1.6268 -0.0862 -1.4015
12803TIP3    H238353   1.683   4.545   5.796  0.7851  2.8053 -0.5632
12804TIP3   OH238354   2.178   4.990   6.452  0.4516 -0.5182 -0.8209
12804TIP3    H138355   2.268   4.959   6.446  0.3170 -1.3650  0.8681
12804TIP3    H238356   2.174   5.065   6.392  2.1841 -0.6411 -1.1412
12805TIP3   OH238357   6.576   2.673   0.524 -0.3614 -0.3596  1.3613
12805TIP3    H138358   6.607   2.763   0.535 -0.2324 -0.1989 -0.2129
12805TIP3    H238359   6.656   2.621   0.519 -0.3629 -0.2528 -0.1356
12806TIP3   OH238360   0.144   1.276   0.358 -0.0573  0.6474  0.4915
12806TIP3    H138361   0.165   1.193   0.401  1.1221  0.4399 -0.4158
12806TIP3    H238362   0.136   1.339   0.430 -1.1088 -0.2669  1.1966
12807TIP3   OH238363   4.985   5.457   4.895 -0.5053 -0.1228 -0.3297
12807TIP3    H138364   4.919   5.480   4.961  0.8689  1.7081  0.4934
12807TIP3    H238365   5.066   5.446   4.945 -0.1529 -2.5907 -1.2875
12808TIP3   OH238366   7.955   2.952   0.118  0.1789  0.1483 -0.1690
12808TIP3    H138367   7.938   2.976   0.209 -1.9240 -2.6372  0.3026
12808TIP3    H238368   7.921   2.863   0.109  1.0151  0.0003 -3.5133
12809TIP3   OH238369   5.803   4.050   4.735  0.1624  0.5587  0.1403
12809TIP3    H138370   5.813   3.961   4.768 -2.5807  0.7974  1.9663
12809TIP3    H238371   5.725   4.046   4.678  1.3518  1.3841 -1.6377
12810TIP3   OH238372   2.764   3.123   4.383  0.0740  0.5786 -0.0240
12810TIP3    H138373   2.710   3.044   4.380 -0.8302  1.1559  0.5116
12810TIP3    H238374   2.828   3.111   4.313 -0.7287 -0.1353 -0.6560
12811TIP3   OH238375   7.488   3.306   3.326  0.6052 -0.3146 -0.4217
12811TIP3    H138376   7.421   3.304   3.257  0.0857 -1.4940  0.0887
12811TIP3    H238377   7.552   3.241   3.299 -0.2585 -1.7517  0.8033
12812TIP3   OH238378   1.336   6.055   1.129 -0.6390 -0.3373  0.3507
12812TIP3    H138379   1.378   6.091   1.207  1.4037  0.8056 -1.1842
12812TIP3    H238380   1.270   6.120   1.105  0.0958  0.2995  0.0241
12813TIP3   OH238381   2.040   2.411   6.626  0.3736  0.1369 -0.6013
12813TIP3    H138382   1.994   2.487   6.592 -1.1040  0.0174  0.9751
12813TIP3    H238383   2.008   2.401   6.716  2.4524 -0.8250  0.1161
12814TIP3   OH238384   2.895   3.282   1.056 -0.3541  0.0147  0.1152
12814TIP3    H138385   2.826   3.243   1.109 -2.3203  0.9746 -1.5997
12814TIP3    H238386   2.940   3.342   1.116 -1.5672  0.0104  1.0656
12815TIP3   OH238387   0.416   1.111   1.058  0.3952  0.5415 -0.2260
12815TIP3    H138388   0.366   1.062   0.993 -0.3770  0.8602  0.1170
12815TIP3    H238389   0.469   1.046   1.103 -0.3756  0.0704  0.0044
12816TIP3   OH238390   7.322   0.056   1.680 -0.2188  0.0788  0.1546
12816TIP3    H138391   7.316   0.003   1.760  0.7220  1.6844  1.3542
12816TIP3    H238392   7.231   0.075   1.657 -0.5244 -0.9864  0.4185
12817TIP3   OH238393   6.252   0.469   2.422  0.1763 -0.3026  0.0584
12817TIP3    H138394   6.281   0.560   2.421  0.5434 -0.2437 -4.1966
12817TIP3    H238395   6.298   0.429   2.348 -0.9399 -3.6489  0.9965
12818TIP3   OH238396   3.838   5.772   2.031 -0.1878  0.2105 -0.0252
12818TIP3    H138397   3.836   5.682   2.063 -1.4513 -0.1287 -0.9902
12818TIP3    H238398   3.746   5.794   2.014  0.3292  0.4965 -2.9993
12819TIP3   OH238399   0.179   5.642   2.999  0.3954 -0.2933  0.5836
12819TIP3    H138400   0.089   5.657   3.029 -0.0314 -2.1313  0.3017
12819TIP3    H238401   0.179   5.671   2.908  0.0673 -0.3238  0.5709
12820TIP3   OH238402   7.382   6.354   2.719 -0.6588  0.0461  0.3915
12820TIP3    H138403   7.354   6.411   2.647 -0.1715 -1.0975 -0.7386
12820TIP3    H238404   7.368   6.407   2.798  0.3111  1.9562 -0.6323
12821TIP3   OH238405   4.819   6.215   3.694  0.3138  0.2484 -0.1431
12821TIP3    H138406   4.780   6.294   3.657 -0.3471  0.9664  1.9486
12821TIP3    H238407   4.913   6.228   3.686  0.2108  1.2526  0.1660
12822TIP3   OH238408   0.242   0.809   0.351 -0.0460 -0.0613  0.4385
12822TIP3    H138409   0.227   0.810   0.256 -0.3196  0.8064  0.4814
12822TIP3    H238410   0.234   0.717   0.376  2.0070 -0.6020 -0.6856
12823TIP3   OH238411   7.808   3.725   0.142 -0.5861  0.3102  0.0834
12823TIP3    H138412   7.737   3.724   0.077  0.9186 -0.4322 -1.6209
12823TIP3    H238413   7.800   3.641   0.186  0.5236 -0.7776 -1.6542
12824TIP3   OH238414   6.570   5.338   6.242 -0.0757  0.3757 -0.2427
12824TIP3    H138415   6.533   5.331   6.155 -0.9286  1.6310  0.0005
12824TIP3    H238416   6.600   5.249   6.263  1.3929  0.3156 -2.3240
12825TIP3   OH238417   1.669   1.495   4.493 -0.7130 -0.6678  0.5870
12825TIP3    H138418   1.625   1.546   4.425  0.3513  1.9616  1.7307
12825TIP3    H238419   1.751   1.467   4.453  0.3535  1.6820  0.9386
12826TIP3   OH238420   7.702   7.721   1.022 -0.2305  0.4157  0.1397
12826TIP3    H138421   7.644   7.728   1.098  0.0652 -0.3164  0.4386
12826TIP3    H238422   7.724   7.812   1.000 -2.3896  0.8196 -0.6917
12827TIP3   OH238423   7.509   1.702   2.939 -0.4744 -0.1437 -0.3185
12827TIP3    H138424   7.539   1.729   2.852 -1.6652 -1.3347 -1.1475
12827TIP3    H238425   7.519   1.607   2.938 -0.3792 -0.1573  0.9179
12828TIP3   OH238426   4.376   2.699   5.558  0.4755 -0.8832 -0.1266
12828TIP3    H138427   4.469   2.685   5.572  0.3663 -0.8280  0.6673
12828TIP3    H238428   4.368   2.793   5.538  0.4851 -0.6927  0.7419
12829TIP3   OH238429   2.698   2.280   4.509  0.2391 -0.4023 -0.4673
12829TIP3    H138430   2.668   2.266   4.419 -1.1281  0.6327 -0.2039
12829TIP3    H238431   2.622   2.256   4.563  0.9707 -0.7948  0.4107
12830TIP3   OH238432   7.973   1.771   0.961 -0.2645 -0.5051  0.3672
12830TIP3    H138433   7.887   1.729   0.957 -1.0584  1.1546 -2.2783
12830TIP3    H238434   7.966   1.836   1.031 -1.5828  0.3673 -0.5355
12831TIP3   OH238435   5.018   3.915   0.521  0.5719 -0.0839 -0.3836
12831TIP3    H138436   5.100   3.963   0.525  0.5155  0.1025 -1.2462
12831TIP3    H238437   5.035   3.834   0.569  1.1110  0.1576 -0.1610
12832TIP3   OH238438   4.835   2.117   6.714 -0.1700 -0.1737 -0.2724
12832TIP3    H138439   4.879   2.032   6.711 -1.1417 -0.7018 -0.0561
12832TIP3    H238440   4.904   2.180   6.731  0.5556 -0.9315 -0.3663
12833TIP3   OH238441   4.376   7.146   4.669  0.1118  0.1601  0.4213
12833TIP3    H138442   4.287   7.150   4.635 -1.0949  0.6570  3.3698
12833TIP3    H238443   4.411   7.064   4.633 -1.7054 -0.2986 -0.4187
12834TIP3   OH238444   4.158   6.290   3.476  0.2832  0.0461  0.0488
12834TIP3    H138445   4.096   6.280   3.548  0.3440  3.2542  0.7147
12834TIP3    H238446   4.244   6.271   3.515  0.4154  2.5420  1.1886
12835TIP3   OH238447   4.913   7.288   4.196  0.2083  0.0133 -0.2910
12835TIP3    H138448   4.858   7.300   4.119 -0.0698  1.6603  0.1155
12835TIP3    H238449   5.002   7.303   4.164  0.3453 -1.5869 -0.7291
12836TIP3   OH238450   1.640   3.497   2.652  0.5155  0.0375 -0.2627
12836TIP3    H138451   1.669   3.580   2.691  1.5285 -0.7923  0.8281
12836TIP3    H238452   1.556   3.518   2.611 -0.0196  1.2626  1.3401
12837TIP3   OH238453   1.439   4.568   2.367 -0.1317  0.2458 -0.5468
12837TIP3    H138454   1.364   4.607   2.322 -0.5347  0.4008  0.2339
12837TIP3    H238455   1.439   4.609   2.453  0.2665 -0.4719 -0.1957
12838TIP3   OH238456   0.417   0.576   5.175 -0.7054 -0.5234 -0.6692
12838TIP3    H138457   0.506   0.558   5.146 -0.2890  0.2989  0.0474
12838TIP3    H238458   0.415   0.670   5.190 -1.5154 -0.6166 -0.1050
12839TIP3   OH238459   5.558   7.260   0.119  0.6687 -0.3726  0.1459
12839TIP3    H138460   5.473   7.222   0.139  1.2809 -1.2863  1.1114
12839TIP3    H238461   5.538   7.347   0.083 -0.7123 -1.1717 -1.1310
12840TIP3   OH238462   7.675   4.372   6.618 -0.3217 -0.4865 -0.0585
12840TIP3    H138463   7.622   4.310   6.668 -1.0900 -0.5664 -0.9371
12840TIP3    H238464   7.765   4.353   6.643 -0.5896 -1.5728  0.1095
12841TIP3   OH238465   7.925   7.517   5.300  0.1859  0.2262  0.1285
12841TIP3    H138466   7.966   7.599   5.330  0.3141 -0.4679  2.0238
12841TIP3    H238467   7.886   7.539   5.216  0.8918  2.0281  0.2193
12842TIP3   OH238468   0.494   4.605   3.493  0.1895  0.0405 -0.0868
12842TIP3    H138469   0.450   4.625   3.576  1.0636 -0.8878  0.6146
12842TIP3    H238470   0.581   4.575   3.518  0.5874  0.0586 -1.3666
12843TIP3   OH238471   2.667   4.829   3.740 -0.3735 -0.2711  0.2897
12843TIP3    H138472   2.706   4.788   3.663 -1.9146  0.7098 -1.0820
12843TIP3    H238473   2.645   4.756   3.798  4.6948 -0.8933  1.9428
12844TIP3   OH238474   8.171   1.980   1.679  0.1554 -0.4359  0.6092
12844TIP3    H138475   8.180   1.988   1.584 -0.8596 -1.2688  0.4251
12844TIP3    H238476   8.192   1.889   1.698  0.4378 -0.2511  1.2065
12845TIP3   OH238477   1.814   6.730   5.713 -0.2191 -0.3787 -0.3278
12845TIP3    H138478   1.790   6.644   5.678 -0.5679 -0.1184 -0.7443
12845TIP3    H238479   1.835   6.782   5.635  0.9025 -0.3500 -0.0237
12846TIP3   OH238480   0.470   2.470   0.117  0.0747 -0.3965  0.0581
12846TIP3    H138481   0.417   2.456   0.195 -1.7246  2.6891 -0.4104
12846TIP3    H238482   0.418   2.433   0.045 -0.6057  0.9399 -0.1720
12847TIP3   OH238483   0.154   4.709   1.676  0.7398 -0.3706 -0.1029
12847TIP3    H138484   0.137   4.779   1.613  0.3890  0.6832  1.1157
12847TIP3    H238485   0.244   4.724   1.705  0.2233  0.4307  1.1586
12848TIP3   OH238486   4.184   5.133   0.266  0.1163 -0.0773 -0.3819
12848TIP3    H138487   4.214   5.158   0.178  0.4785  0.6196 -0.0646
12848TIP3    H238488   4.259   5.085   0.303  0.5997  1.0440  0.1440
12849TIP3   OH238489   5.632   1.930   5.940  0.3083 -0.0371 -0.0343
12849TIP3    H138490   5.635   1.971   5.853  1.4849 -3.1313 -1.6206
12849TIP3    H238491   5.700   1.976   5.990 -0.1618  1.5886 -0.8153
12850TIP3   OH238492   4.837   5.649   1.174 -0.2647 -0.4363 -0.1205
12850TIP3    H138493   4.880   5.576   1.128  0.5153 -0.3215  0.4051
12850TIP3    H238494   4.750   5.654   1.135 -0.1686 -1.3622 -0.4793
12851TIP3   OH238495   7.852   5.999   4.737  0.1735  0.4231 -0.5377
12851TIP3    H138496   7.923   5.978   4.677 -0.6482  1.2475 -1.8273
12851TIP3    H238497   7.870   6.089   4.765 -0.3276  0.6128 -0.8220
12852TIP3   OH238498   6.101   1.639   0.336  0.0078 -0.5001  0.4859
12852TIP3    H138499   6.194   1.621   0.344  0.2283  0.0222 -0.6423
12852TIP3    H238500   6.073   1.588   0.259 -0.9443 -1.7279  1.6024
12853TIP3   OH238501   6.340   5.904   1.271 -0.3446  0.5262  0.3430
12853TIP3    H138502   6.274   5.949   1.218  0.2658  0.5468 -0.4268
12853TIP3    H238503   6.413   5.891   1.211  0.1342  0.0017  1.0270
12854TIP3   OH238504   3.060   5.823   1.669  0.3621 -0.6491 -0.6666
12854TIP3    H138505   3.089   5.785   1.586  2.1480 -1.7111  0.3846
12854TIP3    H238506   2.969   5.794   1.678  0.8527 -2.4515 -1.1832
12855TIP3   OH238507   0.412   1.055   3.693 -0.2020 -0.0049  0.2585
12855TIP3    H138508   0.468   0.996   3.643 -1.2435 -2.4376  1.7705
12855TIP3    H238509   0.329   1.056   3.644 -0.6479 -0.9767  0.9722
12856TIP3   OH238510   7.312   0.164   2.470 -0.4199 -0.4175  0.3147
12856TIP3    H138511   7.406   0.153   2.486 -0.5383  0.2625  1.5833
12856TIP3    H238512   7.307   0.210   2.386  0.3177 -1.6380 -0.4332
12857TIP3   OH238513   6.667   5.565   6.127 -0.4717  0.1755  0.4792
12857TIP3    H138514   6.604   5.528   6.065 -0.4835 -0.4088  0.8281
12857TIP3    H238515   6.638   5.533   6.213 -0.5796  1.1479  0.8181
12858TIP3   OH238516   5.939   2.851   2.794 -0.4550 -0.4585  0.3503
12858TIP3    H138517   5.871   2.917   2.811 -0.5907 -0.2982 -0.7266
12858TIP3    H238518   5.957   2.813   2.880 -1.6266 -0.2341  0.7216
12859TIP3   OH238519   3.809   3.150   0.716 -0.2681  0.1799  0.6117
12859TIP3    H138520   3.885   3.104   0.680 -0.4595  0.8513 -0.6849
12859TIP3    H238521   3.843   3.195   0.793  0.6294  0.4083  0.0928
12860TIP3   OH238522   1.029   5.191   3.562 -0.3540 -0.5145  0.4643
12860TIP3    H138523   0.995   5.230   3.643  0.5190 -0.2274  0.6973
12860TIP3    H238524   0.951   5.180   3.507 -0.8465  0.0212  1.0344
12861TIP3   OH238525   1.732   0.009   2.388  0.0384 -0.0159 -0.6150
12861TIP3    H138526   1.645  -0.031   2.387  0.2989 -0.6588  0.8783
12861TIP3    H238527   1.717   0.098   2.357 -1.4698  0.4387  1.2364
12862TIP3   OH238528   3.245   4.708   3.942  0.1197  0.8348 -0.4142
12862TIP3    H138529   3.313   4.649   3.910 -0.8521  0.0839 -1.1526
12862TIP3    H238530   3.256   4.788   3.890  0.0233  0.4742 -0.9933
12863TIP3   OH238531   0.899   5.316   6.649 -0.2460 -0.2389  0.1394
12863TIP3    H138532   0.961   5.355   6.710 -0.3750  1.3404 -0.6640
12863TIP3    H238533   0.813   5.346   6.680 -0.4486 -0.8048  0.1342
12864TIP3   OH238534   1.066   3.749   3.496 -0.5534  0.0177 -0.1473
12864TIP3    H138535   1.143   3.790   3.536 -0.7675  0.8925 -0.6196
12864TIP3    H238536   1.076   3.763   3.402 -0.9487 -0.4752 -0.2734
12865TIP3   OH238537   2.442   4.988   3.631  0.4676 -0.0408  0.3817
12865TIP3    H138538   2.513   4.940   3.674 -0.2536 -1.2726  0.2439
12865TIP3    H238539   2.462   4.983   3.538 -0.3918 -1.4588  0.2357
12866TIP3   OH238540   4.091   3.774   3.296  0.0024 -0.0232  0.6241
12866TIP3    H138541   4.122   3.822   3.219  0.0667 -1.8872 -0.5829
12866TIP3    H238542   3.995   3.778   3.290  0.0068  0.6095  0.9654
12867TIP3   OH238543   0.682   2.759   3.625  0.2255 -0.1344  0.4015
12867TIP3    H138544   0.728   2.737   3.544  0.6167  1.6755  0.0861
12867TIP3    H238545   0.751   2.791   3.683 -0.4654  1.7301  0.2581
12868TIP3   OH238546   2.140   2.335   5.933 -0.0534 -0.4903  0.1298
12868TIP3    H138547   2.090   2.375   6.005  0.9346 -1.0682  1.1821
12868TIP3    H238548   2.109   2.244   5.931 -0.5743 -0.3037 -0.6586
12869TIP3   OH238549   6.587   3.385   5.405 -0.0480 -0.0594  0.7701
12869TIP3    H138550   6.652   3.326   5.442  0.5515  0.3357  0.3591
12869TIP3    H238551   6.636   3.463   5.378 -0.8052  0.5723  1.1666
12870TIP3   OH238552   4.290   1.801   3.729 -0.1268  0.3260  0.2858
12870TIP3    H138553   4.245   1.780   3.811  0.3947 -0.3963  0.3898
12870TIP3    H238554   4.319   1.892   3.741  2.6568 -0.6824  2.2109
12871TIP3   OH238555   7.133   1.453   1.554  0.2227  0.2358  0.1345
12871TIP3    H138556   7.176   1.445   1.639  1.0576 -0.1591 -0.3090
12871TIP3    H238557   7.105   1.544   1.549 -0.2494  0.1488  1.0181
12872TIP3   OH238558   3.922   5.564   2.364 -0.2316  0.0812 -0.0797
12872TIP3    H138559   3.975   5.639   2.334  0.5323 -0.6275 -0.5521
12872TIP3    H238560   3.966   5.534   2.443 -0.1469 -0.2653 -0.2548
12873TIP3   OH238561   4.528   4.566   1.930 -0.4473 -0.1719 -0.1451
12873TIP3    H138562   4.449   4.607   1.894 -0.3463  0.3828  0.2543
12873TIP3    H238563   4.510   4.557   2.023 -0.8441 -1.9276 -0.3649
12874TIP3   OH238564   4.204   7.372   0.135  0.2681  0.5582 -0.2698
12874TIP3    H138565   4.139   7.430   0.096 -0.3781 -1.3574 -2.2868
12874TIP3    H238566   4.153   7.313   0.191 -0.0477 -1.6811 -2.7377
12875TIP3   OH238567   7.810   6.485   3.145 -0.1341  0.5016  0.0847
12875TIP3    H138568   7.778   6.412   3.199 -0.0521 -0.7066 -1.4371
12875TIP3    H238569   7.732   6.538   3.127 -0.7256 -0.6503 -0.9222
12876TIP3   OH238570   1.119   7.163   3.606  0.1665 -0.2292 -0.6144
12876TIP3    H138571   1.186   7.191   3.543  0.8693  2.1556  1.0446
12876TIP3    H238572   1.045   7.221   3.590 -0.1138 -0.4174 -0.0496
12877TIP3   OH238573   2.947   0.279   2.317 -0.5079  0.4599  0.2372
12877TIP3    H138574   2.938   0.297   2.223 -0.1297 -0.2791  0.0432
12877TIP3    H238575   3.033   0.238   2.324 -0.0455  1.5322  1.0800
12878TIP3   OH238576   6.687   2.865   5.220  0.5354  0.2080  0.0990
12878TIP3    H138577   6.734   2.783   5.234  0.8920  0.3008 -0.5081
12878TIP3    H238578   6.616   2.864   5.284  0.9763 -0.2348  0.5822
12879TIP3   OH238579   3.938   4.164   3.151 -0.1074  0.0718 -0.1393
12879TIP3    H138580   3.876   4.105   3.108  1.3825 -2.1131  0.5197
12879TIP3    H238581   3.935   4.138   3.243  3.2468 -1.6372 -0.3870
12880TIP3   OH238582   6.322   1.715   4.007  0.0510  0.2311  0.7656
12880TIP3    H138583   6.237   1.757   3.991  0.5134  1.3111  1.0083
12880TIP3    H238584   6.303   1.622   4.009 -0.8292  0.3195 -1.1063
12881TIP3   OH238585   6.069   4.706   0.763  0.2471 -0.7408  0.3138
12881TIP3    H138586   6.000   4.714   0.697  0.9096  3.0933 -0.1871
12881TIP3    H238587   6.025   4.727   0.845  0.8729  4.2313 -0.2723
12882TIP3   OH238588   6.129   7.494   0.102  0.1230  0.1091 -0.7938
12882TIP3    H138589   6.107   7.508   0.010  1.1232 -0.2638 -1.1104
12882TIP3    H238590   6.168   7.406   0.103  0.2046  0.1512 -0.0332
12883TIP3   OH238591   7.098   7.007   4.978 -0.1097  0.1748  0.0506
12883TIP3    H138592   7.131   6.920   4.998  0.0625 -0.1764 -1.6232
12883TIP3    H238593   7.164   7.067   5.012  0.2181 -0.3805  0.3911
12884TIP3   OH238594   4.581   1.085   5.072  0.2725  0.3499 -0.0377
12884TIP3    H138595   4.545   1.025   5.007  1.5879  0.3423 -0.8000
12884TIP3    H238596   4.570   1.172   5.033 -0.4119  0.5034  0.4727
12885TIP3   OH238597   7.329   2.929   3.121  0.5694  0.4989 -0.5484
12885TIP3    H138598   7.290   2.960   3.203  0.0980  0.7045 -0.8481
12885TIP3    H238599   7.374   3.005   3.085  1.4848  0.2004 -0.0792
12886TIP3   OH238600   4.798   1.120   5.556 -0.0115 -0.0831  0.1455
12886TIP3    H138601   4.865   1.158   5.613  0.2227  1.2045 -0.9401
12886TIP3    H238602   4.766   1.194   5.505  0.0184 -1.2447 -1.6262
12887TIP3   OH238603   0.300   4.917   5.798 -0.2569  0.1648  0.1062
12887TIP3    H138604   0.350   4.836   5.788  0.1925  0.4435  0.0686
12887TIP3    H238605   0.212   4.888   5.820 -0.6946 -0.4126 -2.1827
12888TIP3   OH238606   2.334   3.954   4.209  0.0109  0.0890 -0.2851
12888TIP3    H138607   2.376   4.031   4.171  0.2703  0.1194  0.0593
12888TIP3    H238608   2.387   3.880   4.179 -0.4934 -0.0021 -0.9780
12889TIP3   OH238609   7.071   7.066   0.788 -0.6717 -0.2498  0.2515
12889TIP3    H138610   7.097   6.983   0.829 -0.8191 -1.5814 -2.1400
12889TIP3    H238611   7.001   7.099   0.844 -0.5778 -1.7286  1.3036
12890TIP3   OH238612   0.409   3.481   0.234 -0.0763 -0.3384  0.1583
12890TIP3    H138613   0.493   3.499   0.276 -0.3777 -2.6394  1.9647
12890TIP3    H238614   0.422   3.504   0.142  1.7321  1.6243  0.8343
12891TIP3   OH238615   6.973   2.109   5.869 -0.4047 -0.0162 -0.3379
12891TIP3    H138616   7.050   2.053   5.879  0.1579  0.3429 -2.2296
12891TIP3    H238617   7.005   2.197   5.889 -0.2125  0.1800 -1.4491
12892TIP3   OH238618   3.479   0.254   6.151 -0.8123  0.0342  0.5733
12892TIP3    H138619   3.473   0.197   6.228  0.1210 -1.8057 -0.6466
12892TIP3    H238620   3.566   0.236   6.115 -0.8154  1.6743 -0.3151
12893TIP3   OH238621   8.202   2.355   3.394  0.2174  0.0411  0.1380
12893TIP3    H138622   8.211   2.356   3.489 -1.4060 -0.9372  0.3411
12893TIP3    H238623   8.254   2.429   3.364 -0.9805  1.7206  1.9539
12894TIP3   OH238624   3.778   7.416   0.669 -0.4326 -0.3590 -0.1102
12894TIP3    H138625   3.870   7.398   0.651 -0.3862 -0.0400 -0.2015
12894TIP3    H238626   3.750   7.345   0.727  0.1263  0.0745  0.6972
12895TIP3   OH238627   5.555   7.424   1.594  0.1875  0.0974  0.4286
12895TIP3    H138628   5.465   7.392   1.601  0.4871 -0.6814  0.8107
12895TIP3    H238629   5.588   7.424   1.684  1.6946 -2.9824  0.0179
12896TIP3   OH238630   2.097   1.869   3.922 -0.8333  0.6275  0.2593
12896TIP3    H138631   2.175   1.898   3.874 -1.7195  1.4480 -0.7288
12896TIP3    H238632   2.130   1.802   3.982  0.0470 -2.3548 -3.1515
12897TIP3   OH238633   7.428   0.098   4.422 -0.0523 -0.0688 -0.3092
12897TIP3    H138634   7.517   0.132   4.434 -0.1935  0.3660 -0.4605
12897TIP3    H238635   7.440   0.016   4.375  0.2299  0.3852 -1.0491
12898TIP3   OH238636   6.755   3.545   4.680  0.3253 -0.0765  0.5268
12898TIP3    H138637   6.757   3.486   4.755 -1.0247 -1.0897 -0.1843
12898TIP3    H238638   6.839   3.590   4.682  0.6735 -0.7448  2.1100
12899TIP3   OH238639   6.789   4.473   5.113  0.5180  0.4168 -0.3465
12899TIP3    H138640   6.849   4.451   5.042 -0.0848 -0.5232 -0.5811
12899TIP3    H238641   6.720   4.406   5.108 -1.2711  2.1937 -0.9106
12900TIP3   OH238642   2.849   6.417   5.492  0.2579 -0.3966  0.0622
12900TIP3    H138643   2.771   6.471   5.506  0.4211 -0.4230  1.2373
12900TIP3    H238644   2.896   6.458   5.420  0.2872  0.9331  0.8150
12901TIP3   OH238645   2.279   6.347   1.110  0.4817 -0.1837  0.2993
12901TIP3    H138646   2.353   6.397   1.145  0.4654 -0.8959  1.3947
12901TIP3    H238647   2.215   6.346   1.182 -0.6180  0.4286 -0.6252
12902TIP3   OH238648   4.547   1.148   6.538 -0.8899  0.5798  0.1060
12902TIP3    H138649   4.604   1.194   6.600 -1.4521  0.9530  0.3562
12902TIP3    H238650   4.521   1.215   6.475 -1.1323  0.4368  0.0514
12903TIP3   OH238651   5.472   7.497   2.315 -0.0542  0.2508 -0.5360
12903TIP3    H138652   5.469   7.426   2.251 -0.5416  0.2824 -0.5537
12903TIP3    H238653   5.381   7.526   2.322 -0.0134  0.2176  0.2040
12904TIP3   OH238654   5.769   3.462   1.693 -0.1592  0.2738 -0.1530
12904TIP3    H138655   5.861   3.434   1.686 -0.3208  0.0797 -1.9944
12904TIP3    H238656   5.752   3.466   1.788  2.6684  3.4457  0.4302
12905TIP3   OH238657   4.615   7.527   2.879 -0.2153 -0.3931  0.3293
12905TIP3    H138658   4.643   7.613   2.912 -0.5670  0.0333 -0.4546
12905TIP3    H238659   4.520   7.528   2.887 -0.2989 -0.3394 -0.5383
12906TIP3   OH238660   6.519   7.107   0.300 -0.1375  0.1395 -0.1717
12906TIP3    H138661   6.495   7.199   0.294 -1.4263 -0.2261 -1.0101
12906TIP3    H238662   6.465   7.073   0.371 -1.4641 -0.4706 -1.4208
12907TIP3   OH238663   6.027   4.056   5.513 -0.3250  0.4700 -0.0950
12907TIP3    H138664   6.072   3.981   5.552  0.5652 -0.5271 -2.8102
12907TIP3    H238665   5.987   4.101   5.588 -0.4019 -2.3315  1.7262
12908TIP3   OH238666   7.471   4.938   6.547 -0.8925 -0.3576 -0.3547
12908TIP3    H138667   7.552   4.889   6.534 -0.8790 -0.5389  0.3446
12908TIP3    H238668   7.477   4.970   6.637 -1.2099  0.3576 -0.5852
12909TIP3   OH238669   2.421   1.417   0.979 -0.0931  0.5834 -0.0003
12909TIP3    H138670   2.505   1.396   0.939  0.2607  2.1594 -0.1457
12909TIP3    H238671   2.427   1.510   0.999 -1.6061  0.5973  0.4863
12910TIP3   OH238672   3.083   3.838   5.088  0.0433  0.3707  0.2214
12910TIP3    H138673   3.099   3.882   5.171 -1.1350 -0.2501  0.8009
12910TIP3    H238674   3.013   3.889   5.047  0.3751  0.4667 -0.2394
12911TIP3   OH238675   3.858   0.516   0.636 -0.0630  0.0949  0.2230
12911TIP3    H138676   3.910   0.525   0.715  0.5897  1.0409 -0.3050
12911TIP3    H238677   3.787   0.579   0.647 -0.4150 -0.3165  0.3804
12912TIP3   OH238678   5.197   6.824   0.661  0.4035  0.0062  0.1554
12912TIP3    H138679   5.126   6.856   0.717  0.3064  0.0235  0.0221
12912TIP3    H238680   5.260   6.786   0.722  1.3449  1.9519  0.4923
12913TIP3   OH238681   0.644   5.972   0.760  0.2270  0.1074 -0.4988
12913TIP3    H138682   0.548   5.974   0.761  0.0937  0.5214  4.1720
12913TIP3    H238683   0.666   5.882   0.737 -1.3641 -0.4171 -0.0823
12914TIP3   OH238684   0.349   6.721   0.681 -0.3612  0.1815  0.6842
12914TIP3    H138685   0.383   6.779   0.749 -0.2358  1.8106 -0.6651
12914TIP3    H238686   0.336   6.780   0.606  0.5005 -1.6998 -1.0263
12915TIP3   OH238687   2.223   3.282   5.700 -0.7186 -0.1374  0.5613
12915TIP3    H138688   2.276   3.300   5.778  0.5597 -0.1068 -0.2782
12915TIP3    H238689   2.286   3.287   5.628 -1.5179 -1.9658 -0.3053
12916TIP3   OH238690   5.181   0.641   0.120  0.1515  0.3288 -0.3276
12916TIP3    H138691   5.206   0.732   0.104  0.4125  0.4776  0.8610
12916TIP3    H238692   5.254   0.604   0.169  0.1975 -0.6320 -1.0877
12917TIP3   OH238693   1.812   3.531   3.613  0.5044  0.6448 -0.1159
12917TIP3    H138694   1.795   3.461   3.676  1.4241  0.4323 -0.0949
12917TIP3    H238695   1.774   3.499   3.531  1.2470 -0.0515 -0.1986
12918TIP3   OH238696   1.949   2.644   1.033  0.5888 -0.6271 -0.2368
12918TIP3    H138697   1.983   2.593   0.960  0.3213 -1.9866  0.5283
12918TIP3    H238698   2.026   2.685   1.072  0.9850 -1.3438 -0.2353
12919TIP3   OH238699   7.668   0.566   0.828  0.3143 -0.0955 -0.4308
12919TIP3    H138700   7.731   0.520   0.883  0.1347  0.9585  0.7122
12919TIP3    H238701   7.616   0.497   0.788  0.6998 -0.9180  0.4482
12920TIP3   OH238702   5.587   3.538   3.357  0.0981  0.0096 -0.3584
12920TIP3    H138703   5.522   3.594   3.315  0.0367  0.2317  0.0251
12920TIP3    H238704   5.561   3.535   3.449  0.9855  0.6083 -0.0748
12921TIP3   OH238705   7.198   6.618   1.352 -0.1322  0.0540  0.3777
12921TIP3    H138706   7.236   6.701   1.326 -0.5404 -0.5433 -2.4135
12921TIP3    H238707   7.272   6.565   1.380  0.0852  1.4051  2.5913
12922TIP3   OH238708   8.240   4.867   3.340  0.2489  0.2290 -0.1311
12922TIP3    H138709   8.180   4.913   3.399 -1.6105 -0.3518 -1.4930
12922TIP3    H238710   8.183   4.827   3.274  1.6263 -4.4299  1.1260
12923TIP3   OH238711   3.974   4.107   5.296  0.3492 -0.0878 -0.0114
12923TIP3    H138712   4.007   4.155   5.372  1.4867  1.8137 -1.6158
12923TIP3    H238713   3.885   4.139   5.283  0.5454  0.4188 -0.1199
12924TIP3   OH238714   6.089   0.549   0.682  0.4511  0.3906  0.4812
12924TIP3    H138715   6.064   0.624   0.629  0.3120  0.0986  0.1238
12924TIP3    H238716   6.168   0.515   0.640 -0.2255 -0.4457 -0.1562
12925TIP3   OH238717   0.898   0.567   3.144 -0.4851 -0.4649 -0.2696
12925TIP3    H138718   0.911   0.560   3.239 -4.2401 -0.7170  0.3682
12925TIP3    H238719   0.916   0.479   3.111 -0.8941 -0.8446  0.4981
12926TIP3   OH238720   5.759   5.208   1.481  0.0643 -0.5221 -0.0241
12926TIP3    H138721   5.726   5.125   1.446 -0.4388 -0.4209  0.2099
12926TIP3    H238722   5.839   5.225   1.430  0.3079 -1.2707  0.0912
12927TIP3   OH238723   3.017   1.470   1.528  0.1392 -0.3973 -0.0465
12927TIP3    H138724   3.103   1.439   1.500 -0.1121 -0.6085 -0.5954
12927TIP3    H238725   2.966   1.391   1.544 -0.5534 -0.3152 -1.6090
12928TIP3   OH238726   7.131   2.146   3.561 -0.2477  0.0104  0.1746
12928TIP3    H138727   7.114   2.099   3.479 -2.1806  0.3989  0.3118
12928TIP3    H238728   7.121   2.238   3.537 -0.6286  0.1331  0.8056
12929TIP3   OH238729   7.482   3.755   2.560 -0.2026 -0.3661  0.3237
12929TIP3    H138730   7.566   3.764   2.606  0.1790 -0.6679 -0.3033
12929TIP3    H238731   7.421   3.728   2.629  0.4123 -1.0342  0.6339
12930TIP3   OH238732   2.180   5.073   1.594  0.6600  1.1067 -0.4963
12930TIP3    H138733   2.130   5.119   1.527 -0.8650  1.0494  0.5377
12930TIP3    H238734   2.162   4.980   1.578 -2.0602  1.1418  1.5811
12931TIP3   OH238735   7.779   1.173   3.666  0.3877 -0.5804  0.2444
12931TIP3    H138736   7.870   1.201   3.672  0.5347 -1.1592  0.9637
12931TIP3    H238737   7.728   1.254   3.666  0.8979 -0.2610  0.0186
12932TIP3   OH238738   6.624   5.364   1.676  0.9930 -0.3137 -0.2308
12932TIP3    H138739   6.714   5.331   1.690  0.6293 -0.6194  1.7359
12932TIP3    H238740   6.587   5.368   1.764 -0.9096 -0.0922 -1.0078
12933TIP3   OH238741   2.490   2.204   4.670 -0.0308 -0.4541  0.2583
12933TIP3    H138742   2.531   2.160   4.744 -0.6786 -1.0187  0.2909
12933TIP3    H238743   2.494   2.297   4.692 -1.2297 -0.6724  1.5658
12934TIP3   OH238744   8.178   0.882   4.960  0.1720 -0.2830 -0.0138
12934TIP3    H138745   8.214   0.970   4.965  0.9209 -0.6349  1.9921
12934TIP3    H238746   8.234   0.830   5.018 -0.7496 -1.8902 -0.5033
12935TIP3   OH238747   3.673   7.281   6.451  0.1584  0.2540 -0.3789
12935TIP3    H138748   3.708   7.351   6.395  2.3417 -0.3818  0.0664
12935TIP3    H238749   3.691   7.201   6.402 -0.8996 -0.1091 -0.1857
12936TIP3   OH238750   6.883   5.551   2.152  0.5180  0.5561 -0.0721
12936TIP3    H138751   6.867   5.515   2.239  0.2647  1.4353  0.2531
12936TIP3    H238752   6.923   5.479   2.103  2.1497  0.5284  1.2312
12937TIP3   OH238753   7.444   2.221   3.591 -0.0320  0.2092  0.8794
12937TIP3    H138754   7.352   2.229   3.617  0.1770  1.5358  1.3074
12937TIP3    H238755   7.444   2.152   3.525 -1.5717  1.1175 -0.1712
12938TIP3   OH238756   7.872   0.468   1.895  0.3794 -0.3142  0.3901
12938TIP3    H138757   7.941   0.492   1.834 -0.5697 -0.3925 -0.7596
12938TIP3    H238758   7.851   0.377   1.873 -0.8761  0.0716 -0.0826
12939TIP3   OH238759   2.378   2.474   1.611  0.1222 -0.6184  0.5481
12939TIP3    H138760   2.430   2.395   1.627  2.9463  1.0436  0.1639
12939TIP3    H238761   2.399   2.498   1.521 -0.8850  0.4502  0.5909
12940TIP3   OH238762   1.962   5.971   3.072  0.2169 -0.1116  0.1218
12940TIP3    H138763   1.950   6.000   2.982  0.7978  3.1601  0.9566
12940TIP3    H238764   2.056   5.958   3.082  0.2190  0.0834  0.3880
12941TIP3   OH238765   6.428   0.965   4.545  0.3396 -0.2517  0.1244
12941TIP3    H138766   6.416   0.925   4.459 -0.0090 -1.8254  0.8847
12941TIP3    H238767   6.343   1.006   4.564  0.7778  1.1485 -0.7678
12942TIP3   OH238768   1.401   2.859   5.889 -0.0818 -0.0932 -0.7959
12942TIP3    H138769   1.456   2.821   5.958  0.7217  0.1206 -1.3004
12942TIP3    H238770   1.336   2.791   5.870 -0.6717  0.0594  0.5406
12943TIP3   OH238771   4.458   2.320   0.092 -0.5947 -0.0463 -0.0359
12943TIP3    H138772   4.535   2.301   0.146 -0.9468 -0.2690  0.3929
12943TIP3    H238773   4.387   2.271   0.134 -0.3333 -2.5914 -2.2907
12944TIP3   OH238774   5.029   6.934   4.814  0.0036  0.0894 -0.3136
12944TIP3    H138775   5.037   6.840   4.799  0.0661 -0.1479  1.0205
12944TIP3    H238776   4.937   6.946   4.840 -0.1214  0.4691 -0.9277
12945TIP3   OH238777   4.558   5.439   6.519 -0.1016  0.3499 -0.0699
12945TIP3    H138778   4.551   5.408   6.609  0.9600 -0.3690 -0.2229
12945TIP3    H238779   4.474   5.481   6.501 -0.7458 -0.5123  0.8688
12946TIP3   OH238780   4.493   4.941   1.022  0.3748 -0.4897 -0.2452
12946TIP3    H138781   4.455   4.887   1.091 -0.5576  0.0039 -0.3495
12946TIP3    H238782   4.450   5.026   1.031 -0.0618 -0.5243 -1.6574
12947TIP3   OH238783   0.556   2.899   3.971  0.2193  0.1510  0.2069
12947TIP3    H138784   0.492   2.890   4.041  1.1029  2.3257  1.3962
12947TIP3    H238785   0.639   2.870   4.010  0.3977 -0.4222 -0.5663
12948TIP3   OH238786   1.077   2.045   3.529 -0.1857 -0.1606  0.3671
12948TIP3    H138787   0.987   2.014   3.519  0.3210 -1.9705  0.9829
12948TIP3    H238788   1.098   2.027   3.620  1.5506 -2.0191 -0.3296
12949TIP3   OH238789   5.390   3.172   5.690  0.2361  0.8711  0.0626
12949TIP3    H138790   5.458   3.218   5.641 -1.7851  4.4123  0.2453
12949TIP3    H238791   5.421   3.082   5.696  6.3269  2.6550  2.6233
12950TIP3   OH238792   4.894   0.178   4.923  0.0666 -0.9480  0.4832
12950TIP3    H138793   4.893   0.255   4.980 -1.9520  0.3226 -1.1525
12950TIP3    H238794   4.816   0.128   4.948 -1.3228  0.0385 -1.5637
12951TIP3   OH238795   7.230   7.304   5.504 -0.1496  0.8252 -0.0062
12951TIP3    H138796   7.308   7.359   5.510 -0.0357  0.5639  1.0375
12951TIP3    H238797   7.259   7.228   5.454 -0.1836  1.4831 -1.0507
12952TIP3   OH238798   3.512   5.253   3.277 -0.1112 -0.0040 -0.5642
12952TIP3    H138799   3.489   5.291   3.361 -0.3867  0.2229 -0.7371
12952TIP3    H238800   3.466   5.169   3.274 -0.0099 -0.0635 -0.4431
12953TIP3   OH238801   1.276   0.662   1.785  0.6139  0.3259 -0.5313
12953TIP3    H138802   1.366   0.676   1.814  0.9612 -1.9411 -0.3344
12953TIP3    H238803   1.276   0.573   1.748 -1.3484  0.6040 -1.3179
12954TIP3   OH238804   5.508   2.414   0.879 -0.2645 -0.0471  0.1133
12954TIP3    H138805   5.500   2.328   0.838 -0.1116  0.2687 -0.5856
12954TIP3    H238806   5.526   2.474   0.807 -0.0026  0.5206  0.6405
12955TIP3   OH238807   3.174   3.505   5.070 -0.0573 -0.7117  0.2887
12955TIP3    H138808   3.087   3.473   5.047  0.5770 -1.7863 -0.7087
12955TIP3    H238809   3.234   3.437   5.039  1.1151 -0.2894  1.5096
12956TIP3   OH238810   3.156   6.008   5.911  0.2546 -0.5911 -0.6367
12956TIP3    H138811   3.223   5.955   5.868  0.5824 -0.2761 -0.5249
12956TIP3    H238812   3.080   5.950   5.918  0.3546 -0.7977 -1.2036
12957TIP3   OH238813   2.453   7.510   5.351 -1.1980 -0.4102 -1.0993
12957TIP3    H138814   2.360   7.485   5.355 -1.0127 -0.9843  0.1210
12957TIP3    H238815   2.498   7.444   5.405 -0.3480  1.0250  0.0196
12958TIP3   OH238816   5.742   7.382   3.566 -0.0126  0.3326 -0.2020
12958TIP3    H138817   5.733   7.432   3.484 -1.5920 -1.0127 -0.8974
12958TIP3    H238818   5.830   7.345   3.562 -0.2499 -0.1428 -1.5678
12959TIP3   OH238819   2.786   3.264   0.092  0.5358 -0.3828 -0.2278
12959TIP3    H138820   2.751   3.308   0.015  1.6151 -0.5430 -0.8308
12959TIP3    H238821   2.760   3.319   0.166  1.2572  0.8953 -0.8982
12960TIP3   OH238822   8.142   6.353   1.979 -0.1264 -0.0047  0.0593
12960TIP3    H138823   8.087   6.321   1.907 -1.4075  1.7045  0.2028
12960TIP3    H238824   8.194   6.423   1.939 -1.2533  1.3492  0.8392
12961TIP3   OH238825   7.871   4.151   1.687  0.2310 -0.3006 -0.1039
12961TIP3    H138826   7.922   4.210   1.742  0.4377 -1.4072  0.9294
12961TIP3    H238827   7.934   4.088   1.654 -0.0650 -0.2301 -0.8241
12962TIP3   OH238828   6.084   0.924   6.117 -0.3894  0.1695 -0.3132
12962TIP3    H138829   6.113   0.988   6.182 -0.8229  0.3918 -0.3428
12962TIP3    H238830   6.099   0.839   6.160  2.0405  0.1737 -0.9955
12963TIP3   OH238831   0.445   1.158   5.629  0.0110 -0.1636 -0.1453
12963TIP3    H138832   0.508   1.201   5.686 -0.9284  2.7527 -1.1142
12963TIP3    H238833   0.359   1.177   5.668 -0.5707  0.8816 -1.8029
12964TIP3   OH238834   1.633   0.567   2.701 -0.5114  0.2952 -0.3633
12964TIP3    H138835   1.550   0.597   2.737 -1.7201 -1.6644 -1.3547
12964TIP3    H238836   1.632   0.598   2.611  0.2156  0.9132 -0.1705
12965TIP3   OH238837   2.920   5.362   0.638 -0.2033 -0.4190  0.5136
12965TIP3    H138838   2.842   5.346   0.584 -1.6613  3.1019  1.3034
12965TIP3    H238839   2.890   5.350   0.728  0.1896  0.6511  0.8064
12966TIP3   OH238840   1.990   6.961   3.682  0.2865  0.9139 -0.7042
12966TIP3    H138841   1.988   6.903   3.606  2.2470  2.1980 -1.8080
12966TIP3    H238842   1.989   7.049   3.646 -0.2207  1.5857  0.8455
12967TIP3   OH238843   7.453   0.858   1.612  0.2199 -0.5104 -0.2221
12967TIP3    H138844   7.409   0.848   1.696  0.6729 -0.9540 -0.0324
12967TIP3    H238845   7.381   0.868   1.549 -0.1275 -0.4084  0.1841
12968TIP3   OH238846   4.314   7.216   2.671 -0.5358 -0.5121 -0.0587
12968TIP3    H138847   4.353   7.267   2.600 -2.5551  0.0429 -0.8447
12968TIP3    H238848   4.236   7.177   2.633 -1.3861 -0.6449  1.7170
12969TIP3   OH238849   7.440   1.668   5.159  0.2520  0.2686  0.2715
12969TIP3    H138850   7.501   1.652   5.230 -0.4001  0.8996  0.9863
12969TIP3    H238851   7.362   1.618   5.182 -0.2677  1.1375  0.4322
12970TIP3   OH238852   8.134   2.274   2.478 -0.0194  0.0811 -0.0405
12970TIP3    H138853   8.126   2.245   2.568 -0.9831  0.4675  0.0160
12970TIP3    H238854   8.056   2.239   2.434  0.7313 -0.5976 -0.8666
12971TIP3   OH238855   4.663   7.770   6.520  0.3711  0.2816  0.1406
12971TIP3    H138856   4.607   7.826   6.466  0.9591  1.2652  0.5198
12971TIP3    H238857   4.667   7.688   6.472  1.2791  1.2838 -1.6081
12972TIP3   OH238858   8.064   6.757   6.202 -0.0281  0.2574 -0.2796
12972TIP3    H138859   8.128   6.734   6.135  0.5142 -0.4312  0.4514
12972TIP3    H238860   7.981   6.762   6.154  0.7421  2.6076 -1.5008
12973TIP3   OH238861   7.579   7.315   5.801 -0.4682 -0.8541  0.3725
12973TIP3    H138862   7.643   7.376   5.838 -1.9265  0.2904  1.1507
12973TIP3    H238863   7.508   7.314   5.865 -1.0530 -2.4106 -0.2572
12974TIP3   OH238864   5.152   5.385   6.452 -0.1767 -0.1334 -0.6654
12974TIP3    H138865   5.157   5.362   6.360  0.7594  1.0791 -0.9419
12974TIP3    H238866   5.100   5.315   6.492 -0.0018 -1.0395 -1.9798
12975TIP3   OH238867   2.295   6.035   4.300 -0.6323 -0.0696  0.4636
12975TIP3    H138868   2.364   6.035   4.234 -0.8060 -1.5026  0.2517
12975TIP3    H238869   2.305   6.119   4.344 -0.1574  0.6927 -1.0054
12976TIP3   OH238870   2.458   3.213   4.023 -0.5295  0.4089  0.2029
12976TIP3    H138871   2.499   3.218   3.937  1.8833 -0.7031  1.1890
12976TIP3    H238872   2.393   3.144   4.016  0.3752 -0.3932 -0.4787
12977TIP3   OH238873   0.079   4.904   5.484  0.1667  0.7273 -0.7133
12977TIP3    H138874   0.059   4.900   5.391  2.0052  1.0248 -1.1676
12977TIP3    H238875   0.070   4.996   5.507 -1.3207  0.4995 -0.3234
12978TIP3   OH238876   7.773   5.380   5.788 -0.5371 -0.2453  0.0039
12978TIP3    H138877   7.773   5.317   5.716  0.7073 -1.8805  1.3815
12978TIP3    H238878   7.703   5.351   5.846 -0.9708  0.5681 -0.0899
12979TIP3   OH238879   5.842   3.216   1.872 -0.0997  0.2639 -0.3556
12979TIP3    H138880   5.753   3.224   1.908  0.1706 -0.6342  0.5572
12979TIP3    H238881   5.881   3.143   1.921  1.0689  0.5064 -0.9008
12980TIP3   OH238882   2.898   1.665   5.213 -0.5473 -0.6913 -0.0795
12980TIP3    H138883   2.811   1.640   5.244 -0.5877  0.0574  0.4518
12980TIP3    H238884   2.940   1.703   5.290 -0.5462  0.9811 -0.8638
12981TIP3   OH238885   7.189   7.286   5.772  0.7682  0.1403 -0.3000
12981TIP3    H138886   7.188   7.269   5.678 -1.3411 -2.5427  0.0919
12981TIP3    H238887   7.115   7.346   5.786 -1.1317 -2.1268 -0.0612
12982TIP3   OH238888   0.500   7.631   4.231  0.3506 -0.4712 -0.1157
12982TIP3    H138889   0.503   7.619   4.326 -3.5296  1.6600  0.5093
12982TIP3    H238890   0.484   7.543   4.196 -0.4353 -1.0019  1.4799
12983TIP3   OH238891   5.259   4.127   2.810 -0.0313  0.2818 -0.0488
12983TIP3    H138892   5.343   4.091   2.782  0.2994  0.6468  0.4623
12983TIP3    H238893   5.235   4.189   2.741  0.5201  0.7808  0.1951
12984TIP3   OH238894   7.051   4.997   2.608  0.0808  0.0184  0.5626
12984TIP3    H138895   7.020   4.949   2.684 -0.0524  0.0502  0.5287
12984TIP3    H238896   7.110   4.936   2.563  0.4741  0.1423  0.9057
12985TIP3   OH238897   7.251   6.739   6.154  0.0316  0.0139  0.4602
12985TIP3    H138898   7.301   6.819   6.171 -1.1139  0.7328  0.5885
12985TIP3    H238899   7.283   6.676   6.218  0.1804  0.7315  1.1096
12986TIP3   OH238900   2.963   2.024   6.221  0.5493  0.4959 -0.3171
12986TIP3    H138901   2.927   1.950   6.172 -0.9491  0.9554  0.0233
12986TIP3    H238902   2.936   2.101   6.170 -0.1120  0.9192  0.6401
12987TIP3   OH238903   4.859   5.410   3.800  0.1407 -0.1778  0.1226
12987TIP3    H138904   4.929   5.469   3.828  0.8581 -0.6350 -0.6645
12987TIP3    H238905   4.805   5.463   3.741  0.8578 -0.3297 -0.6864
12988TIP3   OH238906   1.332   5.197   2.259  0.0257  0.5726 -0.1464
12988TIP3    H138907   1.320   5.256   2.184  0.0719  1.0044  0.1806
12988TIP3    H238908   1.267   5.226   2.323 -0.4591 -0.2178 -0.2674
12989TIP3   OH238909   1.548   3.082   0.723  0.6065 -0.3071 -0.3516
12989TIP3    H138910   1.606   3.079   0.647  0.1408 -1.4502 -0.6870
12989TIP3    H238911   1.552   2.993   0.760 -2.2687 -1.0024 -1.4433
12990TIP3   OH238912   3.652   2.812   1.272 -0.1990 -0.1067 -0.2745
12990TIP3    H138913   3.558   2.815   1.252 -0.1604 -2.4997 -1.1078
12990TIP3    H238914   3.675   2.903   1.291 -2.9521  0.3975  1.2784
12991TIP3   OH238915   8.277   1.137   6.402  0.1416  0.1221 -0.5874
12991TIP3    H138916   8.197   1.102   6.442  0.0570  1.2031  0.2416
12991TIP3    H238917   8.335   1.153   6.476 -0.1512  2.5177 -0.8034
12992TIP3   OH238918   3.795   3.054   5.905  0.3956  0.3218 -0.0418
12992TIP3    H138919   3.861   3.000   5.949 -1.9895 -1.6251  1.4642
12992TIP3    H238920   3.767   3.116   5.973  0.1330  0.5857 -0.3922
12993TIP3   OH238921   8.083   1.974   0.448 -0.1395 -0.2570  0.5927
12993TIP3    H138922   8.130   1.933   0.375 -0.8053  0.2112 -0.1097
12993TIP3    H238923   8.147   1.976   0.519 -0.1550 -2.7803  0.7683
12994TIP3   OH238924   1.884   4.851   6.175 -0.0082 -0.5140  0.1946
12994TIP3    H138925   1.857   4.782   6.235  1.0431 -2.2863 -1.2486
12994TIP3    H238926   1.810   4.862   6.116 -0.1153 -0.5261  0.3257
12995TIP3   OH238927   6.900   6.568   3.917 -0.0329  0.2345  0.3960
12995TIP3    H138928   6.835   6.499   3.906  0.8332 -0.5553  0.1235
12995TIP3    H238929   6.968   6.547   3.853  0.3427  1.2238  0.4627
12996TIP3   OH238930  -0.014   2.735   0.002  0.3667 -0.1236  0.1902
12996TIP3    H138931   0.020   2.718   0.090 -1.1372  0.0931  0.8415
12996TIP3    H238932   0.044   2.686  -0.056 -1.1983 -4.1341  1.6406
12997TIP3   OH238933   4.497   3.078   3.655  0.0212 -0.3148 -0.1721
12997TIP3    H138934   4.513   3.148   3.718 -0.6837  0.3738 -0.7426
12997TIP3    H238935   4.439   3.017   3.700 -0.1472 -0.0357 -0.0109
12998TIP3   OH238936   2.097   2.120   1.848 -0.1031  0.8462 -0.1451
12998TIP3    H138937   2.150   2.046   1.880  0.6293  1.8634  1.0748
12998TIP3    H238938   2.059   2.088   1.766 -0.7001 -1.2813  0.8825
12999TIP3   OH238939   7.936   2.584   3.485  0.0293 -0.9714  0.0215
12999TIP3    H138940   7.896   2.499   3.466  0.5293 -1.6025  1.6065
12999TIP3    H238941   7.984   2.570   3.566 -0.4615  1.0270  0.7135
13000TIP3   OH238942   7.033   3.967   2.334  0.4471 -0.1073 -0.4783
13000TIP3    H138943   7.061   3.880   2.361  1.1474  0.0274 -0.7607
13000TIP3    H238944   6.953   3.983   2.384 -0.7440 -1.6530 -1.7558
13001TIP3   OH238945   5.573   0.491   2.057 -0.1309  0.1291 -0.3016
13001TIP3    H138946   5.520   0.412   2.053  1.8148 -1.2533 -0.3663
13001TIP3    H238947   5.650   0.472   2.003  0.4261  2.0530 -0.2877
13002TIP3   OH238948   4.777   6.312   2.222 -0.6419 -0.3590  0.1079
13002TIP3    H138949   4.801   6.242   2.283 -1.1670 -0.6642 -0.0303
13002TIP3    H238950   4.712   6.272   2.164  0.1609 -0.2023 -0.9204
13003TIP3   OH238951   6.884   4.546   3.510  0.3248 -0.1053 -0.5601
13003TIP3    H138952   6.967   4.558   3.557 -0.2123 -1.8706  0.9583
13003TIP3    H238953   6.907   4.496   3.432  0.5631 -1.6287  0.4601
13004TIP3   OH238954   1.527   1.152   1.773  0.3283  0.1871  0.1142
13004TIP3    H138955   1.513   1.132   1.681 -0.2204  0.7590  0.0695
13004TIP3    H238956   1.602   1.212   1.774  1.0239 -0.6664  0.1327
13005TIP3   OH238957   1.554   0.951   5.092 -0.1749 -0.1999 -0.0761
13005TIP3    H138958   1.556   0.971   5.185  0.2174 -2.2783  0.4084
13005TIP3    H238959   1.461   0.939   5.072 -0.3126  0.7853 -0.1247
13006TIP3   OH238960   1.948   1.014   0.497 -0.0265  0.2590 -0.0401
13006TIP3    H138961   1.898   1.018   0.579 -2.3701  0.1268 -1.3562
13006TIP3    H238962   1.889   0.970   0.435  1.6121  0.4379 -1.8353
13007TIP3   OH238963   6.196   6.490   2.430  0.3457  0.1553 -0.0125
13007TIP3    H138964   6.194   6.548   2.507  1.3251  0.0486  0.1095
13007TIP3    H238965   6.282   6.506   2.391 -0.0135 -0.0444 -0.8964
13008TIP3   OH238966   3.508   2.505   0.032 -0.2313 -0.3932  0.1339
13008TIP3    H138967   3.501   2.410   0.030  0.3767 -0.4313 -0.8459
13008TIP3    H238968   3.592   2.521   0.077 -0.0543 -0.3376 -0.2165
13009TIP3   OH238969   2.092   2.211   1.114  0.1960  0.4883  0.3567
13009TIP3    H138970   2.164   2.171   1.065  0.8474  0.6504  1.1558
13009TIP3    H238971   2.131   2.235   1.198 -0.5866  1.3250  0.4988
13010TIP3   OH238972   3.020   4.790   1.088  0.3774  0.0445  0.3405
13010TIP3    H138973   2.926   4.803   1.079  0.2678 -0.3372  0.8789
13010TIP3    H238974   3.055   4.878   1.101  0.2683  0.3512 -1.1935
13011TIP3   OH238975   4.715   5.994   4.477 -0.2799  0.2282  0.2944
13011TIP3    H138976   4.763   5.977   4.558  0.5400 -1.0692 -0.4360
13011TIP3    H238977   4.736   5.920   4.420 -1.3678  0.7779 -0.8724
13012TIP3   OH238978   2.473   0.826   1.403  0.5095  0.1720 -0.1603
13012TIP3    H138979   2.395   0.848   1.453  0.4832  0.4045 -0.3031
13012TIP3    H238980   2.445   0.828   1.312  0.5402 -0.3236 -0.1830
13013TIP3   OH238981   2.818   7.645   2.489  0.3427 -0.0010 -0.3457
13013TIP3    H138982   2.886   7.692   2.537  1.2324 -0.4275 -1.1578
13013TIP3    H238983   2.821   7.556   2.524  2.6226 -0.9858 -2.6891
13014TIP3   OH238984   4.989   6.515   4.247  0.1020 -0.1860 -0.2687
13014TIP3    H138985   4.936   6.594   4.251 -0.2203 -0.4496  1.2622
13014TIP3    H238986   4.949   6.462   4.177 -0.0924  0.6883 -0.8365
13015TIP3   OH238987   5.631   4.467   5.249 -0.0512 -0.5920 -0.4311
13015TIP3    H138988   5.640   4.562   5.244  1.0498 -0.6165  0.6906
13015TIP3    H238989   5.606   4.440   5.161 -1.3757  0.8270 -0.5191
13016TIP3   OH238990   3.782   6.227   2.200  0.1576 -0.5045  0.3080
13016TIP3    H138991   3.728   6.187   2.269 -0.4770 -0.7544 -0.3176
13016TIP3    H238992   3.719   6.248   2.130  0.9728 -1.4212 -0.7232
13017TIP3   OH238993   6.641   0.415   2.910 -0.3318 -0.1226 -0.3921
13017TIP3    H138994   6.699   0.362   2.965  0.6044  1.7438  0.5298
13017TIP3    H238995   6.655   0.383   2.821  0.4360 -1.1868  0.0967
13018TIP3   OH238996   7.483   4.621   5.003  0.1778  0.0441 -0.0905
13018TIP3    H138997   7.475   4.529   5.032 -0.6011  0.2686  0.4567
13018TIP3    H238998   7.577   4.634   4.991  0.1744 -1.5721 -2.7213
13019TIP3   OH238999   5.194   7.179   2.750  0.2213  0.7610  0.4905
13019TIP3    H139000   5.104   7.186   2.781 -0.6473 -1.7333 -1.2343
13019TIP3    H239001   5.243   7.149   2.827 -1.0996 -1.1817  0.6493
13020TIP3   OH239002   5.889   2.099   4.650  0.3588 -0.1415 -0.2301
13020TIP3    H139003   5.899   2.132   4.739  0.1520 -0.0656 -0.2334
13020TIP3    H239004   5.861   2.008   4.661 -1.8509  0.4711 -0.1720
13021TIP3   OH239005   7.149   2.547   3.963  0.6251 -0.3445  0.4991
13021TIP3    H139006   7.094   2.623   3.983 -0.0479 -0.7904  0.3863
13021TIP3    H239007   7.157   2.501   4.047  0.6747 -0.3734  0.4780
13022TIP3   OH239008   6.635   5.443   1.962 -0.0306  0.4938  0.9255
13022TIP3    H139009   6.600   5.356   1.984  1.3972 -0.6303 -1.0031
13022TIP3    H239010   6.610   5.498   2.037 -0.2485 -1.7494  2.6137
13023TIP3   OH239011   0.560   1.151   6.429 -0.1803 -0.0363 -0.2146
13023TIP3    H139012   0.570   1.246   6.419 -3.6344  0.2606 -2.5418
13023TIP3    H239013   0.542   1.139   6.522  0.8611  1.4788  0.2261
13024TIP3   OH239014   6.146   6.975   3.061  0.0208  0.1395 -0.1223
13024TIP3    H139015   6.060   6.936   3.076  0.3260 -0.4021  0.2823
13024TIP3    H239016   6.134   7.068   3.081 -1.0833  0.5828 -2.5187
13025TIP3   OH239017   7.968   6.044   2.949 -0.1170  0.2816  0.0471
13025TIP3    H139018   8.051   6.040   2.903 -1.0792  0.5968 -1.8302
13025TIP3    H239019   7.991   6.043   3.042  1.9572  0.4174 -0.4305
13026TIP3   OH239020   1.749   6.759   2.198  0.2206 -0.4559  0.0999
13026TIP3    H139021   1.811   6.740   2.128  1.0240  0.5764  0.4975
13026TIP3    H239022   1.786   6.835   2.243 -1.1653 -0.0092  0.5584
13027TIP3   OH239023   8.093   0.408   5.909  0.3148  0.1011  0.1330
13027TIP3    H139024   8.171   0.396   5.963 -0.4494 -2.7720  0.7351
13027TIP3    H239025   8.024   0.434   5.971  0.4492  1.3208 -0.2026
13028TIP3   OH239026   0.890   0.808   4.177  0.3748  0.6005  0.3996
13028TIP3    H139027   0.802   0.778   4.153  0.3480  1.1760 -0.2494
13028TIP3    H239028   0.878   0.853   4.260  0.0008  0.9140  0.1809
13029TIP3   OH239029   3.906   0.406   3.699  0.1125 -0.5766  0.3073
13029TIP3    H139030   3.871   0.340   3.639 -1.0126  0.3375 -0.0829
13029TIP3    H239031   3.834   0.423   3.761  1.0668 -1.1123  1.5914
13030TIP3   OH239032   6.839   6.941   0.460  0.2077  0.2182  0.2489
13030TIP3    H139033   6.848   7.033   0.434 -1.3320  0.1620 -0.5544
13030TIP3    H239034   6.755   6.936   0.504  0.0005 -0.9108 -0.2305
13031TIP3   OH239035   1.547   2.939   2.287 -0.3261 -0.4474  0.0004
13031TIP3    H139036   1.623   2.982   2.327 -0.4492 -0.5334  0.3318
13031TIP3    H239037   1.571   2.846   2.284 -0.0901 -0.3687 -0.6468
13032TIP3   OH239038   1.046   5.540   1.281  0.2689  0.1010 -0.3727
13032TIP3    H139039   1.098   5.606   1.328  1.4341  1.0656 -2.8243
13032TIP3    H239040   1.109   5.472   1.257  0.3247  0.8383 -2.5895
13033TIP3   OH239041   0.963   6.115   4.017 -0.5152  0.7205 -0.2709
13033TIP3    H139042   0.992   6.028   4.044 -0.6354  1.0322  0.9398
13033TIP3    H239043   0.871   6.119   4.045 -0.1281  1.7129  0.9338
13034TIP3   OH239044   7.761   3.220   2.146  0.3769 -0.2637  0.1184
13034TIP3    H139045   7.685   3.278   2.137  0.3369 -0.2705  0.4182
13034TIP3    H239046   7.748   3.153   2.079 -0.3578 -0.7969  0.7822
13035TIP3   OH239047   2.386   4.624   0.913  0.3927  0.7993  0.0365
13035TIP3    H139048   2.456   4.671   0.867 -1.3854  1.0340 -2.6521
13035TIP3    H239049   2.419   4.535   0.921  0.4158  0.4335 -2.8846
13036TIP3   OH239050   2.765   4.245   1.548  0.7401 -0.3101 -0.4674
13036TIP3    H139051   2.733   4.207   1.630  2.2758  0.2310  0.4200
13036TIP3    H239052   2.775   4.170   1.489 -0.9218 -0.6342 -0.3783
13037TIP3   OH239053   5.060   3.860   5.578  0.1460  0.4302 -0.0682
13037TIP3    H139054   4.966   3.871   5.589  0.1008  0.5879 -0.6163
13037TIP3    H239055   5.077   3.882   5.487  0.3414 -1.9869 -0.6735
13038TIP3   OH239056   7.110   2.553   5.417  0.0385  0.5413  0.4992
13038TIP3    H139057   7.163   2.600   5.353 -0.5057 -0.0324 -0.3906
13038TIP3    H239058   7.093   2.618   5.486  0.9865  1.0364  0.2806
13039TIP3   OH239059   0.055   6.266   6.147  0.3620  0.4119 -0.1041
13039TIP3    H139060   0.033   6.222   6.065  0.1644  1.9294 -0.8881
13039TIP3    H239061   0.035   6.201   6.215  1.4032 -1.2148 -1.2685
13040TIP3   OH239062   3.410   3.476   6.119  0.1531 -0.2825 -0.1872
13040TIP3    H139063   3.460   3.557   6.108 -1.3379  0.4311 -2.2127
13040TIP3    H239064   3.326   3.505   6.154 -0.4475 -0.9145 -1.0651
13041TIP3   OH239065   6.448   0.293   4.053 -0.4627 -0.5744 -0.3844
13041TIP3    H139066   6.385   0.349   4.098 -0.2302 -0.4008 -0.2740
13041TIP3    H239067   6.528   0.346   4.048 -0.3339 -0.7828 -0.5487
13042TIP3   OH239068   6.063   6.752   6.468  0.3335 -0.4324 -0.3863
13042TIP3    H139069   6.137   6.767   6.526  0.4349 -1.5805 -0.1854
13042TIP3    H239070   5.988   6.743   6.527  0.5108 -2.0683 -0.3569
13043TIP3   OH239071   3.630   3.633   4.385 -0.1205 -0.5526 -0.6483
13043TIP3    H139072   3.682   3.553   4.376 -0.7455 -0.8855 -1.4130
13043TIP3    H239073   3.645   3.661   4.475  0.1310 -1.5186 -0.3775
13044TIP3   OH239074   7.227   3.154   4.974  0.4383 -0.3250  0.2888
13044TIP3    H139075   7.253   3.214   4.904 -1.0156 -0.4510 -0.3884
13044TIP3    H239076   7.202   3.073   4.929 -3.0068  0.4157  0.6426
13045TIP3   OH239077   6.533   7.668   3.540  0.2959  0.3813  0.3515
13045TIP3    H139078   6.594   7.713   3.481  0.4875 -0.9398 -0.5107
13045TIP3    H239079   6.446   7.697   3.511  0.4652  2.4392  1.7251
13046TIP3   OH239080   1.266   6.474   5.421 -0.0107  0.8363  0.2109
13046TIP3    H139081   1.238   6.386   5.394 -2.3800  1.6829 -0.2877
13046TIP3    H239082   1.305   6.512   5.342 -1.2087  1.0786 -0.2759
13047TIP3   OH239083   6.463   0.769   1.621 -0.1806 -0.5545 -0.5283
13047TIP3    H139084   6.425   0.686   1.593 -0.4512  0.1401 -2.3697
13047TIP3    H239085   6.390   0.831   1.617  0.4521  0.1733 -1.1469
13048TIP3   OH239086   7.922   1.505   5.837 -0.1186  0.5136  0.1268
13048TIP3    H139087   7.833   1.486   5.867 -0.6783  0.6765 -1.3473
13048TIP3    H239088   7.912   1.523   5.743  1.5041  0.3072 -0.1075
13049TIP3   OH239089   2.089   4.572   1.416  0.5057  0.1666 -0.2825
13049TIP3    H139090   2.066   4.493   1.368 -0.2726  0.8708 -1.0791
13049TIP3    H239091   2.176   4.553   1.452 -0.4433 -1.7931  1.1849
13050TIP3   OH239092   6.591   5.940   3.351 -0.0071 -0.0659  0.0054
13050TIP3    H139093   6.621   6.031   3.348  0.3302 -0.1637  0.2720
13050TIP3    H239094   6.512   5.939   3.298  0.1781  0.3114 -0.2857
13051TIP3   OH239095   2.978   4.371   2.037  0.3766  0.0902  0.4249
13051TIP3    H139096   3.026   4.453   2.053  1.3033 -0.6365  1.4981
13051TIP3    H239097   2.938   4.384   1.951 -1.6242  2.6543  1.5955
13052TIP3   OH239098   4.197   2.683   5.202  0.2090  0.5809 -0.9729
13052TIP3    H139099   4.114   2.638   5.213 -0.8102  2.1713 -1.8001
13052TIP3    H239100   4.264   2.616   5.219 -1.2138 -0.5518  0.4076
13053TIP3   OH239101   1.344   6.847   3.579 -0.1935 -0.7756  0.2671
13053TIP3    H139102   1.350   6.942   3.566  1.1597 -1.0103 -1.0941
13053TIP3    H239103   1.251   6.828   3.571 -0.9600  0.8013  3.7049
13054TIP3   OH239104   3.331   4.054   0.287 -0.5499  0.1141 -0.3030
13054TIP3    H139105   3.399   4.104   0.333  0.3851 -1.4903  0.1382
13054TIP3    H239106   3.258   4.115   0.279  0.3642  1.3946  0.6277
13055TIP3   OH239107   7.584   6.486   1.231 -0.0896 -0.6500  0.2793
13055TIP3    H139108   7.515   6.473   1.296 -0.2516  1.2061  0.5146
13055TIP3    H239109   7.555   6.435   1.156 -2.7918  1.5653 -0.3477
13056TIP3   OH239110   4.938   7.361   4.663  0.2215  0.5449 -0.1600
13056TIP3    H139111   4.944   7.276   4.619 -0.1668  0.3787  0.1012
13056TIP3    H239112   4.873   7.348   4.732  2.8859 -0.0546  2.4552
13057TIP3   OH239113   0.096   7.522   0.754 -0.2625 -0.0634  0.1641
13057TIP3    H139114   0.007   7.547   0.776 -0.2238  0.4163 -0.2238
13057TIP3    H239115   0.151   7.577   0.810 -0.2159 -1.1794  1.2647
13058TIP3   OH239116   5.485   3.106   2.162  0.2602 -0.8011 -0.0005
13058TIP3    H139117   5.483   3.196   2.194  0.8786 -0.8631  0.2153
13058TIP3    H239118   5.559   3.065   2.207 -1.2702 -2.0206  1.5547
13059TIP3   OH239119   7.791   4.107   0.760  0.0971  1.1676  0.4256
13059TIP3    H139120   7.705   4.147   0.767 -0.7604 -0.6164  0.7974
13059TIP3    H239121   7.775   4.022   0.718  1.7427  1.0193  0.0189
13060TIP3   OH239122   3.834   3.113   5.064 -0.4654 -0.0817 -0.1231
13060TIP3    H139123   3.831   3.197   5.111 -2.3765 -1.7942  3.1862
13060TIP3    H239124   3.746   3.103   5.027  0.2556  0.0379 -1.9992
13061TIP3   OH239125   0.811   5.638   6.477 -0.2063 -0.2828 -0.2538
13061TIP3    H139126   0.778   5.633   6.387 -0.0422  0.1172 -0.3398
13061TIP3    H239127   0.895   5.684   6.469  0.1027 -0.7967  0.0287
13062TIP3   OH239128   1.772   1.691   2.545 -0.0554 -0.0413  0.2896
13062TIP3    H139129   1.792   1.639   2.467  1.4053 -0.4863  0.9181
13062TIP3    H239130   1.846   1.752   2.552 -0.9513  1.0448  0.4560
13063TIP3   OH239131   7.752   0.640   6.280  0.9821  0.1383 -0.2225
13063TIP3    H139132   7.834   0.648   6.329  0.9102 -0.1175 -0.0546
13063TIP3    H239133   7.695   0.587   6.337  0.2005  1.4876  0.2962
13064TIP3   OH239134   6.978   5.091   1.477 -0.3754 -0.6408 -0.3957
13064TIP3    H139135   7.048   5.061   1.535  0.4627  0.1989 -0.9564
13064TIP3    H239136   6.970   5.021   1.411 -0.7605 -1.1994  0.2248
13065TIP3   OH239137   4.836   3.363   6.491  0.2149 -0.2769 -0.2230
13065TIP3    H139138   4.741   3.354   6.495  0.0409  0.5552 -1.7138
13065TIP3    H239139   4.855   3.368   6.397  1.8323 -1.3897  0.0097
13066TIP3   OH239140   0.537   1.625   2.448  0.5682 -0.3806  0.1371
13066TIP3    H139141   0.555   1.703   2.395 -0.6762 -0.6804 -0.7603
13066TIP3    H239142   0.624   1.598   2.478  1.3948 -0.3662 -2.0085
13067TIP3   OH239143   8.170   7.507   1.002  0.0682 -0.3475  0.4735
13067TIP3    H139144   8.149   7.414   0.994  0.7422 -0.6051  1.5062
13067TIP3    H239145   8.121   7.549   0.930 -0.5788 -1.4309  0.2563
13068TIP3   OH239146   1.188   7.169   0.579 -0.5343  0.0054  0.3434
13068TIP3    H139147   1.133   7.231   0.531  0.3274 -1.1684 -2.4237
13068TIP3    H239148   1.254   7.142   0.514  0.1888 -2.4359  1.9527
13069TIP3   OH239149   7.776   5.600   4.024  0.0180 -0.3023  0.3580
13069TIP3    H139150   7.734   5.516   4.006  0.4116 -0.6548  1.0608
13069TIP3    H239151   7.705   5.655   4.059 -0.4009 -0.0984 -0.7821
13070TIP3   OH239152   4.807   7.634   4.551 -0.4680  0.2200  0.0903
13070TIP3    H139153   4.886   7.679   4.520  0.4403 -1.7324 -0.6489
13070TIP3    H239154   4.790   7.672   4.637  1.5366  0.4412  0.4540
13071TIP3   OH239155   5.977   6.424   2.832 -0.4075 -0.0533 -0.0734
13071TIP3    H139156   5.970   6.359   2.762 -2.4996  1.8235 -1.7561
13071TIP3    H239157   5.890   6.424   2.873 -0.4240  1.5881 -0.0606
13072TIP3   OH239158   2.282   4.710   3.994 -0.0310  0.2511  0.3506
13072TIP3    H139159   2.329   4.760   4.061  0.0818  0.6199  0.0020
13072TIP3    H239160   2.192   4.743   3.999  0.0313  0.4528  0.1575
13073TIP3   OH239161   6.195   7.139   6.225  0.0345  0.1898  0.1011
13073TIP3    H139162   6.233   7.052   6.232  0.8955  0.6772  2.1281
13073TIP3    H239163   6.206   7.163   6.133  3.6158 -0.1961  0.2901
13074TIP3   OH239164   0.353   3.877   0.108 -0.0156 -0.0367 -0.4920
13074TIP3    H139165   0.402   3.812   0.058 -1.3497  0.7236 -2.9509
13074TIP3    H239166   0.392   3.961   0.083 -1.2096  0.4169 -0.8916
13075TIP3   OH239167   7.120   4.173   2.188 -0.3368  0.0426  0.0925
13075TIP3    H139168   7.058   4.246   2.194  0.3119  0.4982  2.0167
13075TIP3    H239169   7.085   4.107   2.248 -0.2634 -0.7392 -0.7082
13076TIP3   OH239170   1.561   0.385   4.227 -0.4314 -0.2677 -0.4164
13076TIP3    H139171   1.470   0.417   4.226 -1.5140 -2.9703  0.7435
13076TIP3    H239172   1.557   0.306   4.280  2.5753 -0.7073 -0.7055
13077TIP3   OH239173   7.020   2.883   5.422  0.1677  0.8553  0.6936
13077TIP3    H139174   6.953   2.815   5.420  0.3229  0.7148 -0.7808
13077TIP3    H239175   7.062   2.873   5.507 -2.6244  1.9098  2.3434
13078TIP3   OH239176   1.972   3.779   4.115  0.9559  0.1014 -0.3520
13078TIP3    H139177   2.050   3.749   4.068 -0.1266 -1.5658 -1.2119
13078TIP3    H239178   1.969   3.726   4.194  2.1531  2.1122  1.1022
13079TIP3   OH239179   1.911   4.371   3.060  0.5924  0.0583  0.1934
13079TIP3    H139180   1.968   4.446   3.042 -1.0083  1.7942  1.8727
13079TIP3    H239181   1.845   4.373   2.990  0.6670  0.0850  0.1237
13080TIP3   OH239182   3.439   0.067   4.958 -0.2856  0.2382  0.2157
13080TIP3    H139183   3.463   0.011   5.032  2.6395  1.5119  0.3757
13080TIP3    H239184   3.450   0.156   4.992  2.2282  0.8807 -1.9417
13081TIP3   OH239185   7.521   2.710   6.134 -0.1738 -0.5959  0.3400
13081TIP3    H139186   7.548   2.621   6.110  2.3855 -0.0368  0.8601
13081TIP3    H239187   7.550   2.765   6.061 -1.9316 -0.1644 -0.0790
13082TIP3   OH239188   4.280   5.482   1.159 -0.3872 -0.3129 -0.3952
13082TIP3    H139189   4.329   5.540   1.217  1.0409 -1.5462 -0.3063
13082TIP3    H239190   4.213   5.539   1.120  0.5891  1.2571  0.1037
13083TIP3   OH239191   6.682   2.631   1.042 -0.8032  0.1743 -0.0072
13083TIP3    H139192   6.649   2.703   1.095 -0.8985  2.3230 -2.7371
13083TIP3    H239193   6.762   2.603   1.087 -0.3381  2.5389  0.7938
13084TIP3   OH239194   7.506   0.229   1.768 -0.2022 -0.4874  0.5349
13084TIP3    H139195   7.444   0.165   1.732  0.7178 -1.0913 -0.0184
13084TIP3    H239196   7.528   0.284   1.693  2.5971 -2.4421 -0.2132
13085TIP3   OH239197   3.952   4.395   2.995  0.2253  0.3261 -0.0259
13085TIP3    H139198   3.922   4.330   3.058  0.1511 -0.0486 -0.4449
13085TIP3    H239199   4.045   4.407   3.015  0.4577 -0.5741 -0.5128
13086TIP3   OH239200   2.944   4.852   6.755  0.2433 -0.3118 -0.6307
13086TIP3    H139201   3.014   4.912   6.729  0.2098 -0.3438 -0.7910
13086TIP3    H239202   2.864   4.894   6.725  0.1154  0.1257  0.2691
13087TIP3   OH239203   6.999   2.349   6.168  0.0005 -0.2544 -0.3133
13087TIP3    H139204   7.084   2.394   6.166  0.8028 -1.7107 -0.8621
13087TIP3    H239205   7.003   2.294   6.246 -0.5517 -0.1460 -0.2049
13088TIP3   OH239206   2.776   2.357   4.108  0.6199  0.2886 -0.0100
13088TIP3    H139207   2.795   2.305   4.030 -2.2182 -1.3310  0.2289
13088TIP3    H239208   2.726   2.431   4.076 -2.4278 -1.4613  0.2731
13089TIP3   OH239209   1.827   6.227   4.653 -0.4945 -0.5519  0.2495
13089TIP3    H139210   1.799   6.302   4.601  0.1544 -0.5730 -0.1425
13089TIP3    H239211   1.771   6.155   4.623  0.0356 -0.6215 -0.6165
13090TIP3   OH239212   6.780   5.578   2.923  0.5735  0.2326 -0.2593
13090TIP3    H139213   6.859   5.617   2.886 -0.4293  2.8071  0.0601
13090TIP3    H239214   6.708   5.631   2.888 -1.0303 -1.8506 -0.3287
13091TIP3   OH239215   3.124   4.254   1.578  0.4367  0.9190 -0.1756
13091TIP3    H139216   3.214   4.222   1.570  0.5416  0.5020  2.0619
13091TIP3    H239217   3.071   4.176   1.593 -0.2385  1.2086 -0.9680
13092TIP3   OH239218   6.463   7.281   2.512  0.0574  0.7212 -0.0211
13092TIP3    H139219   6.428   7.302   2.425 -1.4268  1.2009  0.6725
13092TIP3    H239220   6.556   7.266   2.496 -0.5474 -1.6359 -2.1182
13093TIP3   OH239221   8.190   7.416   4.768  0.0910 -0.0238 -0.0819
13093TIP3    H139222   8.151   7.435   4.682 -0.6023  3.1627  0.7848
13093TIP3    H239223   8.284   7.412   4.751  0.0942  1.9603 -0.8886
13094TIP3   OH239224   3.335   7.132   1.350  0.6255 -0.5309 -0.3699
13094TIP3    H139225   3.292   7.212   1.320 -0.2552 -0.7821  0.1828
13094TIP3    H239226   3.429   7.152   1.347  0.3964  0.6341  0.0905
13095TIP3   OH239227   3.579   0.368   4.057  0.2442 -0.0859  1.2305
13095TIP3    H139228   3.549   0.279   4.077 -0.4452 -0.1444  0.0499
13095TIP3    H239229   3.524   0.425   4.110 -0.0211 -0.3235  1.2161
13096TIP3   OH239230   2.251   5.342   1.476  0.2401 -0.2626 -0.4089
13096TIP3    H139231   2.327   5.312   1.526  0.0604  1.0654  0.6888
13096TIP3    H239232   2.200   5.394   1.537 -1.4062 -0.8380 -1.2312
13097TIP3   OH239233   2.299   2.029   1.055 -0.7634 -0.0786 -0.1817
13097TIP3    H139234   2.389   2.040   1.026 -0.5387  1.4877  1.0049
13097TIP3    H239235   2.294   1.938   1.085  0.9454  0.3050  1.4053
13098TIP3   OH239236   4.050   4.109   4.678 -0.3202  0.5556  0.2334
13098TIP3    H139237   4.056   4.075   4.767 -0.0310  0.7172  0.2784
13098TIP3    H239238   4.031   4.033   4.624 -0.2449  0.4150  0.4029
13099TIP3   OH239239   5.306   3.723   1.545 -0.2181 -0.0784  0.3086
13099TIP3    H139240   5.279   3.749   1.633 -0.2276 -1.1862  0.6483
13099TIP3    H239241   5.280   3.631   1.538  3.1465 -1.2069  0.5995
13100TIP3   OH239242   7.025   4.791   5.634 -0.3512  0.0253 -0.1816
13100TIP3    H139243   7.101   4.821   5.685 -1.3663 -0.4128  1.6782
13100TIP3    H239244   7.053   4.708   5.596  0.2655  0.0882  0.1214
13101TIP3   OH239245   1.322   3.639   6.456 -0.1618 -0.2150  0.5619
13101TIP3    H139246   1.401   3.689   6.475  0.2284 -0.8481  0.6612
13101TIP3    H239247   1.272   3.693   6.395 -0.1440  0.6560  1.3023
13102TIP3   OH239248   2.453   2.071   2.539 -0.2156 -0.3414 -0.1206
13102TIP3    H139249   2.392   2.144   2.532  0.7980  0.5313 -0.1674
13102TIP3    H239250   2.446   2.026   2.455 -0.0540  0.3635 -0.5196
13103TIP3   OH239251   6.818   1.879   3.089  0.0633  0.6973  0.0248
13103TIP3    H139252   6.892   1.901   3.032  1.2138  1.8584  1.8704
13103TIP3    H239253   6.843   1.797   3.130  0.6818  1.4069  1.1301
13104TIP3   OH239254   0.502   2.318   4.794  0.3658 -0.4962  0.4389
13104TIP3    H139255   0.439   2.246   4.794  0.3444 -0.4821  0.7349
13104TIP3    H239256   0.460   2.386   4.847  1.4296 -1.2229  2.3137
13105TIP3   OH239257   1.764   7.613   6.443  0.0362 -0.3817 -0.5501
13105TIP3    H139258   1.696   7.619   6.510  0.2250  3.0485 -0.4721
13105TIP3    H239259   1.720   7.574   6.367 -1.8306  0.9544 -0.2171
13106TIP3   OH239260   0.561   3.228   3.586  0.5901  0.2717  0.4499
13106TIP3    H139261   0.613   3.307   3.572  0.4797  0.3213  0.3093
13106TIP3    H239262   0.591   3.193   3.670 -0.0677  1.0248  1.0176
13107TIP3   OH239263   2.829   3.281   0.453  0.2429 -0.6718  0.1098
13107TIP3    H139264   2.741   3.252   0.432  0.8548 -2.2911 -0.4005
13107TIP3    H239265   2.833   3.371   0.422 -1.5998 -0.1358  1.2917
13108TIP3   OH239266   4.262   3.379   1.905 -0.3918 -0.8136  0.1291
13108TIP3    H139267   4.323   3.449   1.882  0.1135 -0.8101  1.3689
13108TIP3    H239268   4.194   3.424   1.956 -0.9646 -0.9561 -0.5120
13109TIP3   OH239269   7.115   0.906   3.801  0.2146 -0.2358  0.5722
13109TIP3    H139270   7.122   0.834   3.738 -0.3725 -0.7378  1.0589
13109TIP3    H239271   7.189   0.962   3.782 -1.4659  1.1881 -2.4924
13110TIP3   OH239272   7.135   6.503   3.748  0.1564  0.0751 -0.0373
13110TIP3    H139273   7.127   6.464   3.661  0.0992 -0.3976  0.1793
13110TIP3    H239274   7.191   6.580   3.735  1.1504 -0.6760 -0.2687
13111TIP3   OH239275   6.677   5.057   1.804 -0.7378 -0.3434  0.4147
13111TIP3    H139276   6.618   5.038   1.731  0.4046 -0.5166 -0.5013
13111TIP3    H239277   6.736   5.125   1.770  1.4188 -2.1764  0.2512
13112TIP3   OH239278   1.997   6.978   5.243  0.0870  0.5600  0.0992
13112TIP3    H139279   1.907   7.000   5.266  0.4539  0.1237  2.1378
13112TIP3    H239280   2.050   7.049   5.277  0.6001  0.4017 -0.3411
13113TIP3   OH239281   1.804   5.289   6.554  0.1711  0.3007  0.2541
13113TIP3    H139282   1.792   5.347   6.478  0.5182  0.1794  0.1061
13113TIP3    H239283   1.813   5.202   6.516  0.3841  0.2452  0.4296
13114TIP3   OH239284   7.548   0.311   3.817 -0.1135  0.3340  0.2657
13114TIP3    H139285   7.507   0.384   3.770  0.3474 -0.6190 -1.7108
13114TIP3    H239286   7.476   0.271   3.865 -1.4191 -0.6855 -2.3180
13115TIP3   OH239287   3.146   4.586   5.057  0.0206 -0.4644 -0.0454
13115TIP3    H139288   3.238   4.579   5.030 -0.2615  0.2657 -1.2572
13115TIP3    H239289   3.149   4.633   5.141  0.6253  1.8277 -1.2766
13116TIP3   OH239290   7.798   2.021   5.532 -0.7387  0.1125 -0.0519
13116TIP3    H139291   7.798   2.101   5.585 -1.5969  0.2479 -0.2408
13116TIP3    H239292   7.836   2.048   5.448 -2.8404  0.8463 -0.8327
13117TIP3   OH239293   3.341   1.813   0.381  0.1827  0.1499  0.2037
13117TIP3    H139294   3.264   1.865   0.404 -0.0475  0.6105 -1.5015
13117TIP3    H239295   3.401   1.876   0.341  1.7988 -0.0497  2.1268
13118TIP3   OH239296   4.815   4.430   3.022  0.2385  0.5519 -0.1849
13118TIP3    H139297   4.775   4.511   2.990 -2.3079 -0.7669 -0.5859
13118TIP3    H239298   4.743   4.367   3.025  2.0043 -1.5588  0.6924
13119TIP3   OH239299   4.008   7.797   1.392  0.2504 -0.3714 -0.6909
13119TIP3    H139300   3.987   7.862   1.325  0.2081 -1.6300 -1.9455
13119TIP3    H239301   4.045   7.723   1.343  2.9576 -0.2147  0.9630
13120TIP3   OH239302   7.807   3.833   1.159 -0.6200  0.0922 -0.4587
13120TIP3    H139303   7.810   3.779   1.079 -3.0307 -0.8580  0.0070
13120TIP3    H239304   7.842   3.776   1.227  3.0695  1.4790 -0.9941
13121TIP3   OH239305   3.354   3.580   6.609 -0.3888  0.4223  0.1802
13121TIP3    H139306   3.270   3.547   6.578 -1.6414  0.5903  3.0759
13121TIP3    H239307   3.342   3.675   6.612  0.9639  0.7388 -2.0240
13122TIP3   OH239308   5.968   7.207   3.634  0.1675  0.0154 -0.4018
13122TIP3    H139309   5.934   7.118   3.637 -1.3197  0.5559  0.0514
13122TIP3    H239310   6.047   7.205   3.688 -0.5254 -0.7696  0.6215
13123TIP3   OH239311   4.501   2.193   1.173  0.1223 -0.7240 -0.6766
13123TIP3    H139312   4.486   2.279   1.211 -0.9555  0.6395 -3.8870
13123TIP3    H239313   4.595   2.181   1.176  0.1682 -0.2399  1.3131
13124TIP3   OH239314   7.351   2.947   0.824 -0.5965 -0.0497  0.2926
13124TIP3    H139315   7.419   2.893   0.783  0.4088  0.8405  0.7338
13124TIP3    H239316   7.280   2.950   0.760  0.1994 -0.1637 -0.6131
13125TIP3   OH239317   5.661   2.335   6.132 -0.5106 -0.2431 -0.3916
13125TIP3    H139318   5.629   2.255   6.174  0.0264 -0.2095  0.0959
13125TIP3    H239319   5.674   2.396   6.205 -2.6525  0.9381 -0.8805
13126TIP3   OH239320   2.703   2.564   4.414 -0.2738  0.5685  0.8644
13126TIP3    H139321   2.632   2.545   4.352  0.1528 -0.2835  0.6193
13126TIP3    H239322   2.722   2.479   4.455  0.4267  0.8412  1.1165
13127TIP3   OH239323   0.363   6.270   2.622 -0.3656 -0.7387 -0.3188
13127TIP3    H139324   0.454   6.300   2.620 -0.4328  0.0587  2.9777
13127TIP3    H239325   0.331   6.285   2.533  2.2773  0.3936 -1.1805
13128TIP3   OH239326   7.965   4.744   6.569 -0.7632 -0.2793 -0.2121
13128TIP3    H139327   8.022   4.671   6.545  0.9036  0.7520  0.3912
13128TIP3    H239328   7.997   4.772   6.655 -0.6746  1.7920 -0.8747
13129TIP3   OH239329   8.186   6.842   3.526  0.0540 -0.4826 -0.1397
13129TIP3    H139330   8.262   6.872   3.577  1.1204 -0.6309 -1.5792
13129TIP3    H239331   8.179   6.905   3.455 -1.5535 -0.1538  0.2886
13130TIP3   OH239332   7.557   3.947   0.402  0.0408  0.6874 -0.1526
13130TIP3    H139333   7.497   4.020   0.385 -0.6927  0.0680 -0.2324
13130TIP3    H239334   7.536   3.882   0.335  0.3013  0.1602  0.2707
13131TIP3   OH239335   1.422   0.823   6.735 -0.0450  0.2252  0.0616
13131TIP3    H139336   1.507   0.864   6.723  0.1449 -0.3848 -0.7621
13131TIP3    H239337   1.374   0.883   6.794  1.0889  0.3465  0.8898
13132TIP3   OH239338   5.757   6.497   4.014  0.2628 -0.0842 -0.8211
13132TIP3    H139339   5.828   6.437   3.992  0.2310 -1.3046  2.0607
13132TIP3    H239340   5.800   6.573   4.053  0.0955  0.1919 -1.1661
13133TIP3   OH239341   4.598   1.378   4.994 -0.4608  0.4283 -0.0119
13133TIP3    H139342   4.661   1.410   4.929  0.6704 -0.0327  0.8394
13133TIP3    H239343   4.514   1.415   4.965  0.0892  0.5986 -1.4743
13134TIP3   OH239344   8.238   1.218   0.780  0.2818 -0.2826 -0.1896
13134TIP3    H139345   8.280   1.160   0.844  1.7552  2.4186  1.4816
13134TIP3    H239346   8.311   1.266   0.740 -0.9349  1.7306 -0.1155
13135TIP3   OH239347   0.274   6.104   2.259 -0.3741 -0.4937  0.4649
13135TIP3    H139348   0.299   6.193   2.235 -1.6084  0.0596  1.1029
13135TIP3    H239349   0.195   6.115   2.313 -0.0442 -1.9229  1.2964
13136TIP3   OH239350   2.861   4.387   2.314 -0.6635 -0.4052 -0.2954
13136TIP3    H139351   2.801   4.456   2.342  0.7858  1.7736 -2.1202
13136TIP3    H239352   2.868   4.399   2.219  1.4762 -1.5273 -0.3501
13137TIP3   OH239353   6.764   4.894   5.901 -0.6500  0.1730 -0.1563
13137TIP3    H139354   6.856   4.875   5.923 -1.2222 -2.1248  0.6092
13137TIP3    H239355   6.747   4.843   5.822 -1.1138  1.1125 -0.6794
13138TIP3   OH239356   6.664   6.713   3.938 -0.1311 -0.5452 -0.5569
13138TIP3    H139357   6.634   6.734   4.027  1.1051  0.3264 -0.3185
13138TIP3    H239358   6.745   6.665   3.951 -0.6485 -1.6195 -1.2130
13139TIP3   OH239359   3.920   4.889   1.820  0.2226 -0.5331  0.4824
13139TIP3    H139360   3.833   4.907   1.784  0.5253 -1.5208 -0.8224
13139TIP3    H239361   3.922   4.794   1.831  1.3497 -0.5952 -0.1450
13140TIP3   OH239362   4.712   3.655   2.325  0.6497  0.1360 -0.1952
13140TIP3    H139363   4.656   3.603   2.267  0.4171  0.1509  0.0114
13140TIP3    H239364   4.672   3.644   2.412 -0.9404  2.7328 -0.5110
13141TIP3   OH239365   7.759   4.415   4.241  0.1753  0.0609  0.2332
13141TIP3    H139366   7.761   4.350   4.170 -0.1432 -0.5397  0.7608
13141TIP3    H239367   7.675   4.459   4.231  0.1472  0.0029  0.2103
13142TIP3   OH239368   0.623   4.323   3.579  0.0638  0.2770 -0.4432
13142TIP3    H139369   0.673   4.402   3.597 -1.3382  1.3019 -0.8862
13142TIP3    H239370   0.538   4.338   3.620  0.0210 -1.3553  0.1587
13143TIP3   OH239371   0.634   1.460   2.656 -0.3688  0.5270  0.2361
13143TIP3    H139372   0.657   1.384   2.603 -0.1942  0.6364  0.1554
13143TIP3    H239373   0.543   1.443   2.683 -0.6327  0.7100 -0.5230
13144TIP3   OH239374   8.273   5.010   4.822  0.3097  0.1169  0.6694
13144TIP3    H139375   8.338   5.077   4.800  1.0756 -0.6593  0.5167
13144TIP3    H239376   8.256   5.022   4.915  2.5346 -1.2066  1.3253
13145TIP3   OH239377   5.635   1.035   3.611  0.2042  0.0677 -0.1171
13145TIP3    H139378   5.583   0.971   3.660  0.9830 -1.0927 -0.7730
13145TIP3    H239379   5.720   1.035   3.655  0.0922  0.9696  0.1253
13146TIP3   OH239380   3.484   0.312   5.067  0.2590 -0.2465  0.4635
13146TIP3    H139381   3.568   0.358   5.069  0.5977 -0.8441  0.1455
13146TIP3    H239382   3.419   0.380   5.084  0.4834  0.9396 -2.7910
13147TIP3   OH239383   2.052   6.094   2.143  0.0852 -0.0046  0.2910
13147TIP3    H139384   2.031   6.161   2.209 -0.5530  0.4954 -0.4107
13147TIP3    H239385   2.147   6.095   2.137  0.1654 -0.1371  1.2806
13148TIP3   OH239386   6.727   6.146  -0.007  0.3656  0.2697 -0.2938
13148TIP3    H139387   6.645   6.106   0.019 -0.0042  0.9524 -0.3804
13148TIP3    H239388   6.780   6.147   0.072 -0.2517  1.1225  0.1206
13149TIP3   OH239389   1.267   7.127   6.255  0.3467  0.4426  0.0647
13149TIP3    H139390   1.353   7.157   6.225  0.3331  1.4046  0.9478
13149TIP3    H239391   1.284   7.083   6.338 -0.0259  0.7511  0.3100
13150TIP3   OH239392   6.396   0.415   2.194  0.0552  0.0049 -0.1761
13150TIP3    H139393   6.460   0.348   2.218 -0.9955 -0.7660  0.5681
13150TIP3    H239394   6.383   0.403   2.100 -0.9622 -1.6272  0.1315
13151TIP3   OH239395   3.458   4.414   5.526 -0.2780  0.3607  0.0237
13151TIP3    H139396   3.384   4.379   5.576 -0.7881  0.9637 -0.2938
13151TIP3    H239397   3.517   4.449   5.593  0.0545 -0.7019  0.3247
13152TIP3   OH239398   1.559   5.345   5.848 -0.2842 -0.2360 -0.3688
13152TIP3    H139399   1.614   5.418   5.821 -0.2006 -0.3079 -0.3939
13152TIP3    H239400   1.482   5.385   5.887  0.3059 -0.1492  0.7180
13153TIP3   OH239401   3.132   4.480   4.074  0.2269  0.4840  0.1038
13153TIP3    H139402   3.167   4.550   4.018  0.7504 -0.4537 -0.7745
13153TIP3    H239403   3.145   4.400   4.023 -1.1635 -0.1675  0.7156
13154TIP3   OH239404   7.233   4.173   2.486  1.2141 -0.0535 -0.2767
13154TIP3    H139405   7.275   4.248   2.444  2.0046 -0.4828 -0.2800
13154TIP3    H239406   7.261   4.098   2.434  1.7991 -0.5364  0.6999
13155TIP3   OH239407   1.764   7.634   2.478 -0.4722  0.9765 -0.1957
13155TIP3    H139408   1.776   7.580   2.556 -0.4876  2.2424  0.7175
13155TIP3    H239409   1.680   7.607   2.442  0.5033 -1.1240 -1.0352
13156TIP3   OH239410   0.481   4.623   0.934  0.5016 -0.1300  0.5613
13156TIP3    H139411   0.451   4.578   1.013 -1.4655 -0.5399 -0.3608
13156TIP3    H239412   0.459   4.715   0.950 -1.7636 -0.4644 -0.2376
13157TIP3   OH239413   7.943   0.663   2.589  0.1498  0.2673  0.0167
13157TIP3    H139414   7.943   0.604   2.513  0.2243 -0.1421  0.3338
13157TIP3    H239415   7.873   0.630   2.645  0.8005 -0.0766  0.6271
13158TIP3   OH239416   1.822   4.300   1.599  0.8599  0.5950  0.0728
13158TIP3    H139417   1.874   4.351   1.661  0.9351  2.1477 -1.1984
13158TIP3    H239418   1.842   4.338   1.513  1.8650 -2.3975 -1.1437
13159TIP3   OH239419   1.362   5.088   6.752 -0.3451  0.3632 -0.2001
13159TIP3    H139420   1.377   5.141   6.830 -0.9969 -0.2616  0.3609
13159TIP3    H239421   1.360   5.151   6.680  2.5111  0.7522 -0.0617
13160TIP3   OH239422   4.278   3.659   1.509 -0.2867  0.8876  0.1422
13160TIP3    H139423   4.188   3.625   1.507  0.5023 -1.2933 -0.6559
13160TIP3    H239424   4.300   3.675   1.417  0.5261  0.2754  0.2177
13161TIP3   OH239425   5.818   6.920   1.505 -0.5846 -0.0828 -0.3654
13161TIP3    H139426   5.854   6.841   1.465  0.2601  0.4384 -0.6534
13161TIP3    H239427   5.878   6.990   1.479  0.0915  0.2603  1.9524
13162TIP3   OH239428   6.627   1.809   0.437 -0.3374  0.2357 -0.5871
13162TIP3    H139429   6.586   1.836   0.355  0.6293  1.8627 -0.5853
13162TIP3    H239430   6.692   1.744   0.411  1.5138  2.2980 -1.5145
13163TIP3   OH239431   0.918   3.103   2.175  0.1989  0.7061 -0.1040
13163TIP3    H139432   0.996   3.069   2.131 -0.0426  0.9458 -0.7331
13163TIP3    H239433   0.944   3.115   2.266 -0.0125 -2.2083  0.4272
13164TIP3   OH239434   3.311   4.952   0.941  0.8943  0.1700  0.4154
13164TIP3    H139435   3.352   4.944   1.027 -0.1624 -1.1354  0.8290
13164TIP3    H239436   3.243   5.020   0.953  0.0251 -0.7640  0.9325
13165TIP3   OH239437   3.382   7.525   3.690 -0.0993  0.7584  0.9332
13165TIP3    H139438   3.450   7.494   3.629 -1.2234 -0.4165  0.2236
13165TIP3    H239439   3.306   7.470   3.670 -0.5509  0.4214  3.3301
13166TIP3   OH239440   7.565   2.336   0.587  0.2897 -0.8128  0.5627
13166TIP3    H139441   7.552   2.364   0.678  1.7230 -2.9711  1.5179
13166TIP3    H239442   7.584   2.242   0.594 -0.4406 -1.2232 -2.0702
13167TIP3   OH239443   4.876   6.919   2.677  0.4020 -0.1653 -0.6044
13167TIP3    H139444   4.971   6.918   2.669  0.3306  0.3001 -1.7286
13167TIP3    H239445   4.847   6.846   2.622  0.1482 -1.0181  0.6254
13168TIP3   OH239446   2.470   3.573   4.422  0.5214  0.0380 -0.4148
13168TIP3    H139447   2.468   3.579   4.518 -0.2451  0.8477 -0.4678
13168TIP3    H239448   2.446   3.482   4.403  2.1914 -0.5610  0.1868
13169TIP3   OH239449   6.061   4.241   1.185 -0.4528 -0.0049 -0.3413
13169TIP3    H139450   6.097   4.189   1.258  1.3497  1.1292 -0.3639
13169TIP3    H239451   5.966   4.236   1.197 -0.2186  0.2702  2.1896
13170TIP3   OH239452   3.529   4.026   4.184  0.1301 -0.3319 -0.0172
13170TIP3    H139453   3.530   4.090   4.255  0.8755 -2.2928  1.8459
13170TIP3    H239454   3.599   3.965   4.205  1.1001 -0.4572 -3.0485
13171TIP3   OH239455   3.705   4.869   4.158  0.4627  0.2906  0.0270
13171TIP3    H139456   3.659   4.948   4.129 -1.2276  0.1998  2.1935
13171TIP3    H239457   3.674   4.800   4.101 -0.5229  0.6284  0.1469
13172TIP3   OH239458   0.428   7.392   3.480 -0.3209 -0.1751 -0.5256
13172TIP3    H139459   0.482   7.328   3.526 -0.7218 -0.6941 -0.7600
13172TIP3    H239460   0.450   7.380   3.388 -1.6900 -1.2411 -0.7485
13173TIP3   OH239461   2.877   0.525   6.227 -0.2984 -0.3386  0.0703
13173TIP3    H139462   2.853   0.548   6.316  0.6255  0.8468  0.0407
13173TIP3    H239463   2.849   0.600   6.174 -0.3402 -0.7858 -0.5536
13174TIP3   OH239464   2.739   3.147   6.608 -0.2740  0.5184  0.3813
13174TIP3    H139465   2.798   3.092   6.557 -1.0071  0.8700 -0.9134
13174TIP3    H239466   2.675   3.087   6.645  0.2832  0.2553  0.9431
13175TIP3   OH239467   0.781   2.999   5.127  0.0027  0.3153 -0.2688
13175TIP3    H139468   0.695   3.015   5.088  0.0096 -0.4311 -0.6105
13175TIP3    H239469   0.790   2.904   5.127  0.0845  0.2854  1.3940
13176TIP3   OH239470   0.842   0.742   5.362 -0.1051  0.1028  0.0056
13176TIP3    H139471   0.844   0.833   5.393 -1.4123  1.0147 -2.3302
13176TIP3    H239472   0.771   0.702   5.412  0.8610  0.1353  1.4818
13177TIP3   OH239473   0.198   5.259   6.689  0.3292  1.2738 -0.0461
13177TIP3    H139474   0.105   5.241   6.677  0.7737 -0.6029 -1.0708
13177TIP3    H239475   0.205   5.355   6.683 -1.5208  1.4670  0.2169
13178TIP3   OH239476   3.271   1.625   2.402 -0.0176  0.2058  0.2867
13178TIP3    H139477   3.275   1.619   2.306 -0.7170 -2.3780  0.3460
13178TIP3    H239478   3.346   1.576   2.432 -1.6641 -2.0208  1.0193
13179TIP3   OH239479   1.741   0.813   2.986  0.7834 -0.5069  0.0588
13179TIP3    H139480   1.685   0.836   3.061 -2.3112 -1.4009 -1.8141
13179TIP3    H239481   1.759   0.897   2.944 -2.4350 -0.4354 -1.3946
13180TIP3   OH239482   0.367   5.138   4.214  0.2371  0.7492  0.9460
13180TIP3    H139483   0.405   5.191   4.284  0.4696  0.8578  0.7395
13180TIP3    H239484   0.439   5.085   4.182  0.5042  1.7575 -0.2032
13181TIP3   OH239485   6.900   7.293   6.315 -0.4018  0.2649 -0.1800
13181TIP3    H139486   6.843   7.256   6.248 -0.5734 -0.9031  0.5876
13181TIP3    H239487   6.841   7.339   6.374 -0.3096  0.8164 -0.5073
13182TIP3   OH239488   5.716   4.729   2.279  0.1541  0.0140 -0.4710
13182TIP3    H139489   5.780   4.786   2.236  3.1576 -1.7585  1.3367
13182TIP3    H239490   5.706   4.766   2.367  1.4891 -1.6791  0.4354
13183TIP3   OH239491   5.608   0.768   4.116  0.1392  0.2408  0.4278
13183TIP3    H139492   5.681   0.731   4.166  0.4637  1.1848  0.6791
13183TIP3    H239493   5.570   0.693   4.070  2.3506 -0.0296 -1.0958
13184TIP3   OH239494   7.088   3.641   6.361  0.2289  0.1906  0.0588
13184TIP3    H139495   7.005   3.679   6.389 -0.4941 -2.2258  1.5348
13184TIP3    H239496   7.070   3.547   6.354  2.2612 -0.1531 -1.9141
13185TIP3   OH239497   4.041   6.885   0.745 -0.5731  0.3004  0.3410
13185TIP3    H139498   4.022   6.968   0.702 -0.2741 -0.2807 -0.9443
13185TIP3    H239499   4.111   6.906   0.807  1.1359  0.5904 -1.6065
13186TIP3   OH239500   4.718   7.581   3.628  0.8842  0.4892  0.1618
13186TIP3    H139501   4.638   7.631   3.613  1.2425  0.8066 -0.7698
13186TIP3    H239502   4.723   7.521   3.554  0.5198 -0.8820  1.2140
13187TIP3   OH239503   7.790   7.058   3.531 -0.2519 -0.2001 -0.0376
13187TIP3    H139504   7.752   7.145   3.542  1.7042  0.8912 -1.4331
13187TIP3    H239505   7.771   7.035   3.440 -0.7386 -1.2520  0.3161
13188TIP3   OH239506   5.289   2.990   5.142 -0.0611 -0.0695 -0.6015
13188TIP3    H139507   5.196   2.986   5.119 -0.4342 -0.4395  0.8758
13188TIP3    H239508   5.320   2.900   5.136  0.2119  0.0499 -1.0734
13189TIP3   OH239509   0.946   7.735   4.127 -0.4733 -0.3577 -0.5489
13189TIP3    H139510   0.879   7.803   4.121 -0.1701 -0.0220 -0.1805
13189TIP3    H239511   1.029   7.782   4.117 -0.1712 -0.4345  1.1614
13190TIP3   OH239512   5.688   5.864   2.723  0.2512  0.2948  0.0038
13190TIP3    H139513   5.651   5.851   2.636  0.0693  0.8903 -0.0060
13190TIP3    H239514   5.729   5.779   2.744 -2.7524 -1.1142  0.8140
13191TIP3   OH239515   0.633   1.829   4.304  0.2597 -0.2304  0.0427
13191TIP3    H139516   0.667   1.763   4.364  0.5155 -0.4533 -0.3415
13191TIP3    H239517   0.700   1.898   4.304 -1.2879  1.4468  2.6693
13192TIP3   OH239518   1.162   5.653   3.343  0.1680  0.0775 -0.0408
13192TIP3    H139519   1.129   5.699   3.419  1.5482 -0.5528  0.9883
13192TIP3    H239520   1.109   5.573   3.338  1.3727 -0.8944  1.5505
13193TIP3   OH239521   3.441   1.404   5.338 -0.0680 -0.3539  0.1718
13193TIP3    H139522   3.436   1.402   5.434  0.2936 -0.2201  0.1955
13193TIP3    H239523   3.520   1.455   5.319  0.1360 -0.7993 -0.1951
13194TIP3   OH239524   6.735   4.794   2.458  0.1711  0.0295  0.1917
13194TIP3    H139525   6.698   4.732   2.521 -0.4604  0.5498  0.3526
13194TIP3    H239526   6.822   4.760   2.438  0.8216  0.4039  2.1738
13195TIP3   OH239527   8.020   1.433   0.013 -0.2838  0.3825 -0.1065
13195TIP3    H139528   8.003   1.504   0.075  1.5347  0.5543  0.2713
13195TIP3    H239529   8.104   1.457  -0.027  0.3883 -1.5640  0.0568
13196TIP3   OH239530   7.862   4.843   4.633  0.0078  0.3799  0.0493
13196TIP3    H139531   7.850   4.779   4.563  0.9331  0.0403  0.1909
13196TIP3    H239532   7.901   4.793   4.704 -0.1258  0.9126  0.4982
13197TIP3   OH239533   1.390   6.586   1.254  0.0500  0.0440 -0.5594
13197TIP3    H139534   1.344   6.516   1.207 -0.2016  0.2048 -0.5511
13197TIP3    H239535   1.344   6.666   1.229 -0.5102  0.0577  0.4864
13198TIP3   OH239536   5.074   7.509   4.855 -0.9193 -0.1978  0.6161
13198TIP3    H139537   5.008   7.474   4.795  1.4316 -2.4687 -0.8271
13198TIP3    H239538   5.111   7.585   4.809 -1.1372 -0.1445  0.5282
13199TIP3   OH239539   2.450   6.418   1.316  0.2205 -0.0445  0.4302
13199TIP3    H139540   2.509   6.459   1.379 -0.1931 -0.4531  1.1078
13199TIP3    H239541   2.439   6.328   1.349 -2.0480  0.4760  1.2707
13200TIP3   OH239542   3.393   4.011   4.784  0.0544  0.0781  0.0534
13200TIP3    H139543   3.458   4.064   4.831 -0.5103 -0.5183  1.5682
13200TIP3    H239544   3.320   4.071   4.768 -0.4687 -0.1279  1.5192
13201TIP3   OH239545   4.236   0.388   4.155  0.0627 -0.0037  0.3104
13201TIP3    H139546   4.298   0.351   4.091  0.8872 -0.9554  1.6191
13201TIP3    H239547   4.290   0.447   4.208 -0.6669  0.9491  0.0359
13202TIP3   OH239548   5.541   3.222   0.294  0.1613  0.4419  0.0617
13202TIP3    H139549   5.474   3.221   0.226 -0.4581  2.8948  0.5449
13202TIP3    H239550   5.624   3.219   0.247 -0.2137 -1.2174 -0.5941
13203TIP3   OH239551   6.093   6.371   5.485  0.2914 -0.2590  0.0197
13203TIP3    H139552   6.143   6.453   5.481 -0.8776  0.4331 -1.3854
13203TIP3    H239553   6.135   6.315   5.421  0.5970 -0.4738  0.4051
13204TIP3   OH239554   4.526   2.777   3.891  0.7794 -0.2846  0.1823
13204TIP3    H139555   4.460   2.844   3.873  0.5475 -0.9817 -1.8953
13204TIP3    H239556   4.485   2.720   3.956 -0.7835 -0.7555 -1.1219
13205TIP3   OH239557   3.749   4.700   5.551 -0.1730 -0.1707  0.3335
13205TIP3    H139558   3.809   4.627   5.543  1.5289  1.2045 -0.0551
13205TIP3    H239559   3.672   4.664   5.596  0.5460 -2.1896  0.0190
13206TIP3   OH239560   6.224   3.322   0.953 -0.1117 -0.6610  0.0753
13206TIP3    H139561   6.225   3.418   0.958  0.1588 -0.6822  0.4939
13206TIP3    H239562   6.314   3.296   0.974 -0.0357 -0.9821 -0.6271
13207TIP3   OH239563   5.557   1.902   5.490 -0.6603  0.1421  0.9425
13207TIP3    H139564   5.521   1.934   5.572 -1.1563  1.3199  0.2865
13207TIP3    H239565   5.484   1.858   5.447 -0.1470 -1.3918  1.5491
13208TIP3   OH239566   1.766   0.791   1.713 -0.9733  0.2288  0.0255
13208TIP3    H139567   1.817   0.870   1.730 -0.1881 -0.1853 -0.3659
13208TIP3    H239568   1.816   0.743   1.647 -2.6369  0.5602 -1.5806
13209TIP3   OH239569   1.876   6.534   5.402 -0.3097  0.5338 -0.1165
13209TIP3    H139570   1.874   6.607   5.340 -0.6993 -0.3509 -1.1851
13209TIP3    H239571   1.791   6.537   5.445 -1.0824 -0.3974 -1.5198
13210TIP3   OH239572   0.108   1.708   3.573  0.7062 -0.2462 -0.2916
13210TIP3    H139573   0.045   1.711   3.645 -0.8879  0.5422 -1.6623
13210TIP3    H239574   0.161   1.788   3.585  0.7950 -0.3851  0.2825
13211TIP3   OH239575   3.482   2.200   4.530 -0.1094  0.5098  0.2171
13211TIP3    H139576   3.499   2.220   4.438 -0.9602  1.3444  0.2282
13211TIP3    H239577   3.499   2.282   4.576 -1.1582  0.5300  0.6025
13212TIP3   OH239578   0.501   2.457   4.525  0.3029  0.1405  0.1763
13212TIP3    H139579   0.412   2.453   4.490  0.8654 -1.1921 -1.1762
13212TIP3    H239580   0.497   2.405   4.605  0.2677 -1.5442 -0.8771
13213TIP3   OH239581   2.660   0.185   1.550  0.0461 -0.2184  0.1449
13213TIP3    H139582   2.572   0.218   1.567 -0.3136 -0.6503 -0.8451
13213TIP3    H239583   2.672   0.194   1.456  1.1576  0.0534  0.2968
13214TIP3   OH239584   4.808   0.191   0.457 -0.0516 -0.3397  0.3737
13214TIP3    H139585   4.795   0.151   0.371  3.1210 -1.6592  0.3670
13214TIP3    H239586   4.775   0.280   0.448 -0.6365 -0.7319 -1.9237
13215TIP3   OH239587   3.891   4.980   1.494  0.3060  0.0849 -0.1065
13215TIP3    H139588   3.841   4.907   1.530  3.0528 -1.1330  1.6039
13215TIP3    H239589   3.869   5.055   1.548 -0.9890  0.0528 -0.5611
13216TIP3   OH239590   7.573   5.018   1.364 -0.0566 -0.4200 -0.4415
13216TIP3    H139591   7.591   4.937   1.315  0.2944 -1.4809  1.3550
13216TIP3    H239592   7.496   4.997   1.417  0.3019  0.2689  0.3729
13217TIP3   OH239593   6.916   4.763   1.647 -0.0675  0.2732 -0.3467
13217TIP3    H139594   6.878   4.691   1.597 -1.0679  0.5693 -0.0192
13217TIP3    H239595   6.865   4.768   1.727  1.3465 -0.0137  0.6191
13218TIP3   OH239596   5.733   2.622   3.397 -0.1868  0.6010 -0.5907
13218TIP3    H139597   5.806   2.613   3.457  0.3015 -1.4600 -1.4023
13218TIP3    H239598   5.657   2.590   3.446  0.6063 -3.4929 -1.6587
13219TIP3   OH239599   2.916   3.932   2.752 -0.1576 -0.4348  0.3918
13219TIP3    H139600   2.967   4.010   2.730  1.1934 -1.4210 -0.0511
13219TIP3    H239601   2.980   3.861   2.756 -1.4329 -1.6449  0.1889
13220TIP3   OH239602   5.715   5.958   5.214  0.7203  0.4876  0.0876
13220TIP3    H139603   5.686   5.889   5.154  1.2421 -0.1576  0.5562
13220TIP3    H239604   5.672   5.937   5.297  0.8025  0.7865  0.2064
13221TIP3   OH239605   3.095   7.186   6.573  0.1245  0.3412 -0.1156
13221TIP3    H139606   3.009   7.179   6.532 -0.4123 -0.0053  1.0263
13221TIP3    H239607   3.099   7.274   6.608 -0.3786 -0.1231  1.1332
13222TIP3   OH239608   4.465   4.807   2.347  0.3616 -0.1916 -0.2244
13222TIP3    H139609   4.401   4.871   2.313  0.4613 -0.1573 -0.3484
13222TIP3    H239610   4.438   4.793   2.438  0.4120  0.1168 -0.1611
13223TIP3   OH239611   0.932   0.555   6.387  0.3464 -0.3956  0.5568
13223TIP3    H139612   0.849   0.552   6.435 -0.3760 -0.5736 -0.6821
13223TIP3    H239613   0.930   0.478   6.330 -0.1724  1.3326 -1.9273
13224TIP3   OH239614   4.008   0.648   3.664 -0.3050  0.2521 -0.3816
13224TIP3    H139615   3.986   0.663   3.572  1.3420  0.4915 -0.7778
13224TIP3    H239616   3.959   0.570   3.689 -2.8841  1.6724 -0.6387
13225TIP3   OH239617   1.264   4.282   6.027  0.1009 -0.3697  0.1807
13225TIP3    H139618   1.233   4.352   5.970  0.0031 -1.0202 -0.5823
13225TIP3    H239619   1.356   4.269   6.003 -0.0136 -0.8278 -0.0300
13226TIP3   OH239620   4.359   6.406   6.050 -0.3152  0.0284  0.4543
13226TIP3    H139621   4.278   6.441   6.013  0.8827  1.5430 -0.9386
13226TIP3    H239622   4.340   6.395   6.143 -1.7977  1.3965  0.3678
13227TIP3   OH239623   2.948   7.200   0.137  0.2322 -0.1300 -0.0244
13227TIP3    H139624   2.900   7.159   0.209  0.2482 -0.5600 -0.2523
13227TIP3    H239625   2.883   7.210   0.067 -0.1130  1.5048  0.4997
13228TIP3   OH239626   3.311   7.584   0.166  0.1927 -0.4059 -0.2005
13228TIP3    H139627   3.326   7.590   0.260  1.6026  0.6186 -0.4466
13228TIP3    H239628   3.218   7.564   0.157  0.3444 -2.0727  1.4177
13229TIP3   OH239629   1.400   6.490   0.857  0.4660 -0.1299 -0.1385
13229TIP3    H139630   1.380   6.398   0.842  0.6428 -0.1091 -0.5116
13229TIP3    H239631   1.324   6.537   0.821  1.3071 -0.0335 -1.8786
13230TIP3   OH239632   5.628   5.138   3.212 -0.0853  0.9937  0.5286
13230TIP3    H139633   5.575   5.093   3.278 -1.6135  2.0923  0.1232
13230TIP3    H239634   5.685   5.197   3.262  1.3511 -0.7500  1.0134
13231TIP3   OH239635   7.881   5.584   0.344 -0.0487  0.0680 -0.5374
13231TIP3    H139636   7.831   5.574   0.425  0.5139 -0.2967 -0.2316
13231TIP3    H239637   7.832   5.532   0.280 -1.0884  1.2029 -0.7194
13232TIP3   OH239638   5.522   3.099   3.915 -0.5519 -0.5223 -0.1954
13232TIP3    H139639   5.533   3.054   3.832  1.1761 -0.9907  0.2473
13232TIP3    H239640   5.456   3.166   3.898  0.8098  0.3688 -2.3781
13233TIP3   OH239641   1.385   0.548   2.346  0.1716 -0.1788  0.1396
13233TIP3    H139642   1.387   0.504   2.261  1.2303  0.4669 -0.1889
13233TIP3    H239643   1.424   0.485   2.406  0.8095 -0.0630 -0.1468
13234TIP3   OH239644   3.791   7.474   2.725  0.1718  0.6683 -0.0779
13234TIP3    H139645   3.840   7.419   2.786  0.2998  1.0034  0.1200
13234TIP3    H239646   3.732   7.526   2.781 -1.3519 -0.6389 -0.3754
13235TIP3   OH239647   1.819   4.095   1.112  0.2161 -0.2482  0.5378
13235TIP3    H139648   1.776   4.070   1.031  0.2139 -0.7801  0.7029
13235TIP3    H239649   1.905   4.053   1.108 -0.4303 -1.7344  1.5986
13236TIP3   OH239650   5.195   2.801   3.781  0.0344  0.1759  0.2180
13236TIP3    H139651   5.107   2.826   3.753  0.3382  0.8559 -0.1528
13236TIP3    H239652   5.238   2.771   3.701 -0.8942 -3.4692  0.9064
13237TIP3   OH239653   0.558   4.288   5.790 -0.3923  0.1717 -0.1243
13237TIP3    H139654   0.516   4.366   5.756  0.6712 -0.0404 -2.0337
13237TIP3    H239655   0.500   4.216   5.765 -0.9662  0.2483  0.9307
13238TIP3   OH239656   6.710   1.435   0.695  0.1829  0.1647  0.1101
13238TIP3    H139657   6.719   1.387   0.777 -1.8052 -0.1375  0.1913
13238TIP3    H239658   6.641   1.498   0.711  0.7544  1.0925 -0.9145
13239TIP3   OH239659   3.370   7.368   5.008  0.1821 -0.7181  0.5051
13239TIP3    H139660   3.429   7.443   4.998  0.3284 -0.7327  1.1925
13239TIP3    H239661   3.296   7.402   5.059 -0.0212 -0.9052  0.3404
13240TIP3   OH239662   2.105   4.534   2.986  0.2332 -0.0462 -0.0830
13240TIP3    H139663   2.161   4.500   2.916 -0.1610  1.1830 -1.0313
13240TIP3    H239664   2.151   4.612   3.017 -0.2432  0.1566  0.1173
13241TIP3   OH239665   5.107   1.297   4.088  0.6989  0.3224 -0.0314
13241TIP3    H139666   5.081   1.303   4.180  1.3820  0.7749  0.1361
13241TIP3    H239667   5.202   1.287   4.091  0.6067 -1.0423 -0.6412
13242TIP3   OH239668   8.041   4.848   0.162  0.4185  1.0889  0.4489
13242TIP3    H139669   7.957   4.816   0.129 -0.2470  1.9283  1.2548
13242TIP3    H239670   8.104   4.782   0.135 -0.4143  0.6957 -0.6334
13243TIP3   OH239671   0.273   0.109   4.754 -0.1779 -0.3809  0.1931
13243TIP3    H139672   0.256   0.097   4.847  2.5722 -0.6073  0.7367
13243TIP3    H239673   0.248   0.200   4.737 -2.6897 -0.9294  0.5942
13244TIP3   OH239674   3.375   1.699   2.911  0.0018  0.3957  0.2502
13244TIP3    H139675   3.466   1.706   2.942  0.9531 -4.3133 -0.7511
13244TIP3    H239676   3.327   1.665   2.986  0.1920 -1.6674 -0.5102
13245TIP3   OH239677   2.287   5.563   2.565  0.0566 -0.6323 -0.4987
13245TIP3    H139678   2.283   5.484   2.620  1.6783 -0.2598  0.2239
13245TIP3    H239679   2.380   5.584   2.562 -0.2725  0.7720 -1.3993
13246TIP3   OH239680   5.776   7.718   5.961  0.2090  0.0923 -0.3332
13246TIP3    H139681   5.704   7.779   5.944 -0.5088 -0.5089  0.4466
13246TIP3    H239682   5.745   7.665   6.035  1.2872 -0.4546 -0.2606
13247TIP3   OH239683   5.942   1.120   3.384  0.4920  0.0940 -0.2395
13247TIP3    H139684   5.856   1.121   3.342  1.0749 -0.6880 -1.5212
13247TIP3    H239685   5.974   1.210   3.376 -0.7670  0.7674  1.5647
13248TIP3   OH239686   6.446   3.680   0.932  0.3221  0.3060  0.1326
13248TIP3    H139687   6.370   3.623   0.944 -0.0537  0.7852  0.0730
13248TIP3    H239688   6.445   3.739   1.008  1.5267 -0.6603  0.9375
13249TIP3   OH239689   6.147   4.090   4.439 -0.1995  0.3399 -0.1701
13249TIP3    H139690   6.125   4.014   4.492  1.7818 -0.4161 -0.3291
13249TIP3    H239691   6.103   4.163   4.482  0.2896 -0.4548  1.7619
13250TIP3   OH239692   1.988   0.609   5.965  0.3809  0.0667  0.7669
13250TIP3    H139693   1.924   0.675   5.941 -0.1492  0.0063  1.9281
13250TIP3    H239694   2.042   0.598   5.887 -0.8394  0.3186 -0.1451
13251TIP3   OH239695   7.622   6.120   2.173 -0.0160  0.1171 -0.2561
13251TIP3    H139696   7.583   6.203   2.199  0.1912  0.7554 -1.8551
13251TIP3    H239697   7.649   6.079   2.255  1.2637  2.3247  0.5210
13252TIP3   OH239698   7.905   2.731   4.923 -0.1685 -0.7981  0.0216
13252TIP3    H139699   7.869   2.773   5.001  1.5861  0.0359  0.4477
13252TIP3    H239700   7.840   2.666   4.898 -2.6080  1.5618 -0.1660
13253TIP3   OH239701   2.820   1.861   4.973 -0.3655  0.1049  0.0139
13253TIP3    H139702   2.915   1.868   4.965 -0.1971 -0.4189  1.2681
13253TIP3    H239703   2.799   1.778   4.930  0.0759 -0.9866  1.8207
13254TIP3   OH239704   4.348   0.822   0.119 -0.1387  0.3269 -0.0724
13254TIP3    H139705   4.310   0.899   0.076  1.6682  1.4167  0.1571
13254TIP3    H239706   4.284   0.797   0.185 -1.4857  0.6233 -1.2137
13255TIP3   OH239707   1.499   7.729   0.425  0.4427  0.0000 -0.5428
13255TIP3    H139708   1.503   7.786   0.348 -0.3827 -2.3134 -2.4038
13255TIP3    H239709   1.544   7.649   0.398  0.4705 -0.7359  1.5412
13256TIP3   OH239710   2.887   0.464   0.917  0.3985 -0.1449 -0.2226
13256TIP3    H139711   2.883   0.554   0.887  1.9779  0.4138  1.1029
13256TIP3    H239712   2.918   0.414   0.841 -0.5777  0.3845 -0.9884
13257TIP3   OH239713   4.380   7.081   2.918  0.2255 -0.3614  0.9234
13257TIP3    H139714   4.475   7.071   2.912  0.1758 -0.4027  0.0740
13257TIP3    H239715   4.355   7.124   2.836 -0.5153 -0.5851  1.0254
13258TIP3   OH239716   1.278   3.159   3.002 -0.7165  0.2072 -0.5979
13258TIP3    H139717   1.367   3.175   3.035 -1.2846  0.4622  0.8616
13258TIP3    H239718   1.270   3.064   3.001 -1.1154  0.1812  1.2824
13259TIP3   OH239719   1.427   6.141   5.076  0.7801 -0.2909  0.1287
13259TIP3    H139720   1.453   6.215   5.131 -1.6086 -0.2154  1.2479
13259TIP3    H239721   1.490   6.072   5.098  2.6221  1.1181 -0.4282
13260TIP3   OH239722   1.954   2.398   4.006  0.3228  0.4777  0.4584
13260TIP3    H139723   1.966   2.409   4.100 -0.5219 -0.2253  0.6607
13260TIP3    H239724   1.948   2.304   3.993 -1.3797  0.6189 -0.0436
13261TIP3   OH239725   0.887   3.314   0.261  0.2456  0.1285 -0.0538
13261TIP3    H139726   0.929   3.370   0.196 -0.5815  0.4161 -0.3478
13261TIP3    H239727   0.923   3.342   0.345  0.2751  0.7034 -0.2584
13262TIP3   OH239728   2.295   7.465   1.899  0.2036  0.3281  0.1168
13262TIP3    H139729   2.214   7.505   1.929  0.4078 -0.8620  2.5181
13262TIP3    H239730   2.282   7.371   1.911  1.1947 -0.0495 -1.4848
13263TIP3   OH239731   4.795   5.607   5.064 -0.3332  0.2059 -0.0372
13263TIP3    H139732   4.734   5.653   5.006 -1.8373 -1.2577  0.3261
13263TIP3    H239733   4.801   5.663   5.141 -2.0357 -0.1104  0.3443
13264TIP3   OH239734   7.172   1.086   1.291  0.3961 -0.1374  0.0066
13264TIP3    H139735   7.214   1.049   1.368 -1.2219  0.1739  1.0972
13264TIP3    H239736   7.208   1.037   1.217  1.0534 -1.2977  1.0726
13265TIP3   OH239737   2.691   4.354   5.071 -0.1515 -0.6736 -0.0326
13265TIP3    H139738   2.749   4.401   5.010  1.0352 -2.3586 -0.2721
13265TIP3    H239739   2.710   4.393   5.156 -0.0872  0.1074 -0.3909
13266TIP3   OH239740   0.528   5.427   3.679  0.5021 -0.0655 -0.3528
13266TIP3    H139741   0.610   5.414   3.632  1.0079 -0.2326  0.5447
13266TIP3    H239742   0.527   5.357   3.745 -1.1933 -1.1670 -1.4486
13267TIP3   OH239743   0.885   0.258   1.781 -0.1393  0.6146 -0.5512
13267TIP3    H139744   0.932   0.299   1.853 -0.0126 -1.1156  0.4019
13267TIP3    H239745   0.853   0.175   1.817  1.1684 -0.9914 -2.8507
13268TIP3   OH239746   3.306   0.518   2.517 -0.0182 -0.6584 -0.2023
13268TIP3    H139747   3.335   0.429   2.534  0.3288 -0.4473  0.3192
13268TIP3    H239748   3.292   0.556   2.604  0.1514 -0.0985 -0.4160
13269TIP3   OH239749   0.661   6.570   4.380  0.1643  0.6830 -0.6894
13269TIP3    H139750   0.735   6.515   4.354  0.8844  0.3508  1.7634
13269TIP3    H239751   0.701   6.646   4.421 -0.8439  0.8116  0.0986
13270TIP3   OH239752   0.422   0.322   3.909 -0.1745 -0.3566 -0.1292
13270TIP3    H139753   0.512   0.307   3.882 -0.1087  1.5476 -1.1410
13270TIP3    H239754   0.411   0.417   3.905 -2.0956 -0.5116  0.3863
13271TIP3   OH239755   2.015   1.083   4.668 -0.1027  0.5120  0.0282
13271TIP3    H139756   1.978   1.153   4.615  1.1689  1.2046  0.0028
13271TIP3    H239757   1.941   1.026   4.689 -0.7827  0.6868 -1.7451
13272TIP3   OH239758   5.060   0.226   5.913 -0.0938  0.0387  0.3246
13272TIP3    H139759   4.999   0.204   5.843 -0.1352  1.7552 -0.2289
13272TIP3    H239760   5.074   0.144   5.960 -0.0836 -1.1652 -1.6731
13273TIP3   OH239761   3.017   1.254   0.901  0.0055  0.8761 -0.1906
13273TIP3    H139762   3.024   1.205   0.983  1.2694  0.1672 -0.6850
13273TIP3    H239763   2.963   1.198   0.845 -0.7028  1.2727  0.0905
13274TIP3   OH239764   4.759   2.339   1.289 -0.0790  0.5512 -0.2008
13274TIP3    H139765   4.754   2.423   1.336 -2.4995 -0.0514  0.8061
13274TIP3    H239766   4.745   2.273   1.357 -1.1308 -0.4920 -1.3809
13275TIP3   OH239767   2.829   2.701   6.607  0.0211 -0.2660 -0.0766
13275TIP3    H139768   2.758   2.636   6.608  1.6832 -2.1731  1.0874
13275TIP3    H239769   2.824   2.743   6.693  0.3640 -0.4704  0.0427
13276TIP3   OH239770   2.640   2.335   2.010  0.4957 -0.3284 -0.0428
13276TIP3    H139771   2.678   2.421   2.026 -1.2498  0.3970  0.3934
13276TIP3    H239772   2.695   2.275   2.061  0.2370  0.8546  1.6948
13277TIP3   OH239773   3.940   1.002   3.392  0.0683 -0.4840  0.2048
13277TIP3    H139774   3.988   0.947   3.330  1.6017  0.2769  0.6682
13277TIP3    H239775   4.003   1.020   3.461 -1.4384 -0.8664  1.7427
13278TIP3   OH239776   4.171   6.685   6.155  0.1099  0.3363  0.4726
13278TIP3    H139777   4.112   6.732   6.214  0.9266 -0.2866  1.8384
13278TIP3    H239778   4.118   6.670   6.077 -1.1325  0.9018  1.1620
13279TIP3   OH239779   6.196   6.482   3.042 -0.1127  0.9031 -0.0424
13279TIP3    H139780   6.116   6.447   3.003  1.0565  0.2738 -2.0504
13279TIP3    H239781   6.190   6.460   3.135 -1.8850  0.1876 -0.2942
13280TIP3   OH239782   6.451   7.638   2.484 -0.6269 -0.2035  0.4383
13280TIP3    H139783   6.494   7.649   2.399  0.4968  1.6644  1.1897
13280TIP3    H239784   6.357   7.647   2.464 -0.5054 -1.4228 -0.8057
13281TIP3   OH239785   4.563   3.297   3.482  0.4100 -0.8252 -0.4461
13281TIP3    H139786   4.655   3.276   3.501  0.1421 -0.4972  1.4231
13281TIP3    H239787   4.514   3.255   3.553 -0.8855 -0.8954 -1.3561
13282TIP3   OH239788   3.618   0.068   5.995  0.0829  1.1430  0.0073
13282TIP3    H139789   3.619  -0.026   6.009 -0.6029  1.1342  0.0270
13282TIP3    H239790   3.704   0.088   5.957 -0.4323  0.2460 -1.7342
13283TIP3   OH239791   2.642   4.084   2.567 -0.0346  0.7185 -0.0637
13283TIP3    H139792   2.693   4.098   2.488 -1.5437 -0.7426 -1.3693
13283TIP3    H239793   2.678   4.004   2.606  0.4063  1.1835  0.5103
13284TIP3   OH239794   0.877   3.026   2.732  0.5443 -0.4065 -0.8432
13284TIP3    H139795   0.826   3.008   2.653 -1.0082 -0.0875  0.0347
13284TIP3    H239796   0.955   2.972   2.723  0.4318 -0.3259 -2.6135
13285TIP3   OH239797   8.016   4.057   3.126  0.0716  0.5933 -0.2081
13285TIP3    H139798   7.959   4.131   3.147 -0.4579 -0.4892  2.5446
13285TIP3    H239799   8.101   4.097   3.108 -0.8136  2.0160 -1.4598
13286TIP3   OH239800   2.369   5.492   6.217  0.1901  0.0676 -0.0687
13286TIP3    H139801   2.423   5.433   6.270  0.4121 -0.5528 -0.9572
13286TIP3    H239802   2.292   5.440   6.195  0.4418  0.0520 -0.9546
13287TIP3   OH239803   6.975   0.599   0.464  0.2075  0.0591  0.3400
13287TIP3    H139804   6.920   0.651   0.405  1.2638 -0.2569 -0.9757
13287TIP3    H239805   6.921   0.587   0.542 -2.1049 -1.2330 -1.3126
13288TIP3   OH239806   1.000   3.060   0.121  0.1378 -0.4684 -0.6090
13288TIP3    H139807   1.017   3.138   0.174 -1.0743 -0.2604 -0.4933
13288TIP3    H239808   1.087   3.028   0.096  0.8734 -1.2384  2.4494
13289TIP3   OH239809   8.207   5.666   2.629 -0.1500  0.0731  0.2407
13289TIP3    H139810   8.148   5.659   2.704  0.6098 -0.4332  0.8015
13289TIP3    H239811   8.295   5.655   2.666  0.2612  0.1624 -0.6756
13290TIP3   OH239812   8.126   6.584   2.808 -0.0036 -0.3896 -0.2052
13290TIP3    H139813   8.159   6.519   2.870  0.7009 -0.2974 -0.4780
13290TIP3    H239814   8.041   6.610   2.844 -0.1042 -1.1517  0.1264
13291TIP3   OH239815   0.362   5.051   6.584 -0.5682  0.1102  0.3151
13291TIP3    H139816   0.301   5.113   6.621  0.6448  1.5283  0.0290
13291TIP3    H239817   0.444   5.100   6.574  0.1446 -1.2295 -0.8708
13292TIP3   OH239818   1.800   6.724   3.534  0.7972  0.6094 -0.4867
13292TIP3    H139819   1.846   6.645   3.561  1.7376  1.0151 -0.8488
13292TIP3    H239820   1.709   6.696   3.523  1.0506 -0.3386 -0.2781
13293TIP3   OH239821   3.602   2.497   1.458  0.2180 -0.0480 -0.4167
13293TIP3    H139822   3.686   2.542   1.449  0.6203 -1.0586 -2.1424
13293TIP3    H239823   3.537   2.564   1.434  0.7479 -0.0673 -2.0196
13294TIP3   OH239824   1.766   0.363   2.844 -0.1257 -0.1571 -0.4375
13294TIP3    H139825   1.819   0.329   2.772  0.8349  2.4655 -1.0826
13294TIP3    H239826   1.718   0.437   2.806 -1.6681 -0.3487  1.0012
13295TIP3   OH239827   2.476   5.827   0.261  0.0810  0.5012  0.2418
13295TIP3    H139828   2.444   5.787   0.181 -2.1018  1.1668  0.7036
13295TIP3    H239829   2.397   5.843   0.313  1.1243  2.7046  1.3039
13296TIP3   OH239830   0.352   4.322   3.654  0.3475  0.0931  1.0151
13296TIP3    H139831   0.301   4.266   3.596  3.2137 -0.8018 -0.8801
13296TIP3    H239832   0.311   4.408   3.647 -1.1877 -0.6628  0.0714
13297TIP3   OH239833   3.330   7.786   2.083  0.8022  0.4542  0.0238
13297TIP3    H139834   3.286   7.866   2.113 -1.9917 -1.2922  1.0823
13297TIP3    H239835   3.298   7.773   1.994  0.3404 -0.0233  0.2508
13298TIP3   OH239836   2.828   7.120   6.516 -0.1558 -0.2895  0.6295
13298TIP3    H139837   2.848   7.026   6.515  2.0684  0.0841 -1.7674
13298TIP3    H239838   2.755   7.129   6.455  0.7756 -0.3171 -0.5215
13299TIP3   OH239839   4.105   4.169   0.129 -0.2868 -0.7068 -0.2987
13299TIP3    H139840   4.126   4.104   0.062  1.2188 -0.3772 -0.1787
13299TIP3    H239841   4.092   4.250   0.081  1.5088 -0.3078 -0.1844
13300TIP3   OH239842   2.478   4.202   6.073 -0.0042  0.2696 -0.1882
13300TIP3    H139843   2.389   4.225   6.047 -0.6468 -2.9020 -1.2921
13300TIP3    H239844   2.471   4.177   6.165  0.2887  2.1695  0.4001
13301TIP3   OH239845   2.082   6.106   0.356  0.6784 -0.1858 -0.6534
13301TIP3    H139846   2.051   6.179   0.410  1.9248 -0.6083  0.6981
13301TIP3    H239847   2.015   6.038   0.366  1.1102 -0.4278  0.7715
13302TIP3   OH239848   7.017   2.546   0.720  0.5793  0.0921  0.1672
13302TIP3    H139849   7.025   2.451   0.711  1.5339  0.0800  0.9638
13302TIP3    H239850   7.014   2.561   0.815 -0.3579  0.7998  0.0355
13303TIP3   OH239851   6.340   1.184   2.878 -0.0255  0.2280 -0.3322
13303TIP3    H139852   6.278   1.231   2.935 -0.1036 -1.6057  1.2021
13303TIP3    H239853   6.320   1.215   2.790 -3.4958 -0.5963  0.0236
13304TIP3   OH239854   6.825   1.476   6.591 -0.2294 -0.2731 -0.0492
13304TIP3    H139855   6.829   1.453   6.498  0.3137  0.5259 -0.2366
13304TIP3    H239856   6.888   1.547   6.600  0.3382 -0.8890  1.0956
13305TIP3   OH239857   7.943   5.279   0.241 -0.1559 -0.0515  0.5059
13305TIP3    H139858   7.998   5.213   0.282 -1.4389 -2.7041 -1.7423
13305TIP3    H239859   7.854   5.259   0.272 -0.4354  1.5057  0.8080
13306TIP3   OH239860   0.104   3.402   3.817 -0.1167 -0.3497  0.0455
13306TIP3    H139861   0.182   3.349   3.806 -0.5411 -1.0524  0.3583
13306TIP3    H239862   0.078   3.389   3.909 -0.5537 -0.0632 -0.0296
13307TIP3   OH239863   1.959   2.282   0.860  0.4454 -0.2895 -0.2449
13307TIP3    H139864   2.002   2.275   0.945 -0.7717 -1.7977  0.3092
13307TIP3    H239865   1.986   2.367   0.825  2.1964 -0.3148  0.9499
13308TIP3   OH239866   4.802   3.555   3.621 -0.7684 -0.0703 -0.3091
13308TIP3    H139867   4.858   3.504   3.563 -0.8916 -1.0206  0.3851
13308TIP3    H239868   4.745   3.605   3.562 -0.4053 -0.4670 -0.9998
13309TIP3   OH239869   0.841   1.145   4.687  0.0222  0.3375  0.3471
13309TIP3    H139870   0.752   1.127   4.719 -0.5895 -0.6738 -1.7848
13309TIP3    H239871   0.829   1.170   4.595  2.0622 -1.4407 -0.4828
13310TIP3   OH239872   2.394   4.486   4.476  0.2239 -0.1914 -0.0962
13310TIP3    H139873   2.466   4.493   4.539  1.6689  0.7067 -1.7573
13310TIP3    H239874   2.389   4.393   4.456  2.2990 -0.1127 -1.3660
13311TIP3   OH239875   0.473   7.404   6.435 -0.1828 -0.5051  0.4661
13311TIP3    H139876   0.414   7.416   6.360 -0.1369  4.2968  0.8830
13311TIP3    H239877   0.419   7.359   6.500 -2.6682  1.4110 -0.0849
13312TIP3   OH239878   6.958   2.392   5.647  0.3989  0.2563  0.0422
13312TIP3    H139879   7.014   2.428   5.578  0.7905  1.9652  1.1724
13312TIP3    H239880   7.019   2.362   5.714  0.0595 -2.3718 -0.7368
13313TIP3   OH239881   8.247   6.062   2.764 -0.5217 -0.0948  0.0665
13313TIP3    H139882   8.279   5.998   2.827  1.5829  0.9568  0.1538
13313TIP3    H239883   8.312   6.132   2.765 -0.5523  0.1137 -3.0624
13314TIP3   OH239884   2.866   1.165   2.298 -0.7047 -0.6695  0.1091
13314TIP3    H139885   2.875   1.240   2.239 -1.2802 -1.3284 -0.8391
13314TIP3    H239886   2.849   1.204   2.384 -0.1122  0.2982 -0.2006
13315TIP3   OH239887   7.138   7.777   2.840  0.1808  0.3117  0.5440
13315TIP3    H139888   7.177   7.759   2.926 -1.2229  0.9118  1.3281
13315TIP3    H239889   7.082   7.701   2.823  0.8967 -0.0850 -0.1371
13316TIP3   OH239890   0.694   0.048   6.559  0.3076  0.0251 -0.1741
13316TIP3    H139891   0.780   0.064   6.520  0.4932 -0.4760  0.0204
13316TIP3    H239892   0.632   0.090   6.499  0.5221 -1.3247 -1.4022
13317TIP3   OH239893   5.826   2.657   4.191  0.0304  0.1468  0.8646
13317TIP3    H139894   5.915   2.634   4.219 -0.4747 -1.0011  1.6109
13317TIP3    H239895   5.831   2.750   4.168  1.5141  0.0010  0.4853
13318TIP3   OH239896   7.013   2.364   2.059  0.3821  0.1072 -0.5753
13318TIP3    H139897   7.104   2.373   2.085  0.6181  1.6415 -1.8073
13318TIP3    H239898   6.964   2.372   2.140  1.3032 -0.1177  0.0197
13319TIP3   OH239899   4.464   0.257   1.804  0.1673  0.2806  0.1630
13319TIP3    H139900   4.452   0.292   1.893 -3.0526 -0.1809  0.0347
13319TIP3    H239901   4.456   0.333   1.747 -0.6429  0.2142  0.1728
13320TIP3   OH239902   6.487   5.160   5.970 -0.0931 -0.1842  0.3043
13320TIP3    H139903   6.451   5.080   6.009 -1.2247 -0.1302 -0.5704
13320TIP3    H239904   6.445   5.165   5.884  2.2697 -0.2525 -0.9191
13321TIP3   OH239905   5.844   4.452   3.633  0.0846 -0.0599  0.3164
13321TIP3    H139906   5.783   4.378   3.633 -0.3552  0.2145  3.1488
13321TIP3    H239907   5.920   4.420   3.681  1.0431  0.5092 -0.7850
13322TIP3   OH239908   0.829   7.481   2.782  0.4939  0.2181  0.7487
13322TIP3    H139909   0.750   7.529   2.809 -0.2724  0.3416 -1.4935
13322TIP3    H239910   0.887   7.549   2.748 -0.4581 -0.2696 -2.1309
13323TIP3   OH239911   6.107   5.339   1.910  0.1187 -0.1450  0.3639
13323TIP3    H139912   6.144   5.303   1.991  3.0164  1.0489 -0.2966
13323TIP3    H239913   6.096   5.433   1.928 -0.8699 -0.1543 -0.1080
13324TIP3   OH239914   4.524   7.441   5.795  0.8294 -0.5707  0.0092
13324TIP3    H139915   4.526   7.528   5.834 -0.3408 -0.3331 -0.4013
13324TIP3    H239916   4.536   7.457   5.701 -2.0967 -0.4973 -0.4710
13325TIP3   OH239917   3.537   2.301   3.077 -0.2913 -0.1520  0.6946
13325TIP3    H139918   3.531   2.356   3.000  2.5672 -0.4534  0.1358
13325TIP3    H239919   3.631   2.287   3.089 -0.7307 -1.6236  3.1609
13326TIP3   OH239920   7.873   4.697   2.949  0.2149  0.2561 -0.4284
13326TIP3    H139921   7.846   4.664   2.863 -1.0192 -2.7129  0.9391
13326TIP3    H239922   7.799   4.750   2.978 -1.1531 -1.8769  0.2659
13327TIP3   OH239923   3.789   1.467   3.006  0.2279 -0.2957  0.3166
13327TIP3    H139924   3.719   1.402   3.007  0.0771 -0.1518  1.9189
13327TIP3    H239925   3.744   1.551   3.009  0.4224 -0.2079  1.8877
13328TIP3   OH239926   8.248   1.545   5.676  0.5534 -0.2324 -0.4583
13328TIP3    H139927   8.192   1.548   5.754 -1.1027 -0.2038 -1.6081
13328TIP3    H239928   8.330   1.586   5.705 -0.4197  0.8478  0.9614
13329TIP3   OH239929   0.613   1.747   5.568 -0.2680 -0.3624  0.4950
13329TIP3    H139930   0.565   1.773   5.647 -2.2146  2.7266 -1.4618
13329TIP3    H239931   0.699   1.788   5.577 -0.0476 -1.0211  1.4877
13330TIP3   OH239932   4.640   0.518   4.041 -0.6331 -0.0388  0.0937
13330TIP3    H139933   4.680   0.572   4.109  1.2103 -0.5004 -0.5663
13330TIP3    H239934   4.663   0.562   3.959 -2.0592  0.0216 -0.2915
13331TIP3   OH239935   7.526   2.363   6.401 -0.6875 -0.3576  0.2924
13331TIP3    H139936   7.572   2.422   6.341 -0.3870  0.0977  0.9561
13331TIP3    H239937   7.571   2.280   6.392 -2.3473 -1.0888 -2.1256
13332TIP3   OH239938   0.084   7.630   3.729  0.0321 -0.3684  0.0440
13332TIP3    H139939  -0.002   7.669   3.713 -0.2204 -1.1403 -0.5473
13332TIP3    H239940   0.128   7.633   3.645  0.4619 -0.2971  0.2660
13333TIP3   OH239941   3.366   2.816   4.008 -0.3814 -0.1004  0.2384
13333TIP3    H139942   3.358   2.728   4.045 -0.4931 -1.1107 -2.0310
13333TIP3    H239943   3.280   2.835   3.971  0.0431  0.3174 -0.5816
13334TIP3   OH239944   1.156   0.090   5.202  0.7414 -0.0790 -0.0156
13334TIP3    H139945   1.249   0.112   5.212  0.3918  0.8981  1.3283
13334TIP3    H239946   1.123   0.085   5.292 -0.1080 -2.2988 -0.3884
13335TIP3   OH239947   8.164   4.286   0.737 -0.4617 -0.5444  0.5324
13335TIP3    H139948   8.237   4.322   0.786 -0.0109  1.2986 -1.3879
13335TIP3    H239949   8.116   4.233   0.802  1.4708 -0.2744  2.2862
13336TIP3   OH239950   5.732   4.839   6.521  0.4371 -0.2506  0.1600
13336TIP3    H139951   5.780   4.762   6.553  2.0622  0.8020  0.3927
13336TIP3    H239952   5.694   4.879   6.599 -1.7350 -1.6059 -0.1247
13337TIP3   OH239953   6.893   3.624   5.024  0.1852 -0.3541  0.2381
13337TIP3    H139954   6.830   3.683   5.065 -1.4704 -1.2986 -0.8228
13337TIP3    H239955   6.938   3.677   4.958 -1.1766 -0.2028 -0.5985
13338TIP3   OH239956   2.616   2.540   0.511  0.5196  0.2980  0.6452
13338TIP3    H139957   2.548   2.504   0.454  0.0016  1.2570  0.6414
13338TIP3    H239958   2.642   2.467   0.567  0.1490 -0.3228  0.0249
13339TIP3   OH239959   6.437   6.928   4.820 -0.2577 -0.1399 -0.4127
13339TIP3    H139960   6.506   6.991   4.798 -0.4569  0.6218  1.0320
13339TIP3    H239961   6.483   6.858   4.867 -0.5038  0.6036  0.9813
13340TIP3   OH239962   6.299   4.935   4.710 -0.6693 -0.9221 -0.5056
13340TIP3    H139963   6.351   4.855   4.716  1.0962  0.2650  1.5398
13340TIP3    H239964   6.251   4.939   4.793 -0.0977  0.5265 -0.2231
13341TIP3   OH239965   7.272   6.190   1.182 -0.2589 -0.2314 -0.1566
13341TIP3    H139966   7.215   6.165   1.109 -1.2946  0.9075  0.2342
13341TIP3    H239967   7.218   6.177   1.260  0.5739 -0.6861  0.3532
13342TIP3   OH239968   2.425   6.843   5.493  0.6670  0.0666  0.4946
13342TIP3    H139969   2.421   6.864   5.399 -0.3706 -1.3132  0.2077
13342TIP3    H239970   2.519   6.832   5.510  1.0704  2.2722  0.1097
13343TIP3   OH239971   2.080   4.347   5.323  0.1781 -0.5112 -0.2904
13343TIP3    H139972   2.143   4.368   5.254 -0.3900  0.4018 -0.5532
13343TIP3    H239973   2.100   4.408   5.393 -0.7861  0.2169 -0.6209
13344TIP3   OH239974   0.718   7.317   5.934 -0.4657  0.1895 -0.4730
13344TIP3    H139975   0.662   7.316   5.855 -1.2744 -1.0218  0.0900
13344TIP3    H239976   0.807   7.310   5.900 -0.4782  3.1688 -1.4632
13345TIP3   OH239977   0.740   5.263   6.290  0.1393  0.7853  0.2312
13345TIP3    H139978   0.667   5.238   6.347  0.4388  1.1042  0.7503
13345TIP3    H239979   0.701   5.263   6.202 -0.4840  0.9265  0.4981
13346TIP3   OH239980   8.181   5.495   1.627 -0.3117  0.4907  0.1007
13346TIP3    H139981   8.169   5.408   1.587 -0.6959  0.5430  0.0974
13346TIP3    H239982   8.194   5.554   1.553 -0.5285  0.5090  0.0753
13347TIP3   OH239983   1.656   3.536   4.410 -0.7579 -0.0969 -0.2245
13347TIP3    H139984   1.591   3.538   4.339 -0.7164  0.5514 -0.2540
13347TIP3    H239985   1.617   3.591   4.479  0.0746  0.9163 -0.5330
13348TIP3   OH239986   6.871   1.748   0.695  0.3349 -0.3553  0.0328
13348TIP3    H139987   6.874   1.705   0.781 -0.1716  0.0700  0.2704
13348TIP3    H239988   6.914   1.687   0.636  1.3634 -0.3297  0.7332
13349TIP3   OH239989   3.350   2.593   5.691 -0.2323 -0.4850 -0.0685
13349TIP3    H139990   3.437   2.620   5.722 -1.1363  0.2838  1.9537
13349TIP3    H239991   3.368   2.516   5.637  1.5590 -1.7610  2.1490
13350TIP3   OH239992   5.087   1.918   6.402  0.1503  0.1930  0.4860
13350TIP3    H139993   5.128   1.840   6.364  0.2550  0.0895  0.8059
13350TIP3    H239994   5.038   1.884   6.477 -0.8983  0.2524 -0.1625
13351TIP3   OH239995   2.299   2.546   1.103  0.2531 -0.6387  0.2183
13351TIP3    H139996   2.367   2.489   1.137 -0.6848 -1.1883  1.2237
13351TIP3    H239997   2.269   2.596   1.179  0.4873  0.6316 -0.4806
13352TIP3   OH239998   5.285   1.298   5.348  0.1095 -0.0852  0.0765
13352TIP3    H139999   5.266   1.310   5.441  1.1290 -1.1352  0.4373
13352TIP3    H240000   5.203   1.322   5.304 -0.7779 -0.7182  1.3218
13353TIP3   OH240001   6.303   0.630   1.837 -0.3563 -0.4374 -0.1040
13353TIP3    H140002   6.300   0.653   1.930 -1.6133  0.7900 -0.4157
13353TIP3    H240003   6.302   0.714   1.792  0.0696 -1.0229 -1.2509
13354TIP3   OH240004   3.520   4.523   6.722 -0.8352 -0.3473  0.6042
13354TIP3    H140005   3.490   4.584   6.655 -0.2743 -0.2143  0.4738
13354TIP3    H240006   3.454   4.529   6.791 -1.2768 -0.2899  0.1859
13355TIP3   OH240007   7.112   2.508   2.302 -0.1140 -0.4728 -0.0623
13355TIP3    H140008   7.108   2.515   2.398 -0.0574 -0.0330 -0.0893
13355TIP3    H240009   7.075   2.590   2.271 -0.5290 -0.7995 -0.4267
13356TIP3   OH240010   1.183   6.632   2.151 -0.8109  0.5374 -0.7060
13356TIP3    H140011   1.206   6.561   2.090 -0.9732 -0.4721  0.3624
13356TIP3    H240012   1.262   6.686   2.156  0.6823 -1.5844  1.1449
13357TIP3   OH240013   3.626   4.644   6.442  0.4417  0.5917  0.0062
13357TIP3    H140014   3.593   4.684   6.361  1.1864  0.5017 -0.3479
13357TIP3    H240015   3.594   4.702   6.512 -0.4243  0.5302 -0.3284
13358TIP3   OH240016   4.558   3.362   0.157  0.0017 -0.0125  0.0096
13358TIP3    H140017   4.559   3.452   0.124 -3.3485  1.2482  2.7291
13358TIP3    H240018   4.487   3.319   0.108  0.7333 -0.8101 -0.3731
13359TIP3   OH240019   3.313   3.725   4.872  0.2326 -0.4258 -0.3203
13359TIP3    H140020   3.337   3.815   4.850  0.0474  0.1946  1.7571
13359TIP3    H240021   3.331   3.675   4.793  1.0058  1.3157 -1.3036
13360TIP3   OH240022   8.116   4.511   6.543  0.0813 -0.7368 -0.1455
13360TIP3    H140023   8.125   4.455   6.466  0.8125  0.4628 -0.9891
13360TIP3    H240024   8.199   4.501   6.590  0.4236 -0.0217 -0.5697
13361TIP3   OH240025   0.984   7.046   0.942 -0.3629  0.1872 -0.7875
13361TIP3    H140026   0.945   6.969   0.902 -0.4413  1.1848 -2.7526
13361TIP3    H240027   1.071   7.053   0.903 -0.8545  1.8092 -1.6861
13362TIP3   OH240028   6.129   7.114   0.998  0.1594  0.3733  0.1449
13362TIP3    H140029   6.178   7.069   1.068  0.5372  1.3866  0.5641
13362TIP3    H240030   6.193   7.124   0.927 -0.3199 -0.9528 -0.5001
13363TIP3   OH240031   6.755   5.542   0.675 -0.2555  0.1085 -0.2630
13363TIP3    H140032   6.717   5.612   0.621  2.3456  0.8483 -1.2778
13363TIP3    H240033   6.761   5.580   0.762 -0.1448  0.6514 -0.5032
13364TIP3   OH240034   8.043   5.233   4.273  0.0713  0.7529 -0.1826
13364TIP3    H140035   7.979   5.304   4.272 -1.1786 -0.3452 -0.2943
13364TIP3    H240036   8.127   5.277   4.281 -0.7123  2.2190  0.3651
13365TIP3   OH240037   5.271   0.216   1.328  0.0865  0.6057 -0.1850
13365TIP3    H140038   5.317   0.144   1.287 -0.2334 -0.1251  0.7024
13365TIP3    H240039   5.218   0.175   1.397  1.3460  1.8616  1.6206
13366TIP3   OH240040   0.141   0.816   2.383 -0.5219 -0.2572  0.1900
13366TIP3    H140041   0.223   0.812   2.432  0.1963  1.3235 -0.8007
13366TIP3    H240042   0.089   0.882   2.428 -1.4311 -1.5250  1.0370
13367TIP3   OH240043   7.819   5.470   2.374  0.0021  0.3251 -0.0335
13367TIP3    H140044   7.784   5.553   2.408 -2.8056 -0.6043 -0.3658
13367TIP3    H240045   7.844   5.421   2.452  0.3555  0.9252  0.2411
13368TIP3   OH240046   4.339   0.278   5.569 -0.0792 -0.2792 -0.6659
13368TIP3    H140047   4.273   0.259   5.635  0.3972 -2.3754 -0.7197
13368TIP3    H240048   4.417   0.301   5.619 -0.1894 -0.1405 -0.5556
13369TIP3   OH240049   0.962   1.574   5.422  0.5107  0.3185  0.0085
13369TIP3    H140050   1.047   1.530   5.417  2.1655  3.0498  1.5438
13369TIP3    H240051   0.946   1.584   5.516  0.2744  2.8981 -0.2372
13370TIP3   OH240052   0.936   2.546   5.932  0.1770  0.1262 -0.2605
13370TIP3    H140053   0.932   2.452   5.914  0.0433  0.1312 -0.2608
13370TIP3    H240054   0.867   2.583   5.877 -0.4797  0.1026  0.5243
13371TIP3   OH240055   0.671   6.877   0.984 -0.0137 -0.0943  0.1450
13371TIP3    H140056   0.686   6.866   1.078 -1.8780  0.5106  0.5602
13371TIP3    H240057   0.665   6.788   0.950 -0.7337 -0.3431  0.8790
13372TIP3   OH240058   3.465   6.940   4.578 -0.6994 -0.3655  0.2545
13372TIP3    H140059   3.528   6.948   4.649 -0.2865 -0.4906 -0.0904
13372TIP3    H240060   3.482   7.017   4.523 -0.0571 -0.9994 -0.4557
13373TIP3   OH240061   7.538   1.942   5.491  0.0913 -0.3082 -0.1315
13373TIP3    H140062   7.622   1.986   5.493 -0.6311  1.1036  1.2826
13373TIP3    H240063   7.511   1.945   5.399  2.6599 -3.0746 -1.1281
13374TIP3   OH240064   3.721   0.124   0.477  0.2681  0.1623  0.3083
13374TIP3    H140065   3.697   0.211   0.446  0.5233 -0.3889 -1.5815
13374TIP3    H240066   3.653   0.067   0.442  1.8156 -0.8067 -1.2953
13375TIP3   OH240067   4.757   6.150   1.151 -0.2721 -0.4251  0.0902
13375TIP3    H140068   4.768   6.152   1.246  1.7081  0.9301 -0.0810
13375TIP3    H240069   4.771   6.059   1.127  0.9054 -0.5128  0.9832
13376TIP3   OH240070   7.505   2.336   1.600  0.1181 -0.3548  0.2865
13376TIP3    H140071   7.472   2.396   1.534 -0.8171  1.8580  2.5886
13376TIP3    H240072   7.440   2.265   1.603 -0.6802  0.3467 -0.0618
13377TIP3   OH240073   5.761   5.450   5.718  0.0962  0.0530  0.2724
13377TIP3    H140074   5.728   5.404   5.641 -1.3279 -1.3106  1.6205
13377TIP3    H240075   5.703   5.526   5.727 -1.2044 -1.0144  1.2395
13378TIP3   OH240076   8.299   7.368   5.873  0.1406  0.2215  0.2273
13378TIP3    H140077   8.285   7.453   5.914  1.5429  0.8578 -0.5604
13378TIP3    H240078   8.211   7.331   5.863 -0.6989  2.4379 -1.2377
13379TIP3   OH240079   2.782   2.185   1.604  0.3702  0.1281  0.2086
13379TIP3    H140080   2.796   2.119   1.536 -0.0521 -1.6491  1.7944
13379TIP3    H240081   2.866   2.190   1.650  0.1623  0.1186  0.5891
13380TIP3   OH240082   1.091   5.895   4.811  0.2938  0.1778  0.0778
13380TIP3    H140083   1.159   5.876   4.746  0.0054 -0.1775 -0.1226
13380TIP3    H240084   1.063   5.985   4.791 -0.0136 -0.0399 -0.4952
13381TIP3   OH240085   4.121   7.560   1.258  0.6011  0.0451  0.1112
13381TIP3    H140086   4.190   7.596   1.203  0.1783 -0.3071 -0.6663
13381TIP3    H240087   4.066   7.510   1.198 -0.5257  0.5871  0.6580
13382TIP3   OH240088   7.492   6.039   0.526 -0.3816  0.4294  0.1452
13382TIP3    H140089   7.421   5.978   0.548  1.4475 -2.0647 -0.4111
13382TIP3    H240090   7.519   6.012   0.438  2.7430 -0.2904  1.2251
13383TIP3   OH240091   6.664   0.642   3.276  0.1082 -0.0794  0.0130
13383TIP3    H140092   6.576   0.633   3.239 -0.2880  0.7625  0.7082
13383TIP3    H240093   6.705   0.712   3.225  0.5172 -0.7151 -0.5477
13384TIP3   OH240094   1.576   2.740   2.593 -0.0716 -0.2405  0.8290
13384TIP3    H140095   1.662   2.708   2.568  0.3661  1.0355  0.6428
13384TIP3    H240096   1.518   2.711   2.522  0.5137  0.3136  0.1211
13385TIP3   OH240097   0.335   4.283   5.312  0.1323  0.1944  0.1574
13385TIP3    H140098   0.358   4.312   5.224 -0.1757  1.1217  0.3795
13385TIP3    H240099   0.417   4.286   5.361 -0.5894  5.9693  1.6651
13386TIP3   OH240100   1.631   3.707   2.334 -0.1863  0.1855  0.5531
13386TIP3    H140101   1.594   3.657   2.406  0.5603 -1.5188 -0.1928
13386TIP3    H240102   1.667   3.785   2.375 -0.2093 -0.5196  1.9669
13387TIP3   OH240103   0.972   5.108   5.779  0.3660 -0.6476  0.1367
13387TIP3    H140104   0.973   5.042   5.710 -0.3414 -0.7294  0.2024
13387TIP3    H240105   0.880   5.133   5.789  0.6204  0.3530  0.1174
13388TIP3   OH240106   4.083   3.198   0.633  0.1753  0.0815 -0.4459
13388TIP3    H140107   4.170   3.228   0.659 -0.4421 -0.9501  3.5644
13388TIP3    H240108   4.029   3.277   0.634  1.1598  1.1160 -4.9015
13389TIP3   OH240109   4.651   0.329   3.022  0.0428 -0.4016 -0.5438
13389TIP3    H140110   4.726   0.336   3.080  0.9588 -1.7208 -1.5019
13389TIP3    H240111   4.613   0.243   3.042  0.6661 -1.1004 -2.1592
13390TIP3   OH240112   4.386   5.564   4.551 -0.2051  0.3287  0.0592
13390TIP3    H140113   4.343   5.484   4.579  0.3733 -0.4252 -1.1286
13390TIP3    H240114   4.341   5.634   4.599 -0.1353 -0.7551  1.7961
13391TIP3   OH240115   4.293   7.379   4.832  0.1265 -0.1607  0.0287
13391TIP3    H140116   4.304   7.439   4.758  0.2793  1.0910  1.0288
13391TIP3    H240117   4.261   7.298   4.793  1.4622  0.0293 -1.5539
13392TIP3   OH240118   0.955   5.395   4.903 -0.1379  0.2416  0.0606
13392TIP3    H140119   0.901   5.328   4.945 -0.6877 -0.2832 -1.4252
13392TIP3    H240120   0.947   5.378   4.809 -0.8405  2.7852 -0.4186
13393TIP3   OH240121   6.965   1.111   5.419 -0.0608  0.2631  0.2150
13393TIP3    H140122   7.014   1.144   5.494 -0.3261  1.0456  0.0547
13393TIP3    H240123   7.030   1.107   5.349  0.1190 -0.1839  0.4039
13394TIP3   OH240124   6.719   3.895   4.841  0.4523  0.2409 -0.2897
13394TIP3    H140125   6.660   3.840   4.790  0.3603 -0.3464  0.4301
13394TIP3    H240126   6.723   3.853   4.927  0.7590  1.0947  0.1305
13395TIP3   OH240127   2.642   3.767   0.532 -0.0567 -0.3854 -0.1035
13395TIP3    H140128   2.707   3.832   0.507  0.5159 -0.3177  1.4540
13395TIP3    H240129   2.685   3.713   0.597 -1.4850 -0.4494  0.8491
13396TIP3   OH240130   1.270   4.292   0.808  0.4046  0.0342 -0.0031
13396TIP3    H140131   1.365   4.283   0.817  0.1741 -1.3179  1.6755
13396TIP3    H240132   1.242   4.341   0.885 -0.2937  0.0989 -0.2855
13397TIP3   OH240133   3.985   2.523   4.683  0.0236  0.6324 -0.2110
13397TIP3    H140134   3.946   2.588   4.742  0.0424  1.0794 -0.6934
13397TIP3    H240135   3.955   2.439   4.718  0.9532  0.8149  1.1256
13398TIP3   OH240136   5.036   6.978   4.014  0.1495 -0.1664  0.1874
13398TIP3    H140137   4.957   7.033   4.015 -0.1693 -0.5885  2.2533
13398TIP3    H240138   5.108   7.040   4.008 -0.2545  0.4372  1.2733
13399TIP3   OH240139   3.350   0.759   6.364 -0.7079 -0.3527  0.0801
13399TIP3    H140140   3.360   0.693   6.295 -1.3511 -1.7485  1.2938
13399TIP3    H240141   3.321   0.838   6.317 -1.1045 -1.2576 -1.2513
13400TIP3   OH240142   1.434   3.060   3.304  0.0361 -0.0073  0.6892
13400TIP3    H140143   1.448   3.119   3.230  0.0504 -0.0740  0.6381
13400TIP3    H240144   1.344   3.076   3.331 -0.1285 -0.3411  0.3370
13401TIP3   OH240145   6.227   1.847   2.191  0.4176 -0.5314 -0.3806
13401TIP3    H140146   6.278   1.882   2.264 -1.1908  0.6153  0.2582
13401TIP3    H240147   6.292   1.818   2.128  1.8490  0.2526  0.6762
13402TIP3   OH240148   4.932   0.778   3.436  0.2384 -0.0477  0.1473
13402TIP3    H140149   4.979   0.706   3.479 -0.2485 -0.5525 -0.1579
13402TIP3    H240150   4.877   0.735   3.370  0.3852  0.6488 -0.4444
13403TIP3   OH240151   3.179   2.123   3.927 -0.2101 -0.1164 -0.6535
13403TIP3    H140152   3.264   2.134   3.885 -0.2718  1.0318 -0.5146
13403TIP3    H240153   3.192   2.156   4.016 -0.5206 -0.9555 -0.2867
13404TIP3   OH240154   3.075   1.598   1.993  0.3048 -0.6690  0.0121
13404TIP3    H140155   3.031   1.652   2.059 -1.5990 -1.9961 -0.0880
13404TIP3    H240156   3.018   1.602   1.916  1.1286 -1.2798 -0.6591
13405TIP3   OH240157   5.838   6.704   6.699  0.4370 -0.5926 -0.1994
13405TIP3    H140158   5.794   6.630   6.657  3.2414 -3.1479  0.9382
13405TIP3    H240159   5.788   6.721   6.778 -0.8894 -0.4493 -1.0340
13406TIP3   OH240160   0.670   4.107   2.037 -0.1621 -0.5695  0.2748
13406TIP3    H140161   0.589   4.145   2.003 -0.0679  1.3090  1.9462
13406TIP3    H240162   0.735   4.176   2.027  0.5113 -0.9688  1.6335
13407TIP3   OH240163   3.408   5.460   0.049  0.3216 -0.0461  0.2162
13407TIP3    H140164   3.447   5.453  -0.038  0.3829  0.3824  0.2072
13407TIP3    H240165   3.376   5.551   0.054  0.7275  0.0684  0.8091
13408TIP3   OH240166   5.467   7.305   2.122  0.2979  0.4410 -0.6577
13408TIP3    H140167   5.496   7.242   2.057  0.9751 -1.7542  1.6223
13408TIP3    H240168   5.371   7.302   2.118  0.3237 -0.5810 -0.7620
13409TIP3   OH240169   7.129   4.624   1.806 -0.7035  0.6919  0.2112
13409TIP3    H140170   7.054   4.675   1.775 -0.7450  0.1699 -0.5830
13409TIP3    H240171   7.090   4.552   1.856 -0.7289  0.4753 -0.1197
13410TIP3   OH240172   0.118   7.147   1.747  0.5910 -0.4770  0.4841
13410TIP3    H140173   0.132   7.229   1.699 -1.4206 -1.2238 -1.5226
13410TIP3    H240174   0.064   7.094   1.689  0.0976 -2.4385  2.6116
13411TIP3   OH240175   7.895   5.581   1.591  0.3651  0.1759 -0.0896
13411TIP3    H140176   7.963   5.563   1.656  2.0310 -1.0001 -2.0083
13411TIP3    H240177   7.898   5.505   1.533 -2.5002  0.2038 -0.3937
13412TIP3   OH240178   3.269   2.303   0.848 -0.1141 -0.2445 -0.3497
13412TIP3    H140179   3.202   2.294   0.916  2.0596 -0.6637  1.8943
13412TIP3    H240180   3.290   2.397   0.848 -1.7643  0.1941 -2.2541
13413TIP3   OH240181   2.330   1.933   3.803 -0.0778  0.0329 -0.4336
13413TIP3    H140182   2.398   1.990   3.839  0.2095 -0.2896 -0.4615
13413TIP3    H240183   2.372   1.847   3.796  0.1453  0.2461 -2.2788
13414TIP3   OH240184   5.553   3.818   5.524 -0.1174 -0.2369 -0.8456
13414TIP3    H140185   5.505   3.893   5.560  0.3427  0.3063 -1.3375
13414TIP3    H240186   5.529   3.745   5.580  0.2254  0.4927  0.2735
13415TIP3   OH240187   5.389   6.197   0.407  0.3073  0.4849  0.1522
13415TIP3    H140188   5.379   6.105   0.432 -2.0703  1.4954  3.9354
13415TIP3    H240189   5.464   6.227   0.458  1.2808  0.6282 -1.3250
13416TIP3   OH240190   5.863   4.107   1.544 -0.3572  0.0234 -0.1641
13416TIP3    H140191   5.845   4.041   1.611 -0.2428  0.9279  0.7755
13416TIP3    H240192   5.848   4.191   1.588 -0.7177  0.6338 -1.4004
13417TIP3   OH240193   7.188   3.736   2.444 -0.2685 -0.1442  0.0407
13417TIP3    H140194   7.244   3.670   2.484  0.7486 -0.4657 -1.8172
13417TIP3    H240195   7.248   3.803   2.411 -0.9392 -0.3944 -1.8072
13418TIP3   OH240196   2.809   1.222   3.244 -0.1284  0.6323  0.2886
13418TIP3    H140197   2.742   1.276   3.202  1.3984  2.4351  0.0572
13418TIP3    H240198   2.870   1.201   3.173 -0.1403 -0.5308  0.6070
13419TIP3   OH240199   0.873   0.399   4.286  1.0097  0.2950 -0.1341
13419TIP3    H140200   0.830   0.404   4.371  1.5670 -1.2403  0.2713
13419TIP3    H240201   0.869   0.306   4.263  1.7044  0.5508 -1.3390
13420TIP3   OH240202   0.333   3.823   2.255 -0.0684  0.0009  0.1982
13420TIP3    H140203   0.369   3.884   2.320 -1.0959  0.9571 -0.1075
13420TIP3    H240204   0.395   3.750   2.255  0.5531  0.4876  1.4426
13421TIP3   OH240205   0.707   3.080   6.152 -0.1746  0.0926  0.1340
13421TIP3    H140206   0.632   3.133   6.179  0.4121  0.8240  0.3536
13421TIP3    H240207   0.749   3.132   6.084 -0.7557 -1.0319 -1.1312
13422TIP3   OH240208   0.519   1.896   1.349  0.2768  0.2574 -0.3628
13422TIP3    H140209   0.537   1.946   1.429 -0.5299  0.7201 -0.4622
13422TIP3    H240210   0.576   1.936   1.283  0.1780  0.5678 -0.2642
13423TIP3   OH240211   6.439   0.697   6.666 -0.4071  0.3522  0.6596
13423TIP3    H140212   6.518   0.657   6.703 -0.7086 -0.1527  0.7663
13423TIP3    H240213   6.368   0.639   6.693 -0.5251 -0.6635 -1.6285
13424TIP3   OH240214   0.999   5.572   3.728  0.1388 -0.2114  0.2169
13424TIP3    H140215   0.935   5.505   3.750  0.7279 -1.9003 -2.7437
13424TIP3    H240216   0.949   5.640   3.682  0.2432 -1.1105 -1.2989
13425TIP3   OH240217   3.757   7.260   1.564  0.6787  0.3128  0.1819
13425TIP3    H140218   3.728   7.205   1.636  1.8900  2.0916  2.1603
13425TIP3    H240219   3.682   7.314   1.542  0.7574  0.8777  1.2610
13426TIP3   OH240220   0.341   7.111   3.707 -0.1470  0.1719 -1.1151
13426TIP3    H140221   0.326   7.189   3.760 -0.0143  0.2902 -1.2464
13426TIP3    H240222   0.435   7.115   3.686  0.4637 -1.3704  0.9941
13427TIP3   OH240223   5.611   0.748   0.963 -0.1099 -0.0558  0.1355
13427TIP3    H140224   5.630   0.663   0.924  1.3626  0.1483  0.3832
13427TIP3    H240225   5.570   0.798   0.891 -1.3521 -1.0668  0.1002
13428TIP3   OH240226   2.359   2.889   5.576 -0.1352  0.6266  0.1865
13428TIP3    H140227   2.276   2.853   5.607 -0.3486 -0.3210 -1.3517
13428TIP3    H240228   2.394   2.937   5.650 -1.2170 -0.4243  1.4242
13429TIP3   OH240229   3.126   0.021   1.202 -0.0340  0.4410 -0.1847
13429TIP3    H140230   3.187   0.044   1.272 -0.6297 -1.4792  1.0231
13429TIP3    H240231   3.040   0.042   1.237 -0.2641  0.5322 -0.7984
13430TIP3   OH240232   1.990   3.550   4.675  0.1590 -0.7067 -0.0206
13430TIP3    H140233   1.971   3.499   4.754  0.0569 -1.0532 -0.2640
13430TIP3    H240234   2.015   3.636   4.707  0.0365 -0.8206  0.3875
13431TIP3   OH240235   0.374   4.068   5.698 -0.5542  0.2400 -0.0228
13431TIP3    H140236   0.360   4.118   5.617  0.6672  1.7341  0.6236
13431TIP3    H240237   0.316   3.993   5.691 -3.8076  2.5767 -0.3591
13432TIP3   OH240238   5.255   7.598   0.774  0.3595  0.6016  0.2379
13432TIP3    H140239   5.160   7.597   0.782  0.1950 -0.8298 -1.3056
13432TIP3    H240240   5.282   7.678   0.819 -1.4822  0.6308  1.3904
13433TIP3   OH240241   6.151   5.309   2.617 -0.8221  0.5778 -0.2499
13433TIP3    H140242   6.224   5.278   2.670 -0.0482 -1.6911 -2.4383
13433TIP3    H240243   6.076   5.256   2.644 -1.1826  1.4670  0.5543
13434TIP3   OH240244   3.554   7.262   3.619 -0.0076 -0.3081  0.1956
13434TIP3    H140245   3.496   7.218   3.558  2.1073 -0.5878 -1.7622
13434TIP3    H240246   3.597   7.192   3.667  0.8525 -0.2706 -0.4918
13435TIP3   OH240247   0.278   7.271   6.588 -0.1970 -0.2463  0.1716
13435TIP3    H140248   0.188   7.244   6.570 -0.1233 -0.2192 -0.2440
13435TIP3    H240249   0.310   7.206   6.650  0.0387 -1.2444 -0.9621
13436TIP3   OH240250   5.866   0.063   1.275 -0.2795  0.7268 -0.0592
13436TIP3    H140251   5.828   0.096   1.356  1.0806 -0.5118  1.1774
13436TIP3    H240252   5.876   0.139   1.219 -1.2510  1.6251  0.9566
13437TIP3   OH240253   3.975   5.986   5.475 -0.1142  0.0379 -0.2144
13437TIP3    H140254   3.946   5.957   5.389 -1.9956  0.2115  0.3274
13437TIP3    H240255   3.895   6.015   5.519  0.6871 -0.7507  1.8730
13438TIP3   OH240256   4.119   3.762   0.596 -0.1232 -0.3031  0.1260
13438TIP3    H140257   4.155   3.744   0.509  0.2755  0.5647  0.0999
13438TIP3    H240258   4.121   3.677   0.641 -0.3160 -0.7522 -0.7023
13439TIP3   OH240259   3.522   5.839   3.579 -0.0528 -0.0824  0.1198
13439TIP3    H140260   3.440   5.820   3.534  0.8362  0.0307 -1.6059
13439TIP3    H240261   3.586   5.779   3.541  0.2799 -1.6996  2.9540
13440TIP3   OH240262   4.758   4.867   1.831  0.2999 -0.7380 -0.0039
13440TIP3    H140263   4.682   4.925   1.839 -0.4326 -1.7155  0.3733
13440TIP3    H240264   4.792   4.860   1.920 -0.2221 -1.6501  0.1403
13441TIP3   OH240265   2.042   4.919   4.624  0.4197  0.3724 -0.0057
13441TIP3    H140266   2.057   5.010   4.597 -0.0942  0.6003  0.4716
13441TIP3    H240267   2.030   4.872   4.542 -1.1838  1.0709 -0.1987
13442TIP3   OH240268   3.618   2.832   1.703  0.1728 -0.4777 -0.7892
13442TIP3    H140269   3.569   2.796   1.777 -1.2940 -0.1073 -1.5501
13442TIP3    H240270   3.619   2.926   1.718 -1.2415 -0.2600 -1.8406
13443TIP3   OH240271   2.110   3.546   2.371 -0.0313  0.3739  0.6708
13443TIP3    H140272   2.090   3.639   2.376 -0.0676  0.2718  3.5243
13443TIP3    H240273   2.024   3.503   2.371 -0.0944  0.2698 -2.1918
13444TIP3   OH240274   5.386   0.461   2.352 -0.5268  0.4791  0.6157
13444TIP3    H140275   5.480   0.445   2.346 -0.5055  0.9187 -0.4041
13444TIP3    H240276   5.352   0.435   2.266 -0.9885  2.4844  0.1362
13445TIP3   OH240277   4.349   0.612   4.303 -0.6128 -0.1454 -0.0279
13445TIP3    H140278   4.387   0.691   4.264 -0.8324  1.1197  2.1621
13445TIP3    H240279   4.286   0.645   4.368  0.1384 -2.0888  1.7862
13446TIP3   OH240280   6.171   7.510   1.086 -0.1739 -0.2001 -0.5232
13446TIP3    H140281   6.244   7.568   1.106 -0.9763  2.2173 -3.9207
13446TIP3    H240282   6.206   7.447   1.023 -0.2399 -1.2107  0.4126
13447TIP3   OH240283   6.013   5.869   1.434 -0.0856  0.1796  0.0504
13447TIP3    H140284   5.958   5.827   1.368 -0.4918 -0.8994  1.0449
13447TIP3    H240285   5.994   5.963   1.424 -1.6595 -0.1134 -0.0390
13448TIP3   OH240286   7.357   7.457   0.427 -0.0971  0.0041  0.1827
13448TIP3    H140287   7.371   7.551   0.421 -2.9680  0.5055  0.3083
13448TIP3    H240288   7.409   7.430   0.504  2.3720  1.0285 -1.0020
13449TIP3   OH240289   5.937   4.610   3.357  0.1236  0.0696  0.0462
13449TIP3    H140290   5.974   4.695   3.334  0.0807  0.4291  1.2446
13449TIP3    H240291   5.996   4.575   3.424  0.3038 -0.9929 -0.6247
13450TIP3   OH240292   0.707   4.709   3.049 -0.4354  0.4330  0.3603
13450TIP3    H140293   0.628   4.688   3.098 -2.1750  2.2040 -1.5078
13450TIP3    H240294   0.676   4.733   2.962  2.2274  0.6597 -0.6138
13451TIP3   OH240295   6.578   1.704   2.299  0.1584 -0.1672 -0.0499
13451TIP3    H140296   6.518   1.778   2.297 -1.7658 -1.5605  1.7591
13451TIP3    H240297   6.639   1.724   2.370 -1.4366 -0.9895  1.6387
13452TIP3   OH240298   1.552   3.282   1.632 -0.4174  0.2632  0.5028
13452TIP3    H140299   1.609   3.316   1.564  0.9408 -0.2504  1.3513
13452TIP3    H240300   1.593   3.309   1.714 -1.2732 -0.3119  1.1364
13453TIP3   OH240301   5.740   1.820   0.447  0.1119  0.3036 -0.5794
13453TIP3    H140302   5.763   1.738   0.491  0.6509 -0.4660 -2.2049
13453TIP3    H240303   5.819   1.873   0.451 -0.2884  0.8362  0.6196
13454TIP3   OH240304   2.547   0.837   6.665 -0.1598 -0.1857 -0.5429
13454TIP3    H140305   2.587   0.908   6.615 -0.0110 -0.4994 -0.8784
13454TIP3    H240306   2.548   0.868   6.755 -1.2713  0.7726 -0.8358
13455TIP3   OH240307   0.985   2.282   5.915 -0.2886  0.4013  0.0056
13455TIP3    H140308   1.021   2.258   5.830  0.8435  3.0850 -0.3667
13455TIP3    H240309   1.052   2.255   5.978 -0.2066  0.2464 -0.1490
13456TIP3   OH240310   0.286   6.513   0.209  0.1984  0.0693 -0.0287
13456TIP3    H140311   0.349   6.516   0.281 -0.1250  0.4244  0.2416
13456TIP3    H240312   0.285   6.422   0.181  0.8520  0.0618 -0.0502
13457TIP3   OH240313   2.263   6.689   1.466  0.1842 -0.8267 -0.4257
13457TIP3    H140314   2.265   6.595   1.451 -0.5234 -1.1405  1.2261
13457TIP3    H240315   2.193   6.702   1.530  0.4243  0.7965 -0.4451
13458TIP3   OH240316   4.276   2.882   3.827  0.1859 -0.3679  0.0015
13458TIP3    H140317   4.234   2.799   3.851  1.3358 -1.1131 -0.4913
13458TIP3    H240318   4.261   2.890   3.733 -0.9076  0.5713  0.2428
13459TIP3   OH240319   7.875   2.864   3.808 -0.4072 -0.4522  0.2746
13459TIP3    H140320   7.946   2.858   3.744 -1.9272 -0.3443 -1.5221
13459TIP3    H240321   7.814   2.926   3.769 -1.4379 -0.4414  1.8323
13460TIP3   OH240322   8.141   7.685   1.257 -0.2944  0.2313 -0.3436
13460TIP3    H140323   8.097   7.770   1.263 -0.6240  0.0034  0.7726
13460TIP3    H240324   8.090   7.627   1.314  0.2515 -0.5734 -0.6445
13461TIP3   OH240325   8.251   3.473   2.813  0.4934 -0.2464  0.5406
13461TIP3    H140326   8.292   3.517   2.738 -1.5150  1.1966  0.2083
13461TIP3    H240327   8.294   3.510   2.889  0.3878  0.6585  0.1766
13462TIP3   OH240328   7.314   4.098   1.364 -0.3524 -0.4133  0.5587
13462TIP3    H140329   7.253   4.067   1.431 -1.3417 -0.2642 -0.2470
13462TIP3    H240330   7.275   4.179   1.331 -0.6370 -1.1869 -1.1564
13463TIP3   OH240331   2.147   5.343   6.121  0.0306  0.0773 -0.0310
13463TIP3    H140332   2.144   5.290   6.041  0.2069 -1.2949  0.8409
13463TIP3    H240333   2.062   5.389   6.122  0.5684  1.2073 -1.6871
13464TIP3   OH240334   6.553   1.039   2.312 -0.1622  0.1107 -0.0230
13464TIP3    H140335   6.622   1.025   2.248 -0.2543  1.7786 -0.5364
13464TIP3    H240336   6.473   1.046   2.260 -0.5012 -0.2458  0.4375
13465TIP3   OH240337   2.000   5.387   0.175 -0.1064 -0.1637 -0.5373
13465TIP3    H140338   2.083   5.343   0.188 -0.4091 -0.4101  0.6133
13465TIP3    H240339   2.020   5.480   0.184  0.5429  0.0063 -3.0298
13466TIP3   OH240340   8.231   7.842   3.289 -0.1225 -0.2089 -0.0441
13466TIP3    H140341   8.156   7.866   3.235 -0.3859 -0.6009  0.1481
13466TIP3    H240342   8.215   7.751   3.314  2.1969 -1.6286 -3.0778
13467TIP3   OH240343   0.122   1.505   0.870  0.4760 -0.2544 -0.1880
13467TIP3    H140344   0.194   1.498   0.933 -1.2258  2.4185  2.2845
13467TIP3    H240345   0.114   1.599   0.853 -1.7025 -0.5723 -1.2394
13468TIP3   OH240346   0.633   6.122   1.253  1.0351 -0.0361  0.0416
13468TIP3    H140347   0.556   6.096   1.304  0.8802  1.5985  0.6872
13468TIP3    H240348   0.599   6.130   1.163  0.6917 -0.3058  0.1423
13469TIP3   OH240349   8.261   1.681   2.029 -0.9012 -0.4156  0.2028
13469TIP3    H140350   8.197   1.626   2.073 -0.2455  0.0593  1.8261
13469TIP3    H240351   8.216   1.711   1.949 -1.8383 -1.9342  0.1132
13470TIP3   OH240352   7.471   0.157   0.250  0.1225  0.6282  0.0971
13470TIP3    H140353   7.521   0.239   0.248  1.5790 -0.2311  0.4497
13470TIP3    H240354   7.496   0.112   0.170  1.9540 -0.9449  1.4609
13471TIP3   OH240355   6.352   1.320   5.541 -0.1203  0.1410  0.1515
13471TIP3    H140356   6.411   1.388   5.573 -0.1007 -0.0097  0.4382
13471TIP3    H240357   6.408   1.262   5.489 -0.1653  0.4236 -0.2118
13472TIP3   OH240358   7.415   7.011   5.920  0.1232 -0.3380  0.1058
13472TIP3    H140359   7.347   6.952   5.887 -0.0708  1.0141 -2.1086
13472TIP3    H240360   7.497   6.965   5.901 -0.0701 -0.4963 -0.3859
13473TIP3   OH240361   3.177   2.503   2.335  0.0043 -0.5948 -0.3870
13473TIP3    H140362   3.266   2.517   2.369  0.6895 -0.4227 -2.1595
13473TIP3    H240363   3.189   2.450   2.257 -1.5529 -1.2662 -0.2100
13474TIP3   OH240364   2.132   7.661   4.860  0.0229 -0.2430  0.1329
13474TIP3    H140365   2.189   7.677   4.785  1.7310  1.6240  1.6937
13474TIP3    H240366   2.059   7.723   4.848  1.1756  1.3241  0.7918
13475TIP3   OH240367   6.030   5.327   1.551 -0.2437  0.2340  0.0438
13475TIP3    H140368   6.097   5.388   1.582  0.8171  0.0261 -1.6765
13475TIP3    H240369   5.983   5.300   1.630  0.3538  1.9705  1.0513
13476TIP3   OH240370   0.084   1.446   3.789 -0.3124  0.3194  0.0103
13476TIP3    H140371   0.149   1.409   3.729  0.2082 -0.6689  1.1513
13476TIP3    H240372   0.003   1.397   3.771  0.3382 -1.3718  1.4228
13477TIP3   OH240373   5.810   4.958   4.967  0.0345  0.0859 -0.2883
13477TIP3    H140374   5.833   5.046   4.938 -1.6408  0.7582  0.2686
13477TIP3    H240375   5.714   4.958   4.968  0.0142 -1.2150  1.2905
13478TIP3   OH240376   0.605   0.108  -0.008 -0.5145 -0.1833  0.5674
13478TIP3    H140377   0.683   0.147  -0.048 -1.0599 -0.7763 -1.1733
13478TIP3    H240378   0.606   0.139   0.083  2.1966 -0.8805  0.8370
13479TIP3   OH240379   4.445   1.338   5.707 -0.2927 -0.1806 -0.3008
13479TIP3    H140380   4.425   1.250   5.677  1.2675  0.2933 -3.0633
13479TIP3    H240381   4.470   1.386   5.628 -3.2761  3.4736  0.6336
13480TIP3   OH240382   6.989   2.939   5.880 -0.4685  1.1436 -0.1988
13480TIP3    H140383   6.960   2.959   5.969 -0.1821  1.7469 -0.2381
13480TIP3    H240384   7.047   3.011   5.857 -0.9630  1.2733 -1.0839
13481TIP3   OH240385   6.399   6.228   1.431  0.5844 -0.4913  0.3894
13481TIP3    H140386   6.377   6.141   1.464  0.7972 -0.3418  0.9375
13481TIP3    H240387   6.445   6.270   1.503  1.2381 -0.2238 -0.1596
13482TIP3   OH240388   2.218   2.065   6.620 -0.3149  0.2801 -0.0245
13482TIP3    H140389   2.155   2.101   6.558 -0.9373 -1.1867 -0.2781
13482TIP3    H240390   2.302   2.102   6.593 -0.5869 -0.2597 -1.6872
13483TIP3   OH240391   1.521   4.038   2.303 -0.0378  0.3310  0.4939
13483TIP3    H140392   1.504   4.126   2.269 -1.4061 -0.5545 -1.2211
13483TIP3    H240393   1.611   4.020   2.278  1.1104  2.0819  2.9173
13484TIP3   OH240394   6.342   6.397   1.653 -0.4184  0.1307  0.5670
13484TIP3    H140395   6.438   6.407   1.651 -0.4412  0.2668  0.1113
13484TIP3    H240396   6.311   6.446   1.577 -0.9035  0.6039  1.0598
13485TIP3   OH240397   7.489   1.698   1.122 -0.1342  0.1692  0.3141
13485TIP3    H140398   7.460   1.770   1.178  0.2653 -0.8408  1.8752
13485TIP3    H240399   7.432   1.625   1.145  0.4179 -0.4346 -0.1848
13486TIP3   OH240400   3.874   7.230   1.861 -0.2452  0.8127 -0.1011
13486TIP3    H140401   3.796   7.270   1.900  0.3164  1.0009  0.8597
13486TIP3    H240402   3.898   7.289   1.789  0.2345  1.9045  0.9347
13487TIP3   OH240403   7.113   5.018   3.982 -0.4220 -0.4397  0.1213
13487TIP3    H140404   7.081   4.961   3.912  0.6128 -1.7208  0.6384
13487TIP3    H240405   7.101   4.966   4.062  2.7363 -1.0029  0.3522
13488TIP3   OH240406   4.546   1.359   6.752 -0.2141  0.1086 -0.1983
13488TIP3    H140407   4.455   1.371   6.725 -0.0686  0.5980 -0.4816
13488TIP3    H240408   4.541   1.340   6.846 -0.6300 -0.2569 -0.2929
13489TIP3   OH240409   3.042   7.077   4.935  0.1449 -0.2313  0.5374
13489TIP3    H140410   3.077   7.046   4.851 -0.7958  1.2311 -0.4430
13489TIP3    H240411   2.949   7.056   4.931 -0.0334  0.4654  0.9177
13490TIP3   OH240412   7.838   7.558   1.242 -0.0519 -0.0361  0.4830
13490TIP3    H140413   7.750   7.581   1.271  0.0063 -0.4755  1.0387
13490TIP3    H240414   7.830   7.543   1.148 -0.5258  0.1221  0.4977
13491TIP3   OH240415   3.169   4.002   3.334  0.1954 -0.7087  0.0341
13491TIP3    H140416   3.206   4.060   3.267 -2.3816  2.4382  1.0702
13491TIP3    H240417   3.080   3.986   3.304 -0.3595 -0.9251  1.7003
13492TIP3   OH240418   6.899   2.624   6.733 -0.1045  0.2024  0.0739
13492TIP3    H140419   6.980   2.583   6.761 -0.5662  0.1910  1.4865
13492TIP3    H240420   6.900   2.619   6.638  1.8219  0.7506  0.0349
13493TIP3   OH240421   2.801   0.770   4.074 -0.0071 -0.0889 -0.2861
13493TIP3    H140422   2.803   0.859   4.039 -0.6652 -0.0346 -0.2043
13493TIP3    H240423   2.760   0.718   4.005  0.9341 -0.4534 -0.5831
13494TIP3   OH240424   3.955   6.100   5.124 -0.2173 -0.0751  0.4947
13494TIP3    H140425   3.934   6.179   5.174  0.6472 -0.2895  1.2083
13494TIP3    H240426   3.930   6.028   5.181 -4.5000 -0.4827 -1.5116
13495TIP3   OH240427   6.472   6.543   5.440 -0.5329  0.4903 -0.2639
13495TIP3    H140428   6.384   6.580   5.441 -0.3283  0.9878  0.6474
13495TIP3    H240429   6.524   6.607   5.391 -0.9895 -0.6309 -2.3298
13496TIP3   OH240430   5.721   3.556   1.297 -0.1072  0.0152 -0.0306
13496TIP3    H140431   5.655   3.622   1.316  0.5132  0.1982  1.6249
13496TIP3    H240432   5.723   3.500   1.375  2.2620  0.5294  0.3525
13497TIP3   OH240433   4.369   4.520   2.442  0.2717 -0.1019 -0.3173
13497TIP3    H140434   4.406   4.455   2.503 -0.9412 -0.0362  0.5151
13497TIP3    H240435   4.287   4.481   2.412  1.2384 -0.5127 -2.6155
13498TIP3   OH240436   2.131   0.707   3.781  0.2540  0.0036 -0.6896
13498TIP3    H140437   2.041   0.706   3.814  0.4827  1.7681  0.0837
13498TIP3    H240438   2.179   0.650   3.841 -0.1808 -0.2892 -0.6142
13499TIP3   OH240439   6.588   3.669   2.634  0.2358 -0.6952 -0.0992
13499TIP3    H140440   6.494   3.658   2.620  0.1857  0.2946 -0.5822
13499TIP3    H240441   6.595   3.706   2.722  0.0532  0.8846 -0.7224
13500TIP3   OH240442   3.870   0.284   1.986  0.3051 -0.2761 -0.1638
13500TIP3    H140443   3.806   0.269   2.056  1.9926  0.0718  1.5270
13500TIP3    H240444   3.832   0.355   1.934 -0.9133 -0.4316  0.4828
13501TIP3   OH240445   4.545   3.487   4.035 -0.0424 -0.8761  0.4915
13501TIP3    H140446   4.524   3.447   3.951  0.4671 -0.8438  0.3420
13501TIP3    H240447   4.641   3.491   4.036 -0.0720  0.0491  0.6432
13502TIP3   OH240448   6.868   0.631   2.385  0.2032  0.2555  0.4929
13502TIP3    H140449   6.836   0.645   2.475  1.7954  0.0361  1.1340
13502TIP3    H240450   6.815   0.690   2.331  1.5554  3.1602  2.0655
13503TIP3   OH240451   1.354   2.280   1.246  0.1403  0.0197  0.0293
13503TIP3    H140452   1.379   2.370   1.221 -0.8860  0.6515  1.1747
13503TIP3    H240453   1.324   2.240   1.165  2.0400  0.1924 -0.8073
13504TIP3   OH240454   1.133   5.281   2.709 -0.3978  0.5090  0.2503
13504TIP3    H140455   1.127   5.367   2.667 -0.5321  0.1461 -0.4920
13504TIP3    H240456   1.222   5.251   2.689 -0.8944 -0.2455 -0.9597
13505TIP3   OH240457   7.111   5.489   3.941  0.2084 -0.2376  0.0185
13505TIP3    H140458   7.120   5.571   3.892 -0.4662 -0.1333  0.0536
13505TIP3    H240459   7.125   5.421   3.876 -0.3693 -0.0953 -0.2658
13506TIP3   OH240460   3.508   5.120   4.191  0.0120  0.4439 -0.9816
13506TIP3    H140461   3.441   5.062   4.153 -1.3840  1.4312 -0.1498
13506TIP3    H240462   3.479   5.208   4.166  0.8725  0.9051 -0.3905
13507TIP3   OH240463   6.057   7.294   0.594 -0.0072 -0.3314 -0.7915
13507TIP3    H140464   6.133   7.267   0.543  0.4003  2.1632 -1.6436
13507TIP3    H240465   6.015   7.212   0.620  1.5372 -1.7365 -2.4610
13508TIP3   OH240466   2.019   1.968   2.803  0.7394  0.2996  0.1280
13508TIP3    H140467   1.967   2.018   2.740  0.4580  2.4075  1.9121
13508TIP3    H240468   2.104   1.958   2.760  0.8566  2.5198 -0.2912
13509TIP3   OH240469   0.409   7.015   4.371 -0.2612 -0.1097  0.6063
13509TIP3    H140470   0.330   7.058   4.404  0.7406  0.7706  1.9803
13509TIP3    H240471   0.377   6.955   4.303 -1.7538  2.5728 -1.2266
13510TIP3   OH240472   6.282   5.414   5.118  0.6086  0.1125 -0.2180
13510TIP3    H140473   6.254   5.323   5.122 -0.3077  0.4208  1.1743
13510TIP3    H240474   6.276   5.445   5.208 -2.2675  2.4331 -1.0373
13511TIP3   OH240475   4.016   6.590   1.688  0.7650 -0.6691  0.1491
13511TIP3    H140476   4.073   6.602   1.764 -0.8841  1.3209  1.1597
13511TIP3    H240477   3.931   6.622   1.716  0.0413 -0.0022 -2.4989
13512TIP3   OH240478   2.334   2.263   5.449 -0.2820 -0.2122 -0.2438
13512TIP3    H140479   2.404   2.319   5.415 -0.2939 -0.3951 -0.5728
13512TIP3    H240480   2.288   2.231   5.371 -0.8274  0.0233 -0.0247
13513TIP3   OH240481   3.601   3.209   2.466  0.1644 -0.1355  0.3631
13513TIP3    H140482   3.640   3.274   2.408 -0.3022 -0.5093 -0.4022
13513TIP3    H240483   3.510   3.204   2.437 -0.8998  1.7640  3.0477
13514TIP3   OH240484   4.569   7.372   2.396 -0.0028 -0.4403  0.2937
13514TIP3    H140485   4.617   7.350   2.317  1.6187  1.1065  0.7891
13514TIP3    H240486   4.630   7.425   2.448 -1.7805  0.4762  1.5657
13515TIP3   OH240487   8.141   6.088   4.611  0.1019 -0.4547  0.2043
13515TIP3    H140488   8.140   6.175   4.571 -0.9345 -0.1509  0.8601
13515TIP3    H240489   8.234   6.069   4.624  0.4160 -0.0712 -1.2489
13516TIP3   OH240490   8.217   7.376   5.045  0.3416 -0.1244  0.4270
13516TIP3    H140491   8.267   7.454   5.069  0.6560 -0.4639  0.8816
13516TIP3    H240492   8.196   7.389   4.952  0.4440  0.4701  0.4844
13517TIP3   OH240493   2.715   1.034   4.321 -0.2630 -0.1909 -0.0094
13517TIP3    H140494   2.771   0.969   4.363 -1.8560 -1.4065  0.3312
13517TIP3    H240495   2.637   1.037   4.376 -1.3994 -0.0844 -1.5733
13518TIP3   OH240496   2.574   6.117   2.439  0.1379  0.1329  0.2394
13518TIP3    H140497   2.669   6.117   2.430  0.2626  0.6534  1.4087
13518TIP3    H240498   2.547   6.031   2.405  0.6801  1.1108 -2.9598
13519TIP3   OH240499   6.144   5.507   3.680  0.0383 -0.0512 -0.1027
13519TIP3    H140500   6.049   5.509   3.676  0.0045  2.8449 -0.3182
13519TIP3    H240501   6.166   5.556   3.759  1.3067  1.5284 -1.3497
13520TIP3   OH240502   3.539   1.006   2.520 -0.0127 -0.1415 -0.4849
13520TIP3    H140503   3.467   1.065   2.542 -0.1722 -0.5475  0.0949
13520TIP3    H240504   3.536   0.938   2.587  1.6507  0.4672  0.2591
13521TIP3   OH240505   2.082   5.883   4.971 -0.1204  0.2608 -0.0848
13521TIP3    H140506   2.069   5.970   5.008  0.6273 -0.2471  1.5189
13521TIP3    H240507   2.172   5.884   4.938  0.0914 -0.0430  0.4539
13522TIP3   OH240508   2.053   3.831   2.401 -0.2232 -0.3238 -0.2391
13522TIP3    H140509   1.965   3.830   2.439 -0.1375 -1.8136 -0.0185
13522TIP3    H240510   2.098   3.902   2.448 -1.5018  0.9779 -0.8890
13523TIP3   OH240511   6.891   1.747   1.714 -0.7674 -0.1659  0.1768
13523TIP3    H140512   6.943   1.725   1.638  1.4525  3.0923  0.5517
13523TIP3    H240513   6.874   1.663   1.758 -1.8750 -2.1033 -3.5723
13524TIP3   OH240514   5.916   2.690   6.061 -0.9815  0.2273  0.2180
13524TIP3    H140515   5.932   2.775   6.102  0.8206  0.1568 -0.2701
13524TIP3    H240516   5.942   2.626   6.128 -0.4485  0.0837 -0.1280
13525TIP3   OH240517   2.150   4.028   2.582 -0.9050 -0.8341  0.2627
13525TIP3    H140518   2.221   4.059   2.526 -1.1507  1.2328  1.0336
13525TIP3    H240519   2.187   4.025   2.670 -0.6126 -3.7909  0.1553
13526TIP3   OH240520   6.471   4.096   1.663  0.1841  0.4089  0.3212
13526TIP3    H140521   6.562   4.065   1.657  0.1111  0.1713  0.4320
13526TIP3    H240522   6.428   4.059   1.586  0.0697  0.1423  0.5119
13527TIP3   OH240523   3.664   5.666   4.003 -0.3164 -0.5934  0.0527
13527TIP3    H140524   3.668   5.624   4.089  0.9796 -2.9174 -1.0640
13527TIP3    H240525   3.753   5.699   3.988 -0.3838 -0.7023 -0.6315
13528TIP3   OH240526   8.118   4.321   6.353  0.5274 -0.3191  0.2939
13528TIP3    H140527   8.121   4.338   6.259  0.0819  0.7439  0.4591
13528TIP3    H240528   8.038   4.270   6.366 -0.3345  0.9916  0.2968
13529TIP3   OH240529   2.602   1.478   6.207  0.7064 -0.4130  0.0142
13529TIP3    H140530   2.695   1.495   6.192  0.8107 -0.4876  0.5625
13529TIP3    H240531   2.601   1.394   6.252  0.4208  0.0200  0.8179
13530TIP3   OH240532   0.857   3.323   4.383 -0.3083 -0.4147  0.1471
13530TIP3    H140533   0.923   3.388   4.357  0.7842 -2.1607 -1.7231
13530TIP3    H240534   0.798   3.371   4.442  1.9925  1.5230  1.0595
13531TIP3   OH240535   7.933   2.953   2.307  0.1418 -0.1561  0.1062
13531TIP3    H140536   8.017   2.955   2.354  0.2176  0.5844 -0.0497
13531TIP3    H240537   7.958   2.942   2.216  0.1835  1.6610 -0.1506
13532TIP3   OH240538   7.969   7.003   5.937  0.1987  0.0640 -0.3505
13532TIP3    H140539   8.024   7.052   5.876  1.6117  0.1114  0.8965
13532TIP3    H240540   7.924   7.070   5.988  0.8573  0.0654  0.2420
13533TIP3   OH240541   1.124   1.059   5.050  0.1628 -0.3065  0.2631
13533TIP3    H140542   1.070   1.120   5.100 -0.9934 -1.7588  0.8903
13533TIP3    H240543   1.143   0.988   5.111 -0.1580 -1.4908 -0.9476
13534TIP3   OH240544   2.340   2.983   3.937  0.1056 -0.1938 -0.3363
13534TIP3    H140545   2.359   2.911   3.997 -1.8949 -1.7206 -1.4291
13534TIP3    H240546   2.392   2.964   3.859  0.2140  0.0020 -0.3115
13535TIP3   OH240547   0.691   3.591   6.298 -0.3240  0.5263  0.4135
13535TIP3    H140548   0.742   3.599   6.379 -0.8088  0.5745  0.7128
13535TIP3    H240549   0.665   3.681   6.277 -0.1465  0.5213  0.1693
13536TIP3   OH240550   2.988   3.330   2.481  0.0981 -0.5641 -0.2153
13536TIP3    H140551   2.905   3.289   2.505  0.0858 -0.1370  0.5028
13536TIP3    H240552   3.011   3.291   2.397 -1.6112  0.4525 -1.2042
13537TIP3   OH240553   0.582   0.285   1.946  0.2931  0.0521  0.6864
13537TIP3    H140554   0.528   0.251   1.875  0.1848 -0.7587  1.1470
13537TIP3    H240555   0.588   0.213   2.008  3.6819 -0.7012 -0.3205
13538TIP3   OH240556   6.049   0.150   6.087  0.5335 -0.2827  0.1893
13538TIP3    H140557   6.039   0.055   6.084 -0.8981 -0.2534  2.0222
13538TIP3    H240558   6.003   0.176   6.167 -1.7104  2.2538 -1.7244
13539TIP3   OH240559   8.181   6.547   0.861 -0.0587  0.3861 -0.2470
13539TIP3    H140560   8.200   6.595   0.781  1.3515 -0.2260 -0.3234
13539TIP3    H240561   8.204   6.608   0.931  3.1871 -0.5462 -0.3289
13540TIP3   OH240562   8.081   0.511   0.788  0.0670  0.6569 -0.2872
13540TIP3    H140563   8.015   0.525   0.719  0.4285  0.6804 -0.6316
13540TIP3    H240564   8.151   0.463   0.744  1.0508  2.1080 -0.3687
13541TIP3   OH240565   3.664   5.215   0.463 -0.1982  0.7234  1.1066
13541TIP3    H140566   3.671   5.219   0.367  1.8951 -1.2753  1.0773
13541TIP3    H240567   3.570   5.215   0.480 -0.6194  1.2995 -0.9258
13542TIP3   OH240568   2.551   2.074   3.326  0.2174  0.0061  0.0631
13542TIP3    H140569   2.511   2.153   3.362 -1.0333 -1.1996  1.4171
13542TIP3    H240570   2.617   2.107   3.265 -0.7574  2.0835  0.0413
13543TIP3   OH240571   1.337   2.555   6.180  0.0630 -0.1373  0.1828
13543TIP3    H140572   1.413   2.513   6.221  1.0342  0.2979 -1.1027
13543TIP3    H240573   1.308   2.619   6.245  1.5421  0.5243  0.2456
13544TIP3   OH240574   8.177   4.651   1.033  0.1433  0.0760  0.8597
13544TIP3    H140575   8.150   4.564   1.064  0.2839 -1.3368 -2.5331
13544TIP3    H240576   8.116   4.671   0.963  1.4952  1.6842  0.0743
13545TIP3   OH240577   5.442   1.991   4.072  0.3390  0.0550 -0.6811
13545TIP3    H140578   5.536   1.988   4.087  0.4301 -0.0490 -1.2526
13545TIP3    H240579   5.424   1.914   4.018 -0.2077 -0.4125  0.1435
13546TIP3   OH240580   1.289   6.911   4.106  0.3017  0.1288  0.3023
13546TIP3    H140581   1.294   6.845   4.175 -1.3387  0.9074  1.2127
13546TIP3    H240582   1.302   6.861   4.025 -0.1092 -1.1923  1.0157
13547TIP3   OH240583   2.130   7.750   4.155 -0.2077 -0.2876  0.5509
13547TIP3    H140584   2.090   7.730   4.070 -0.8668 -1.6711  1.1612
13547TIP3    H240585   2.200   7.685   4.164 -0.7617 -0.7759  1.4779
13548TIP3   OH240586   2.243   5.214   2.148 -0.0912  0.5470 -0.3157
13548TIP3    H140587   2.209   5.286   2.201 -1.2892  0.5525 -1.0428
13548TIP3    H240588   2.238   5.246   2.058 -0.2813 -0.2857 -0.6146
13549TIP3   OH240589   8.243   2.513   5.819  0.2849  0.2232 -0.2015
13549TIP3    H140590   8.310   2.445   5.815 -0.8543 -0.8718 -1.4963
13549TIP3    H240591   8.163   2.470   5.790 -0.5747  2.0111 -0.6199
13550TIP3   OH240592   0.654   7.844   3.190 -0.6341 -0.6364  0.1555
13550TIP3    H140593   0.697   7.759   3.175  1.7030  0.4056  0.5944
13550TIP3    H240594   0.574   7.822   3.237  1.2954 -2.4646  2.9094
13551TIP3   OH240595   3.282   2.560   6.744  0.1764  0.4780  0.1252
13551TIP3    H140596   3.377   2.568   6.754  0.1052  0.6652  0.6694
13551TIP3    H240597   3.251   2.651   6.743 -0.0469  0.4049  0.4442
13552TIP3   OH240598   7.538   6.022   6.342 -0.2242 -0.4542  0.3272
13552TIP3    H140599   7.453   5.992   6.374 -0.6348 -0.0583 -0.3658
13552TIP3    H240600   7.516   6.083   6.272  0.6534 -1.1582 -0.5790
13553TIP3   OH240601   6.938   6.076   0.760  0.7019 -0.0501 -0.5361
13553TIP3    H140602   6.901   6.050   0.844  0.8203 -1.6126 -0.9229
13553TIP3    H240603   6.867   6.122   0.715  0.9710  1.7459  0.8013
13554TIP3   OH240604   4.435   2.120   1.903 -0.6806  0.0817  0.4214
13554TIP3    H140605   4.384   2.074   1.836  0.0252 -0.3052  0.1463
13554TIP3    H240606   4.369   2.155   1.963 -1.3036  0.1582 -0.2955
13555TIP3   OH240607   3.832   2.029   6.344  0.3200 -0.1706 -0.1085
13555TIP3    H140608   3.790   2.021   6.430 -1.1906 -0.4155 -0.8249
13555TIP3    H240609   3.834   2.123   6.327  0.3739 -0.1363  0.0858
13556TIP3   OH240610   6.255   5.618   1.271  0.1140  0.9964 -0.4610
13556TIP3    H140611   6.350   5.613   1.263  0.0996  0.3206 -0.2653
13556TIP3    H240612   6.239   5.701   1.315  0.6894  0.5435  0.6323
13557TIP3   OH240613   0.701   2.352   5.729  0.0115 -0.1213  0.0745
13557TIP3    H140614   0.725   2.324   5.641 -0.4356 -1.4040  0.3383
13557TIP3    H240615   0.721   2.446   5.731  1.9846 -0.4715 -0.7221
13558TIP3   OH240616   0.189   6.974   3.380 -0.0105 -0.7110  0.4638
13558TIP3    H140617   0.278   6.991   3.413  0.0581 -2.0669  1.0721
13558TIP3    H240618   0.136   7.046   3.415  0.8340  0.0965  0.1237
13559TIP3   OH240619   6.554   4.636   1.706  0.5218  0.3364 -0.1037
13559TIP3    H140620   6.481   4.614   1.647 -0.4281 -0.6014  1.3456
13559TIP3    H240621   6.632   4.607   1.659 -0.0446  1.0500 -1.5538
13560TIP3   OH240622   1.467   1.290   3.171 -0.7108 -0.5151 -0.0619
13560TIP3    H140623   1.422   1.293   3.256  0.7840 -0.9874  0.7909
13560TIP3    H240624   1.402   1.321   3.108 -1.5280  0.8996  1.4024
13561TIP3   OH240625   3.242   1.616   0.971 -0.8068 -0.2287 -0.4508
13561TIP3    H140626   3.173   1.578   0.916  0.5012 -0.6528 -1.8509
13561TIP3    H240627   3.216   1.593   1.060 -0.7370 -3.3799 -1.1465
13562TIP3   OH240628   0.984   6.757   3.823 -0.3853 -0.0375 -0.5816
13562TIP3    H140629   0.956   6.848   3.835  1.1132  0.3351  0.4133
13562TIP3    H240630   1.022   6.755   3.736  1.3938  0.8324  0.1295
13563TIP3   OH240631   4.687   6.860   5.121 -0.5520  0.0455  0.7473
13563TIP3    H140632   4.727   6.772   5.123 -0.9223 -0.1201  1.2723
13563TIP3    H240633   4.739   6.911   5.184  1.3830  0.9984 -1.4727
13564TIP3   OH240634   4.782   7.742   2.972  0.1104  0.1205 -0.5649
13564TIP3    H140635   4.848   7.804   2.941 -0.2848  1.5063  1.2251
13564TIP3    H240636   4.828   7.686   3.034 -0.3780  1.2173  0.8397
13565TIP3   OH240637   3.823   5.387   2.983 -0.0723 -0.1293 -0.3575
13565TIP3    H140638   3.743   5.440   2.975  0.4579  0.8412  0.5669
13565TIP3    H240639   3.844   5.363   2.893 -0.9807  0.2437 -0.6873
13566TIP3   OH240640   4.959   1.535   0.561  0.4059 -0.7144  0.5430
13566TIP3    H140641   4.923   1.484   0.634 -0.5042 -2.2116 -0.8789
13566TIP3    H240642   4.882   1.556   0.507  1.1697 -0.4529 -0.4742
13567TIP3   OH240643   7.030   1.981   3.754  0.8450 -0.7237 -0.1721
13567TIP3    H140644   7.054   2.039   3.681 -0.3373  0.5713  0.4113
13567TIP3    H240645   6.995   2.040   3.820 -2.1967 -2.2461 -0.2735
13568TIP3   OH240646   4.916   3.803   3.352 -0.1054 -0.0957 -0.0221
13568TIP3    H140647   4.830   3.792   3.391 -0.3070 -1.5364 -0.7923
13568TIP3    H240648   4.946   3.889   3.383 -2.1801  0.8523 -0.4650
13569TIP3   OH240649   4.750   6.611   5.234  0.3238  0.7477 -0.2343
13569TIP3    H140650   4.663   6.572   5.219  0.6033 -0.6395  1.4792
13569TIP3    H240651   4.795   6.600   5.150 -1.2167  1.7543 -1.2450
13570TIP3   OH240652   4.315   5.057   6.571  0.0736 -0.8888 -0.1443
13570TIP3    H140653   4.401   5.040   6.610  0.1093 -1.5652 -0.5071
13570TIP3    H240654   4.257   5.070   6.646  0.1973 -1.8783  0.1345
13571TIP3   OH240655   0.726   6.531   6.281  0.2255  0.3422 -0.0265
13571TIP3    H140656   0.809   6.555   6.240 -0.1685  2.4733  0.3028
13571TIP3    H240657   0.670   6.504   6.208  0.1593  2.1958 -0.7200
13572TIP3   OH240658   3.040   5.921   1.947 -0.0441 -0.3816 -0.4237
13572TIP3    H140659   3.077   5.891   1.864 -0.2122 -0.2010 -0.5665
13572TIP3    H240660   3.116   5.938   2.003  0.0674 -0.5734 -0.5163
13573TIP3   OH240661   1.925   4.642   1.984 -0.1467  0.2268 -0.3362
13573TIP3    H140662   1.997   4.607   1.931  0.4835  0.8925  0.0574
13573TIP3    H240663   1.855   4.578   1.974  0.9649 -1.1604  0.3327
13574TIP3   OH240664   2.139   1.588   4.541 -0.4882  0.7917 -0.0313
13574TIP3    H140665   2.172   1.584   4.631  0.2508  0.2953 -0.3098
13574TIP3    H240666   2.085   1.509   4.532  0.1459  0.3829 -0.2854
13575TIP3   OH240667   2.745   3.473   3.293  0.3851 -0.0941 -0.3068
13575TIP3    H140668   2.742   3.411   3.220  0.1134 -0.8937  0.3817
13575TIP3    H240669   2.695   3.549   3.262 -0.7137 -0.8906 -0.5240
13576TIP3   OH240670   7.287   0.991   3.443 -0.3374  0.3657  0.1385
13576TIP3    H140671   7.342   1.028   3.375  0.6294  0.6778  1.0665
13576TIP3    H240672   7.202   0.978   3.401 -0.0695  1.5612 -0.8051
13577TIP3   OH240673   1.099   2.104   3.130 -0.1262  0.1974 -0.0229
13577TIP3    H140674   1.028   2.071   3.186  0.2551 -0.2083  0.2259
13577TIP3    H240675   1.066   2.187   3.097 -1.1517 -0.4593 -0.7308
13578TIP3   OH240676   2.292   6.808   2.151 -0.1650  0.1344 -0.3429
13578TIP3    H140677   2.241   6.888   2.138  0.6466  0.5296 -1.2165
13578TIP3    H240678   2.272   6.754   2.074  1.1076  0.5155 -0.9661
13579TIP3   OH240679   3.320   1.302   2.152 -0.3711 -0.3841  0.1028
13579TIP3    H140680   3.358   1.215   2.162  0.6866 -0.1743 -1.6520
13579TIP3    H240681   3.284   1.323   2.238  0.9732 -1.7990  1.0545
13580TIP3   OH240682   4.186   6.632   1.887 -0.0556  0.0657  0.0091
13580TIP3    H140683   4.143   6.556   1.926 -1.6056  0.4950 -0.8017
13580TIP3    H240684   4.199   6.693   1.959 -2.1587  0.5273  0.0342
13581TIP3   OH240685   0.150   2.764   0.806  0.3220  0.0859  0.5387
13581TIP3    H140686   0.120   2.675   0.788  4.0564 -0.9021 -1.9052
13581TIP3    H240687   0.138   2.811   0.724 -1.5116  1.9655  1.7674
13582TIP3   OH240688   4.578   4.647   1.306  0.8941  0.1407  0.4859
13582TIP3    H140689   4.532   4.709   1.363  1.4339  0.5245  0.5126
13582TIP3    H240690   4.532   4.655   1.222 -0.0500 -0.5915  0.9112
13583TIP3   OH240691   6.284   6.195   2.269  0.0359  0.2727 -0.2154
13583TIP3    H140692   6.196   6.229   2.288 -0.4644 -0.7142 -0.7295
13583TIP3    H240693   6.320   6.257   2.205 -1.3142 -0.7115 -2.0386
13584TIP3   OH240694   6.825   6.472   6.077  0.2197 -0.1879 -0.3059
13584TIP3    H140695   6.834   6.476   6.173  0.6583  0.2739 -0.3584
13584TIP3    H240696   6.731   6.485   6.062  0.2479  0.5290  0.0397
13585TIP3   OH240697   6.092   0.256   4.282 -0.0394  0.2855  0.2669
13585TIP3    H140698   6.019   0.201   4.309  0.3527 -1.5875 -2.1033
13585TIP3    H240699   6.168   0.220   4.329  0.0337 -0.5826 -0.4801
13586TIP3   OH240700   7.437   7.195   6.416 -0.0722 -0.4794  0.2061
13586TIP3    H140701   7.449   7.130   6.347 -0.5554 -0.2382 -0.1172
13586TIP3    H240702   7.342   7.202   6.425 -0.1321  1.6303 -1.1896
13587TIP3   OH240703   3.591   4.840   6.231 -0.5029 -0.3709 -0.2486
13587TIP3    H140704   3.660   4.839   6.164 -0.1826  1.4291  0.0151
13587TIP3    H240705   3.547   4.923   6.218 -0.5293 -0.0495  1.6948
13588TIP3   OH240706   3.720   0.763   6.329 -0.0853  0.3703  0.3672
13588TIP3    H140707   3.701   0.822   6.255  1.6464  0.4646 -0.0607
13588TIP3    H240708   3.766   0.819   6.392 -0.9908  0.1328  1.2589
13589TIP3   OH240709   5.084   5.722   2.519  0.4203 -0.2518 -0.0619
13589TIP3    H140710   5.150   5.662   2.486 -0.6022 -1.3295 -0.2230
13589TIP3    H240711   5.109   5.737   2.611  0.3761 -1.4098  0.1599
13590TIP3   OH240712   3.688   0.476   3.826  0.1186  0.0197  0.3597
13590TIP3    H140713   3.604   0.463   3.783 -0.6387  1.4849  1.2901
13590TIP3    H240714   3.683   0.424   3.906  0.7934 -1.2361 -0.3915
13591TIP3   OH240715   2.173   6.373   5.815  0.4822  0.2440 -0.2078
13591TIP3    H140716   2.221   6.448   5.849  0.4667  0.0453  0.2591
13591TIP3    H240717   2.136   6.404   5.733 -0.5042  1.1286  0.5442
13592TIP3   OH240718   3.677   3.061   5.654  0.2903  0.4502  0.1964
13592TIP3    H140719   3.698   2.985   5.600  1.8000  2.0531 -1.6152
13592TIP3    H240720   3.695   3.032   5.743 -1.3857 -1.9932 -0.1792
13593TIP3   OH240721   3.726   3.078   1.271  0.4977 -0.2576  0.2578
13593TIP3    H140722   3.787   3.128   1.326  1.7872 -1.1724 -0.3069
13593TIP3    H240723   3.770   3.069   1.187  0.0905 -1.9143  0.1836
13594TIP3   OH240724   2.575   4.281   5.753  0.4788 -0.3620  0.0151
13594TIP3    H140725   2.664   4.300   5.783  1.2238 -0.0925 -2.2276
13594TIP3    H240726   2.521   4.291   5.832  1.9472  2.8561  0.7823
13595TIP3   OH240727   6.575   2.429   0.834  0.8303 -0.1030 -0.4983
13595TIP3    H140728   6.525   2.383   0.902 -0.6064  0.2331 -1.2658
13595TIP3    H240729   6.636   2.364   0.801 -0.7054 -1.3212 -1.1027
13596TIP3   OH240730   2.732   6.071   0.105  0.3483 -0.3225  0.2232
13596TIP3    H140731   2.671   6.073   0.179  0.0251  0.7964 -0.0626
13596TIP3    H240732   2.686   6.022   0.037  0.4087 -0.8370  0.5441
13597TIP3   OH240733   3.203   6.981   6.027 -0.0832  0.2283  0.4346
13597TIP3    H140734   3.166   6.899   5.993 -1.0547  0.9040 -0.1841
13597TIP3    H240735   3.133   7.045   6.017  0.5478  1.0690  1.2285
13598TIP3   OH240736   4.796   7.116   3.955 -0.1422 -0.0685  0.5252
13598TIP3    H140737   4.745   7.043   3.922  0.2167 -0.0753 -0.0143
13598TIP3    H240738   4.751   7.194   3.922 -0.2845 -0.0536  0.7526
13599TIP3   OH240739   3.462   2.566   2.975  0.4045  0.2497  0.0145
13599TIP3    H140740   3.371   2.591   2.957  0.1916 -1.1650 -1.0273
13599TIP3    H240741   3.481   2.607   3.059 -0.8821  1.3583 -0.1974
13600TIP3   OH240742   6.647   7.321   6.171 -0.1448 -0.1800 -0.0517
13600TIP3    H140743   6.582   7.350   6.107 -0.0025  1.2507  0.4260
13600TIP3    H240744   6.606   7.245   6.213 -0.8368 -0.2651 -0.8415
13601TIP3   OH240745   5.028   5.329   1.544  0.0654  0.0397 -0.0434
13601TIP3    H140746   5.043   5.364   1.632 -0.0085  0.2766 -0.1232
13601TIP3    H240747   4.951   5.273   1.553 -0.9824  1.4021 -0.2984
13602TIP3   OH240748   2.815   0.734   5.386  0.3005  0.4233  0.0370
13602TIP3    H140749   2.810   0.654   5.334 -0.6853  0.0202  0.7224
13602TIP3    H240750   2.748   0.791   5.348 -0.0559  0.3285  0.5171
13603TIP3   OH240751   0.657   5.930   0.080  0.3181 -0.2381  0.2299
13603TIP3    H140752   0.715   5.913   0.154 -1.0405 -3.7103  0.7171
13603TIP3    H240753   0.635   5.843   0.047 -2.3619  1.0275 -1.6705
13604TIP3   OH240754   2.733   3.763   5.355 -0.4134  0.2451 -0.4766
13604TIP3    H140755   2.698   3.794   5.271  1.7144  2.1720 -0.7532
13604TIP3    H240756   2.787   3.688   5.331 -0.4486  0.2902 -0.7093
13605TIP3   OH240757   0.763   1.822   2.988 -0.6480  0.1348 -0.7871
13605TIP3    H140758   0.728   1.831   2.899  2.2084 -2.7108 -2.3977
13605TIP3    H240759   0.714   1.749   3.026  0.3475 -0.8120 -1.2981
13606TIP3   OH240760   4.171   7.476   3.173  0.0879  0.1852  0.0915
13606TIP3    H140761   4.254   7.496   3.216 -0.6729 -1.4684  2.5370
13606TIP3    H240762   4.127   7.416   3.233 -2.1157 -0.4061 -1.9749
13607TIP3   OH240763   1.351   7.603   6.179  0.3113 -0.5627 -0.4996
13607TIP3    H140764   1.388   7.676   6.129 -1.3697 -0.0606 -1.0877
13607TIP3    H240765   1.265   7.636   6.209 -0.1747 -2.0541 -0.1746
13608TIP3   OH240766   5.604   6.302   0.548 -0.1751  0.4870  0.2165
13608TIP3    H140767   5.676   6.321   0.488  0.1757  2.2894  1.1495
13608TIP3    H240768   5.635   6.332   0.633 -2.2943  2.0648  0.5087
13609TIP3   OH240769   4.586   0.114   5.580  0.7146  0.1757 -1.2960
13609TIP3    H140770   4.580   0.018   5.576 -0.7791  0.2522 -1.2289
13609TIP3    H240771   4.575   0.134   5.673 -0.9963  0.5083 -1.5438
13610TIP3   OH240772   7.280   4.239   0.993 -0.0792  0.5478  0.8627
13610TIP3    H140773   7.294   4.145   1.002 -0.1521  0.6704  2.3636
13610TIP3    H240774   7.209   4.247   0.928 -0.2330 -0.4278  0.9041
13611TIP3   OH240775   5.951   2.088   0.807 -0.1034  0.1799 -0.2857
13611TIP3    H140776   5.904   2.159   0.762 -1.8422 -0.5037  0.3403
13611TIP3    H240777   5.942   2.109   0.900  0.5828 -0.1441 -0.1387
13612TIP3   OH240778   5.094   6.228   4.344  0.3962  0.0688 -0.3741
13612TIP3    H140779   5.162   6.265   4.402  0.8839  0.0907 -0.9520
13612TIP3    H240780   5.021   6.211   4.403  1.2969 -1.0254  0.4782
13613TIP3   OH240781   5.111   5.534   3.863  0.2933 -0.2333 -0.4920
13613TIP3    H140782   5.082   5.610   3.913 -1.8900 -2.4152  1.8089
13613TIP3    H240783   5.183   5.568   3.809  0.2935  3.1390  1.3222
13614TIP3   OH240784   1.342   1.248   5.669  0.3239  0.2688  0.5043
13614TIP3    H140785   1.348   1.342   5.683  1.4615  0.1196  1.1793
13614TIP3    H240786   1.409   1.211   5.726 -1.8427 -1.1666  2.2766
13615TIP3   OH240787   2.163   0.294   6.604  0.4419  0.0835 -0.0854
13615TIP3    H140788   2.201   0.349   6.672 -0.1782 -0.4198  0.6780
13615TIP3    H240789   2.129   0.218   6.650  0.5245 -0.5435 -1.0297
13616TIP3   OH240790   4.501   4.563   2.213  0.2863  0.0829 -0.0984
13616TIP3    H140791   4.478   4.652   2.240  0.1027 -0.4138  1.4439
13616TIP3    H240792   4.529   4.519   2.293  2.4788 -0.6303 -1.1866
13617TIP3   OH240793   7.246   1.511   3.243  0.0918  0.2468 -0.2581
13617TIP3    H140794   7.164   1.479   3.280 -1.1260  1.4108 -1.7972
13617TIP3    H240795   7.311   1.498   3.312 -1.2471 -1.2986  0.7653
13618TIP3   OH240796   2.582   2.656   6.340 -0.6780  0.1438  0.0093
13618TIP3    H140797   2.571   2.618   6.253  0.0602  1.0533 -0.5040
13618TIP3    H240798   2.507   2.624   6.390 -0.5622 -1.2296 -0.6522
13619TIP3   OH240799   1.267   5.610   2.488  0.2665  0.4879 -0.1173
13619TIP3    H140800   1.333   5.546   2.513 -0.7900 -0.5556  0.1163
13619TIP3    H240801   1.185   5.573   2.521 -0.4424  1.7107 -0.4555
13620TIP3   OH240802   0.386   5.004  -0.002  0.1179 -0.1216 -0.2795
13620TIP3    H140803   0.296   5.026  -0.026  0.5229  0.1787 -1.6192
13620TIP3    H240804   0.379   4.962   0.083 -1.1949  0.7495  0.0726
13621TIP3   OH240805   0.143   0.983   6.175  0.2563  0.1860  0.5369
13621TIP3    H140806   0.203   1.045   6.216  2.1092  0.8731 -2.8518
13621TIP3    H240807   0.175   0.897   6.201  0.9761  0.5849  0.9938
13622TIP3   OH240808   1.217   4.448   4.494 -0.3641 -0.5514 -0.2883
13622TIP3    H140809   1.148   4.382   4.484 -0.5220 -0.2173 -1.6625
13622TIP3    H240810   1.179   4.512   4.554 -0.6839 -1.1043  0.1096
13623TIP3   OH240811   0.616   0.012   3.651  0.1556 -0.2114 -0.1332
13623TIP3    H140812   0.701   0.055   3.649  0.1916 -0.3086 -1.4303
13623TIP3    H240813   0.602  -0.009   3.744  1.9198 -0.9608  0.0034
13624TIP3   OH240814   7.750   2.253   1.737 -0.2539 -0.4212  0.3143
13624TIP3    H140815   7.677   2.285   1.685 -0.5036 -0.0401  0.8880
13624TIP3    H240816   7.712   2.186   1.794  0.1037 -1.1535 -0.2963
13625TIP3   OH240817   4.742   1.896   3.932 -0.1993  0.6893  0.0557
13625TIP3    H140818   4.679   1.844   3.982 -1.1303  2.7634  1.1659
13625TIP3    H240819   4.821   1.897   3.986 -0.4644  1.0995  0.4426
13626TIP3   OH240820   1.322   7.337   5.815 -0.0741 -0.1501 -0.0216
13626TIP3    H140821   1.295   7.251   5.786 -1.4481  0.3181 -0.2009
13626TIP3    H240822   1.258   7.397   5.777  0.9950  0.9843 -0.1127
13627TIP3   OH240823   6.987   0.675   5.234  0.2225 -0.2483 -0.0711
13627TIP3    H140824   7.069   0.722   5.241  0.5987 -0.7180 -1.1082
13627TIP3    H240825   6.939   0.719   5.164 -0.1559 -0.3447  0.1222
13628TIP3   OH240826   0.578   5.768   1.044  0.0464  0.5158 -0.0369
13628TIP3    H140827   0.629   5.792   1.121 -1.1627  1.3530  0.5359
13628TIP3    H240828   0.636   5.786   0.970  0.5322  1.5835  0.5901
13629TIP3   OH240829   7.598   0.129   1.414 -0.1068  0.1596 -0.3309
13629TIP3    H140830   7.574   0.057   1.472  1.3058 -0.2420 -0.2175
13629TIP3    H240831   7.682   0.160   1.447 -0.7414  1.9645 -0.3097
13630TIP3   OH240832   6.566   3.534   0.347  0.3140 -0.6230 -0.1905
13630TIP3    H140833   6.536   3.625   0.341  0.8577 -0.4711 -0.7462
13630TIP3    H240834   6.555   3.511   0.439  2.6987  0.8965  0.5658
13631TIP3   OH240835   2.588   7.174   1.212 -0.5781  0.1802  0.2408
13631TIP3    H140836   2.563   7.086   1.184  0.2972 -0.1077  0.3324
13631TIP3    H240837   2.677   7.185   1.179 -0.7904  1.1551 -0.0294
13632TIP3   OH240838   6.662   3.443   3.555  0.5010  0.2859  0.1603
13632TIP3    H140839   6.631   3.362   3.515  2.9078  0.5855 -2.6408
13632TIP3    H240840   6.595   3.508   3.534  0.6199 -0.0804 -1.5118
13633TIP3   OH240841   5.432   4.822   3.542  0.8401 -0.2684 -0.2465
13633TIP3    H140842   5.387   4.757   3.487  1.0454  0.5617 -1.4233
13633TIP3    H240843   5.403   4.801   3.631 -1.1309 -0.3824 -0.8509
13634TIP3   OH240844   7.020   3.322   1.271  0.1360 -0.1805 -0.0925
13634TIP3    H140845   6.929   3.353   1.272 -0.4753 -1.9083  0.1077
13634TIP3    H240846   7.023   3.255   1.339  1.3563 -0.7593 -0.6989
13635TIP3   OH240847   1.109   0.637   2.860 -0.3199 -0.1154 -0.6374
13635TIP3    H140848   1.048   0.682   2.801 -1.7062 -0.0266  0.8017
13635TIP3    H240849   1.076   0.656   2.948  1.0802 -1.1100  0.1436
13636TIP3   OH240850   3.941   2.504   0.691  0.5566  0.4319 -0.0210
13636TIP3    H140851   3.964   2.441   0.622 -0.8610 -1.8965  1.4662
13636TIP3    H240852   4.002   2.483   0.763 -0.5556  0.0204  0.8391
13637TIP3   OH240853   1.507   2.096   0.739 -0.5010 -0.2807 -0.3060
13637TIP3    H140854   1.509   2.038   0.663  2.5744  0.4316 -0.8989
13637TIP3    H240855   1.589   2.079   0.785 -1.8163  0.0442  2.3402
13638TIP3   OH240856   7.648   3.091   1.314 -0.8272 -0.5736 -0.2726
13638TIP3    H140857   7.713   3.030   1.278 -1.2447 -0.2322 -1.6817
13638TIP3    H240858   7.656   3.170   1.261 -1.9003 -0.2619 -0.0097
13639TIP3   OH240859   1.381   7.357   2.295 -0.9211 -0.3565  0.1197
13639TIP3    H140860   1.306   7.300   2.277 -0.2901 -0.9285 -0.7776
13639TIP3    H240861   1.458   7.302   2.276 -0.3006  0.9121 -1.2421
13640TIP3   OH240862   8.020   4.152   1.386 -0.1086  0.0559 -0.3778
13640TIP3    H140863   7.982   4.141   1.299  1.6336  1.6583 -1.4092
13640TIP3    H240864   8.083   4.081   1.395  0.0645  0.1739 -0.6489
13641TIP3   OH240865   1.274   1.755   1.859  0.2792  0.3289 -0.1965
13641TIP3    H140866   1.257   1.686   1.794  1.2401 -1.7147  1.6041
13641TIP3    H240867   1.309   1.709   1.935 -0.3704  2.6643  1.6583
13642TIP3   OH240868   1.996   1.087   3.032 -0.2737 -0.0611 -0.1685
13642TIP3    H140869   1.936   1.067   2.960  0.4640  0.0801 -0.8357
13642TIP3    H240870   1.963   1.169   3.070  0.0720  0.5548 -1.1730
13643TIP3   OH240871   0.087   4.340   0.906 -0.1301  0.3518 -0.8399
13643TIP3    H140872   0.093   4.300   0.993 -0.2026  0.5247 -0.7562
13643TIP3    H240873   0.161   4.302   0.857 -1.5816 -1.8135 -1.5383
13644TIP3   OH240874   6.649   0.782   4.632  0.2231  0.2978 -0.0674
13644TIP3    H140875   6.610   0.694   4.628  0.9765 -0.0003 -1.9485
13644TIP3    H240876   6.577   0.839   4.658 -0.0482 -0.9640  2.2775
13645TIP3   OH240877   0.922   1.326   0.951 -0.4054 -0.2185 -0.4708
13645TIP3    H140878   0.859   1.261   0.981  0.5078 -1.4097 -1.0374
13645TIP3    H240879   0.963   1.358   1.031 -0.7849 -0.4275 -0.1884
13646TIP3   OH240880   5.547   5.058   6.293  0.3178  0.0833 -0.2939
13646TIP3    H140881   5.510   5.135   6.250  0.8709 -0.3137 -1.5132
13646TIP3    H240882   5.579   5.091   6.377 -0.8308  0.8595 -0.1273
13647TIP3   OH240883   5.814   2.314   3.830  0.1244  0.4460 -0.4317
13647TIP3    H140884   5.801   2.318   3.925  2.9347  0.0922  0.0534
13647TIP3    H240885   5.730   2.341   3.793 -0.8570  1.1995  2.1419
13648TIP3   OH240886   6.333   3.702   5.601  0.1875 -0.0767  0.2889
13648TIP3    H140887   6.418   3.666   5.574  0.4134  0.8829 -0.3384
13648TIP3    H240888   6.274   3.678   5.530  0.7697  2.4022 -1.1685
13649TIP3   OH240889   1.197   5.315   1.251 -0.1900  0.7067 -0.3664
13649TIP3    H140890   1.132   5.271   1.197  0.7689  0.2272 -1.1681
13649TIP3    H240891   1.277   5.262   1.241  0.0165  0.5477  1.5844
13650TIP3   OH240892   1.136   1.601   1.406  0.1739 -0.6581 -0.0086
13650TIP3    H140893   1.172   1.583   1.493 -1.6928 -1.0464  0.7212
13650TIP3    H240894   1.173   1.686   1.382  0.3669 -0.3338  1.3646
13651TIP3   OH240895   0.569   7.498   4.989  0.3294 -0.0434  0.3542
13651TIP3    H140896   0.664   7.497   5.003  0.5754  1.0015 -1.0828
13651TIP3    H240897   0.559   7.494   4.894 -0.9786  2.5570  0.3035
13652TIP3   OH240898   0.163   1.052   5.243 -0.0746 -0.3328 -0.2551
13652TIP3    H140899   0.210   0.978   5.280  2.9177  1.0973 -0.9223
13652TIP3    H240900   0.139   1.105   5.320  0.2527 -0.6083  0.0424
13653TIP3   OH240901   7.307   7.208   4.626  0.4111  0.1494 -0.0699
13653TIP3    H140902   7.324   7.133   4.683  1.2265 -0.4510 -1.0616
13653TIP3    H240903   7.370   7.274   4.653  2.3536 -0.9341 -1.6694
13654TIP3   OH240904   3.006   0.778   2.819 -0.0486 -0.0297  0.1254
13654TIP3    H140905   3.097   0.808   2.817  0.7031 -2.2029 -1.0024
13654TIP3    H240906   2.961   0.836   2.758  1.6982 -1.9747 -3.2700
13655TIP3   OH240907   0.200   7.834   4.370  0.3192 -0.8315 -0.0321
13655TIP3    H140908   0.144   7.888   4.315 -2.3105 -1.6632  1.5901
13655TIP3    H240909   0.187   7.745   4.337  0.1225 -1.1103  0.7635
13656TIP3   OH240910   7.417   3.980   2.970 -0.3038 -0.1813 -0.1250
13656TIP3    H140911   7.394   3.887   2.974 -0.2910 -0.2625 -1.5912
13656TIP3    H240912   7.513   3.980   2.969 -0.2736 -0.0743  1.0832
13657TIP3   OH240913   4.988   0.427   0.237  0.4429 -0.0655  0.6792
13657TIP3    H140914   5.001   0.511   0.192 -0.8896 -0.6467 -0.8672
13657TIP3    H240915   5.065   0.418   0.293 -0.3562  3.1922  2.5400
13658TIP3   OH240916   7.638   3.253   4.048 -0.3185  0.2227 -0.2347
13658TIP3    H140917   7.686   3.225   3.970  0.3683  0.6262  0.0268
13658TIP3    H240918   7.665   3.191   4.116 -0.0950  0.5064 -0.0637
13659TIP3   OH240919   7.406   0.386   0.607 -0.0336 -0.1585  0.5375
13659TIP3    H140920   7.328   0.405   0.658 -0.9772  0.8361 -1.1569
13659TIP3    H240921   7.380   0.405   0.516  2.3008  0.6427 -0.0282
13660TIP3   OH240922   2.871   2.180   5.992 -0.2750  0.0509 -0.5774
13660TIP3    H140923   2.907   2.267   5.980  1.5064 -0.5811 -0.0444
13660TIP3    H240924   2.897   2.132   5.914  0.0991 -0.4314 -0.1622
13661TIP3   OH240925   0.096   5.639   5.022  0.2609 -0.3027  0.1524
13661TIP3    H140926   0.166   5.659   5.083 -0.2031  0.7613  0.3626
13661TIP3    H240927   0.028   5.704   5.041 -0.3900 -0.7180 -0.6717
13662TIP3   OH240928   3.284   5.499   4.658  0.3202  0.3558  0.3769
13662TIP3    H140929   3.334   5.436   4.710  0.7909 -0.4135 -0.9505
13662TIP3    H240930   3.349   5.561   4.626  0.2505  0.0775 -0.3291
13663TIP3   OH240931   3.756   7.356   4.737  0.2373 -0.2597  0.3264
13663TIP3    H140932   3.730   7.406   4.660  0.4823 -0.2221  0.2647
13663TIP3    H240933   3.832   7.403   4.771 -0.5546  0.3719  1.2539
13664TIP3   OH240934   6.831   1.169   3.150  0.0556  0.3533  0.4722
13664TIP3    H140935   6.866   1.256   3.131 -0.4374  0.5660  0.5292
13664TIP3    H240936   6.884   1.109   3.097  0.4527  0.6768  0.4984
13665TIP3   OH240937   8.149   2.006   1.421  0.2548 -0.1421  0.1667
13665TIP3    H140938   8.094   2.070   1.376  0.7487 -0.5084 -0.9868
13665TIP3    H240939   8.129   1.922   1.379 -0.0078 -0.6769  1.3131
13666TIP3   OH240940   3.945   7.143   0.666 -0.2455  0.1568  0.4998
13666TIP3    H140941   3.896   7.121   0.587 -0.9127  0.1434  0.9191
13666TIP3    H240942   3.968   7.235   0.655  1.1100 -0.2540 -0.4777
13667TIP3   OH240943   6.911   6.146   5.808  0.7878  0.0250  0.0147
13667TIP3    H140944   6.865   6.079   5.756  0.1733  1.1255 -0.9334
13667TIP3    H240945   6.841   6.205   5.836  1.3805  0.5399  0.4190
13668TIP3   OH240946   4.872   5.907   5.132  0.1272  0.0827 -0.2443
13668TIP3    H140947   4.802   5.879   5.191 -0.5485  2.6355  0.2906
13668TIP3    H240948   4.946   5.925   5.191  0.1058  0.6783 -0.3900
13669TIP3   OH240949   8.155   4.132   4.798  0.3232 -0.3510  0.0594
13669TIP3    H140950   8.248   4.123   4.821  0.1557 -0.0747  0.8578
13669TIP3    H240951   8.156   4.186   4.719  0.7091  2.7988  2.0149
13670TIP3   OH240952   2.469   0.818   3.584  0.3472 -0.6406 -0.1420
13670TIP3    H140953   2.428   0.835   3.669 -0.6347 -4.8828  0.4776
13670TIP3    H240954   2.563   0.821   3.602  0.2295  1.1168  0.3792
13671TIP3   OH240955   5.122   1.126   5.897  0.4602  0.0284 -0.1452
13671TIP3    H140956   5.059   1.164   5.835  0.8480  0.0101 -0.5608
13671TIP3    H240957   5.098   1.033   5.902  0.2419  0.0907 -0.0366
13672TIP3   OH240958   1.889   4.384   1.034  0.1707  0.0327  0.0749
13672TIP3    H140959   1.978   4.416   1.046  0.4177 -0.2851 -0.8259
13672TIP3    H240960   1.890   4.297   1.075  0.1830  0.1593  0.3455
13673TIP3   OH240961   7.010   2.786   3.692  0.3867  0.0960  0.0690
13673TIP3    H140962   6.982   2.861   3.743 -0.7355  0.1490 -0.5830
13673TIP3    H240963   6.938   2.723   3.700  0.5742 -0.2400 -0.7319
13674TIP3   OH240964   2.762   5.353   6.673  0.7858  0.3798  0.5457
13674TIP3    H140965   2.849   5.365   6.635  1.2049 -2.2660  0.5192
13674TIP3    H240966   2.733   5.268   6.640 -1.7785  1.1414  0.6727
13675TIP3   OH240967   2.985   3.401   6.075  0.5226  0.3300 -0.0919
13675TIP3    H140968   2.947   3.369   6.157  0.1383  1.1860  0.0813
13675TIP3    H240969   2.969   3.331   6.012  2.4558 -1.1632  0.9582
13676TIP3   OH240970   0.182   2.806   3.220  0.2370 -0.0320 -0.1098
13676TIP3    H140971   0.228   2.818   3.137  0.4532 -2.5522 -0.4349
13676TIP3    H240972   0.136   2.888   3.234  2.4464  1.5288 -1.2703
13677TIP3   OH240973   5.045   2.850   5.310  0.0394  0.0437  0.3982
13677TIP3    H140974   5.056   2.919   5.244 -2.9643  0.2446 -0.0089
13677TIP3    H240975   4.991   2.784   5.268 -0.2685 -0.7958  2.0145
13678TIP3   OH240976   2.497   1.346   5.517  0.1732  0.0312  0.0979
13678TIP3    H140977   2.544   1.265   5.540 -0.6600 -0.5372 -0.1375
13678TIP3    H240978   2.552   1.416   5.552  0.4767 -0.6745  1.1110
13679TIP3   OH240979   5.306   2.778   2.032  0.1497  0.0293 -0.3689
13679TIP3    H140980   5.400   2.788   2.017  0.4687  0.4558  1.6736
13679TIP3    H240981   5.290   2.821   2.116 -1.7713 -0.5627 -0.3836
13680TIP3   OH240982   6.705   4.297  -0.013 -0.4287 -0.7001  0.6273
13680TIP3    H140983   6.705   4.290   0.083  0.8268 -0.0387  0.7000
13680TIP3    H240984   6.770   4.364  -0.031 -0.0426 -1.4231 -0.7476
13681TIP3   OH240985   7.154   5.236   6.728 -0.0249  0.3087  0.9688
13681TIP3    H140986   7.245   5.239   6.700 -0.2680  2.2869  0.2121
13681TIP3    H240987   7.124   5.148   6.704  1.2929  0.1044 -0.0475
13682TIP3   OH240988   7.472   7.386   0.113  0.4089 -0.3163 -0.0402
13682TIP3    H140989   7.525   7.339   0.178  1.1242  0.2996 -0.1602
13682TIP3    H240990   7.410   7.436   0.165 -1.3926 -2.4999  0.0661
13683TIP3   OH240991   8.220   0.695   4.658  0.1102  0.0366  0.1267
13683TIP3    H140992   8.161   0.763   4.626 -0.0672  0.2888  0.9609
13683TIP3    H240993   8.233   0.637   4.583 -0.2763  0.6129 -0.3982
13684TIP3   OH240994   0.311   6.391   6.020  0.5266 -0.5356 -0.2576
13684TIP3    H140995   0.389   6.353   6.061  1.1790  1.4085  0.4223
13684TIP3    H240996   0.239   6.362   6.076  1.1154 -0.0507  0.7844
13685TIP3   OH240997   8.033   7.211   1.046 -0.1581 -0.3654  0.1902
13685TIP3    H140998   8.009   7.119   1.045  1.4515 -0.8413 -1.9497
13685TIP3    H240999   7.954   7.256   1.076 -1.5089 -2.3192 -0.2536
13686TIP3   OH241000   3.080   5.426   5.427 -0.0551 -0.0630 -0.4228
13686TIP3    H141001   3.105   5.337   5.452 -0.8609 -0.5424 -1.2888
13686TIP3    H241002   3.158   5.479   5.446  0.3835 -0.9158  0.2334
13687TIP3   OH241003   2.003   2.845   3.832  0.1232 -0.4032  0.6373
13687TIP3    H141004   2.030   2.753   3.831  0.2212 -0.3731  0.5974
13687TIP3    H241005   2.069   2.891   3.780 -1.9184 -0.8464 -2.6292
13688TIP3   OH241006   3.649   3.186   5.408 -0.2136 -0.5193 -0.4835
13688TIP3    H141007   3.581   3.137   5.362  0.0778 -0.8378 -0.5813
13688TIP3    H241008   3.641   3.157   5.500 -0.0798 -0.7103 -0.5308
13689TIP3   OH241009   0.690   5.386   2.650  0.4534 -0.1662  0.4269
13689TIP3    H141010   0.738   5.376   2.568  0.0781 -1.8368  0.3751
13689TIP3    H241011   0.726   5.465   2.690  1.6270 -0.1115 -0.6860
13690TIP3   OH241012   0.901   4.028   3.532 -0.2345 -0.2618 -0.0256
13690TIP3    H141013   0.943   3.991   3.609  1.3127 -0.3446 -0.8681
13690TIP3    H241014   0.835   4.088   3.567 -0.1999 -0.9879  1.3460
13691TIP3   OH241015   4.586   7.652   2.548 -0.0483  0.3248 -0.5396
13691TIP3    H141016   4.661   7.655   2.608 -1.9140  0.0000  1.9665
13691TIP3    H241017   4.532   7.727   2.574 -2.0194 -1.1327 -0.1754
13692TIP3   OH241018   6.371   1.756   2.001 -0.3231  0.7872  0.1202
13692TIP3    H141019   6.322   1.723   1.926  1.2667 -1.8172  0.1056
13692TIP3    H241020   6.453   1.788   1.964 -0.5351  1.8541  0.5230
13693TIP3   OH241021   7.375   4.639   3.502  0.3846  0.0098 -0.9044
13693TIP3    H141022   7.284   4.648   3.533  0.8002 -0.8843  0.6542
13693TIP3    H241023   7.371   4.567   3.439  0.3171 -1.3950  0.6414
13694TIP3   OH241024   0.725   0.638   5.766  0.1554 -0.2212 -0.0077
13694TIP3    H141025   0.813   0.675   5.774 -0.4458  1.2818 -0.1111
13694TIP3    H241026   0.672   0.688   5.827 -1.0908  0.4358 -1.5631
13695TIP3   OH241027   7.095   2.507   1.848 -0.0555 -0.2023 -0.0699
13695TIP3    H141028   7.072   2.465   1.766 -1.8422  0.6821 -0.0699
13695TIP3    H241029   7.061   2.448   1.916 -0.1727 -0.0534 -0.0000
13696TIP3   OH241030   0.114   5.361   4.924  0.0401 -0.0167 -0.6987
13696TIP3    H141031   0.205   5.365   4.894  1.7239 -3.9099  2.8336
13696TIP3    H241032   0.106   5.433   4.986  0.1430  1.2362 -2.0828
13697TIP3   OH241033   3.347   4.606   1.554 -0.2633  0.2467 -0.1263
13697TIP3    H141034   3.342   4.628   1.461 -3.4323  0.8263  0.0874
13697TIP3    H241035   3.399   4.677   1.592  1.9473 -0.5302 -1.5231
13698TIP3   OH241036   5.553   1.940   3.655 -0.3789  0.0313 -0.5973
13698TIP3    H141037   5.567   1.928   3.749  0.4707 -0.6421 -0.7907
13698TIP3    H241038   5.467   1.979   3.648 -0.8448 -0.7650  0.4202
13699TIP3   OH241039   5.379   4.953   4.411  0.5279 -0.6495 -0.1549
13699TIP3    H141040   5.306   5.015   4.421  1.0790  0.2036 -1.2075
13699TIP3    H241041   5.363   4.911   4.326 -0.3440 -2.6857  0.9378
13700TIP3   OH241042   3.886   2.583   3.083 -0.1304 -0.1884  0.0136
13700TIP3    H141043   3.855   2.495   3.059  0.2074 -0.8192  1.7606
13700TIP3    H241044   3.837   2.605   3.162 -0.0107  1.0982 -0.2491
13701TIP3   OH241045   0.854   0.351   0.641 -0.5020 -0.0786  0.3421
13701TIP3    H141046   0.761   0.372   0.629 -0.0778  1.5845 -0.3229
13701TIP3    H241047   0.888   0.423   0.695  0.7644  0.3251 -0.9332
13702TIP3   OH241048   3.343   4.027   3.707 -0.4538 -0.1626 -0.2645
13702TIP3    H141049   3.421   4.077   3.733 -1.0000  0.7903 -0.3883
13702TIP3    H241050   3.303   4.000   3.790 -1.2482  1.3811 -0.1060
13703TIP3   OH241051   5.004   0.646   5.406  0.2374  0.4855 -0.0860
13703TIP3    H141052   5.007   0.618   5.498 -0.9460 -1.6235 -0.6064
13703TIP3    H241053   5.094   0.670   5.386  0.4689  1.2504  1.6917
13704TIP3   OH241054   0.208   3.812   2.849  0.5102  0.2048  0.3797
13704TIP3    H141055   0.223   3.827   2.942 -0.3523  2.6079  0.1922
13704TIP3    H241056   0.293   3.828   2.808  1.1193 -1.7353  0.7796
13705TIP3   OH241057   2.380   7.646   0.876 -0.3662  0.3858  0.0042
13705TIP3    H141058   2.312   7.616   0.937 -0.4453 -0.0692 -0.3015
13705TIP3    H241059   2.456   7.592   0.898 -1.0218 -1.3947 -1.7470
13706TIP3   OH241060   5.831   6.446   3.612 -0.7779  0.0972  0.1871
13706TIP3    H141061   5.877   6.525   3.642 -1.1006  0.5151 -0.3859
13706TIP3    H241062   5.884   6.373   3.644  0.0690  0.5617 -0.1349
13707TIP3   OH241063   6.796   6.539   4.787 -0.1314 -0.2060  0.0090
13707TIP3    H141064   6.783   6.450   4.822 -1.5586  0.6000  1.7142
13707TIP3    H241065   6.854   6.581   4.850 -0.5242  0.4581 -0.0673
13708TIP3   OH241066   8.105   4.816   6.340  0.0908  0.0292  0.4575
13708TIP3    H141067   8.192   4.845   6.312  0.7199 -0.0727  2.1362
13708TIP3    H241068   8.090   4.863   6.423 -1.0206 -0.7085  0.7019
13709TIP3   OH241069   2.444   7.585   2.201 -0.0640  0.4047 -0.5532
13709TIP3    H141070   2.516   7.611   2.143  0.9409  0.8848  0.8800
13709TIP3    H241071   2.460   7.632   2.283 -1.2508 -0.5502  0.2597
13710TIP3   OH241072   0.780   0.627   3.896  0.7129  0.0215  0.1266
13710TIP3    H141073   0.746   0.676   3.971 -1.6688 -0.7953 -0.3167
13710TIP3    H241074   0.731   0.662   3.821  0.9557 -1.1544 -0.5976
13711TIP3   OH241075   4.633   0.675   5.117  0.1462 -0.4394 -0.3009
13711TIP3    H141076   4.670   0.741   5.175 -0.7583  0.7851 -1.0735
13711TIP3    H241077   4.704   0.656   5.055  0.7869 -1.0477  0.5986
13712TIP3   OH241078   5.088   3.596   3.243 -0.6450 -0.0365  0.1210
13712TIP3    H141079   5.105   3.602   3.149 -1.7276 -0.0217 -0.0841
13712TIP3    H241080   5.019   3.661   3.259 -0.9603 -0.5247  0.7934
13713TIP3   OH241081   4.289   0.017   6.384 -0.3826 -0.5472  0.6739
13713TIP3    H141082   4.261   0.092   6.435 -0.0473  0.1670 -0.1770
13713TIP3    H241083   4.289  -0.056   6.447  0.0710  0.3096  1.6972
13714TIP3   OH241084   7.610   6.733   2.398 -0.0464  0.2475 -0.0141
13714TIP3    H141085   7.538   6.675   2.371  1.3850 -0.9991 -1.3266
13714TIP3    H241086   7.659   6.749   2.318  1.7899  0.1487  1.0395
13715TIP3   OH241087   3.469   3.442   1.842 -0.2613 -0.5999 -0.5796
13715TIP3    H141088   3.523   3.441   1.921 -1.6113  0.2238  0.3894
13715TIP3    H241089   3.532   3.435   1.770  0.9912 -1.4700  0.5458
13716TIP3   OH241090   4.426   2.510   2.796 -0.2414  0.4501  0.4707
13716TIP3    H141091   4.392   2.567   2.864  0.5549 -1.3908  2.5289
13716TIP3    H241092   4.500   2.464   2.837 -1.7550 -3.2126 -0.4533
13717TIP3   OH241093   2.037   3.733   5.879 -0.0769  0.0342  0.2287
13717TIP3    H141094   2.073   3.762   5.962  3.7023  0.5447 -1.3650
13717TIP3    H241095   1.988   3.808   5.846  1.3786  1.1585  0.5049
13718TIP3   OH241096   3.197   1.406   3.488  0.0851  0.2895 -0.2580
13718TIP3    H141097   3.139   1.438   3.420  0.9727  2.5493 -0.0457
13718TIP3    H241098   3.149   1.421   3.570  0.5024  1.1392 -0.1578
13719TIP3   OH241099   1.425   0.787   4.225  0.1612 -0.2333  0.7177
13719TIP3    H141100   1.426   0.726   4.299 -1.6394 -0.8482  0.2653
13719TIP3    H241101   1.399   0.870   4.264  2.1303  0.2034  1.2448
13720TIP3   OH241102   0.600   2.331   2.175 -0.2191 -0.4759  0.5856
13720TIP3    H141103   0.529   2.340   2.239 -0.0308 -1.1061  0.8894
13720TIP3    H241104   0.572   2.385   2.101 -2.4681 -3.0421 -0.5791
13721TIP3   OH241105   7.493   6.359   2.204 -0.1932  0.2516 -0.4373
13721TIP3    H141106   7.459   6.431   2.257 -0.3532  0.2484 -0.5330
13721TIP3    H241107   7.488   6.391   2.114  1.3234  0.7569 -0.3573
13722TIP3   OH241108   4.073   6.552   2.806 -0.1428  0.3840  0.1475
13722TIP3    H141109   4.046   6.525   2.718 -1.7399  2.4297 -0.0745
13722TIP3    H241110   4.167   6.567   2.799 -0.3816  1.3885 -1.5195
13723TIP3   OH241111   2.023   7.623   0.126 -0.4084  0.1089  0.2214
13723TIP3    H141112   2.002   7.536   0.161  0.6254 -1.0273 -1.7582
13723TIP3    H241113   1.950   7.644   0.068  1.3502 -1.7661 -3.0626
13724TIP3   OH241114   1.319   3.208   6.772 -0.1415  0.0632  0.3883
13724TIP3    H141115   1.317   3.245   6.684  0.1693 -0.4466  0.1625
13724TIP3    H241116   1.252   3.257   6.821  0.1705  0.8090  0.0619
13725TIP3   OH241117   5.392   1.643   5.264  0.3246 -0.1177  0.0970
13725TIP3    H141118   5.436   1.716   5.307  0.1989 -0.5998  1.0897
13725TIP3    H241119   5.458   1.574   5.261  0.8354  0.4157 -1.9670
13726TIP3   OH241120   0.791   7.278   3.818 -0.0985  0.3725  0.2030
13726TIP3    H141121   0.707   7.322   3.828 -0.8786 -1.4013  2.1056
13726TIP3    H241122   0.851   7.326   3.875  0.5414  2.2180 -1.8472
13727TIP3   OH241123   2.962   7.437   4.306 -0.6419 -0.1703  0.6550
13727TIP3    H141124   2.878   7.405   4.339 -1.8325  1.4109 -0.6368
13727TIP3    H241125   2.989   7.503   4.371 -1.2182  0.4429  0.2873
13728TIP3   OH241126   7.229   3.077   3.354  0.6041 -0.5232 -0.1694
13728TIP3    H141127   7.143   3.038   3.366  1.0231 -0.9457  1.9574
13728TIP3    H241128   7.212   3.166   3.325 -0.4848 -0.9933 -1.0545
13729TIP3   OH241129   4.637   7.353   6.254 -0.6222 -0.1409 -0.6777
13729TIP3    H141130   4.662   7.351   6.162  0.5130  2.4395 -0.5156
13729TIP3    H241131   4.541   7.349   6.253 -0.6727  0.8231 -2.0418
13730TIP3   OH241132   4.132   3.336   4.455 -0.0069 -0.7031  0.6884
13730TIP3    H141133   4.044   3.297   4.462 -0.3923 -0.0996 -0.4984
13730TIP3    H241134   4.120   3.426   4.485 -0.3310  0.0512 -1.4780
13731TIP3   OH241135   3.129   0.084   0.928 -0.1174  0.0901  0.0773
13731TIP3    H141136   3.143   0.178   0.926 -0.4512  0.1463  0.2518
13731TIP3    H241137   3.143   0.059   1.019 -0.0039 -0.0331  0.0271
13732TIP3   OH241138   2.761   4.533   4.259  0.0730  0.2144 -0.1463
13732TIP3    H141139   2.758   4.446   4.298 -2.1753  0.5176  0.4676
13732TIP3    H241140   2.829   4.526   4.192 -0.0105 -1.9941 -0.0861
13733TIP3   OH241141   2.583   7.460   1.268 -0.0649  0.4989 -0.0441
13733TIP3    H141142   2.597   7.472   1.362 -2.2757  1.0924  0.2642
13733TIP3    H241143   2.561   7.367   1.259 -0.1060  0.4978  0.0649
13734TIP3   OH241144   5.158   3.870   5.844  0.0459  0.2158 -0.2829
13734TIP3    H141145   5.149   3.965   5.854 -1.8640  0.1210 -0.8217
13734TIP3    H241146   5.140   3.853   5.752  0.0842 -0.7024 -0.1318
13735TIP3   OH241147   1.550   2.835   0.831  0.1195  0.3083 -0.1616
13735TIP3    H141148   1.622   2.771   0.828  0.2648  0.4966 -1.2417
13735TIP3    H241149   1.471   2.782   0.822  0.2754  0.3072 -2.0104
13736TIP3   OH241150   8.122   3.460   1.558  0.3343  0.3176 -0.0326
13736TIP3    H141151   8.181   3.414   1.618 -1.0950 -0.1240  1.0694
13736TIP3    H241152   8.155   3.437   1.471  0.5691 -1.6174  0.5181
13737TIP3   OH241153   4.870   3.219   4.339 -0.7435 -0.4042  0.2124
13737TIP3    H141154   4.841   3.303   4.373  1.9906  0.4674  0.6391
13737TIP3    H241155   4.941   3.193   4.398  0.5044 -1.4872 -1.6749
13738TIP3   OH241156   0.384   1.595   4.455 -0.2018  0.7488  0.4600
13738TIP3    H141157   0.470   1.556   4.440 -0.0954  0.2427  2.2034
13738TIP3    H241158   0.400   1.689   4.452  0.1559  0.6685 -0.4970
13739TIP3   OH241159   3.658   7.620   0.553  0.5167 -0.2289 -0.0598
13739TIP3    H141160   3.723   7.690   0.545  0.9244 -0.5076  0.6721
13739TIP3    H241161   3.706   7.548   0.594 -0.3129 -0.3453  0.7361
13740TIP3   OH241162   3.863   1.944   0.635  0.6492  0.2511  0.2788
13740TIP3    H141163   3.793   1.955   0.571  0.4032 -0.4824  0.4157
13740TIP3    H241164   3.873   1.850   0.645  0.4189  0.3362  1.5955
13741TIP3   OH241165   5.539   3.705   6.053  0.1573 -0.0776  0.2042
13741TIP3    H141166   5.469   3.640   6.056  0.2551 -0.1518  1.1510
13741TIP3    H241167   5.506   3.774   5.996 -0.9910  0.2282  1.2129
13742TIP3   OH241168   0.017   2.426   4.937 -0.4546  0.6893  0.6251
13742TIP3    H141169   0.075   2.459   4.868  1.3554  1.7701  2.5517
13742TIP3    H241170  -0.054   2.489   4.941 -1.1861  0.0175 -0.9416
13743TIP3   OH241171   1.969   1.717   0.567 -0.8646  0.4306 -0.4893
13743TIP3    H141172   1.962   1.800   0.613  1.0269  1.0994 -1.2917
13743TIP3    H241173   2.002   1.741   0.480  0.3464 -1.1927 -0.5266
13744TIP3   OH241174   2.010   7.044   0.651  0.2593 -0.0621  0.2386
13744TIP3    H141175   1.948   7.023   0.581 -0.2219 -0.7650  0.8481
13744TIP3    H241176   2.072   6.971   0.649  0.0222 -0.2874  0.7716
13745TIP3   OH241177   7.397   7.577   5.886 -0.0529  0.2439 -0.0194
13745TIP3    H141178   7.357   7.635   5.820  0.2643 -1.4727 -1.8239
13745TIP3    H241179   7.322   7.533   5.926 -0.2354 -1.9742 -2.4613
13746TIP3   OH241180   3.312   4.044   1.293  0.3886 -0.0505 -0.0606
13746TIP3    H141181   3.365   3.975   1.254  2.2131 -0.1834  2.4165
13746TIP3    H241182   3.254   4.073   1.222  0.0619 -3.5319 -1.4044
13747TIP3   OH241183   0.673   3.587   0.739 -0.7694  0.1678 -0.1781
13747TIP3    H141184   0.650   3.499   0.709  0.0695 -0.1692  0.1204
13747TIP3    H241185   0.589   3.631   0.753 -1.1932 -0.2399 -1.3079
13748TIP3   OH241186   4.465   4.807   5.772 -0.3673  0.3997  0.1026
13748TIP3    H141187   4.468   4.862   5.851  1.3184 -1.5652  1.5359
13748TIP3    H241188   4.384   4.757   5.781 -0.4323  0.5404  0.3288
13749TIP3   OH241189   1.850   2.263   0.181  0.0370 -0.2333  0.0704
13749TIP3    H141190   1.766   2.305   0.196  0.5760  0.3599  1.5909
13749TIP3    H241191   1.911   2.309   0.239  1.6962  0.2154 -1.9133
13750TIP3   OH241192   1.486   5.771   5.399 -0.7542  0.5222 -0.6026
13750TIP3    H141193   1.462   5.812   5.481  0.2039  1.6752 -0.8782
13750TIP3    H241194   1.436   5.689   5.398 -0.3808  0.2149  1.3636
13751TIP3   OH241195   7.175   0.730   6.132  0.0805  0.1158 -0.2659
13751TIP3    H141196   7.207   0.647   6.167 -2.9926 -1.7314 -1.5246
13751TIP3    H241197   7.250   0.767   6.085  1.3017 -2.3395 -0.3761
13752TIP3   OH241198   3.485   6.781   3.429 -0.6767 -0.1231  0.3162
13752TIP3    H141199   3.525   6.822   3.353 -0.7793 -0.7453 -0.0803
13752TIP3    H241200   3.518   6.831   3.504  1.4061 -1.0254  0.0822
13753TIP3   OH241201   7.173   1.677   4.320 -0.3758 -0.5442 -0.5899
13753TIP3    H141202   7.263   1.655   4.344  0.0073 -0.9750 -2.2454
13753TIP3    H241203   7.120   1.605   4.354 -0.0856 -0.3379  0.3071
13754TIP3   OH241204   8.003   2.070   4.457  0.0190  0.2454 -0.0036
13754TIP3    H141205   7.957   2.120   4.391 -0.9034  1.6699  1.6522
13754TIP3    H241206   8.081   2.036   4.411  0.5061  2.8598 -1.3025
13755TIP3   OH241207   1.730   4.275   5.577  0.1765 -0.3269  0.4122
13755TIP3    H141208   1.755   4.296   5.487 -1.7172 -0.2299 -0.1222
13755TIP3    H241209   1.736   4.358   5.624 -0.4101 -0.0494 -0.0069
13756TIP3   OH241210   8.031   7.540   0.131  0.1314  0.0309 -0.2080
13756TIP3    H141211   7.984   7.623   0.139  0.4526  0.1589  0.5032
13756TIP3    H241212   8.116   7.565   0.094  0.1063 -0.0223 -0.3001
13757TIP3   OH241213   2.028   4.470   0.689 -0.0995 -0.0036 -0.0619
13757TIP3    H141214   2.073   4.509   0.614  1.3034 -0.6683  0.4118
13757TIP3    H241215   2.097   4.427   0.739 -0.9690  0.6766  1.7852
13758TIP3   OH241216   4.581   0.933   3.784  0.1054 -0.1729  0.0185
13758TIP3    H141217   4.631   1.010   3.809 -1.6086  0.8246  0.5494
13758TIP3    H241218   4.621   0.902   3.703  2.1673 -0.0354  0.9285
13759TIP3   OH241219   3.748   6.055   6.692 -0.2559 -0.5683  0.4104
13759TIP3    H141220   3.753   5.960   6.681 -0.3570 -0.4019 -1.3866
13759TIP3    H241221   3.797   6.073   6.773 -0.3964 -2.1464  0.8706
13760TIP3   OH241222   3.436   2.311   5.751 -0.1756  0.3844  0.3214
13760TIP3    H141223   3.435   2.327   5.657 -1.0412 -1.0173  0.0544
13760TIP3    H241224   3.518   2.265   5.768 -1.3234 -2.0804 -0.3181
13761TIP3   OH241225   7.040   7.720   5.494  0.0168  0.0621  0.0329
13761TIP3    H141226   6.969   7.724   5.431  1.0232 -0.6522 -1.1976
13761TIP3    H241227   7.074   7.810   5.498 -0.1113  0.1302 -0.3862
13762TIP3   OH241228   5.204   1.499   0.314  0.1639  0.2986  0.4190
13762TIP3    H141229   5.171   1.580   0.353 -1.0737 -1.0147  2.3510
13762TIP3    H241230   5.159   1.430   0.364 -0.1797 -1.5741 -2.2856
13763TIP3   OH241231   2.233   0.879   5.207 -0.5988 -1.0054  0.5281
13763TIP3    H141232   2.173   0.894   5.135 -0.4182 -2.7255 -0.0147
13763TIP3    H241233   2.239   0.964   5.251 -0.8414  0.0385 -1.3536
13764TIP3   OH241234   3.319   5.945   0.308  0.3639  0.0354  0.0087
13764TIP3    H141235   3.352   5.859   0.335  0.6213 -0.0373 -0.5345
13764TIP3    H241236   3.230   5.928   0.277  1.0678 -0.3766 -1.9275
13765TIP3   OH241237   0.101   3.562   1.454  0.6895  0.4551 -0.5057
13765TIP3    H141238   0.036   3.521   1.398  0.9400  1.0394 -1.2463
13765TIP3    H241239   0.052   3.626   1.506  0.3360 -0.6086  0.4958
13766TIP3   OH241240   0.889   5.998   0.969 -0.1306 -0.4749  0.2547
13766TIP3    H141241   0.950   6.072   0.965 -1.4259  0.6832  1.0232
13766TIP3    H241242   0.910   5.946   0.891  1.9625 -0.2536  0.6006
13767TIP3   OH241243   3.886   2.324   3.661  0.1073  0.2715 -0.2908
13767TIP3    H141244   3.921   2.287   3.579 -0.8552 -1.0443 -0.1527
13767TIP3    H241245   3.791   2.321   3.649 -0.0320  2.3351 -0.0574
13768TIP3   OH241246   4.635   6.001   3.547  0.4713 -0.3620 -0.1362
13768TIP3    H141247   4.663   5.967   3.462 -0.3734  0.8005 -0.9219
13768TIP3    H241248   4.713   6.043   3.583  0.5620  0.1008 -0.8538
13769TIP3   OH241249   2.394   3.223   4.958  0.0056  0.2153  0.1198
13769TIP3    H141250   2.440   3.221   5.041  0.3167  2.9089  0.1094
13769TIP3    H241251   2.457   3.191   4.894  1.6266  2.7882  0.2683
13770TIP3   OH241252   7.110   0.683   0.826 -0.0552 -0.5316 -0.4071
13770TIP3    H141253   7.131   0.731   0.746 -0.7018 -0.5876 -0.6179
13770TIP3    H241254   7.097   0.751   0.892 -2.9181 -0.2038 -1.1408
13771TIP3   OH241255   1.173   3.124   2.726  0.7687 -0.3181 -0.3237
13771TIP3    H141256   1.190   3.212   2.691 -1.0431 -0.2493 -1.1338
13771TIP3    H241257   1.193   3.132   2.819 -1.8999  1.8061  0.2100
13772TIP3   OH241258   3.016   7.568   0.844  0.0386 -0.2787  0.3221
13772TIP3    H141259   3.099   7.598   0.809 -0.0309  1.3113  1.4094
13772TIP3    H241260   2.952   7.632   0.813 -0.6357 -0.9697  0.2551
13773TIP3   OH241261   6.821   2.672   5.448 -0.0864 -0.4604  0.9021
13773TIP3    H141262   6.765   2.670   5.526 -1.6094 -0.8631 -0.1679
13773TIP3    H241263   6.817   2.583   5.414  1.0544 -0.4343  0.6742
13774TIP3   OH241264   4.837   7.751   6.232  0.5006 -0.0479  0.0093
13774TIP3    H141265   4.780   7.815   6.189 -0.2710 -0.1203  0.8794
13774TIP3    H241266   4.861   7.793   6.314 -1.7588 -1.6351  1.6171
13775TIP3   OH241267   4.370   0.579   1.546 -0.2836  0.1246  0.3925
13775TIP3    H141268   4.409   0.655   1.504  0.1053 -0.6093 -0.6118
13775TIP3    H241269   4.414   0.504   1.506 -1.2632 -0.6591  0.7382
13776TIP3   OH241270   8.035   4.170   0.119  0.0536 -0.1669 -0.2841
13776TIP3    H141271   8.008   4.219   0.197 -0.5920  0.3207 -0.8062
13776TIP3    H241272   8.005   4.081   0.135  1.0035 -0.3551  0.5560
13777TIP3   OH241273   3.577   7.088   0.774  0.0057 -0.0582 -0.2616
13777TIP3    H141274   3.655   7.062   0.823 -0.1699  0.3629  0.2620
13777TIP3    H241275   3.574   7.028   0.700  1.5195  0.7297 -0.9973
13778TIP3   OH241276   2.273   1.505   4.793  0.0844  0.0315 -0.0252
13778TIP3    H141277   2.355   1.552   4.782 -0.5383  0.5965 -2.7883
13778TIP3    H241278   2.287   1.422   4.747 -0.8417  0.0784 -0.4053
13779TIP3   OH241279   5.766   1.347   3.894 -0.4877  0.1724  0.1527
13779TIP3    H141280   5.793   1.264   3.931 -0.6569  0.2401  0.4297
13779TIP3    H241281   5.777   1.411   3.964  4.0115  1.3132 -1.2693
13780TIP3   OH241282   3.714   0.475   5.069  0.4292 -0.1775  0.4149
13780TIP3    H141283   3.751   0.488   4.982  1.6818 -1.5740  0.7052
13780TIP3    H241284   3.788   0.488   5.129 -0.2995  0.2516  1.2538
13781TIP3   OH241285   7.536   7.371   2.066 -0.2028  0.1590 -0.4057
13781TIP3    H141286   7.573   7.395   2.151 -0.9716  1.7964 -0.5012
13781TIP3    H241287   7.550   7.276   2.060  0.0334  0.0387  1.4505
13782TIP3   OH241288   6.178   5.045   5.422 -0.1554  0.3515  0.1651
13782TIP3    H141289   6.137   5.076   5.503  1.7608  1.2640  0.8241
13782TIP3    H241290   6.114   5.065   5.353 -0.9653  1.3812  1.1935
13783TIP3   OH241291   0.365   6.362   2.162  0.0484 -0.2501 -0.2587
13783TIP3    H141292   0.282   6.410   2.158  0.3664  0.3839  0.5107
13783TIP3    H241293   0.426   6.423   2.203  1.0915 -0.4526 -1.4454
13784TIP3   OH241294   5.944   2.835   2.221  0.5411 -0.0159 -0.4732
13784TIP3    H141295   5.951   2.753   2.173  3.0346 -0.2197  0.1462
13784TIP3    H241296   6.009   2.829   2.290 -0.3726  1.8232  0.6275
13785TIP3   OH241297   7.631   7.395   2.321 -0.6892  0.2201  0.0467
13785TIP3    H141298   7.692   7.443   2.378 -0.6928 -1.3506  1.4727
13785TIP3    H241299   7.544   7.421   2.351 -0.7863  1.9658 -1.5605
13786TIP3   OH241300   1.284   5.625   0.235  0.2862  0.0045  0.3115
13786TIP3    H141301   1.359   5.615   0.293  0.2651  0.7571  0.4805
13786TIP3    H241302   1.263   5.536   0.207  0.5661 -0.3227  1.1118
13787TIP3   OH241303   4.630   7.502   4.085 -0.2106 -0.1455 -0.4588
13787TIP3    H141304   4.536   7.487   4.085 -0.3148  0.4501  0.4649
13787TIP3    H241305   4.640   7.596   4.102  0.5581 -0.2859 -0.0725
13788TIP3   OH241306   2.266   2.090   0.792 -0.5326  0.4592 -0.1151
13788TIP3    H141307   2.259   2.015   0.732  1.1875  0.0409  0.1513
13788TIP3    H241308   2.262   2.051   0.879  0.5264  0.6151  0.0263
13789TIP3   OH241309   5.290   4.235   0.798 -0.3729  0.3310 -0.1926
13789TIP3    H141310   5.304   4.165   0.862  0.6798  0.1321 -0.6185
13789TIP3    H241311   5.228   4.199   0.736 -0.5263  0.1063  0.0884
13790TIP3   OH241312   5.074   4.338   0.023 -0.2453  0.0298 -0.4853
13790TIP3    H141313   5.151   4.331  -0.033 -0.9524 -0.9235 -1.3469
13790TIP3    H241314   5.100   4.293   0.104  0.7386  1.3250 -0.0378
13791TIP3   OH241315   4.248   1.124   0.985  0.0149  0.8856  0.2512
13791TIP3    H141316   4.205   1.039   0.979  0.5421  0.4476  2.0529
13791TIP3    H241317   4.200   1.180   0.923  0.3372 -0.9510 -1.7962
13792TIP3   OH241318   8.147   0.023   2.321 -0.8971 -0.3162  0.7484
13792TIP3    H141319   8.151   0.102   2.375 -1.6950  0.2819 -0.0512
13792TIP3    H241320   8.127  -0.047   2.383 -0.8085  0.1961  1.3707
13793TIP3   OH241321   3.585   0.478   2.863  0.1013  0.3470 -0.0170
13793TIP3    H141322   3.597   0.426   2.942 -1.1482  1.5877  1.0485
13793TIP3    H241323   3.668   0.469   2.815  0.8513 -0.5185  1.3785
13794TIP3   OH241324   5.398   2.165   0.787  0.5195 -0.4056  0.3034
13794TIP3    H141325   5.367   2.079   0.757 -0.2944  0.1625 -0.5153
13794TIP3    H241326   5.325   2.199   0.840  0.1446  0.4848 -0.7559
13795TIP3   OH241327   1.972   6.866   5.509 -0.4681 -0.5562 -0.1994
13795TIP3    H141328   2.047   6.834   5.559 -0.0450  2.9669  1.7169
13795TIP3    H241329   2.006   6.878   5.420  0.1088 -2.4777 -0.2757
13796TIP3   OH241330   2.619   4.774   0.758 -0.6420 -0.4001 -0.2771
13796TIP3    H141331   2.618   4.862   0.721  1.5752 -0.3128 -0.2280
13796TIP3    H241332   2.544   4.730   0.717 -0.6351  0.9082 -1.7733
13797TIP3   OH241333   6.766   0.334   5.332  0.6596 -0.1980 -0.1989
13797TIP3    H141334   6.699   0.381   5.282  0.1599 -0.9604 -0.2618
13797TIP3    H241335   6.844   0.390   5.327 -0.2154  1.1341  0.6322
13798TIP3   OH241336   2.270   6.881   3.614 -0.3824 -0.3481 -0.1781
13798TIP3    H141337   2.277   6.941   3.540  1.0840 -0.1407  0.0925
13798TIP3    H241338   2.195   6.913   3.664  0.7853  1.7494  0.3497
13799TIP3   OH241339   4.366   5.411   6.218  0.5427  0.2337 -0.0364
13799TIP3    H141340   4.323   5.487   6.258 -0.0837  0.1438 -0.5218
13799TIP3    H241341   4.458   5.437   6.211  0.1032  1.5635 -1.5549
13800TIP3   OH241342   3.383   0.714   0.800  0.0885  0.2715  0.3817
13800TIP3    H141343   3.449   0.645   0.810 -1.0827 -1.0496 -0.5619
13800TIP3    H241344   3.390   0.742   0.709  0.3003  1.1696  0.6610
13801TIP3   OH241345   6.456   6.643   2.689  0.5491  0.2501  0.0992
13801TIP3    H141346   6.480   6.593   2.611 -1.3943 -0.1992 -0.2555
13801TIP3    H241347   6.514   6.719   2.686  1.6956 -0.6158 -0.8298
13802TIP3   OH241348   6.581   2.247   5.215 -0.1976 -0.0732 -0.0974
13802TIP3    H141349   6.540   2.218   5.297  0.3836  1.3399  0.7270
13802TIP3    H241350   6.543   2.190   5.148 -1.5489 -0.5104  0.9882
13803TIP3   OH241351   0.606   0.494   1.661 -0.0405  0.1579 -0.2422
13803TIP3    H141352   0.512   0.502   1.678  0.2068  3.3598  0.3091
13803TIP3    H241353   0.618   0.403   1.634 -2.9807 -0.8857  1.4774
13804TIP3   OH241354   1.875   5.274   5.827 -0.1038 -0.0533  0.1560
13804TIP3    H141355   1.835   5.193   5.794  0.8946 -0.4205 -0.1804
13804TIP3    H241356   1.848   5.341   5.764  1.5350 -0.6895 -1.3005
13805TIP3   OH241357   0.300   2.624   3.935 -0.4387 -0.4818 -0.0326
13805TIP3    H141358   0.293   2.587   3.847  0.4141 -1.6267  0.3690
13805TIP3    H241359   0.262   2.712   3.927  2.3043  0.6362 -2.2454
13806TIP3   OH241360   6.037   1.506   6.715 -0.2711  0.5326 -0.2633
13806TIP3    H141361   6.029   1.453   6.794  2.3080  0.7097  0.2020
13806TIP3    H241362   6.034   1.443   6.643  2.9675 -0.4507  0.2879
13807TIP3   OH241363   8.116   7.231   3.736 -0.2806  0.1648  0.3353
13807TIP3    H141364   8.047   7.203   3.796 -1.2262 -1.3376 -1.3667
13807TIP3    H241365   8.186   7.166   3.748 -0.6971 -0.4629 -0.5405
13808TIP3   OH241366   7.934   4.359   6.695  0.0420 -0.1996 -0.0367
13808TIP3    H141367   7.915   4.422   6.765 -1.5947  0.4763 -1.0443
13808TIP3    H241368   8.014   4.393   6.653  1.2406 -0.7888  1.6479
13809TIP3   OH241369   3.384   7.119   0.986  0.3673 -0.1899  0.2089
13809TIP3    H141370   3.334   7.194   1.018 -2.0473 -0.5408 -2.3697
13809TIP3    H241371   3.447   7.157   0.924  0.7992 -0.1064  0.6888
13810TIP3   OH241372   3.681   7.167   3.322 -0.3942  0.3464  0.4919
13810TIP3    H141373   3.757   7.150   3.377  0.4089 -1.1722 -0.9966
13810TIP3    H241374   3.675   7.091   3.265 -1.3871  1.6787 -1.2940
13811TIP3   OH241375   8.144   3.145   1.165 -0.0254  0.3056 -0.3831
13811TIP3    H141376   8.092   3.122   1.088 -0.6915 -0.5097  0.3005
13811TIP3    H241377   8.215   3.080   1.166 -0.6194 -0.3401  0.2777
13812TIP3   OH241378   2.307   7.331   2.851  0.0971 -0.2372 -0.2790
13812TIP3    H141379   2.239   7.327   2.919  1.8688  1.1397  1.7103
13812TIP3    H241380   2.366   7.259   2.873  2.5258  2.1780  1.9382
13813TIP3   OH241381   2.556   6.213   1.483 -0.3911  0.1292  0.1256
13813TIP3    H141382   2.533   6.190   1.573  2.0272  1.0086  1.0496
13813TIP3    H241383   2.616   6.144   1.455  0.0933  0.6926 -0.2468
13814TIP3   OH241384   1.726   7.030   2.568 -0.9219 -0.2028  0.1136
13814TIP3    H141385   1.708   6.939   2.592  0.3034 -0.2552  0.9462
13814TIP3    H241386   1.779   7.024   2.488 -1.9276 -0.1546 -0.5766
13815TIP3   OH241387   3.807   4.999   4.464  0.1406  0.0587 -0.3544
13815TIP3    H141388   3.816   5.070   4.400 -2.0576  0.0035 -0.7905
13815TIP3    H241389   3.713   4.988   4.475  0.4295 -2.2452  0.3310
13816TIP3   OH241390   8.040   2.925   4.761  0.0338 -0.0187 -0.1816
13816TIP3    H141391   7.984   2.857   4.800  0.4667 -0.9137 -1.0897
13816TIP3    H241392   7.980   2.982   4.714 -0.3471  0.3290  0.6955
13817TIP3   OH241393   2.666   3.944   4.193 -0.5912 -0.4093 -0.0567
13817TIP3    H141394   2.610   3.901   4.258 -0.7946  0.4062  0.3210
13817TIP3    H241395   2.729   3.877   4.167 -0.3291 -0.6670  1.1895
13818TIP3   OH241396   5.587   6.946   0.928  0.1515  0.5596 -0.0048
13818TIP3    H141397   5.577   7.028   0.977  0.0348 -0.0988  1.1040
13818TIP3    H241398   5.522   6.887   0.968  1.6730 -0.7296  0.6527
13819TIP3   OH241399   4.972   2.195   4.092 -0.6601 -0.1624  0.0733
13819TIP3    H141400   4.939   2.272   4.045  0.3928 -1.2059 -2.5458
13819TIP3    H241401   5.055   2.223   4.129 -0.2988  0.0031 -0.8402
13820TIP3   OH241402   2.364   6.317   3.839  0.0757 -0.2498 -0.1018
13820TIP3    H141403   2.277   6.308   3.802 -0.6857  0.7971  1.3308
13820TIP3    H241404   2.360   6.397   3.891  2.7551  1.5568 -2.3356
13821TIP3   OH241405   3.892   6.990   2.026  0.5753  0.0975  0.1547
13821TIP3    H141406   3.853   7.003   2.113  0.6868 -2.4572  0.6657
13821TIP3    H241407   3.830   7.031   1.966 -0.2366  0.6712  1.3288
13822TIP3   OH241408   8.208   4.855   4.393  0.1425  0.1948 -0.4422
13822TIP3    H141409   8.241   4.774   4.355  1.1813  0.3523  0.0930
13822TIP3    H241410   8.192   4.834   4.485  2.2873  1.0673  0.2010
13823TIP3   OH241411   5.690   7.042   2.191  0.2541 -0.0325  0.0986
13823TIP3    H141412   5.753   7.055   2.121  1.6070  0.7509  1.4197
13823TIP3    H241413   5.730   6.976   2.248 -0.9455 -0.8676  0.0278
13824TIP3   OH241414   2.298   3.861   0.927  0.4854 -0.5958 -0.0130
13824TIP3    H141415   2.299   3.800   0.854  0.5328 -0.3631 -0.2057
13824TIP3    H241416   2.349   3.936   0.897  0.3969 -0.4451  0.2098
13825TIP3   OH241417   2.012   0.602   3.183  0.2294 -0.7349  0.3846
13825TIP3    H141418   1.956   0.594   3.261  2.3779  1.8331  2.3708
13825TIP3    H241419   1.997   0.692   3.153  0.8878 -1.0825 -1.0409
13826TIP3   OH241420   6.535   5.167   6.541 -0.7181 -0.1441  0.0003
13826TIP3    H141421   6.565   5.258   6.538 -1.3080  0.0486 -0.2070
13826TIP3    H241422   6.532   5.140   6.449 -0.3328 -0.4447  0.0758
13827TIP3   OH241423   3.440   6.997   5.278 -0.2036  0.6603  0.0761
13827TIP3    H141424   3.430   7.036   5.365  2.8584  0.2976  0.7058
13827TIP3    H241425   3.479   7.067   5.226 -0.6661  0.4149 -0.6025
13828TIP3   OH241426   2.889   2.239   4.940 -0.1119  0.2590 -0.0485
13828TIP3    H141427   2.947   2.282   4.877  1.3894 -0.5961  0.7007
13828TIP3    H241428   2.919   2.271   5.025 -1.4391  0.5941  0.3198
13829TIP3   OH241429   1.253   0.835   5.818  0.1750 -0.4770  0.3405
13829TIP3    H141430   1.215   0.922   5.828 -0.3434 -0.5126 -1.0380
13829TIP3    H241431   1.326   0.847   5.758 -1.2618 -1.2683 -1.7069
13830TIP3   OH241432   0.583   6.164   0.960  0.3510  0.5152 -0.0248
13830TIP3    H141433   0.648   6.108   0.917 -0.0982  0.0659 -0.1241
13830TIP3    H241434   0.502   6.150   0.911  0.3274  1.5609 -0.2981
13831TIP3   OH241435   0.905   5.817   6.257 -0.3159  0.6391 -0.5366
13831TIP3    H141436   0.957   5.741   6.234 -0.8987  0.3029 -0.7748
13831TIP3    H241437   0.965   5.891   6.251  0.4355  0.1156  0.3861
13832TIP3   OH241438   1.033   3.945   3.751 -0.1229  0.1313  0.0236
13832TIP3    H141439   1.117   3.912   3.719  0.5680  2.0440 -0.3006
13832TIP3    H241440   1.048   3.963   3.844 -0.0219  0.8889 -0.1346
13833TIP3   OH241441   1.641   7.133   4.268  0.4673 -0.1833 -0.2287
13833TIP3    H141442   1.616   7.135   4.360 -2.4787 -0.0454 -0.9416
13833TIP3    H241443   1.575   7.186   4.223  1.0966 -1.2436 -2.5978
13834TIP3   OH241444   6.631   5.805   3.609  0.7685  0.1280  0.2366
13834TIP3    H141445   6.586   5.722   3.627  1.0501 -0.0198  0.2599
13834TIP3    H241446   6.582   5.844   3.536  0.5548  0.0050  0.3142
13835TIP3   OH241447   5.800   2.839   1.059 -0.0591  0.0769  0.7241
13835TIP3    H141448   5.820   2.837   1.152 -0.6925 -0.3655  0.8581
13835TIP3    H241449   5.772   2.750   1.038 -0.3245  0.2750  0.2095
13836TIP3   OH241450   2.811   0.517   6.643 -0.1914 -0.2548 -0.4993
13836TIP3    H141451   2.757   0.527   6.565 -0.1186 -1.0761 -0.6685
13836TIP3    H241452   2.836   0.424   6.642  0.3224 -0.1261  0.1603
13837TIP3   OH241453   7.971   2.005   5.955 -0.2955  0.1549 -0.0397
13837TIP3    H141454   7.971   1.938   5.886  0.2540  0.2114 -0.0944
13837TIP3    H241455   8.025   2.075   5.920 -0.9295  0.6689 -0.0092
13838TIP3   OH241456   6.833   3.438   0.558 -0.0772 -0.0998 -0.1073
13838TIP3    H141457   6.804   3.525   0.583  0.5882  0.0682  0.0958
13838TIP3    H241458   6.755   3.383   0.566 -0.0559  0.0779  1.6937
13839TIP3   OH241459   1.501   7.641   6.609  0.3801 -0.3203 -0.0185
13839TIP3    H141460   1.468   7.551   6.599  0.3918 -0.3312  0.0405
13839TIP3    H241461   1.422   7.695   6.606  0.4255 -0.2813 -0.6758
13840TIP3   OH241462   7.561   6.948   3.999 -0.0944 -0.3277  0.5733
13840TIP3    H141463   7.559   6.998   3.918  0.2784  0.3838  0.9910
13840TIP3    H241464   7.490   6.985   4.052  0.1214 -0.3002  0.8479
13841TIP3   OH241465   3.826   0.609   5.699 -0.5644 -0.0809 -0.5085
13841TIP3    H141466   3.803   0.666   5.626  0.1723  0.1155 -0.5957
13841TIP3    H241467   3.920   0.622   5.711 -0.3623 -1.3574 -0.5922
13842TIP3   OH241468   5.728   3.546   2.335 -0.4091  0.3524 -0.7001
13842TIP3    H141469   5.719   3.633   2.373  0.6943 -0.1943  0.9412
13842TIP3    H241470   5.821   3.535   2.320 -0.2868 -1.1228  0.7400
13843TIP3   OH241471   5.666   2.740   6.238  0.4151 -0.3932  0.0040
13843TIP3    H141472   5.730   2.699   6.179 -1.8782 -2.1245 -1.4841
13843TIP3    H241473   5.649   2.825   6.198  1.5612 -0.0224  0.2705
13844TIP3   OH241474   5.611   3.935   3.965  0.6722 -0.1331  0.0352
13844TIP3    H141475   5.584   4.020   3.930  2.0999  0.3866  0.1201
13844TIP3    H241476   5.607   3.877   3.889  0.0266  0.0799 -0.1054
13845TIP3   OH241477   2.124   2.191   2.129 -1.0206 -0.5291 -0.4830
13845TIP3    H141478   2.212   2.223   2.147 -1.4796 -0.0951  1.0589
13845TIP3    H241479   2.124   2.174   2.034 -0.2296  2.3895 -1.0937
13846TIP3   OH241480   4.703   2.077   4.914 -0.0033  0.3610  0.4168
13846TIP3    H141481   4.653   2.142   4.864  1.1971  1.3836  0.4973
13846TIP3    H241482   4.637   2.027   4.963 -0.8861  2.2803  1.2593
13847TIP3   OH241483   7.445   3.050   2.795 -0.3066 -0.5785  0.2613
13847TIP3    H141484   7.440   3.092   2.881  0.0762  0.5798 -0.2545
13847TIP3    H241485   7.388   3.104   2.739  2.3202  1.0248 -1.0783
13848TIP3   OH241486   7.484   1.984   3.386 -0.2942 -0.2599 -0.3576
13848TIP3    H141487   7.452   1.898   3.415  0.8845 -0.4108  0.5826
13848TIP3    H241488   7.545   1.964   3.315  0.7444 -0.3064  0.5203
13849TIP3   OH241489   8.085   6.028   5.276  0.1820  0.0929 -0.1940
13849TIP3    H141490   8.074   6.105   5.334  0.7808  0.0438 -0.0078
13849TIP3    H241491   8.086   6.065   5.188 -0.4205  0.2027 -0.1619
13850TIP3   OH241492   0.456   6.578   5.614 -0.2920  0.2206 -0.3319
13850TIP3    H141493   0.500   6.654   5.651  1.9299 -1.1558 -0.0195
13850TIP3    H241494   0.507   6.503   5.643 -0.9741 -1.2451 -2.6470
13851TIP3   OH241495   0.137   6.868   5.695 -0.3173 -0.1394  0.6225
13851TIP3    H141496   0.227   6.857   5.725 -0.4002 -2.0529  0.3508
13851TIP3    H241497   0.128   6.961   5.677  1.8612 -0.0154 -0.0921
13852TIP3   OH241498   4.184   5.238   0.539  0.0765  0.4456  0.0894
13852TIP3    H141499   4.172   5.280   0.624  0.3738 -1.3024  1.0360
13852TIP3    H241500   4.275   5.254   0.516  0.1611  0.4102  0.3991
13853TIP3   OH241501   6.322   0.674   4.109 -0.4515 -0.3370 -0.1681
13853TIP3    H141502   6.300   0.585   4.081  0.0073 -0.2703 -0.7933
13853TIP3    H241503   6.243   0.725   4.093 -1.2044 -0.9041  1.5685
13854TIP3   OH241504   6.376   7.631   5.354  0.1868 -0.0514  0.6194
13854TIP3    H141505   6.370   7.535   5.350 -0.5848  0.0272 -0.4815
13854TIP3    H241506   6.338   7.661   5.272  0.3589  1.2144  0.9817
13855TIP3   OH241507   3.908   1.888   2.403 -0.2852  0.0597  0.3734
13855TIP3    H141508   3.949   1.812   2.362  0.9405  0.6780  0.3850
13855TIP3    H241509   3.929   1.961   2.345  0.4412  0.7443  1.4359
13856TIP3   OH241510   6.050   5.707   5.235  0.4617 -0.6298  0.0663
13856TIP3    H141511   6.116   5.648   5.201 -1.0796 -1.3343 -1.9289
13856TIP3    H241512   5.992   5.651   5.287  0.8280 -0.2330  0.9062
13857TIP3   OH241513   6.900   2.514   1.189 -0.5459  0.4917  0.3807
13857TIP3    H141514   6.894   2.461   1.268  1.1598 -0.5145 -0.1111
13857TIP3    H241515   6.981   2.485   1.146 -0.9096  1.6913 -1.2367
13858TIP3   OH241516   1.835   2.703   1.722 -0.2650  0.1181  0.5011
13858TIP3    H141517   1.890   2.782   1.728  0.6011 -0.3325 -0.9328
13858TIP3    H241518   1.764   2.719   1.784  0.1790  1.7887  0.6443
13859TIP3   OH241519   4.253   5.551   2.156  0.2171  0.3119 -0.1621
13859TIP3    H141520   4.303   5.614   2.206 -0.1027  0.7807 -0.4294
13859TIP3    H241521   4.316   5.483   2.133  0.9718  1.3633 -1.3201
13860TIP3   OH241522   7.609   5.959   6.768  0.7111 -0.2758  0.6435
13860TIP3    H141523   7.636   6.050   6.762 -1.6361  0.4495  0.1023
13860TIP3    H241524   7.532   5.952   6.711  0.0014 -2.2509  1.7243
13861TIP3   OH241525   7.230   3.455   2.479 -0.4165 -0.5625 -0.5499
13861TIP3    H141526   7.271   3.378   2.517  0.8173 -0.0490 -0.8139
13861TIP3    H241527   7.270   3.463   2.392 -0.3243  0.5282 -0.4182
13862TIP3   OH241528   8.232   1.550   3.074 -0.8463  0.2218 -0.6711
13862TIP3    H141529   8.190   1.636   3.073  0.2037  0.7650 -2.2029
13862TIP3    H241530   8.246   1.531   3.166 -3.5224  0.4398 -0.1182
13863TIP3   OH241531   2.826   1.333   5.290 -0.5243 -0.2623 -0.3056
13863TIP3    H141532   2.878   1.362   5.365 -1.3230  0.2654  0.0554
13863TIP3    H241533   2.764   1.404   5.274 -1.2515 -0.9446 -0.6156
13864TIP3   OH241534   8.110   2.088   2.677 -0.0116 -0.3035 -0.0636
13864TIP3    H141535   8.172   2.120   2.742 -0.5624  0.2118  0.2158
13864TIP3    H241536   8.043   2.042   2.727 -0.3164 -0.1054 -0.2858
13865TIP3   OH241537   2.528   2.796   0.202  0.0095 -0.4256 -0.3159
13865TIP3    H141538   2.552   2.885   0.176  0.0332 -0.6187 -0.9979
13865TIP3    H241539   2.507   2.752   0.119  1.2705 -1.4360 -0.1319
13866TIP3   OH241540   6.621   0.514   4.674  0.3188  0.0681 -0.4033
13866TIP3    H141541   6.698   0.465   4.704  0.7171  0.8965 -0.0728
13866TIP3    H241542   6.551   0.485   4.732  0.8418  0.8509  0.6394
13867TIP3   OH241543   5.981   7.631   6.194 -0.6835 -0.1485  0.3577
13867TIP3    H141544   6.064   7.585   6.185 -1.1161 -0.9764  0.4665
13867TIP3    H241545   5.997   7.695   6.264 -0.8315 -2.0087  2.1943
13868TIP3   OH241546   3.066   2.079   2.677  0.2864  0.2175 -0.3309
13868TIP3    H141547   3.089   1.993   2.711 -0.9923 -0.5059 -1.2098
13868TIP3    H241548   3.137   2.137   2.706  1.3823 -1.2132 -0.0885
13869TIP3   OH241549   6.019   2.832   4.444  0.4873 -0.1222 -0.5746
13869TIP3    H141550   6.049   2.763   4.386  0.5691 -1.2788  0.8005
13869TIP3    H241551   5.927   2.846   4.419  0.0435 -1.7270  0.0164
13870TIP3   OH241552   4.598   3.264   1.326 -0.3232  0.0338  0.1777
13870TIP3    H141553   4.609   3.323   1.401 -0.7748 -0.6684  0.8237
13870TIP3    H241554   4.504   3.247   1.324 -0.1519 -0.9960  0.2828
13871TIP3   OH241555   2.372   0.394   6.013 -0.3888  0.6393 -0.3342
13871TIP3    H141556   2.321   0.435   5.943 -1.8224 -1.9395 -0.9048
13871TIP3    H241557   2.313   0.393   6.088 -0.4739 -0.5438 -0.4002
13872TIP3   OH241558   4.813   5.917   0.477 -1.1492 -0.5145  0.0879
13872TIP3    H141559   4.895   5.890   0.435 -0.6218  0.9151  0.1761
13872TIP3    H241560   4.830   5.910   0.571 -0.7334  0.8409  0.1332
13873TIP3   OH241561   1.606   4.661   5.126  0.8539 -0.0703  0.0624
13873TIP3    H141562   1.599   4.571   5.158 -0.0240 -0.4334 -1.0746
13873TIP3    H241563   1.632   4.652   5.034  1.3778  0.8704  0.1002
13874TIP3   OH241564   3.872   0.380   0.381 -0.2705 -0.6416 -0.3001
13874TIP3    H141565   3.959   0.369   0.344 -0.6182  0.8484 -1.7074
13874TIP3    H241566   3.887   0.402   0.473  0.8266 -0.7674 -0.4413
13875TIP3   OH241567   2.118   0.843   2.777  0.5103  0.2568 -0.4198
13875TIP3    H141568   2.112   0.885   2.691  0.1332 -0.7831 -0.9213
13875TIP3    H241569   2.027   0.828   2.802  0.6399 -1.1524 -0.7184
13876TIP3   OH241570   7.834   5.886   5.298  0.2525  0.1856 -0.0500
13876TIP3    H141571   7.855   5.913   5.208 -0.0958  0.3682 -0.0804
13876TIP3    H241572   7.808   5.794   5.289  1.5659 -0.2181  0.0725
13877TIP3   OH241573   0.044   2.344   6.688 -0.0956 -0.2622 -0.2000
13877TIP3    H141574   0.035   2.293   6.768 -0.0254 -1.3246 -0.8442
13877TIP3    H241575   0.092   2.287   6.628 -2.3761 -0.5736 -1.8794
13878TIP3   OH241576   7.540   2.761   4.152 -0.0968 -0.1017 -0.4004
13878TIP3    H141577   7.482   2.826   4.113 -0.3126 -0.7411 -1.1824
13878TIP3    H241578   7.622   2.770   4.103  0.2649  0.3739  0.2808
13879TIP3   OH241579   4.408   4.545   5.438 -0.5057 -0.3986  0.0964
13879TIP3    H141580   4.469   4.613   5.469 -0.0218  0.3042 -2.2279
13879TIP3    H241581   4.462   4.467   5.429 -0.7575 -0.7511  1.4004
13880TIP3   OH241582   8.143   3.779   2.514  0.5918 -0.4963 -0.2713
13880TIP3    H141583   8.096   3.732   2.445  0.4212  0.9585 -1.1851
13880TIP3    H241584   8.220   3.816   2.470  0.0252  1.1901  0.0631
13881TIP3   OH241585   6.493   4.111   1.077  0.0948  0.1311 -0.2093
13881TIP3    H141586   6.580   4.107   1.038  0.7074 -1.2138  1.2002
13881TIP3    H241587   6.437   4.148   1.008  1.7516  0.9796 -1.1523
13882TIP3   OH241588   2.872   7.269   0.761 -0.2449  0.4859 -0.2735
13882TIP3    H141589   2.898   7.357   0.734  0.7270  0.0977 -0.6503
13882TIP3    H241590   2.797   7.249   0.705  1.6924 -0.2854 -2.8457
13883TIP3   OH241591   6.082   2.826   3.387 -0.1977 -0.2501  0.1974
13883TIP3    H141592   6.009   2.826   3.448  1.0170  1.3020  1.7536
13883TIP3    H241593   6.154   2.786   3.434  0.2734 -0.7837 -0.9285
13884TIP3   OH241594   3.284   2.869   3.547 -0.4190  0.2299 -0.1124
13884TIP3    H141595   3.268   2.831   3.634  1.6542 -2.2956 -0.7149
13884TIP3    H241596   3.233   2.814   3.487 -1.1534  1.4257 -0.6128
13885TIP3   OH241597   2.028   1.576   1.331  0.4325 -0.4954 -0.3145
13885TIP3    H141598   2.035   1.666   1.298  0.5697 -0.0898  0.7724
13885TIP3    H241599   1.974   1.584   1.410  1.1040 -1.2448  0.2334
13886TIP3   OH241600   0.000   3.096   3.718 -0.3063 -0.0503  0.1812
13886TIP3    H141601   0.092   3.118   3.736 -0.1009 -1.8428  1.5341
13886TIP3    H241602   0.003   3.011   3.675 -1.4167 -2.5098  4.4445
13887TIP3   OH241603   6.985   5.690   0.437 -0.6896  0.6269 -0.1178
13887TIP3    H141604   6.902   5.660   0.474 -0.7719 -0.3001 -0.9842
13887TIP3    H241605   7.028   5.610   0.407  0.0953  1.1827 -0.5205
13888TIP3   OH241606   0.507   3.065   5.040  0.4433  0.6156  0.3023
13888TIP3    H141607   0.462   3.031   4.962 -1.4421 -0.9030  1.9585
13888TIP3    H241608   0.476   3.155   5.048 -0.4847  0.3279  0.0854
13889TIP3   OH241609   1.762   4.648   0.637  0.3361  0.0801  0.6124
13889TIP3    H141610   1.797   4.715   0.578 -1.7666  0.6447 -0.0712
13889TIP3    H241611   1.671   4.637   0.610 -0.1351 -1.0977  2.4863
13890TIP3   OH241612   7.797   3.430   6.726  0.4836 -0.3320 -0.3536
13890TIP3    H141613   7.748   3.405   6.648  1.7285 -2.2653 -0.5793
13890TIP3    H241614   7.886   3.402   6.708  0.7634 -1.0379  1.8403
13891TIP3   OH241615   2.211   1.787   1.375 -0.1437  0.4820  0.1370
13891TIP3    H141616   2.204   1.877   1.408 -0.7820  0.2360  0.7097
13891TIP3    H241617   2.131   1.745   1.406  0.8778 -0.7125  1.2385
13892TIP3   OH241618   3.471   0.156   6.442  0.5327  0.3065 -0.2765
13892TIP3    H141619   3.516   0.195   6.516  0.2772 -0.7189  0.4449
13892TIP3    H241620   3.504   0.066   6.439 -0.4447 -0.0559 -0.5709
13893TIP3   OH241621   0.479   7.138   0.746 -0.5164  0.4907  0.4010
13893TIP3    H141622   0.515   7.182   0.669 -0.6072  0.4379  0.3276
13893TIP3    H241623   0.387   7.164   0.748 -0.4496  0.7068  0.6464
13894TIP3   OH241624   7.482   2.437   5.030  0.6433  0.0735 -0.0390
13894TIP3    H141625   7.441   2.370   5.084 -0.1547  0.6754  0.1238
13894TIP3    H241626   7.496   2.394   4.945  0.3621 -0.3656  0.1353
13895TIP3   OH241627   0.622   2.937   0.830  0.0608  0.3149  0.7387
13895TIP3    H141628   0.613   2.841   0.833 -0.5446  0.3686  0.6443
13895TIP3    H241629   0.550   2.969   0.883  0.6070  0.7097  1.2577
13896TIP3   OH241630   1.577   1.986   4.644 -0.0252  0.3902 -0.0184
13896TIP3    H141631   1.558   2.080   4.641  2.1628  0.8909 -0.2019
13896TIP3    H241632   1.655   1.976   4.590 -0.7170 -1.7117 -0.7211
13897TIP3   OH241633   7.789   4.077   1.935  0.6437  0.3289  0.1234
13897TIP3    H141634   7.864   4.127   1.967  0.3068  0.9466 -0.0365
13897TIP3    H241635   7.788   4.093   1.841 -0.1693  0.9976  0.2340
13898TIP3   OH241636   7.154   5.078   5.253 -0.0344  0.3165 -0.4057
13898TIP3    H141637   7.097   5.100   5.179  0.2243 -0.2099 -0.7647
13898TIP3    H241638   7.120   4.994   5.285 -2.2832  2.0260  2.1989
13899TIP3   OH241639   3.888   3.592   3.744 -0.2062  0.4810 -0.3120
13899TIP3    H141640   3.814   3.651   3.731 -1.1316 -0.7157 -0.7079
13899TIP3    H241641   3.855   3.525   3.805  0.2883 -0.4865 -1.0813
13900TIP3   OH241642   6.874   4.680   3.931  0.1995  0.0104 -0.2274
13900TIP3    H141643   6.893   4.628   4.009  0.4168  0.6294  0.1449
13900TIP3    H241644   6.943   4.658   3.870  0.5437  0.1763  0.0928
13901TIP3   OH241645   2.269   1.804   5.698 -0.5053 -0.3557 -0.2899
13901TIP3    H141646   2.184   1.832   5.666 -1.0324 -2.1040 -0.5137
13901TIP3    H241647   2.252   1.772   5.787  0.2013  0.5868  0.2155
13902TIP3   OH241648   3.081   3.234   2.218 -0.5465  0.1274 -0.2742
13902TIP3    H141649   3.080   3.320   2.177  0.5418 -0.2596 -1.1750
13902TIP3    H241650   3.149   3.185   2.170 -0.9562 -1.1418  0.3818
13903TIP3   OH241651   6.405   3.941   2.418 -0.4033  0.6972 -0.2989
13903TIP3    H141652   6.367   3.969   2.501  0.6890  1.6585 -0.1080
13903TIP3    H241653   6.415   3.846   2.427 -2.6525  0.4010 -0.3376
13904TIP3   OH241654   6.267   3.387   6.143  0.4684 -0.8891 -0.8877
13904TIP3    H141655   6.301   3.319   6.084  2.0898  0.1124 -1.1553
13904TIP3    H241656   6.307   3.368   6.228 -1.7518 -2.2408 -0.0539
13905TIP3   OH241657   6.178   5.161   4.527 -0.3390 -0.1242 -0.6416
13905TIP3    H141658   6.097   5.156   4.578 -0.6602  1.0799 -0.9968
13905TIP3    H241659   6.247   5.174   4.592 -0.6925  0.9508 -0.4604
13906TIP3   OH241660   3.387   5.171   1.633 -0.0883 -0.0896  0.3031
13906TIP3    H141661   3.471   5.215   1.619 -0.3844  0.6298  0.7125
13906TIP3    H241662   3.380   5.110   1.560 -0.0359  1.1413 -0.7842
13907TIP3   OH241663   8.104   6.964   2.497  0.0127  0.6891 -0.2947
13907TIP3    H141664   8.101   6.979   2.402  0.0205 -1.0047 -0.5988
13907TIP3    H241665   8.028   6.909   2.514  0.0636  0.9118  0.6854
13908TIP3   OH241666   7.591   0.435   1.584  0.3946  0.4242 -0.4246
13908TIP3    H141667   7.551   0.458   1.501 -0.2372 -1.0036 -0.5387
13908TIP3    H241668   7.619   0.518   1.621 -0.9784  1.2668 -1.2095
13909TIP3   OH241669   0.787   7.250   5.180  0.8039 -0.6734 -0.8744
13909TIP3    H141670   0.869   7.298   5.180  0.8836 -0.7508 -2.6134
13909TIP3    H241671   0.728   7.304   5.234  1.0314  1.1805 -2.3473
13910TIP3   OH241672   8.131   3.858   4.719 -0.0258  0.2091  0.2214
13910TIP3    H141673   8.130   3.949   4.748  1.1452  0.4034 -0.2825
13910TIP3    H241674   8.137   3.807   4.799  2.1244  0.7011  0.4404
13911TIP3   OH241675   5.158   6.150   3.891  0.5951 -0.2314 -0.0043
13911TIP3    H141676   5.119   6.113   3.970  0.9063  1.3948  0.9549
13911TIP3    H241677   5.153   6.080   3.826 -2.3310 -0.6648  0.5754
13912TIP3   OH241678   1.881   5.022   2.251 -0.1212  0.1118 -0.5997
13912TIP3    H141679   1.965   5.059   2.226 -0.0745  0.9964  0.7422
13912TIP3    H241680   1.869   4.947   2.193  1.3321  0.2942 -1.1700
13913TIP3   OH241681   6.359   5.534   5.720  0.0575  0.2219  0.0486
13913TIP3    H141682   6.450   5.507   5.707 -0.3534  0.0006 -3.0754
13913TIP3    H241683   6.319   5.460   5.765  1.1760 -0.0918  0.5772
13914TIP3   OH241684   6.237   4.124   1.928 -0.4535  0.1056  0.7673
13914TIP3    H141685   6.261   4.086   1.843 -2.8260  1.7924 -0.8026
13914TIP3    H241686   6.169   4.066   1.962  0.9852 -0.9589  1.9230
13915TIP3   OH241687   0.784   0.486   1.905 -0.5415 -0.2732 -0.0610
13915TIP3    H141688   0.704   0.438   1.928 -0.3808 -0.7603 -0.5001
13915TIP3    H241689   0.790   0.479   1.810 -0.5773  0.7310 -0.1547
13916TIP3   OH241690   4.118   6.425   5.912 -0.1210 -0.2060 -0.3006
13916TIP3    H141691   4.066   6.346   5.894 -1.9272  0.7428  0.4643
13916TIP3    H241692   4.053   6.496   5.914  1.2898  1.1078  0.2562
13917TIP3   OH241693   2.696   0.392   0.584  0.2257  0.0598 -0.2969
13917TIP3    H141694   2.647   0.473   0.591 -2.3902 -1.3766 -0.7552
13917TIP3    H241695   2.672   0.356   0.499 -0.5558 -2.2829  0.8210
13918TIP3   OH241696   2.973   6.298   1.941 -0.6164  0.2956 -0.1848
13918TIP3    H141697   2.955   6.254   1.858  0.1587  1.1184 -0.8131
13918TIP3    H241698   2.940   6.388   1.928 -0.8341  0.3279  0.5420
13919TIP3   OH241699   5.695   3.037   2.322 -0.1371  0.1013 -0.0737
13919TIP3    H141700   5.723   2.949   2.297  0.8714  0.6666 -1.0152
13919TIP3    H241701   5.776   3.088   2.326 -0.7925  1.2082 -0.4340
13920TIP3   OH241702   2.873   6.489   3.783  0.2134  0.5149  0.1870
13920TIP3    H141703   2.957   6.463   3.821  0.3787  0.4788 -0.2027
13920TIP3    H241704   2.811   6.424   3.817 -0.1206  1.8647  2.3587
13921TIP3   OH241705   5.218   4.274   2.300 -0.2451  0.0096 -0.1266
13921TIP3    H141706   5.302   4.302   2.263 -0.6524  1.6999  0.1311
13921TIP3    H241707   5.153   4.303   2.237 -0.9156  2.4790  1.5496
13922TIP3   OH241708   3.354   6.393   6.134  0.2263 -0.1533 -0.0788
13922TIP3    H141709   3.311   6.477   6.117 -0.0985 -0.2093  0.4271
13922TIP3    H241710   3.345   6.345   6.052  0.5540  0.3641 -0.4215
13923TIP3   OH241711   6.567   1.313   1.709  0.1806  0.1637  0.0216
13923TIP3    H141712   6.508   1.340   1.780  0.3918  1.0751 -0.1388
13923TIP3    H241713   6.524   1.237   1.670 -1.2846  1.2300 -0.5615
13924TIP3   OH241714   6.829   7.642   6.572 -0.2295 -0.5363 -0.0324
13924TIP3    H141715   6.866   7.684   6.494  2.4617 -0.3716  1.2203
13924TIP3    H241716   6.757   7.588   6.539  1.0561 -0.7674 -2.6782
13925TIP3   OH241717   0.145   5.729   2.354 -0.1356 -0.1208  0.2684
13925TIP3    H141718   0.157   5.644   2.396 -0.3653 -0.3525 -0.1256
13925TIP3    H241719   0.055   5.753   2.375  0.3584  0.6785  1.5465
13926TIP3   OH241720   3.430   0.699   0.492 -0.0157  0.1091 -0.1990
13926TIP3    H141721   3.372   0.688   0.417 -0.5571 -0.4188  0.2888
13926TIP3    H241722   3.445   0.794   0.497 -1.1107  0.2939 -0.1254
13927TIP3   OH241723   6.325   4.495   3.356 -0.0643  0.0421  0.0011
13927TIP3    H141724   6.267   4.440   3.304 -1.1098  1.0278  0.0864
13927TIP3    H241725   6.272   4.521   3.431  1.0965 -0.5223  1.0450
13928TIP3   OH241726   7.465   3.186   6.570  0.0272 -0.2905  0.6456
13928TIP3    H141727   7.539   3.127   6.554 -0.3762 -0.7357  0.4339
13928TIP3    H241728   7.504   3.274   6.566  0.6750 -0.5461  1.2279
13929TIP3   OH241729   5.449   2.971   3.200  0.0959 -0.4325 -0.6479
13929TIP3    H141730   5.510   2.932   3.138  0.0557 -0.5493 -0.6123
13929TIP3    H241731   5.420   3.052   3.157  0.1625 -0.4511 -0.7273
13930TIP3   OH241732   6.633   5.372   5.718 -0.3817 -0.2979 -0.7371
13930TIP3    H141733   6.646   5.318   5.641 -0.2655  0.7593 -1.4871
13930TIP3    H241734   6.625   5.310   5.791  1.5404 -1.2637 -1.2845
13931TIP3   OH241735   7.430   7.073   2.791 -0.6504  0.2099 -0.0616
13931TIP3    H141736   7.383   6.997   2.826  1.1922 -0.0395  2.0948
13931TIP3    H241737   7.490   7.036   2.726  1.4250 -0.5313  2.1520
13932TIP3   OH241738   4.944   0.796   2.282  0.6286  0.3966 -0.0802
13932TIP3    H141739   4.935   0.713   2.236 -0.0877  0.4739 -0.0903
13932TIP3    H241740   5.023   0.786   2.335 -0.2578 -0.8538  1.0652
13933TIP3   OH241741   6.245   6.921   6.647 -0.1413  0.5980 -0.5143
13933TIP3    H141742   6.311   6.852   6.647  0.3671  1.0742  0.0943
13933TIP3    H241743   6.193   6.905   6.725 -1.2339 -0.2057 -1.3629
13934TIP3   OH241744   7.666   4.186   2.174  0.0171  0.6061  0.2450
13934TIP3    H141745   7.687   4.094   2.156  1.0211  0.5525  1.5596
13934TIP3    H241746   7.572   4.192   2.158  0.1092 -0.3963 -0.8338
13935TIP3   OH241747   7.372   5.763   4.512 -0.0857 -0.2233 -0.7569
13935TIP3    H141748   7.313   5.726   4.447 -0.0871  1.6355 -1.8612
13935TIP3    H241749   7.430   5.690   4.536 -1.7741 -1.6501 -0.8088
13936TIP3   OH241750   3.086   5.883   3.677 -0.1099 -0.4764  0.0527
13936TIP3    H141751   3.142   5.881   3.755  0.9424  0.6399 -0.6547
13936TIP3    H241752   3.142   5.915   3.607 -2.0354  2.4901 -0.3302
13937TIP3   OH241753   4.994   5.409   5.780 -0.1207  0.1654  0.3282
13937TIP3    H141754   4.975   5.319   5.804  1.2485 -0.9878 -2.4795
13937TIP3    H241755   4.908   5.451   5.777 -1.1024 -1.8004 -0.9023
13938TIP3   OH241756   5.206   5.317   6.201  0.6106 -0.8467 -0.2734
13938TIP3    H141757   5.292   5.354   6.220 -0.0166  0.8488 -0.5128
13938TIP3    H241758   5.182   5.355   6.117 -0.2017 -1.6195 -0.4018
13939TIP3   OH241759   7.752   3.762   0.900 -0.1040 -0.2233  0.2664
13939TIP3    H141760   7.773   3.806   0.817  1.2020 -1.1001  0.1139
13939TIP3    H241761   7.658   3.746   0.894 -0.4497  1.6373 -0.0997
13940TIP3   OH241762   2.491   5.036   3.366 -0.2745  0.4840  0.3124
13940TIP3    H141763   2.547   4.983   3.308 -0.1349  0.9041  0.0564
13940TIP3    H241764   2.477   5.117   3.317  0.6284  1.2361  1.2622
13941TIP3   OH241765   0.080   7.285   2.983 -0.3162  0.1767  0.4940
13941TIP3    H141766  -0.006   7.267   2.945  0.1867 -1.5949  0.1328
13941TIP3    H241767   0.060   7.318   3.071 -1.3750 -1.1402  0.7910
13942TIP3   OH241768   5.993   3.896   5.123  0.1683  0.0040 -0.2296
13942TIP3    H141769   5.929   3.966   5.136  1.2336  0.9048  0.2730
13942TIP3    H241770   5.982   3.839   5.199 -1.2901 -0.8834 -1.0586
13943TIP3   OH241771   3.691   4.660   3.267 -0.1018  0.3379  0.0089
13943TIP3    H141772   3.729   4.742   3.234  1.3684 -0.9575 -1.7792
13943TIP3    H241773   3.718   4.594   3.202 -0.8394 -1.6393  1.6134
13944TIP3   OH241774   0.993   4.207   1.929 -0.2032  0.0297 -0.0826
13944TIP3    H141775   1.060   4.228   1.864 -0.2671  1.1412  0.1922
13944TIP3    H241776   0.911   4.234   1.888 -0.2496  0.6948  0.4275
13945TIP3   OH241777   2.578   3.335   0.261 -0.1335  0.2353 -0.3290
13945TIP3    H141778   2.557   3.296   0.346 -0.2303  0.5484 -0.2093
13945TIP3    H241779   2.565   3.429   0.274 -0.4997  0.2493 -0.7967
13946TIP3   OH241780   0.642   6.039   5.081 -0.6447  0.2439  0.1354
13946TIP3    H141781   0.689   5.956   5.083  1.6209  1.4208 -0.3475
13946TIP3    H241782   0.567   6.026   5.139  1.6496 -1.0298  3.0961
13947TIP3   OH241783   2.145   6.468   2.567  0.2080  0.0670  0.7297
13947TIP3    H141784   2.168   6.375   2.575  1.0012  0.2064  0.2012
13947TIP3    H241785   2.125   6.480   2.474  0.8958  0.5968  0.6446
13948TIP3   OH241786   7.075   6.697   1.595 -0.2289 -0.3241 -0.2321
13948TIP3    H141787   7.129   6.667   1.521  1.7407  2.4484 -0.0720
13948TIP3    H241788   7.058   6.618   1.646  0.7008 -1.8680 -2.1735
13949TIP3   OH241789   5.412   3.795   6.323  0.5541  0.3656 -0.3009
13949TIP3    H141790   5.361   3.720   6.294 -0.1191  0.6480  0.1237
13949TIP3    H241791   5.477   3.808   6.254  0.6997 -0.6215 -0.3631
13950TIP3   OH241792   1.442   4.319   3.151 -0.6490  0.0847 -0.0324
13950TIP3    H141793   1.366   4.262   3.159 -1.0056  0.5246 -0.2152
13950TIP3    H241794   1.406   4.402   3.118  0.1345 -0.2110 -1.6805
13951TIP3   OH241795   8.182   3.332   3.607 -0.0663  0.3751  0.0368
13951TIP3    H141796   8.180   3.247   3.562  2.1426  1.5209 -2.5869
13951TIP3    H241797   8.243   3.319   3.679 -0.0662 -0.3880 -0.0915
13952TIP3   OH241798   1.570   2.722   0.385 -0.1054 -0.4929  0.2590
13952TIP3    H141799   1.660   2.743   0.411  0.3516 -1.9047 -0.1267
13952TIP3    H241800   1.537   2.666   0.456 -0.1957 -1.1273 -0.2779
13953TIP3   OH241801   4.301   2.952   5.266 -0.2714 -0.6735  0.3311
13953TIP3    H141802   4.286   2.857   5.272  0.6475 -0.7813  1.2499
13953TIP3    H241803   4.387   2.965   5.307 -0.3075  0.5371  0.0514
13954TIP3   OH241804   5.224   5.461   5.060  0.2523  0.0681 -0.1115
13954TIP3    H141805   5.167   5.391   5.092  0.4120  0.6598  1.5950
13954TIP3    H241806   5.216   5.531   5.126  1.4728  0.9213 -0.8163
13955TIP3   OH241807   3.451   3.349   4.661 -0.1522 -0.2949  0.8247
13955TIP3    H141808   3.546   3.346   4.650 -0.3594 -0.2349 -1.5522
13955TIP3    H241809   3.420   3.267   4.623 -1.1670  0.7237 -0.6631
13956TIP3   OH241810   7.755   6.389   0.776 -0.0329 -0.3509  0.8996
13956TIP3    H141811   7.737   6.368   0.684 -0.3150  0.3860  0.7840
13956TIP3    H241812   7.673   6.427   0.808  0.1200 -0.4468  1.4149
13957TIP3   OH241813   3.830   2.147   0.377  0.1023  0.0121  0.1057
13957TIP3    H141814   3.759   2.212   0.375 -0.4262 -0.5304  0.7041
13957TIP3    H241815   3.791   2.071   0.420  1.6749  0.4677  2.5346
13958TIP3   OH241816   8.111   3.158   3.382 -0.2202 -0.4204 -0.8292
13958TIP3    H141817   8.102   3.242   3.338  0.2486  0.0497 -0.0542
13958TIP3    H241818   8.165   3.105   3.324  0.6209  0.2859 -0.6916
13959TIP3   OH241819   5.274   5.184   1.700 -0.2146  0.2633 -0.5176
13959TIP3    H141820   5.257   5.268   1.742  2.0256  0.5111  0.0376
13959TIP3    H241821   5.296   5.207   1.609  2.1014  0.5470  0.0432
13960TIP3   OH241822   1.445   4.898   4.972 -0.1460  0.0039  0.0299
13960TIP3    H141823   1.496   4.828   5.012 -1.1804  0.4168  2.2310
13960TIP3    H241824   1.500   4.931   4.902  2.0660 -0.4112  1.4678
13961TIP3   OH241825   5.165   2.088   6.204  0.0907 -0.0717  0.3321
13961TIP3    H141826   5.234   2.029   6.170 -0.0947  0.4010 -0.9307
13961TIP3    H241827   5.085   2.036   6.198  0.0218  0.0902 -0.1998
13962TIP3   OH241828   1.768   7.300   0.410  0.1759 -0.2650  0.2342
13962TIP3    H141829   1.763   7.327   0.502 -1.0273  0.9416 -0.1572
13962TIP3    H241830   1.810   7.214   0.412 -0.3590 -0.5124  1.9598
13963TIP3   OH241831   4.680   2.247   0.278  0.3206  0.1455 -0.3608
13963TIP3    H141832   4.753   2.187   0.293  0.1411  0.0220  0.0420
13963TIP3    H241833   4.640   2.258   0.364  0.5560  1.1112 -0.3735
13964TIP3   OH241834   6.544   1.903   4.348 -0.1699 -0.0872 -0.1605
13964TIP3    H141835   6.499   1.951   4.278  1.7321  1.5824 -0.3140
13964TIP3    H241836   6.473   1.865   4.400 -1.6755  0.2520 -1.8510
13965TIP3   OH241837   7.297   4.870   5.672 -0.0406 -0.2530  0.2630
13965TIP3    H141838   7.304   4.959   5.706 -1.4062  0.0384 -0.1508
13965TIP3    H241839   7.379   4.856   5.624  0.3121  0.6635  0.5750
13966TIP3   OH241840   1.563   0.008   0.038  0.3021 -0.0010 -0.1664
13966TIP3    H141841   1.475  -0.029   0.024 -1.1244  2.5428  1.3427
13966TIP3    H241842   1.576   0.066  -0.037  1.6508 -1.8235 -1.4406
13967TIP3   OH241843   1.112   6.556   2.995 -0.0160  0.1561  0.1389
13967TIP3    H141844   1.021   6.532   3.009 -0.1500  1.8433  2.8187
13967TIP3    H241845   1.110   6.613   2.918 -1.1347 -0.2060 -0.1169
13968TIP3   OH241846   2.710   4.259   4.296 -0.3965 -0.5750 -0.2863
13968TIP3    H141847   2.703   4.223   4.208 -0.2530 -0.1084 -0.4873
13968TIP3    H241848   2.632   4.227   4.341 -1.2216  0.3776 -1.0079
13969TIP3   OH241849   1.588   6.220   2.421 -0.2292  0.0727  0.0850
13969TIP3    H141850   1.636   6.293   2.381 -0.1864  0.4101  0.7430
13969TIP3    H241851   1.598   6.233   2.515  0.1978 -1.0597  0.2124
13970TIP3   OH241852   7.846   0.014   3.538  0.0101  0.4144  0.1970
13970TIP3    H141853   7.794   0.089   3.565  1.0866  1.3698 -0.2897
13970TIP3    H241854   7.933   0.030   3.577  0.0810 -0.9434  0.6907
13971TIP3   OH241855   0.172   0.073   4.405  0.0670 -0.4044  0.0269
13971TIP3    H141856   0.119   0.006   4.363 -0.8124 -1.2166  2.2675
13971TIP3    H241857   0.261   0.037   4.405 -0.2280 -1.1536  0.3457
13972TIP3   OH241858   1.930   3.575   1.383  0.1423 -0.4132  0.3295
13972TIP3    H141859   1.885   3.554   1.465  0.0298  0.1564  0.4159
13972TIP3    H241860   1.872   3.540   1.315 -0.8152  0.9219  0.4052
13973TIP3   OH241861   7.505   0.567   6.695 -0.0116 -0.1229  0.3124
13973TIP3    H141862   7.511   0.650   6.741  0.2839 -0.9368  1.7993
13973TIP3    H241863   7.411   0.551   6.686 -0.2170  2.0730 -3.3037
13974TIP3   OH241864   7.332   4.432   0.726  0.0741 -0.3046 -0.3073
13974TIP3    H141865   7.258   4.382   0.760 -0.8013  1.7530  1.0031
13974TIP3    H241866   7.355   4.492   0.797  1.8569  0.3241 -1.3550
13975TIP3   OH241867   4.610   3.396   5.306  0.5280  0.2128 -0.2323
13975TIP3    H141868   4.546   3.443   5.360  0.6732  0.2542 -0.0967
13975TIP3    H241869   4.630   3.317   5.357 -0.4946 -0.5242 -0.9195
13976TIP3   OH241870   4.856   5.968   3.849 -0.7955 -0.5041  0.2035
13976TIP3    H141871   4.798   6.036   3.814 -0.3180 -0.3610 -0.3250
13976TIP3    H241872   4.940   5.985   3.808 -0.0924 -0.0668  1.7624
13977TIP3   OH241873   0.528   5.787   6.217  0.9769 -0.0127  0.4253
13977TIP3    H141874   0.503   5.773   6.125 -2.8094 -0.1692  1.2940
13977TIP3    H241875   0.582   5.712   6.239  0.9087 -0.6247 -1.3362
13978TIP3   OH241876   6.814   2.914   0.901  0.4168 -0.0818  0.1884
13978TIP3    H141877   6.847   2.841   0.954  1.3720 -0.4567 -0.8669
13978TIP3    H241878   6.739   2.948   0.950  1.4622 -0.1765  1.9381
13979TIP3   OH241879   6.676   2.708   2.401 -0.1151  0.5316 -0.2982
13979TIP3    H141880   6.678   2.793   2.357  0.6744  2.0490  2.4038
13979TIP3    H241881   6.596   2.710   2.455 -0.3829 -0.7011 -0.6025
13980TIP3   OH241882   3.483   5.688   3.240  0.0519 -0.2536  0.8006
13980TIP3    H141883   3.534   5.612   3.214 -0.5715 -0.2850 -0.3973
13980TIP3    H241884   3.541   5.763   3.224 -0.5100 -0.2260 -1.2915
13981TIP3   OH241885   3.068   5.934   4.260 -0.3797 -0.1762  0.3058
13981TIP3    H141886   3.062   5.842   4.232 -3.2661  0.1732 -0.4701
13981TIP3    H241887   3.072   5.929   4.356 -0.2590 -1.1043  0.2682
13982TIP3   OH241888   8.165   2.379   2.104  0.5513  0.5941 -0.0857
13982TIP3    H141889   8.207   2.321   2.167  1.5002  0.5095 -0.7666
13982TIP3    H241890   8.149   2.323   2.027  0.3111  0.9273 -0.2825
13983TIP3   OH241891   2.027   1.500   6.389  0.1264 -0.2780 -0.1114
13983TIP3    H141892   1.995   1.510   6.300 -0.1563 -0.7720 -0.0703
13983TIP3    H241893   2.071   1.582   6.408 -0.8649  0.3108 -0.2779
13984TIP3   OH241894   1.551   6.458   1.444 -0.3483 -0.6154 -0.3867
13984TIP3    H141895   1.485   6.438   1.511 -0.7006 -1.0215 -0.8415
13984TIP3    H241896   1.502   6.499   1.373 -0.0539 -0.5912 -0.5789
13985TIP3   OH241897   0.285   3.137   4.320 -0.1740  0.0070  0.4421
13985TIP3    H141898   0.229   3.204   4.359  0.0815  0.9715 -0.7796
13985TIP3    H241899   0.327   3.095   4.394 -0.7716  0.8295  1.2696
13986TIP3   OH241900   8.301   1.400   4.614  0.0740  0.3341  0.5836
13986TIP3    H141901   8.222   1.454   4.611 -0.2810 -0.1536  0.9796
13986TIP3    H241902   8.364   1.446   4.559 -0.7556  0.3135 -0.4184
13987TIP3   OH241903   2.613   4.641   6.399 -0.0069 -0.2462  0.3994
13987TIP3    H141904   2.529   4.621   6.359  0.7845 -1.6244 -0.6957
13987TIP3    H241905   2.634   4.729   6.369  0.2303 -0.9661 -1.7413
13988TIP3   OH241906   0.850   4.772   6.754 -0.3238  0.1281 -0.7608
13988TIP3    H141907   0.785   4.842   6.762 -0.0206  0.7048 -2.6744
13988TIP3    H241908   0.931   4.818   6.731  0.3632 -0.7210 -0.1233
13989TIP3   OH241909   2.339   7.654   4.665 -0.0033  0.3145 -0.3840
13989TIP3    H141910   2.326   7.571   4.619  1.5187 -0.3225  0.2759
13989TIP3    H241911   2.415   7.694   4.623 -0.1119  0.8919 -0.0376
13990TIP3   OH241912   7.960   4.498   1.847  0.4355  0.0558 -0.8234
13990TIP3    H141913   7.920   4.481   1.762 -0.0860 -0.2046 -0.5288
13990TIP3    H241914   7.886   4.502   1.908  0.9017 -1.4453 -0.1018
13991TIP3   OH241915   5.631   0.026   5.502  0.3013  0.5511  0.3358
13991TIP3    H141916   5.662   0.022   5.412 -1.3800 -0.7999 -0.2617
13991TIP3    H241917   5.642   0.117   5.528 -1.9448  1.7551 -2.3352
13992TIP3   OH241918   4.878   3.028   1.701 -0.6630 -0.1786 -0.4859
13992TIP3    H141919   4.927   2.946   1.697 -2.3465 -1.3489  1.1608
13992TIP3    H241920   4.889   3.068   1.614  0.9965 -1.6423 -0.9949
13993TIP3   OH241921   6.479   4.033   0.118  0.4289 -0.0987  0.2137
13993TIP3    H141922   6.500   3.988   0.200  1.9709 -0.4758 -0.3472
13993TIP3    H241923   6.385   4.018   0.105 -0.1579  1.1010  2.5518
13994TIP3   OH241924   0.288   3.620   5.368  0.2890 -0.2977 -0.0699
13994TIP3    H141925   0.198   3.644   5.391 -0.0320 -0.8922 -0.6506
13994TIP3    H241926   0.287   3.616   5.272  1.4719  1.7241 -0.2210
13995TIP3   OH241927   0.158   6.141   6.493 -0.4776 -0.0793 -0.0456
13995TIP3    H141928   0.196   6.226   6.473 -0.8756  0.4256  1.2528
13995TIP3    H241929   0.208   6.109   6.569  1.1397 -2.0237 -1.7985
13996TIP3   OH241930   6.148   1.752   1.167 -0.3301  0.0269  0.1655
13996TIP3    H141931   6.089   1.826   1.184  0.1488  0.3511  0.4590
13996TIP3    H241932   6.234   1.792   1.156 -0.1699 -0.4361 -0.3144
13997TIP3   OH241933   4.253   2.380   1.962 -0.3086 -0.0696  0.3641
13997TIP3    H141934   4.344   2.409   1.962 -0.4967  0.6683 -1.5212
13997TIP3    H241935   4.228   2.381   1.869 -1.2770 -3.3270  0.4714
13998TIP3   OH241936   2.917   2.809   0.157  0.0947  0.3026  0.1804
13998TIP3    H141937   2.943   2.883   0.211  1.0434 -0.0842  0.2678
13998TIP3    H241938   2.860   2.757   0.214  0.3908  0.3493  0.5250
13999TIP3   OH241939   6.617   6.129   5.082 -0.2549 -0.0937  0.0127
13999TIP3    H141940   6.662   6.064   5.135 -1.1777 -0.4932  0.3169
13999TIP3    H241941   6.647   6.214   5.116 -0.5082 -0.3490  0.8704
14000TIP3   OH241942   3.236   1.030   0.764  0.2234 -0.2304 -0.0199
14000TIP3    H141943   3.312   1.009   0.709 -0.5762  0.9790 -1.6636
14000TIP3    H241944   3.185   0.949   0.767  0.5706 -0.4761 -0.6026
14001TIP3   OH241945   1.490   6.449   3.533 -0.2631 -0.3149 -0.3888
14001TIP3    H141946   1.543   6.377   3.497 -0.5408 -1.3214  1.1077
14001TIP3    H241947   1.520   6.527   3.486  2.1905 -0.9214  0.0203
14002TIP3   OH241948   0.927   3.353   1.744 -0.0080 -0.0034 -0.1373
14002TIP3    H141949   0.873   3.433   1.744  0.8085  0.5558 -0.4234
14002TIP3    H241950   1.016   3.384   1.757  0.1162 -1.0377  1.7636
14003TIP3   OH241951   3.826   5.547   1.062  0.4353 -0.0430  0.3241
14003TIP3    H141952   3.777   5.528   1.141 -0.5109 -1.9488 -0.6424
14003TIP3    H241953   3.783   5.624   1.024 -0.1247 -0.0918  0.8484
14004TIP3   OH241954   4.660   6.137   3.155  0.0400  0.0327  0.0396
14004TIP3    H141955   4.622   6.193   3.087 -0.6083 -0.8115 -0.3029
14004TIP3    H241956   4.638   6.182   3.237 -0.6015  0.2094 -0.2213
14005TIP3   OH241957   5.415   0.578   3.042 -0.2137 -0.4026  0.0998
14005TIP3    H141958   5.476   0.546   3.108 -0.2280  0.3342  0.4684
14005TIP3    H241959   5.328   0.557   3.077 -0.2708  1.1440  0.9286
14006TIP3   OH241960   2.129   2.776   2.360  0.2233 -0.2620 -0.0561
14006TIP3    H141961   2.213   2.819   2.344 -0.8526  1.5426 -1.2102
14006TIP3    H241962   2.108   2.797   2.451  1.1524 -1.0498  0.3645
14007TIP3   OH241963   4.222   4.311   2.834 -0.4469 -0.9001 -0.4783
14007TIP3    H141964   4.225   4.384   2.896 -0.3817 -1.5291  0.2752
14007TIP3    H241965   4.158   4.338   2.768  0.5148  0.3813 -0.9291
14008TIP3   OH241966   0.795   5.649   3.913 -0.0289  0.3324  0.2182
14008TIP3    H141967   0.731   5.584   3.884  0.4650 -0.3418  0.6137
14008TIP3    H241968   0.879   5.603   3.912  0.0791  0.3891  2.2568
14009TIP3   OH241969   6.492   4.155   4.074  0.8043  0.3180 -0.0554
14009TIP3    H141970   6.401   4.149   4.103  0.5319  0.3790 -0.8541
14009TIP3    H241971   6.502   4.081   4.015  1.0100  0.7997 -0.6372
14010TIP3   OH241972   4.833   5.768   2.946 -0.3822  0.1185  0.5048
14010TIP3    H141973   4.758   5.765   2.886 -0.9298 -0.1726  1.1811
14010TIP3    H241974   4.894   5.704   2.912  0.6960  2.0530 -1.4766
14011TIP3   OH241975   0.827   6.368   0.922 -0.1166  0.2156 -0.3075
14011TIP3    H141976   0.823   6.283   0.876  2.6060  0.4100 -1.0777
14011TIP3    H241977   0.756   6.363   0.986 -0.6690 -2.2521 -0.9664
14012TIP3   OH241978   1.075   3.311   3.157  0.2057  0.2665  0.0115
14012TIP3    H141979   1.107   3.258   3.231  0.4224 -0.4754 -0.6029
14012TIP3    H241980   1.126   3.281   3.082 -1.5721 -0.6364 -0.9092
14013TIP3   OH241981   1.532   2.132   0.373  0.0451  0.2580  0.7313
14013TIP3    H141982   1.469   2.201   0.393  1.0752  1.6378 -0.5954
14013TIP3    H241983   1.486   2.075   0.311  0.2554  1.5606 -0.6608
14014TIP3   OH241984   5.010   1.453   5.353  0.4071 -0.0476  0.0936
14014TIP3    H141985   4.947   1.403   5.405  1.4114 -0.9817  0.4352
14014TIP3    H241986   5.003   1.542   5.387 -0.3930 -0.2276  0.4358
14015TIP3   OH241987   2.222   0.867   2.030  0.0902  0.3139  0.0038
14015TIP3    H141988   2.303   0.845   2.076  1.4637  0.7868 -2.0740
14015TIP3    H241989   2.188   0.943   2.077  0.4023 -0.3318  1.3469
14016TIP3   OH241990   6.869   7.382   3.716 -0.2065 -0.3640 -0.2853
14016TIP3    H141991   6.781   7.359   3.745  0.4356 -1.8679  0.5896
14016TIP3    H241992   6.858   7.407   3.624 -1.4332 -1.4399 -0.4659
14017TIP3   OH241993   3.874   3.827   6.686 -0.4067 -0.5062 -0.5311
14017TIP3    H141994   3.798   3.823   6.745  0.6435  1.9961  1.1588
14017TIP3    H241995   3.859   3.905   6.632  0.0991 -1.0607 -1.5108
14018TIP3   OH241996   1.104   7.340   3.188  0.0100 -0.2622 -0.0125
14018TIP3    H141997   1.040   7.335   3.118 -0.3322  1.1935  0.1487
14018TIP3    H241998   1.071   7.410   3.245  0.3109 -1.3465  1.5585
14019TIP3   OH241999   0.352   0.125   1.110  0.2160 -0.4404  0.2511
14019TIP3    H142000   0.353   0.092   1.020  0.2758  0.4169 -0.0738
14019TIP3    H242001   0.407   0.064   1.159  0.8312 -0.4661 -0.4637
14020TIP3   OH242002   5.268   6.884   5.581  0.0646  0.5590  0.2734
14020TIP3    H142003   5.229   6.803   5.615  0.0400  0.0639 -0.8839
14020TIP3    H242004   5.355   6.858   5.551  0.0444  0.9481 -0.1370
14021TIP3   OH242005   2.831   5.342   1.167 -0.5263 -0.0638  0.2281
14021TIP3    H142006   2.835   5.246   1.172  0.7264 -0.0829 -0.6141
14021TIP3    H242007   2.922   5.370   1.176 -0.8083  1.0095 -0.1766
14022TIP3   OH242008   3.445   3.785   0.456  0.8086  0.0646  0.5364
14022TIP3    H142009   3.474   3.825   0.374 -2.8842  1.6709 -0.1987
14022TIP3    H242010   3.416   3.698   0.432 -1.4206  0.9511 -0.2635
14023TIP3   OH242011   3.409   5.988   4.539  0.5296  0.2719 -0.5286
14023TIP3    H142012   3.441   5.901   4.515  1.1221  0.8736 -2.0390
14023TIP3    H242013   3.431   5.997   4.632 -1.2171 -1.8900  0.1625
14024TIP3   OH242014   4.656   3.203   1.771 -0.4837  0.3856  0.1308
14024TIP3    H142015   4.714   3.127   1.760 -1.2133  0.0562 -1.6642
14024TIP3    H242016   4.583   3.170   1.824  1.2313  1.0082  3.1391
14025TIP3   OH242017   7.987   7.644   5.942  0.2902  0.1151 -0.4969
14025TIP3    H142018   8.078   7.617   5.935  0.1203 -0.3664 -0.9510
14025TIP3    H242019   7.990   7.734   5.974  0.8536 -0.8112  2.3503
14026TIP3   OH242020   7.679   3.260   6.136 -0.6707 -0.4835  0.0215
14026TIP3    H142021   7.586   3.263   6.157 -0.6878 -0.7894 -0.0074
14026TIP3    H242022   7.705   3.170   6.154 -0.1605 -0.1682  0.9622
14027TIP3   OH242023   2.125   7.673   0.386  0.2280  0.2587 -0.4570
14027TIP3    H142024   2.071   7.673   0.308  1.4553 -1.0099 -1.3503
14027TIP3    H242025   2.067   7.645   0.457 -0.3924 -0.6256 -1.3040
14028TIP3   OH242026   2.746   0.059   0.049  0.2584 -0.4120 -0.4430
14028TIP3    H142027   2.787   0.140   0.081 -1.9974  0.6117  0.0094
14028TIP3    H242028   2.763   0.059  -0.045 -0.6820  1.2049 -0.6436
14029TIP3   OH242029   0.986   4.390   2.662  0.0154  0.2406 -0.0668
14029TIP3    H142030   1.060   4.434   2.620 -0.5212  1.1196 -0.1284
14029TIP3    H242031   0.956   4.451   2.729 -1.4889  0.5293 -0.9426
14030TIP3   OH242032   7.579   1.093   1.782 -0.1867 -0.2214 -0.2457
14030TIP3    H142033   7.627   1.076   1.863 -1.9689 -1.0550  0.6721
14030TIP3    H242034   7.627   1.043   1.715  0.4155 -0.7559  0.5645
14031TIP3   OH242035   7.557   7.797   4.055 -0.0236 -0.0341 -0.1096
14031TIP3    H142036   7.557   7.871   3.995  1.9092 -1.2368 -1.6900
14031TIP3    H242037   7.564   7.719   3.999  2.6942 -1.1813  1.6140
14032TIP3   OH242038   6.869   5.252   6.703  0.4368  0.3020  0.6233
14032TIP3    H142039   6.850   5.158   6.696  0.7279  0.2934 -0.0990
14032TIP3    H242040   6.957   5.255   6.740  0.7149  0.2774 -0.0315
14033TIP3   OH242041   6.858   1.630   1.308  0.8557 -0.8330  0.0389
14033TIP3    H142042   6.867   1.603   1.216  1.3747 -1.2611  0.2096
14033TIP3    H242043   6.765   1.620   1.327  0.2374  1.6719 -1.1692
14034TIP3   OH242044   6.820   4.638   5.338  0.0661  0.0928  0.3576
14034TIP3    H142045   6.879   4.578   5.385  0.4476 -0.0252 -0.2515
14034TIP3    H242046   6.796   4.589   5.259 -1.5364 -0.1968  0.9941
14035TIP3   OH242047   5.065   5.735   5.014 -0.4012  0.1148 -0.4465
14035TIP3    H142048   4.984   5.787   5.020  0.4439  1.6051 -1.4281
14035TIP3    H242049   5.098   5.752   4.926 -0.7224 -3.1541 -1.3460
14036TIP3   OH242050   1.196   0.377   1.702  0.1249 -0.4978 -0.0835
14036TIP3    H142051   1.177   0.291   1.741  0.3580  0.0301  1.2325
14036TIP3    H242052   1.110   0.415   1.685  0.0162 -0.4190  0.6371
14037TIP3   OH242053   3.253   4.603   2.049  0.2688  0.2329 -0.2992
14037TIP3    H142054   3.232   4.560   1.966  1.9139 -0.4264 -0.4119
14037TIP3    H242055   3.277   4.692   2.025 -0.1106  0.3006 -0.4280
14038TIP3   OH242056   7.326   0.436   0.227 -0.8618 -0.5336  0.1418
14038TIP3    H142057   7.251   0.431   0.286 -0.3408 -0.8597  0.7960
14038TIP3    H242058   7.385   0.499   0.269 -0.9080 -0.0291 -0.5352
14039TIP3   OH242059   0.580   2.450   6.157 -0.3084 -0.2911  0.5249
14039TIP3    H142060   0.582   2.542   6.185  1.1454  0.6943 -2.4337
14039TIP3    H242061   0.672   2.427   6.144 -0.7009 -1.9704  0.5021
14040TIP3   OH242062   4.376   7.131   5.520  0.3103  0.3395 -0.2294
14040TIP3    H142063   4.471   7.125   5.527  0.3168  1.4741  1.2455
14040TIP3    H242064   4.345   7.042   5.537  1.0881  0.0407 -0.3287
14041TIP3   OH242065   6.994   1.752   6.374 -0.7731 -0.3077 -0.1817
14041TIP3    H142066   6.924   1.785   6.316  0.1470 -0.4737 -1.4258
14041TIP3    H242067   6.970   1.785   6.461 -0.9926  1.9021 -1.0147
14042TIP3   OH242068   6.520   6.508   6.035  0.0926  0.3485 -0.1766
14042TIP3    H142069   6.475   6.542   5.958 -1.8474 -0.1573  0.6645
14042TIP3    H242070   6.513   6.413   6.028 -0.9966  0.2956  1.0465
14043TIP3   OH242071   4.121   3.781   1.798 -0.3082 -0.5196  0.1554
14043TIP3    H142072   4.098   3.862   1.751  2.4884  0.9632  1.1385
14043TIP3    H242073   4.101   3.801   1.889  0.8698 -0.7191  0.4681
14044TIP3   OH242074   0.583   3.919   0.715  0.0488 -0.2927 -0.7447
14044TIP3    H142075   0.509   3.860   0.698 -0.9953  1.3965 -2.4401
14044TIP3    H242076   0.649   3.891   0.651  1.2083 -2.1786  1.1493
14045TIP3   OH242077   1.450   3.698   6.169  0.3513 -0.4083  0.3677
14045TIP3    H142078   1.425   3.781   6.209 -2.9682 -0.3249 -1.5335
14045TIP3    H242079   1.480   3.723   6.081  2.2694 -1.0513  0.7867
14046TIP3   OH242080   6.668   3.667   5.810 -0.0579 -0.1186 -0.2946
14046TIP3    H142081   6.677   3.734   5.877 -1.8527  0.1726 -0.2796
14046TIP3    H242082   6.599   3.701   5.752  0.9250 -0.6994 -1.8808
14047TIP3   OH242083   1.841   7.163   2.791 -0.3223  0.7508 -0.4736
14047TIP3    H142084   1.779   7.104   2.747 -0.7487  1.7262 -1.2366
14047TIP3    H242085   1.927   7.129   2.767 -0.5545 -0.0599 -0.1960
14048TIP3   OH242086   5.759   6.149   1.659 -0.3417  0.0075  0.3733
14048TIP3    H142087   5.713   6.214   1.712  0.2192  1.0424 -0.3713
14048TIP3    H242088   5.824   6.111   1.719  0.0168  0.8729  0.5486
14049TIP3   OH242089   8.041   5.889   5.737 -0.3202 -0.2475  0.0187
14049TIP3    H142090   8.066   5.849   5.654  0.5637  1.7673 -0.7418
14049TIP3    H242091   8.083   5.975   5.737 -0.8745  0.1013  2.2502
14050TIP3   OH242092   2.875   7.719   6.782  0.2730  0.1808  0.4263
14050TIP3    H142093   2.902   7.659   6.714 -0.2266  1.0889 -0.6042
14050TIP3    H242094   2.956   7.742   6.828  0.6448 -0.2664  0.0052
14051TIP3   OH242095   3.551   0.717   6.553  0.1302  0.2122  0.6578
14051TIP3    H142096   3.620   0.767   6.511  0.2234  1.0751  1.7653
14051TIP3    H242097   3.480   0.714   6.489  0.9221 -0.0739 -0.2155
14052TIP3   OH242098   5.680   5.413   4.320  0.0053  0.5773 -0.6980
14052TIP3    H142099   5.767   5.453   4.327 -0.3883  1.2491  1.1281
14052TIP3    H242100   5.689   5.328   4.363  0.1704 -0.1434 -2.1143
14053TIP3   OH242101   2.160   3.280   1.506  0.2921 -0.3667  0.8970
14053TIP3    H142102   2.172   3.281   1.411  0.1707  0.6221  0.8851
14053TIP3    H242103   2.066   3.272   1.519  0.2223  0.4132  0.9180
14054TIP3   OH242104   0.721   2.713   2.977 -0.3234 -0.1215 -0.0435
14054TIP3    H142105   0.755   2.722   2.888 -0.0374  0.3290  0.1083
14054TIP3    H242106   0.799   2.699   3.032 -0.6249 -2.2892 -0.0814
14055TIP3   OH242107   7.442   3.727   3.100  0.2988 -0.4306 -0.2290
14055TIP3    H142108   7.374   3.682   3.151 -0.2403  0.9426  0.3143
14055TIP3    H242109   7.524   3.689   3.130 -0.1309 -0.9632  0.3022
14056TIP3   OH242110   4.327   2.838   6.448  0.3230 -0.1801 -0.6993
14056TIP3    H142111   4.360   2.920   6.484  1.3148 -1.2119  0.8494
14056TIP3    H242112   4.265   2.806   6.514 -0.6916 -0.3040 -1.6763
14057TIP3   OH242113   4.430   4.883   2.618  0.4845  0.4573  0.6175
14057TIP3    H142114   4.361   4.926   2.668 -0.0890 -0.2412  0.4391
14057TIP3    H242115   4.466   4.952   2.562  0.7798  1.1237  1.5985
14058TIP3   OH242116   2.505   3.505   4.969  0.3260 -0.2220  0.2631
14058TIP3    H142117   2.446   3.430   4.960  0.1358 -0.0622  0.1617
14058TIP3    H242118   2.586   3.468   5.003 -0.4504 -0.1681  2.3072
14059TIP3   OH242119   0.194   7.677   5.758 -0.0260  0.1975  0.2647
14059TIP3    H142120   0.230   7.609   5.702  0.4626  0.4507  0.2573
14059TIP3    H242121   0.215   7.759   5.713  0.9907  0.4434  1.1380
14060TIP3   OH242122   4.783   1.358   5.434 -0.0690  0.1064 -0.0549
14060TIP3    H142123   4.725   1.389   5.504 -0.8683  1.2869 -1.1852
14060TIP3    H242124   4.736   1.380   5.353  1.1996 -0.4710 -0.9796
14061TIP3   OH242125   7.024   0.171   2.536  0.4223 -0.9304 -0.6945
14061TIP3    H142126   6.975   0.112   2.478  0.5291 -2.2647  0.5191
14061TIP3    H242127   7.113   0.169   2.501 -0.1534  0.9385 -2.4710
14062TIP3   OH242128   1.668   0.672   6.711  0.0371  0.4017  0.2679
14062TIP3    H142129   1.691   0.580   6.702  1.1887  0.7581 -0.6650
14062TIP3    H242130   1.690   0.694   6.802  2.6298  0.4799 -0.3025
14063TIP3   OH242131   6.054   2.746   5.230 -0.5437 -0.8089  0.5194
14063TIP3    H142132   5.974   2.709   5.194  0.1035 -1.5406 -0.2387
14063TIP3    H242133   6.104   2.669   5.259  0.7840 -0.5705 -0.9807
14064TIP3   OH242134   4.918   3.196   0.887 -0.5535 -0.2908 -0.2372
14064TIP3    H142135   4.856   3.158   0.950 -0.8805  1.3739  0.4977
14064TIP3    H242136   5.004   3.164   0.915 -1.0328 -2.9818 -1.5223
14065TIP3   OH242137   4.765   2.943   5.059  0.0719  0.5679  0.0473
14065TIP3    H142138   4.680   2.929   5.100 -0.4322  0.7997 -0.8770
14065TIP3    H242139   4.745   2.994   4.980  0.8499 -0.6911 -1.0139
14066TIP3   OH242140   3.854   1.026   5.758 -0.0085 -0.4807 -0.2531
14066TIP3    H142141   3.868   0.936   5.788 -1.2944 -1.0347 -1.2672
14066TIP3    H242142   3.874   1.024   5.665 -0.5915  0.1699 -0.3970
14067TIP3   OH242143   0.760   0.577   4.632 -0.2132 -0.0566  0.3420
14067TIP3    H142144   0.718   0.502   4.589 -2.4934 -0.3647  2.8832
14067TIP3    H242145   0.797   0.540   4.712  0.6316  1.1749  0.5389
14068TIP3   OH242146   5.366   0.137   4.256  0.5911  0.0555 -0.9544
14068TIP3    H142147   5.290   0.086   4.283  0.4286  0.3503 -0.8626
14068TIP3    H242148   5.361   0.139   4.161 -0.6645  1.8249 -0.8978
14069TIP3   OH242149   2.064   3.596   2.665 -0.0786 -0.3693 -0.3586
14069TIP3    H142150   2.123   3.664   2.698 -1.7189  0.4300  1.0884
14069TIP3    H242151   2.091   3.584   2.574  0.2421  2.2763 -0.6974
14070TIP3   OH242152   2.931   1.887   6.479 -0.0798  0.2943  0.7833
14070TIP3    H142153   2.943   1.974   6.443  0.0059  0.4376  1.1517
14070TIP3    H242154   2.919   1.830   6.403 -0.1864  0.6349  0.5464
14071TIP3   OH242155   6.208   0.956   5.872 -0.0334  0.4921  0.0339
14071TIP3    H142156   6.186   0.978   5.963 -0.7693 -0.5848  0.1321
14071TIP3    H242157   6.160   0.875   5.855  0.3782  0.4976 -1.2100
14072TIP3   OH242158   4.598   5.376   3.851 -0.2379 -0.1868  0.1228
14072TIP3    H142159   4.603   5.415   3.938  1.6056 -0.2214  0.0645
14072TIP3    H242160   4.689   5.363   3.825 -0.7105  0.4930 -2.1154
14073TIP3   OH242161   1.623   3.306   0.833 -0.5735  0.3289 -0.1678
14073TIP3    H142162   1.592   3.238   0.773  0.7742 -0.0720 -0.4347
14073TIP3    H242163   1.718   3.301   0.828 -0.4368  0.4687  1.8365
14074TIP3   OH242164   3.916   6.043   2.057 -0.3986  0.0657  0.2113
14074TIP3    H142165   3.873   5.960   2.039  0.1849 -0.3403  0.6510
14074TIP3    H242166   3.850   6.094   2.105 -0.6368 -0.2742  0.2451
14075TIP3   OH242167   7.130   0.092   5.080 -0.1951 -0.6669 -0.1112
14075TIP3    H142168   7.051   0.147   5.082  0.2270 -0.0590 -0.1218
14075TIP3    H242169   7.203   0.153   5.087  0.2742 -1.2612  0.3206
14076TIP3   OH242170   3.680   4.984   0.229  0.4304 -0.7965 -0.0355
14076TIP3    H142171   3.672   5.001   0.135 -0.3041  1.4416  0.3799
14076TIP3    H242172   3.612   4.918   0.247 -0.1785 -0.4103 -0.8793
14077TIP3   OH242173   6.146   7.448   4.973 -0.5490  0.5980 -0.7416
14077TIP3    H142174   6.091   7.525   4.957 -2.7287 -0.5754  0.5879
14077TIP3    H242175   6.135   7.393   4.895 -0.2557  0.9142 -1.0081
14078TIP3   OH242176   2.872   1.347   2.100  0.5823  0.6207 -0.7773
14078TIP3    H142177   2.953   1.362   2.052  0.3486  0.5437 -1.1996
14078TIP3    H242178   2.803   1.372   2.039  0.0999 -2.6432 -1.7590
14079TIP3   OH242179   6.313   0.057   5.342 -0.4997  0.7677  0.0967
14079TIP3    H142180   6.343  -0.030   5.316  1.1267  0.0387  3.7482
14079TIP3    H242181   6.385   0.115   5.319 -0.2110  0.5811  0.5154
14080TIP3   OH242182   3.206   3.052   0.339  0.2302 -0.0846  0.0460
14080TIP3    H142183   3.128   3.069   0.286  0.3329 -0.1265 -0.1189
14080TIP3    H242184   3.173   3.046   0.429 -0.1144 -1.1603 -0.1406
14081TIP3   OH242185   6.212   1.822   6.195  0.0852  0.4956  0.0682
14081TIP3    H142186   6.285   1.783   6.148 -0.8467 -2.1267  0.6293
14081TIP3    H242187   6.134   1.776   6.163 -0.8178  0.1256  2.5108
14082TIP3   OH242188   5.081   2.819   4.147  0.3991 -0.3263 -1.0612
14082TIP3    H142189   5.158   2.854   4.192  0.8348 -0.5009 -1.6654
14082TIP3    H242190   5.019   2.892   4.145  1.3335  0.4833 -2.3998
14083TIP3   OH242191   3.291   2.966   6.108 -0.0369  0.0081 -0.4555
14083TIP3    H142192   3.328   2.930   6.027 -1.3526  1.5636 -1.8136
14083TIP3    H242193   3.263   2.889   6.158  1.0044 -0.9931 -1.3481
14084TIP3   OH242194   2.789   5.618   6.803 -0.4229 -0.0215  0.1208
14084TIP3    H142195   2.821   5.684   6.741  0.2448  0.8071  1.3154
14084TIP3    H242196   2.767   5.543   6.748 -3.9027  2.0524 -1.7211
14085TIP3   OH242197   0.404   3.182   0.156  0.6695  0.2863 -0.1474
14085TIP3    H142198   0.397   3.277   0.166 -0.9748  0.2084 -0.3746
14085TIP3    H242199   0.328   3.158   0.103  0.3702 -1.3138  0.9640
14086TIP3   OH242200   5.213   0.974   1.681  0.0932  0.0658 -0.1063
14086TIP3    H142201   5.272   1.049   1.674 -0.4451  0.3582 -2.0357
14086TIP3    H242202   5.163   0.990   1.762 -0.1922  1.9260 -0.6147
14087TIP3   OH242203   4.787   0.856   4.453 -0.1291 -0.2052 -0.0194
14087TIP3    H142204   4.838   0.800   4.512 -1.8119 -0.1483  1.5786
14087TIP3    H242205   4.852   0.892   4.393  2.0079  0.8778  2.7059
14088TIP3   OH242206   0.662   6.053   4.027 -0.1917  0.3644 -0.0914
14088TIP3    H142207   0.667   5.993   3.953 -0.6255  1.7124 -1.2643
14088TIP3    H242208   0.575   6.038   4.064 -0.4241  0.4768 -0.5816
14089TIP3   OH242209   7.722   6.443   5.398  0.8514  1.1235 -0.9067
14089TIP3    H142210   7.677   6.443   5.314  1.3089  1.3270 -1.1540
14089TIP3    H242211   7.717   6.534   5.428  1.3931  1.2140 -1.0933
14090TIP3   OH242212   2.776   3.918   4.573 -0.6469 -0.3345 -0.3079
14090TIP3    H142213   2.792   3.864   4.496 -1.5219 -0.5950 -0.3155
14090TIP3    H242214   2.779   4.008   4.541 -0.3575 -0.4173 -0.5175
14091TIP3   OH242215   1.316   0.713   0.684 -0.4825 -0.2769  0.7564
14091TIP3    H142216   1.375   0.641   0.706  0.3135  0.5319  1.3883
14091TIP3    H242217   1.256   0.719   0.759 -1.9103 -1.5905 -0.2260
14092TIP3   OH242218   0.889   6.106   6.404 -0.0278  0.2143  0.0264
14092TIP3    H142219   0.887   6.164   6.480  1.4913  0.0990  0.1693
14092TIP3    H242220   0.964   6.134   6.353 -1.8063  1.2245 -2.2400
14093TIP3   OH242221   3.540   4.382   6.352  0.5648  0.0368  0.3635
14093TIP3    H142222   3.569   4.463   6.393  1.3473  0.0278 -0.1514
14093TIP3    H242223   3.566   4.390   6.260  1.4909 -1.1634  0.4888
14094TIP3   OH242224   8.229   2.796   6.652 -0.1294 -0.0696  0.2088
14094TIP3    H142225   8.156   2.743   6.683  1.1270 -0.6749  2.3207
14094TIP3    H242226   8.221   2.878   6.701  0.0565  0.2376 -0.2740
14095TIP3   OH242227   0.979   3.062   3.578 -0.5265  0.9188 -0.3418
14095TIP3    H142228   0.914   3.082   3.510 -0.1121  1.6670 -0.5329
14095TIP3    H242229   0.946   2.984   3.621 -2.7146  2.4787  1.0035
14096TIP3   OH242230   4.616   1.730   0.932  0.4545 -0.3619 -0.2790
14096TIP3    H142231   4.644   1.699   0.846 -0.3401 -0.6192 -0.4583
14096TIP3    H242232   4.582   1.818   0.916  1.3922  0.0585 -0.0165
14097TIP3   OH242233   5.192   6.899   2.075  0.4902 -0.1724 -0.8385
14097TIP3    H142234   5.202   6.887   1.980  1.1718  0.5681 -0.8717
14097TIP3    H242235   5.098   6.907   2.088  0.4731  1.5297 -1.7005
14098TIP3   OH242236   1.111   1.482   2.735  0.5992  0.0237  0.0267
14098TIP3    H142237   1.193   1.498   2.689 -0.3801  0.9264 -1.4876
14098TIP3    H242238   1.058   1.560   2.718 -0.6357 -0.5909  0.8651
14099TIP3   OH242239   2.800   2.360   0.270  0.2818 -0.0248 -0.0240
14099TIP3    H142240   2.709   2.353   0.241  0.1634  0.0452  0.3278
14099TIP3    H242241   2.851   2.338   0.192 -0.0479 -2.7154  0.4201
14100TIP3   OH242242   0.004   2.602   3.277 -0.1915 -0.0825 -0.4028
14100TIP3    H142243   0.003   2.569   3.187  1.0974 -1.6688  0.1075
14100TIP3    H242244   0.080   2.660   3.281 -0.0271 -0.3087 -0.2434
14101TIP3   OH242245   7.467   1.459   1.580 -0.5251  0.2961  0.4152
14101TIP3    H142246   7.524   1.454   1.503 -2.7786  2.2299 -1.5292
14101TIP3    H242247   7.443   1.368   1.597  1.1386 -0.3125 -0.2602
14102TIP3   OH242248   1.206   6.801   1.155 -0.2201  0.0688 -0.2920
14102TIP3    H142249   1.149   6.854   1.100  0.7455 -0.2471 -1.6645
14102TIP3    H242250   1.159   6.718   1.166  0.6028 -0.8308 -2.8350
14103TIP3   OH242251   5.006   6.069   4.148  0.2909 -0.2436  0.4602
14103TIP3    H142252   5.006   6.014   4.226 -1.5350  0.9933  1.3936
14103TIP3    H242253   5.031   6.156   4.179  0.6342  0.0374 -0.5483
14104TIP3   OH242254   2.043   4.617   4.746 -0.5713  0.7706 -0.2387
14104TIP3    H142255   2.073   4.695   4.793 -1.0433  0.5387  0.4664
14104TIP3    H242256   2.007   4.560   4.814 -2.1124  0.8147 -0.9576
14105TIP3   OH242257   1.492   5.944   0.932 -0.3120 -0.0082 -0.4297
14105TIP3    H142258   1.429   5.886   0.890  0.7034 -1.0231 -0.6120
14105TIP3    H242259   1.443   5.987   1.001 -1.4075 -0.1309 -1.1074
14106TIP3   OH242260   4.930   3.807   2.415 -0.1713 -0.4383  0.1721
14106TIP3    H142261   5.002   3.850   2.369  1.5841 -0.5312  2.6836
14106TIP3    H242262   4.857   3.812   2.353  1.2190  1.9920 -1.4556
14107TIP3   OH242263   1.779   1.774   2.892 -0.4376  0.7212 -0.8835
14107TIP3    H142264   1.796   1.793   2.984  0.7001  0.9365 -1.1155
14107TIP3    H242265   1.685   1.786   2.881 -0.6207  0.4408  0.3041
14108TIP3   OH242266   6.718   7.698   0.915  0.1142  0.2915  0.5275
14108TIP3    H142267   6.668   7.778   0.929 -0.9689 -0.4417  1.0803
14108TIP3    H242268   6.737   7.697   0.822 -1.7878  0.1360  0.0931
14109TIP3   OH242269   1.027   6.940   4.492  0.3499  0.0816 -0.1206
14109TIP3    H142270   0.993   7.020   4.531  0.4294 -0.6528  1.5395
14109TIP3    H242271   0.984   6.935   4.406 -2.5652  0.0299  1.1989
14110TIP3   OH242272   7.013   2.270   5.142 -0.2154  0.2530  0.2494
14110TIP3    H142273   7.029   2.287   5.049 -2.4125  0.0469 -0.2136
14110TIP3    H242274   7.097   2.289   5.184  0.9155  0.1090 -1.7874
14111TIP3   OH242275   7.417   3.706   0.506  0.4352  0.2971  0.3061
14111TIP3    H142276   7.455   3.794   0.508 -1.9452  1.4082  1.9896
14111TIP3    H242277   7.367   3.705   0.424  2.7871 -0.6601 -1.2072
14112TIP3   OH242278   6.769   5.701   0.154 -0.7280 -0.3210 -0.2853
14112TIP3    H142279   6.677   5.722   0.175 -0.8120  0.1658 -1.0866
14112TIP3    H242280   6.783   5.614   0.190 -1.2463 -0.0455  0.6175
14113TIP3   OH242281   2.422   1.882   6.793 -0.4532  0.1489  0.4502
14113TIP3    H142282   2.388   1.959   6.747  0.6445  0.3624 -0.0353
14113TIP3    H242283   2.426   1.813   6.727  0.8112  0.3592  0.2786
14114TIP3   OH242284   1.204   4.988   1.871 -0.0247 -1.3744  0.3144
14114TIP3    H142285   1.296   4.991   1.897 -0.1296 -1.4551  0.6966
14114TIP3    H242286   1.159   5.048   1.930 -0.3177 -1.8236  0.5583
14115TIP3   OH242287   6.156   2.368   1.053 -0.6222 -0.2927  0.6248
14115TIP3    H142288   6.225   2.334   0.996 -1.6285 -0.9797 -0.2434
14115TIP3    H242289   6.185   2.455   1.078  0.5684 -0.5894  0.3176
14116TIP3   OH242290   4.024   5.887   0.688 -0.1604 -0.1900 -0.6973
14116TIP3    H142291   4.047   5.930   0.605 -1.3141  0.4326 -0.7263
14116TIP3    H242292   4.047   5.951   0.755 -1.4975  0.3314 -0.7121
14117TIP3   OH242293   7.066   1.430   3.423  0.3447 -0.6828  0.3579
14117TIP3    H142294   7.070   1.388   3.509 -0.2246  2.8583  2.2940
14117TIP3    H242295   6.980   1.472   3.421  0.2851 -0.7805 -2.0778
14118TIP3   OH242296   5.559   7.267   6.259  0.3957 -0.1095  0.3416
14118TIP3    H142297   5.642   7.229   6.287  1.4522  1.6454 -0.2649
14118TIP3    H242298   5.545   7.232   6.170  0.0588 -1.0059  0.7313
14119TIP3   OH242299   5.807   7.548   0.164  0.5236  0.0008  0.0180
14119TIP3    H142300   5.792   7.537   0.070 -0.4860  1.4653 -0.0375
14119TIP3    H242301   5.792   7.462   0.201  0.0707 -0.4074 -1.0711
14120TIP3   OH242302   1.446   4.712   2.601  0.0975  0.4720 -0.3680
14120TIP3    H142303   1.502   4.714   2.678 -0.6171 -1.1734  0.2588
14120TIP3    H242304   1.383   4.783   2.616  0.9682  1.2479 -0.2739
14121TIP3   OH242305   1.700   0.023   1.484  0.1701 -0.4480 -0.4669
14121TIP3    H142306   1.642  -0.051   1.467 -0.3525  0.1052 -1.1402
14121TIP3    H242307   1.667   0.060   1.567 -0.1567 -0.4113 -0.6095
14122TIP3   OH242308   6.825   5.949   2.447  0.1582  0.1009 -0.0264
14122TIP3    H142309   6.901   5.913   2.491  1.2726  0.3856 -1.6321
14122TIP3    H242310   6.859   6.023   2.396 -1.1644  0.2123 -0.8101
14123TIP3   OH242311   0.674   4.059   3.728 -0.3747 -0.3862 -0.4145
14123TIP3    H142312   0.680   4.139   3.675  3.4535 -1.7578 -2.4961
14123TIP3    H242313   0.612   4.004   3.680 -1.3417  0.4866 -0.1974
14124TIP3   OH242314   0.691   3.061   1.926 -0.3247  0.1591  0.4208
14124TIP3    H142315   0.681   3.101   2.012  1.2598  1.3850  0.0882
14124TIP3    H242316   0.785   3.044   1.918 -0.7265 -2.0920 -0.1662
14125TIP3   OH242317   4.437   1.306   4.366 -0.5813 -0.2910  0.3223
14125TIP3    H142318   4.516   1.307   4.420 -2.0260  1.8779  2.5922
14125TIP3    H242319   4.401   1.218   4.379  1.1403 -1.1889 -0.4560
14126TIP3   OH242320   3.417   1.764   6.719 -0.8060 -0.3631  0.2354
14126TIP3    H142321   3.377   1.678   6.705 -1.9049 -0.0917  1.5059
14126TIP3    H242322   3.500   1.745   6.763 -0.0104 -0.8636 -1.3974
14127TIP3   OH242323   5.978   6.516   0.481 -0.1855  0.0474  0.0861
14127TIP3    H142324   5.898   6.569   0.488 -0.6657 -0.7202  0.4868
14127TIP3    H242325   5.976   6.482   0.391 -0.8028 -0.7228  0.3770
14128TIP3   OH242326   4.497   7.151   6.688  0.1955 -0.1569  0.2462
14128TIP3    H142327   4.474   7.227   6.741  0.4042 -0.6485  1.0731
14128TIP3    H242328   4.576   7.178   6.641  0.6912 -0.0806  1.0839
14129TIP3   OH242329   1.608   2.038   1.975 -0.2322  0.3131  0.0813
14129TIP3    H142330   1.666   1.968   2.006 -0.3337  0.2844  0.2106
14129TIP3    H242331   1.658   2.083   1.908 -0.5468 -0.5226 -0.7405
14130TIP3   OH242332   1.484   7.175   3.795 -0.7379  0.0222 -0.0030
14130TIP3    H142333   1.538   7.239   3.842 -0.0404 -0.7717  0.2971
14130TIP3    H242334   1.532   7.093   3.803 -1.1588 -0.3569 -1.1795
14131TIP3   OH242335   0.739   0.546   6.057 -0.0804  0.0869 -0.1758
14131TIP3    H142336   0.686   0.472   6.088 -0.5367  0.0340 -1.0412
14131TIP3    H242337   0.824   0.508   6.037  0.1317  0.0698  0.7200
14132TIP3   OH242338   3.107   7.304   0.556 -0.2353  0.0332  0.2063
14132TIP3    H142339   3.165   7.353   0.497  0.1712 -0.1439  0.4535
14132TIP3    H242340   3.027   7.356   0.558  0.1897  0.7064  0.4664
14133TIP3   OH242341   8.078   2.770   3.352 -0.6194 -0.2822 -0.3079
14133TIP3    H142342   8.151   2.713   3.328 -0.6886 -0.1612 -0.8181
14133TIP3    H242343   8.029   2.721   3.418 -0.1409 -0.4096 -0.0426
14134TIP3   OH242344   5.108   5.947   3.707 -0.2188  0.4353  0.5723
14134TIP3    H142345   5.100   5.851   3.713 -1.4815  0.5224  0.4046
14134TIP3    H242346   5.112   5.964   3.613  0.7800  0.5097  0.6117
14135TIP3   OH242347   6.228   1.550   2.940  0.0606 -0.2369  0.9089
14135TIP3    H142348   6.185   1.493   3.004  0.9742 -1.6977  0.2903
14135TIP3    H242349   6.183   1.531   2.857  0.4854 -0.1888  0.6663
14136TIP3   OH242350   4.178   6.489   4.041  0.1440 -0.2890  0.0948
14136TIP3    H142351   4.222   6.508   4.124  0.9031 -4.4753  0.9055
14136TIP3    H242352   4.090   6.462   4.066  0.2726 -1.2614 -0.4270
14137TIP3   OH242353   0.243   1.586   2.003  0.1148 -0.0666 -0.2466
14137TIP3    H142354   0.319   1.579   1.944  0.4675 -1.0699  0.2837
14137TIP3    H242355   0.200   1.500   1.996 -0.1285 -0.0175  0.5532
14138TIP3   OH242356   4.434   4.827   1.488  0.0224  0.7871  0.1655
14138TIP3    H142357   4.464   4.752   1.540 -0.6676  0.4656  0.1183
14138TIP3    H242358   4.356   4.859   1.535 -1.2411 -0.1546 -1.2026
14139TIP3   OH242359   3.097   1.748   1.556 -0.2856 -0.2460 -0.0409
14139TIP3    H142360   3.075   1.655   1.565 -2.2428 -0.0052 -1.6678
14139TIP3    H242361   3.021   1.795   1.589  1.6391  0.9611  3.1676
14140TIP3   OH242362   8.078   7.445   6.647  0.1528 -0.0268 -1.0471
14140TIP3    H142363   8.134   7.522   6.652  0.8281 -0.5757  0.5044
14140TIP3    H242364   7.991   7.477   6.670  0.3695  0.3343 -0.7156
14141TIP3   OH242365   7.545   5.791   6.040 -0.4287 -0.4150 -0.0624
14141TIP3    H142366   7.539   5.731   6.115 -1.6552  1.8068  1.7216
14141TIP3    H242367   7.482   5.756   5.977 -1.0125 -1.0998  0.8650
14142TIP3   OH242368   0.764   4.580   2.042  0.0368  0.3248  0.4852
14142TIP3    H142369   0.855   4.556   2.063  0.1484  0.1711 -0.1510
14142TIP3    H242370   0.735   4.631   2.117  0.6949  0.4862  0.6398
14143TIP3   OH242371   2.812   5.704   0.632 -0.2285 -0.2941  0.3252
14143TIP3    H142372   2.870   5.646   0.584 -1.8870 -3.4277  1.7870
14143TIP3    H242373   2.739   5.719   0.572  0.5940  1.0908 -0.3730
14144TIP3   OH242374   5.854   2.956   6.575  0.5984  0.7794 -0.7490
14144TIP3    H142375   5.924   2.936   6.636  0.5213  2.7607  0.0714
14144TIP3    H242376   5.892   3.019   6.513  0.0145  0.5848 -1.3257
14145TIP3   OH242377   3.880   2.314   4.827 -0.0342  0.1462 -0.2904
14145TIP3    H142378   3.850   2.224   4.836 -3.5056  1.3692  2.1194
14145TIP3    H242379   3.928   2.332   4.907  0.1482  0.6222 -0.5004
14146TIP3   OH242380   6.598   7.816   6.105 -0.4354 -0.1573 -0.7732
14146TIP3    H142381   6.567   7.750   6.043 -0.1240 -0.2322 -0.8537
14146TIP3    H242382   6.604   7.896   6.053 -0.7685 -0.0760 -0.6868
14147TIP3   OH242383   6.102   7.745   3.894 -0.1004  0.7107  0.4235
14147TIP3    H142384   6.112   7.738   3.989  2.0866 -1.0297  0.1489
14147TIP3    H242385   6.010   7.725   3.879 -0.2054 -0.3032  2.0987
14148TIP3   OH242386   1.772   0.533   5.426 -0.4797 -0.2537  0.0952
14148TIP3    H142387   1.737   0.541   5.514  0.6277  0.2901  0.4975
14148TIP3    H242388   1.857   0.491   5.437  0.5470  1.5402 -0.4760
14149TIP3   OH242389   5.579   6.533   6.170 -0.0701 -0.5313  0.1328
14149TIP3    H142390   5.493   6.569   6.147 -0.3448 -0.1775  1.6027
14149TIP3    H242391   5.585   6.544   6.264 -0.2158 -4.3906  0.7788
14150TIP3   OH242392   7.344   4.834   6.204  0.3928 -0.5273 -0.6257
14150TIP3    H142393   7.292   4.763   6.242 -1.0148  0.5106 -0.5440
14150TIP3    H242394   7.435   4.804   6.212 -0.0995 -1.8591  0.3439
14151TIP3   OH242395   5.676   6.960   0.040 -0.1731  0.5882 -0.5509
14151TIP3    H142396   5.676   7.049   0.075  2.0657  0.8783 -1.1522
14151TIP3    H242397   5.583   6.939   0.027 -0.8789  1.8811  1.8723
14152TIP3   OH242398   4.885   4.670   6.782 -0.8309  0.3195  0.0189
14152TIP3    H142399   4.938   4.673   6.702  0.4000  1.2846  0.8303
14152TIP3    H242400   4.834   4.590   6.773 -1.8611  1.1413 -2.4363
14153TIP3   OH242401   3.454   5.691   4.550 -0.1458 -0.1886  0.5251
14153TIP3    H142402   3.542   5.726   4.561 -0.3260  0.3393  0.3137
14153TIP3    H242403   3.462   5.626   4.481  0.0045  0.1362  0.2348
14154TIP3   OH242404   7.983   1.729   4.172  0.5796 -0.2830  0.0356
14154TIP3    H142405   7.969   1.672   4.247 -0.7647  1.0933  0.8716
14154TIP3    H242406   7.904   1.782   4.166  1.2292  0.5841 -1.5260
14155TIP3   OH242407   3.599   4.458   4.201  0.3849  0.2879 -0.4292
14155TIP3    H142408   3.548   4.403   4.142  0.2557 -1.5594  1.3107
14155TIP3    H242409   3.683   4.413   4.209 -0.1693 -0.4779  2.0267
14156TIP3   OH242410   0.197   0.435   0.880  0.2120  0.1007  0.2378
14156TIP3    H142411   0.278   0.482   0.898  1.2039 -1.3895 -0.1321
14156TIP3    H242412   0.222   0.368   0.816 -0.9843 -1.3291  1.2087
14157TIP3   OH242413   4.385   3.385   5.512  0.0494 -0.2305 -0.1069
14157TIP3    H142414   4.334   3.379   5.431 -0.0707  0.7408 -0.1181
14157TIP3    H242415   4.318   3.389   5.581  0.1306 -0.0847 -0.0369
14158TIP3   OH242416   2.096   3.060   3.165 -0.2033 -0.0989  0.0817
14158TIP3    H142417   2.121   3.092   3.078 -0.5000  0.7570  0.3034
14158TIP3    H242418   2.065   3.138   3.211  1.2362 -0.2836  1.4284
14159TIP3   OH242419   7.354   6.265   0.233 -0.6607 -0.0395  0.0763
14159TIP3    H142420   7.335   6.259   0.139  0.1621 -3.1010  0.0165
14159TIP3    H242421   7.449   6.275   0.237 -0.4973 -1.5125  0.5512
14160TIP3   OH242422   1.044   2.673   3.582 -0.0884 -0.0846  0.4939
14160TIP3    H142423   0.980   2.605   3.604 -1.2197  0.6408 -0.4755
14160TIP3    H242424   1.048   2.672   3.487  1.4288 -0.1603  0.5339
14161TIP3   OH242425   3.802   5.156   4.236  0.1186  0.3337  0.3234
14161TIP3    H142426   3.857   5.213   4.182  1.1265  0.0558  1.0178
14161TIP3    H242427   3.718   5.151   4.189  0.3169  1.6443 -0.2076
14162TIP3   OH242428   8.011   0.980   3.083 -0.6023 -0.2060 -0.4045
14162TIP3    H142429   7.945   1.016   3.025 -0.7799  0.3583  0.1402
14162TIP3    H242430   8.094   0.992   3.036 -0.3631  2.7947  0.5578
14163TIP3   OH242431   2.846   5.085   2.534 -0.7549  0.3491  0.1185
14163TIP3    H142432   2.905   5.025   2.488 -2.9294 -1.3333 -0.6525
14163TIP3    H242433   2.817   5.147   2.467  0.2449  1.3131  0.5459
14164TIP3   OH242434   7.381   3.990   3.307 -0.2660 -0.2806 -0.4705
14164TIP3    H142435   7.294   3.985   3.267  0.0564  3.1981 -2.0214
14164TIP3    H242436   7.440   3.952   3.242 -0.3634 -0.3785 -0.5027
14165TIP3   OH242437   2.775   4.917   5.906  0.4325 -0.0490  0.6474
14165TIP3    H142438   2.708   4.850   5.895 -0.1263  0.4232  1.0790
14165TIP3    H242439   2.783   4.958   5.820 -1.5712  1.4755  1.1085
14166TIP3   OH242440   1.835   1.324   2.070  0.1754 -0.1370 -0.2680
14166TIP3    H142441   1.925   1.328   2.040  0.2376 -1.2361 -0.2544
14166TIP3    H242442   1.836   1.262   2.143 -0.5363  0.0441 -0.0911
14167TIP3   OH242443   8.132   4.997   2.841  0.0070 -0.9195 -0.3383
14167TIP3    H142444   8.213   4.949   2.857 -0.2850 -0.8965  1.3957
14167TIP3    H242445   8.123   4.998   2.746  0.6065 -3.3049 -0.4823
14168TIP3   OH242446   4.059   1.938   1.096 -0.6384  0.4063  0.2009
14168TIP3    H142447   4.087   2.023   1.060  0.3142 -0.0068 -0.0611
14168TIP3    H242448   4.129   1.914   1.156 -1.6061  0.4767  1.3882
14169TIP3   OH242449   6.057   3.373   6.480 -0.0661  0.7620  0.0500
14169TIP3    H142450   6.150   3.352   6.468 -0.8142 -2.7161 -0.9160
14169TIP3    H242451   6.049   3.464   6.453  3.0493  1.1811  0.1695
14170TIP3   OH242452   5.363   2.363   4.428 -0.8976 -0.3736 -0.0933
14170TIP3    H142453   5.279   2.404   4.448 -0.7157  0.6517 -1.3145
14170TIP3    H242454   5.415   2.375   4.507 -0.7509  2.0951 -0.4936
14171TIP3   OH242455   1.440   3.726   2.136  0.4354  0.0968 -0.4949
14171TIP3    H142456   1.469   3.721   2.045  1.2611  0.2235 -0.2466
14171TIP3    H242457   1.521   3.733   2.187  0.1706 -2.5664  0.4549
14172TIP3   OH242458   1.895   3.996   2.695 -0.4963 -0.1765  0.5083
14172TIP3    H142459   1.989   3.987   2.680 -0.7551 -1.8533 -0.4391
14172TIP3    H242460   1.882   4.088   2.717  1.1486  0.4586 -0.9545
14173TIP3   OH242461   6.434   0.249   4.845 -0.2601  0.1110 -0.0263
14173TIP3    H142462   6.387   0.321   4.803 -0.1926 -0.5404 -1.2782
14173TIP3    H242463   6.368   0.202   4.895 -0.1052  1.6572  1.7464
14174TIP3   OH242464   2.040   4.499   5.032 -0.0641 -0.1407  0.0206
14174TIP3    H142465   1.965   4.447   5.004 -0.9059  1.2919 -0.4184
14174TIP3    H242466   2.005   4.559   5.097  0.8329  0.1408  0.2610
14175TIP3   OH242467   2.245   0.540   3.957  0.4644  0.3514 -0.2217
14175TIP3    H142468   2.271   0.489   3.881 -1.0906 -0.7748 -0.0581
14175TIP3    H242469   2.326   0.558   4.004  1.1678 -1.2291 -0.7670
14176TIP3   OH242470   2.269   1.585   0.546  0.3033  0.1904 -0.0238
14176TIP3    H142471   2.272   1.490   0.541  0.7392  0.2738 -1.9596
14176TIP3    H242472   2.211   1.612   0.475  0.3660  1.3818  0.3477
14177TIP3   OH242473   2.816   4.254   6.210  0.3553 -0.3895  0.9369
14177TIP3    H142474   2.889   4.304   6.172  0.1984 -0.6410  0.2836
14177TIP3    H242475   2.818   4.170   6.163 -1.1701  0.0891 -0.0646
14178TIP3   OH242476   0.361   4.955   3.440  0.1219 -0.3655 -0.5051
14178TIP3    H142477   0.283   4.910   3.473  0.5559 -0.3497  0.5861
14178TIP3    H242478   0.333   5.046   3.427  0.0616 -0.2601  0.3041
14179TIP3   OH242479   5.883   6.021   1.211  0.2015  0.0806 -0.0994
14179TIP3    H142480   5.932   5.948   1.174  1.2880 -0.1764  1.7282
14179TIP3    H242481   5.948   6.090   1.222 -0.4746  0.7691 -0.3012
14180TIP3   OH242482   5.874   5.303   6.484  0.0391 -0.6562 -0.0281
14180TIP3    H142483   5.966   5.320   6.461  0.3980 -1.3537  0.7954
14180TIP3    H242484   5.878   5.275   6.576 -1.0573 -0.2476  0.1581
14181TIP3   OH242485   6.748   0.898   1.628 -0.0970  0.4781 -0.1485
14181TIP3    H142486   6.705   0.817   1.653  1.1652 -0.1418  0.0661
14181TIP3    H242487   6.823   0.905   1.686  0.1476  1.5041 -0.5596
14182TIP3   OH242488   7.406   3.621   1.174 -0.5058 -0.0457 -0.4264
14182TIP3    H142489   7.321   3.592   1.138  0.3485 -0.4063 -2.3004
14182TIP3    H242490   7.383   3.686   1.240 -2.2613 -0.2132 -0.8126
14183TIP3   OH242491   3.281   5.554   2.250 -0.4147  0.7836 -0.1099
14183TIP3    H142492   3.327   5.633   2.223  0.9382  0.7313  1.7882
14183TIP3    H242493   3.336   5.482   2.219 -0.2514  0.6749  0.4085
14184TIP3   OH242494   3.417   1.072   1.570 -0.4638  0.3769  0.5714
14184TIP3    H142495   3.432   1.009   1.499 -0.4675  0.5271  0.4369
14184TIP3    H242496   3.344   1.034   1.620  0.1858 -0.2350  1.0897
14185TIP3   OH242497   4.123   7.237   1.525  0.2713 -0.1283 -0.5173
14185TIP3    H142498   4.057   7.188   1.573  2.0569 -2.6507 -0.4544
14185TIP3    H242499   4.199   7.237   1.582  0.5702  2.2422 -0.8120
14186TIP3   OH242500   6.610   2.746   6.636  0.7926 -0.4870  0.0854
14186TIP3    H142501   6.668   2.822   6.629  2.1341 -1.3679  0.9667
14186TIP3    H242502   6.662   2.672   6.604 -1.2453 -0.7778 -2.9214
14187TIP3   OH242503   3.617   3.970   6.297 -0.9112 -0.1741  0.4051
14187TIP3    H142504   3.584   4.002   6.380 -2.1842 -0.2842 -0.0311
14187TIP3    H242505   3.639   3.878   6.313  0.1894  0.1699  0.9611
14188TIP3   OH242506   2.433   7.341   6.545  0.0481 -0.3012  1.0128
14188TIP3    H142507   2.343   7.340   6.516  0.7415  0.6591 -1.3792
14188TIP3    H242508   2.427   7.345   6.641 -2.3909 -1.3436  0.9636
14189TIP3   OH242509   5.020   6.432   2.320  0.1919  0.0183  0.3304
14189TIP3    H142510   4.940   6.383   2.301  0.4027 -0.3548  0.3959
14189TIP3    H242511   5.087   6.392   2.265  0.5540 -0.3247  1.0121
14190TIP3   OH242512   4.641   4.231   3.034  0.4465 -1.0081  1.0670
14190TIP3    H142513   4.671   4.164   2.972  0.9840 -0.7308  1.0190
14190TIP3    H242514   4.620   4.183   3.114  0.7625 -1.2404  1.0093
14191TIP3   OH242515   7.056   2.303   1.623  0.5034 -0.3986  0.1885
14191TIP3    H142516   7.009   2.317   1.542  0.7741  0.2639  0.1349
14191TIP3    H242517   7.002   2.242   1.673  0.1725 -0.5443 -0.3452
14192TIP3   OH242518   5.205   3.273   0.631  0.7412  0.3176  0.3965
14192TIP3    H142519   5.281   3.223   0.662  1.3908 -0.3040 -2.0125
14192TIP3    H242520   5.220   3.283   0.537 -1.4863  1.4247  0.1104
14193TIP3   OH242521   4.757   1.486   2.820  0.5964 -0.0918 -0.0990
14193TIP3    H142522   4.677   1.483   2.874  0.6681 -1.6339 -0.0443
14193TIP3    H242523   4.776   1.395   2.801  1.3664  0.3558 -1.6046
14194TIP3   OH242524   5.241   3.584   1.077  0.2757 -0.0807 -0.0011
14194TIP3    H142525   5.236   3.641   1.154 -1.2991  0.0982 -0.2062
14194TIP3    H242526   5.251   3.644   1.003  0.4547 -0.1770 -0.0556
14195TIP3   OH242527   7.021   3.900   4.360  0.2838  0.1590 -0.0695
14195TIP3    H142528   6.980   3.829   4.312 -1.4039  1.7473 -1.0966
14195TIP3    H242529   6.948   3.951   4.395  1.4509  0.7997  1.5881
14196TIP3   OH242530   2.431   3.388   2.663 -0.2375 -0.3607 -0.6112
14196TIP3    H142531   2.395   3.473   2.642  2.0046  0.7457 -0.3172
14196TIP3    H242532   2.355   3.330   2.669 -1.9122  1.7770  0.0505
14197TIP3   OH242533   2.658   3.990   0.044  0.1722 -0.2481 -0.0852
14197TIP3    H142534   2.753   4.005   0.047  0.1325  0.1318 -0.6509
14197TIP3    H242535   2.623   4.068   0.000 -0.3793 -0.4994 -0.0956
14198TIP3   OH242536   3.657   3.689   3.633 -0.1935 -0.4976 -0.4417
14198TIP3    H142537   3.678   3.773   3.593  1.6113 -0.5667  0.2761
14198TIP3    H242538   3.577   3.705   3.683  0.2744  0.8704 -0.1015
14199TIP3   OH242539   8.175   1.893   4.353  0.4589 -0.0369  0.3350
14199TIP3    H142540   8.262   1.915   4.319 -0.9881  2.9167 -1.8763
14199TIP3    H242541   8.132   1.845   4.282  0.2771 -1.7196  1.5089
14200TIP3   OH242542   4.742   3.418   1.150  0.1515 -0.1122  0.0272
14200TIP3    H142543   4.693   3.351   1.198  1.0257 -1.7419 -1.2296
14200TIP3    H242544   4.831   3.410   1.184  0.5836 -0.6689 -1.1856
14201TIP3   OH242545   0.382   7.293   4.868  0.5362  0.2235 -0.0062
14201TIP3    H142546   0.348   7.207   4.846  0.0351  0.1391  1.0516
14201TIP3    H242547   0.433   7.319   4.792  0.2894 -0.7975 -0.5291
14202TIP3   OH242548   2.484   5.126   5.846  0.7151 -0.9178  0.2196
14202TIP3    H142549   2.532   5.200   5.810 -0.4095 -0.2817 -0.0373
14202TIP3    H242550   2.477   5.145   5.939 -0.0981 -0.3652  0.0609
14203TIP3   OH242551   5.897   5.765   4.075 -0.1954 -0.0478 -0.3921
14203TIP3    H142552   5.814   5.717   4.074 -1.1398  1.5228 -0.5905
14203TIP3    H242553   5.900   5.806   4.161  0.9005 -0.9302  0.0071
14204TIP3   OH242554   5.756   5.867   2.331 -0.2120  0.1057 -0.1691
14204TIP3    H142555   5.744   5.943   2.274  2.2007 -1.5729 -3.2350
14204TIP3    H242556   5.687   5.806   2.303 -0.6467  0.2351  0.5997
14205TIP3   OH242557   3.253   5.281   4.444  0.0754  0.0991 -0.2825
14205TIP3    H142558   3.265   5.373   4.466 -0.2052 -0.3135  1.9227
14205TIP3    H242559   3.339   5.242   4.456 -0.1748 -0.2160  0.5697
14206TIP3   OH242560   5.885   0.466   4.423  0.1633  0.2707 -0.2214
14206TIP3    H142561   5.973   0.428   4.420  0.0729 -0.0061  0.5159
14206TIP3    H242562   5.875   0.497   4.513  0.1876  1.9463 -0.7521
14207TIP3   OH242563   0.962   1.327   6.242 -0.0493  0.3414  0.2603
14207TIP3    H142564   0.958   1.270   6.319 -0.7159  0.2181  0.1431
14207TIP3    H242565   0.891   1.296   6.186  0.3749  0.4879 -0.3672
14208TIP3   OH242566   3.598   3.435   2.119  0.5670 -0.0666 -0.2798
14208TIP3    H142567   3.669   3.447   2.182  0.2517  0.9755 -0.0996
14208TIP3    H242568   3.525   3.486   2.154 -0.0324 -0.5199 -0.8363
14209TIP3   OH242569   3.802   7.761   1.009  0.0008  0.1686 -0.1008
14209TIP3    H142570   3.748   7.705   1.065 -1.9956  0.8573 -1.2372
14209TIP3    H242571   3.771   7.849   1.028  1.0921  0.6296 -0.4402
14210TIP3   OH242572   0.799   1.798   5.275 -0.1325 -0.2821 -0.2901
14210TIP3    H142573   0.797   1.870   5.337  1.2530  0.2116 -0.7839
14210TIP3    H242574   0.746   1.827   5.202 -0.0397  0.0069 -0.2416
14211TIP3   OH242575   2.128   3.174   4.969  0.1157 -0.1824 -0.0430
14211TIP3    H142576   2.220   3.197   4.980  0.2355  0.6382 -2.2868
14211TIP3    H242577   2.126   3.120   4.890 -1.4383  0.7686 -0.6882
14212TIP3   OH242578   2.886   1.133   3.883  0.5010 -0.1660  0.6978
14212TIP3    H142579   2.820   1.125   3.951  1.0065 -0.2079  1.1910
14212TIP3    H242580   2.961   1.174   3.926  0.2208  1.4452 -0.2583
14213TIP3   OH242581   0.963   2.646   1.208 -0.6073 -0.5276 -0.1330
14213TIP3    H142582   0.902   2.581   1.243 -1.4180 -0.1699 -0.8336
14213TIP3    H242583   0.988   2.700   1.283  2.0117 -3.0791  1.0098
14214TIP3   OH242584   1.464   0.581   1.167  0.6559 -0.0562 -0.2821
14214TIP3    H142585   1.377   0.595   1.204  1.0960 -2.0937  1.7148
14214TIP3    H242586   1.520   0.643   1.213  0.6895 -0.5395  0.3371
14215TIP3   OH242587   7.326   7.205   3.877  0.2486 -0.2744  0.5222
14215TIP3    H142588   7.278   7.283   3.849  0.7850  0.5158  1.7612
14215TIP3    H242589   7.355   7.225   3.966  1.5340 -1.3634  0.3717
14216TIP3   OH242590   3.772   5.350   4.020 -0.0665  0.3078  0.1125
14216TIP3    H142591   3.858   5.391   4.016 -0.0672  0.4694  1.3272
14216TIP3    H242592   3.711   5.417   3.991  0.1926  0.2534 -0.5687
14217TIP3   OH242593   5.378   7.280   5.727 -0.4463 -0.0404 -0.2867
14217TIP3    H142594   5.440   7.210   5.746  0.2472  0.5904 -0.1546
14217TIP3    H242595   5.421   7.331   5.658 -1.5041 -0.4603 -1.2802
14218TIP3   OH242596   4.074   0.260   1.486  0.3614  0.2111 -0.0095
14218TIP3    H142597   4.128   0.190   1.449 -0.4500 -0.5158  0.1323
14218TIP3    H242598   4.015   0.215   1.547  0.4934  1.1588  0.8534
14219TIP3   OH242599   5.090   4.471   5.987  0.2378  0.5091  0.1716
14219TIP3    H142600   5.045   4.389   6.008  1.8882  0.0345  2.2646
14219TIP3    H242601   5.021   4.537   5.983 -0.9651 -0.7355 -0.0813
14220TIP3   OH242602   2.423   5.687   4.201  0.6395  0.1695  0.3720
14220TIP3    H142603   2.384   5.764   4.160  0.6829 -0.5035 -0.9819
14220TIP3    H242604   2.517   5.697   4.187  0.5006 -2.3163 -4.1063
14221TIP3   OH242605   8.266   2.995   4.400  0.6324 -0.4813 -0.0258
14221TIP3    H142606   8.222   3.080   4.387  1.9041  0.5693  1.9265
14221TIP3    H242607   8.199   2.940   4.440  0.7441  0.8337  2.1354
14222TIP3   OH242608   8.091   0.507   4.817 -0.0388 -0.4327 -0.7424
14222TIP3    H142609   8.136   0.423   4.810  1.4865  0.2464  0.3206
14222TIP3    H242610   8.149   0.569   4.773 -1.0698  0.1180 -1.3674
14223TIP3   OH242611   6.325   2.567   1.399 -0.0290  0.9793  0.1069
14223TIP3    H142612   6.316   2.603   1.311 -0.0856  0.3382 -0.1534
14223TIP3    H242613   6.242   2.521   1.414  0.0717  0.8932  0.4066
14224TIP3   OH242614   2.363   1.428   3.059  0.7138  0.1726 -0.0218
14224TIP3    H142615   2.306   1.437   3.135  1.1157  0.0439  0.2960
14224TIP3    H242616   2.350   1.337   3.031 -0.7904  0.6970 -1.2020
14225TIP3   OH242617   7.281   1.017   1.054  0.1122  0.3963 -0.1745
14225TIP3    H142618   7.333   0.995   0.977  0.4089 -0.7091  0.3188
14225TIP3    H242619   7.242   1.102   1.033 -2.2721 -1.1759 -2.8475
14226TIP3   OH242620   6.480   2.847   5.803  0.0009  0.4518 -0.3817
14226TIP3    H142621   6.436   2.801   5.875 -0.6187 -1.2192 -1.7712
14226TIP3    H242622   6.422   2.921   5.784 -1.4121 -0.7874 -1.0915
14227TIP3   OH242623   0.052   2.951   5.101 -0.3296 -0.1554  0.4587
14227TIP3    H142624   0.116   2.904   5.154 -0.1189  0.1190  0.4495
14227TIP3    H242625   0.087   3.040   5.094 -0.8222  0.0551  0.6399
14228TIP3   OH242626   7.394   5.187   6.128  0.1786  0.2096  0.4640
14228TIP3    H142627   7.374   5.149   6.214 -2.4045 -1.8242 -0.8993
14228TIP3    H242628   7.439   5.269   6.148  0.4824 -0.6067  3.7192
14229TIP3   OH242629   2.029   5.730   2.240 -0.3005 -0.3446 -0.2128
14229TIP3    H142630   1.992   5.642   2.243  0.4910 -0.7708 -1.7198
14229TIP3    H242631   2.027   5.760   2.331 -0.7047 -1.8579  0.3134
14230TIP3   OH242632   2.190   1.792   2.157 -0.1216 -0.0318 -0.1082
14230TIP3    H142633   2.251   1.762   2.090 -1.6578  0.9234 -2.0285
14230TIP3    H242634   2.187   1.721   2.221  2.8300 -0.1726  0.0107
14231TIP3   OH242635   1.084   7.124   5.470  0.1710 -0.9148 -0.2627
14231TIP3    H142636   1.045   7.052   5.420 -1.9457 -0.4599  0.6427
14231TIP3    H242637   1.036   7.201   5.441 -0.2047 -0.4555  1.5127
14232TIP3   OH242638   4.747   0.649   2.902  0.0544 -0.6629  1.0933
14232TIP3    H142639   4.746   0.681   2.811 -1.8267 -4.1753 -0.3328
14232TIP3    H242640   4.801   0.570   2.898 -0.0787 -0.8860  3.0830
14233TIP3   OH242641   5.309   0.413   4.364  0.5955  0.1791  0.2745
14233TIP3    H142642   5.389   0.455   4.397  1.4355 -0.5148 -0.8144
14233TIP3    H242643   5.318   0.321   4.389  0.3131  0.0282 -0.1668
14234TIP3   OH242644   7.663   2.052   1.914 -0.1854 -0.4141  0.1808
14234TIP3    H142645   7.671   2.044   2.009 -4.3131  1.3122  0.8907
14234TIP3    H242646   7.637   1.965   1.885  0.1268 -0.7153  0.7858
14235TIP3   OH242647   6.585   3.239   5.160 -0.0060 -0.0982  0.2238
14235TIP3    H142648   6.635   3.281   5.090 -0.5714  0.8612  0.3885
14235TIP3    H242649   6.592   3.299   5.234 -0.7924 -0.3035  0.4716
14236TIP3   OH242650   6.639   1.893   5.898 -0.7201  1.2419 -0.0755
14236TIP3    H142651   6.658   1.979   5.935  0.6456  0.6532  0.7127
14236TIP3    H242652   6.547   1.896   5.874 -0.9432  2.5994  0.8366
14237TIP3   OH242653   4.233   2.937   5.692  0.5049  0.0142  0.2631
14237TIP3    H142654   4.194   3.018   5.723 -0.0470 -0.1559  0.0391
14237TIP3    H242655   4.158   2.878   5.678  0.8543 -0.3737 -0.0250
14238TIP3   OH242656   5.295   4.893   0.164  0.2055  0.0304  0.2300
14238TIP3    H142657   5.363   4.957   0.185  1.3089 -1.3602  1.0484
14238TIP3    H242658   5.235   4.896   0.239 -0.1633  0.6292 -0.0833
14239TIP3   OH242659   7.831   3.225   5.714 -0.4051  0.1841  0.0414
14239TIP3    H142660   7.815   3.288   5.784  2.6628 -0.0526  1.1075
14239TIP3    H242661   7.842   3.278   5.635 -4.4365  0.4241 -0.5735
14240TIP3   OH242662   1.917   2.053   0.022 -0.3038  0.3053  0.3367
14240TIP3    H142663   2.001   2.011   0.040 -0.6614 -0.1881  0.8866
14240TIP3    H242664   1.916   2.131   0.079  0.5274  1.3077 -0.9729
14241TIP3   OH242665   0.538   1.029   3.433 -0.0530  0.2639  0.0654
14241TIP3    H142666   0.583   1.114   3.438 -0.5647  0.5110  0.6111
14241TIP3    H242667   0.579   0.985   3.358  0.5716  0.7836  0.0843
14242TIP3   OH242668   1.308   1.896   6.420  0.2221  0.5350  0.1507
14242TIP3    H142669   1.388   1.928   6.461  0.4068 -0.3499  0.5196
14242TIP3    H242670   1.295   1.809   6.458 -0.6390  0.4599 -0.2833
14243TIP3   OH242671   3.663   4.576   5.043  0.1629  0.0993  0.3941
14243TIP3    H142672   3.739   4.630   5.065  1.7264 -2.1115  0.8082
14243TIP3    H242673   3.624   4.553   5.127 -0.8801  1.0307  0.1927
14244TIP3   OH242674   7.219   1.903   4.517 -0.1574  0.9535  0.1041
14244TIP3    H142675   7.197   1.827   4.463 -1.3360  0.4677  1.2202
14244TIP3    H242676   7.308   1.927   4.489  0.0144 -0.4750 -0.6802
14245TIP3   OH242677   7.630   0.312   5.333 -0.6130 -0.2839  0.3811
14245TIP3    H142678   7.662   0.235   5.286 -1.3773 -1.2176  1.3227
14245TIP3    H242679   7.688   0.383   5.306  1.0844 -1.5147  0.6488
14246TIP3   OH242680   3.663   5.957   0.701  0.0942 -0.8134 -0.1471
14246TIP3    H142681   3.644   5.864   0.712  0.0523 -0.7852  0.0316
14246TIP3    H242682   3.707   5.982   0.782  0.1927 -0.6995 -0.2349
14247TIP3   OH242683   4.819   3.049   3.258  0.3684 -0.5864  0.3749
14247TIP3    H142684   4.760   2.987   3.301  0.7819 -1.4771 -0.3065
14247TIP3    H242685   4.907   3.021   3.283  0.5426  1.2746  2.1080
14248TIP3   OH242686   6.614   5.314   3.669  0.3314  0.2340 -0.3611
14248TIP3    H142687   6.580   5.259   3.599  0.2537 -1.1995  0.7666
14248TIP3    H242688   6.538   5.335   3.723  0.4422  1.0739 -0.5128
14249TIP3   OH242689   3.346   3.353   5.863 -0.8101  0.9951 -0.2251
14249TIP3    H142690   3.273   3.302   5.897 -1.1881  2.8234  1.9703
14249TIP3    H242691   3.384   3.395   5.940  3.5833 -0.9622 -0.9893
14250TIP3   OH242692   3.047   4.944   5.501  0.0410  0.1598 -0.0410
14250TIP3    H142693   3.120   4.888   5.473  0.3142  0.4706  0.0328
14250TIP3    H242694   3.017   4.986   5.420 -1.4581 -1.5604 -0.4274
14251TIP3   OH242695   0.284   2.753   2.901  0.1738 -0.2302  0.1134
14251TIP3    H142696   0.209   2.808   2.878 -0.1853 -0.3014  1.0763
14251TIP3    H242697   0.280   2.680   2.838  0.1029  0.3427 -0.5605
14252TIP3   OH242698   7.403   0.806   3.188 -1.0068 -0.1425  0.0096
14252TIP3    H142699   7.466   0.788   3.258  0.0759 -1.8301 -1.3158
14252TIP3    H242700   7.318   0.785   3.226 -0.5203 -0.2643  1.0557
14253TIP3   OH242701   5.066   0.109   4.483 -0.2395  0.3588  0.6260
14253TIP3    H142702   5.071   0.039   4.418  2.0310  0.6958  0.3582
14253TIP3    H242703   4.989   0.160   4.458  0.5697  0.4843 -1.8406
14254TIP3   OH242704   7.970   0.966   3.354  0.6204 -0.1381 -0.0156
14254TIP3    H142705   8.003   0.973   3.264 -0.9407 -0.0688 -0.6165
14254TIP3    H242706   7.876   0.985   3.347  0.5311  0.2195  1.6936
14255TIP3   OH242707   2.466   0.397   4.704 -0.1475  0.1861  0.1250
14255TIP3    H142708   2.528   0.470   4.701 -1.1275  1.0375 -0.0469
14255TIP3    H242709   2.503   0.332   4.645  0.9419  0.3696  0.5732
14256TIP3   OH242710   0.287   3.228   1.572 -0.0892  0.2076  0.0653
14256TIP3    H142711   0.317   3.304   1.522 -0.3374  0.1344 -0.1949
14256TIP3    H242712   0.338   3.155   1.538 -1.3737 -0.1356 -1.2078
14257TIP3   OH242713   3.535   6.058   2.849 -0.2769  0.5026 -0.0110
14257TIP3    H142714   3.619   6.082   2.809 -0.5663  0.4348 -0.6710
14257TIP3    H242715   3.529   5.963   2.835 -0.7665  0.6085 -0.5621
14258TIP3   OH242716   5.350   2.754   2.552  0.3705  0.3102  0.5565
14258TIP3    H142717   5.354   2.672   2.504  0.7608  0.0827  0.9673
14258TIP3    H242718   5.259   2.782   2.545  0.5889  0.7167 -1.0144
14259TIP3   OH242719   2.949   2.960   1.152  0.1071 -0.0133  0.6900
14259TIP3    H142720   3.012   3.026   1.121 -0.5318  0.1090 -0.4140
14259TIP3    H242721   2.881   3.011   1.195 -0.4523  0.0903 -0.2772
14260TIP3   OH242722   3.328   6.236   0.046  0.4223  0.0118  0.3475
14260TIP3    H142723   3.263   6.178   0.007 -0.1872  0.4553  0.6930
14260TIP3    H242724   3.277   6.305   0.088  1.1315  1.0429 -0.4046
14261TIP3   OH242725   2.703   6.487   3.408  0.3690  0.0816  0.2653
14261TIP3    H142726   2.620   6.527   3.433  0.1377 -0.2678  0.0712
14261TIP3    H242727   2.678   6.402   3.373  0.8724 -0.3754  0.9801
14262TIP3   OH242728   3.873   6.218   3.227  0.1621  0.6165 -0.2053
14262TIP3    H142729   3.917   6.181   3.150 -1.2471  0.8289 -1.1431
14262TIP3    H242730   3.859   6.309   3.204  2.4164  1.5100  1.5591
14263TIP3   OH242731   3.643   1.920   3.882  0.1660 -0.7967  0.2428
14263TIP3    H142732   3.684   1.852   3.828  0.4889 -2.2984  2.2669
14263TIP3    H242733   3.589   1.872   3.945 -2.1417  0.9837 -0.2004
14264TIP3   OH242734   7.155   3.890   1.034 -0.5503 -0.4269 -0.7283
14264TIP3    H142735   7.236   3.925   1.070 -0.9837 -1.4847  1.4342
14264TIP3    H242736   7.165   3.899   0.939  1.1272  1.5080 -0.4451
14265TIP3   OH242737   8.198   4.804   2.369 -0.2986  0.0115  0.4121
14265TIP3    H142738   8.223   4.734   2.310 -0.8172 -0.2210  0.4599
14265TIP3    H242739   8.280   4.849   2.390 -0.4240  2.1473 -3.0115
14266TIP3   OH242740   4.204   1.276   6.357  0.0699  0.0111  0.3987
14266TIP3    H142741   4.211   1.249   6.448 -0.1077 -1.4590 -0.0015
14266TIP3    H242742   4.289   1.315   6.337  0.6638 -1.0590  0.7642
14267TIP3   OH242743   5.373   2.710   0.270 -0.2755 -0.1047 -0.8849
14267TIP3    H142744   5.431   2.634   0.276  1.4538  1.1445 -0.9773
14267TIP3    H242745   5.433   2.784   0.258 -1.9446  1.1877 -1.5093
14268TIP3   OH242746   5.017   7.064   5.728  0.5904 -0.3316 -0.1229
14268TIP3    H142747   4.989   7.016   5.650 -0.0920 -1.4473  0.7625
14268TIP3    H242748   5.102   7.027   5.751  1.0238  0.3490 -0.6173
14269TIP3   OH242749   4.909   0.288   1.958  0.1311  0.1172  0.0479
14269TIP3    H142750   4.854   0.364   1.975 -1.2371 -0.7312 -0.4340
14269TIP3    H242751   4.989   0.324   1.919 -1.5402  1.1860 -2.6738
14270TIP3   OH242752   5.831   4.708   0.605 -0.6259  0.3004  0.0144
14270TIP3    H142753   5.799   4.619   0.586 -0.5513  0.2478  0.1385
14270TIP3    H242754   5.813   4.757   0.525 -1.2026  0.3203  0.1533
14271TIP3   OH242755   4.319   1.856   0.733  0.1254  0.0763  0.2830
14271TIP3    H142756   4.305   1.929   0.794 -1.3136 -0.8478  1.1114
14271TIP3    H242757   4.236   1.848   0.686  0.2726 -1.0054  0.1819
14272TIP3   OH242758   0.842   5.382   3.840 -0.5801 -0.0502 -0.1843
14272TIP3    H142759   0.786   5.317   3.797 -1.8203 -0.4672  1.9201
14272TIP3    H242760   0.906   5.330   3.889 -1.5578  0.2455  1.4862
14273TIP3   OH242761   3.661   0.411   6.370 -0.1060  0.1757 -0.2960
14273TIP3    H142762   3.665   0.504   6.394  0.0227  0.2152 -0.4727
14273TIP3    H242763   3.623   0.368   6.447 -0.3664  0.4035 -0.2945
14274TIP3   OH242764   0.318   1.762   6.185 -0.1066  0.5825  0.3746
14274TIP3    H142765   0.304   1.837   6.127  1.9550  0.0837 -0.8685
14274TIP3    H242766   0.362   1.697   6.130 -1.0391 -1.2290  1.6593
14275TIP3   OH242767   2.402   3.215   1.805 -0.4542  0.2600  0.2249
14275TIP3    H142768   2.391   3.171   1.721 -0.7205 -1.0436  0.9111
14275TIP3    H242769   2.382   3.307   1.787 -0.0486  0.0851 -1.2213
14276TIP3   OH242770   3.339   6.994   5.027  0.4358  0.6895  0.2449
14276TIP3    H142771   3.364   7.015   5.117  0.4086 -0.4459  0.5333
14276TIP3    H242772   3.244   6.997   5.026  0.2647 -1.9295  0.9895
14277TIP3   OH242773   5.618   5.966   1.998  0.3312  0.0073  0.3419
14277TIP3    H142774   5.567   5.991   1.921  2.5887 -1.9397 -1.9602
14277TIP3    H242775   5.607   5.871   2.005  1.4480 -0.0683  1.4481
14278TIP3   OH242776   7.569   3.985   2.447 -0.4231  0.0537  0.0221
14278TIP3    H142777   7.539   3.913   2.502 -0.5621  0.1861  0.1196
14278TIP3    H242778   7.503   3.992   2.378 -2.5373  2.5658  2.1125
14279TIP3   OH242779   4.515   4.005   0.001 -0.2984  0.1322 -0.3301
14279TIP3    H142780   4.468   4.074   0.048  2.7935  1.2823  1.3741
14279TIP3    H242781   4.475   3.923   0.033 -0.0426  0.9631  2.4306
14280TIP3   OH242782   6.380   5.242   4.692 -0.0370  0.3678  0.0772
14280TIP3    H142783   6.397   5.160   4.737 -0.1413  0.8766  1.0885
14280TIP3    H242784   6.408   5.309   4.755  0.4491  1.0921 -0.8929
14281TIP3   OH242785   3.756   6.102   2.679 -0.2395 -0.0797  0.6991
14281TIP3    H142786   3.820   6.032   2.676 -2.0141 -1.7703  0.4913
14281TIP3    H242787   3.805   6.178   2.710  1.5310 -1.6444  1.9475
14282TIP3   OH242788   7.750   0.203   6.601 -0.3107 -0.6205 -0.5593
14282TIP3    H142789   7.753   0.208   6.697  1.0768 -2.5180 -0.4396
14282TIP3    H242790   7.736   0.293   6.573 -0.7901 -0.0239  1.4246
14283TIP3   OH242791   5.321   2.537   2.381 -0.5108 -0.1251  0.1980
14283TIP3    H142792   5.379   2.493   2.319 -0.0148  0.4153  0.2744
14283TIP3    H242793   5.292   2.468   2.441 -1.1846 -0.7010 -0.7662
14284TIP3   OH242794   2.986   4.438   3.399 -0.1064 -0.0330  0.0331
14284TIP3    H142795   3.025   4.361   3.359 -0.0771  0.3715 -0.7376
14284TIP3    H242796   2.991   4.506   3.331  1.0548  1.0248  1.1367
14285TIP3   OH242797   6.800   5.174   3.136 -0.1121 -0.3752  0.2520
14285TIP3    H142798   6.774   5.208   3.051  1.9860 -1.4738 -0.9159
14285TIP3    H242799   6.798   5.250   3.194  0.8294  0.9749 -1.3764
14286TIP3   OH242800   6.406   6.271   6.097 -0.2316  0.5743 -0.4228
14286TIP3    H142801   6.358   6.189   6.112  0.6872 -0.3265 -2.0256
14286TIP3    H242802   6.371   6.332   6.162 -0.6913 -1.1898  1.0773
14287TIP3   OH242803   2.402   6.871   1.622 -0.3379 -0.5985 -0.1790
14287TIP3    H142804   2.457   6.933   1.575  1.9748 -1.6994  0.9204
14287TIP3    H242805   2.383   6.802   1.559 -1.8630  0.5092 -1.0216
14288TIP3   OH242806   5.206   2.401   3.536  0.0453 -0.1187  0.0751
14288TIP3    H142807   5.202   2.314   3.497 -0.3226 -0.8058  1.5911
14288TIP3    H242808   5.221   2.385   3.629  0.8884  1.4666  0.2426
14289TIP3   OH242809   0.410   1.239   4.882  0.4151  0.0351  0.3123
14289TIP3    H142810   0.423   1.330   4.855 -0.9939  0.2831  0.3910
14289TIP3    H242811   0.324   1.216   4.847  0.6654 -1.2071  0.4703
14290TIP3   OH242812   4.461   7.330   3.543 -0.0522 -0.3798  0.1006
14290TIP3    H142813   4.460   7.391   3.469 -0.4199 -0.6365 -0.1092
14290TIP3    H242814   4.541   7.279   3.529 -1.4786 -2.3132 -1.7029
14291TIP3   OH242815   7.633   7.653   0.632 -0.2463  0.6292  0.0885
14291TIP3    H142816   7.696   7.684   0.698  1.4343  0.8235 -1.5058
14291TIP3    H242817   7.594   7.733   0.596 -0.4102  0.5792  0.1550
14292TIP3   OH242818   5.987   5.726   4.881 -0.2601 -0.1257 -0.1139
14292TIP3    H142819   5.894   5.742   4.893 -0.6940 -0.7885 -2.1820
14292TIP3    H242820   6.025   5.813   4.867 -0.3250  0.2677  1.8284
14293TIP3   OH242821   5.761   3.344   3.748  0.5437  0.3144 -0.4987
14293TIP3    H142822   5.690   3.400   3.718  1.4455  0.7129 -2.0147
14293TIP3    H242823   5.736   3.256   3.721  0.0757  0.2783  0.0480
14294TIP3   OH242824   5.690   3.787   4.779  0.0866  0.3239 -1.0416
14294TIP3    H142825   5.606   3.829   4.792  0.2106  0.6138 -1.1748
14294TIP3    H242826   5.673   3.717   4.716 -0.1389  0.1109 -0.7459
14295TIP3   OH242827   3.956   3.530   5.310  0.6232 -0.1437 -0.6747
14295TIP3    H142828   3.964   3.585   5.389 -2.4926 -0.7771  0.2371
14295TIP3    H242829   4.030   3.470   5.315  1.2289  0.6688  1.0713
14296TIP3   OH242830   5.472   5.739   0.714  0.3234 -0.6348  0.0773
14296TIP3    H142831   5.412   5.776   0.649 -0.3257 -0.9304  0.4958
14296TIP3    H242832   5.419   5.732   0.793  1.8776  2.7855  1.6604
14297TIP3   OH242833   7.549   4.233   3.125 -0.4601  0.3660 -0.2669
14297TIP3    H142834   7.561   4.313   3.075 -0.7486  0.8595  0.4383
14297TIP3    H242835   7.567   4.163   3.063 -0.4855  0.9704 -0.9659
14298TIP3   OH242836   7.006   6.106   3.906  0.1539 -0.2415 -0.1394
14298TIP3    H142837   7.078   6.125   3.845 -1.1603 -0.8813 -1.9729
14298TIP3    H242838   6.944   6.055   3.854 -2.2275  1.3624  0.9673
14299TIP3   OH242839   6.692   5.983   4.230  0.3624 -0.1082  0.0612
14299TIP3    H142840   6.787   5.978   4.236  0.3125  0.2365  2.4407
14299TIP3    H242841   6.673   6.075   4.217  0.3557 -0.0643  0.3645
14300TIP3   OH242842   7.479   7.719   1.513  0.0735  0.1967  0.4913
14300TIP3    H142843   7.441   7.632   1.507  1.7088 -0.4797 -1.3806
14300TIP3    H242844   7.407   7.778   1.490 -0.7291 -0.7517  0.5096
14301TIP3   OH242845   1.596   2.819   1.244  0.0718  0.1211  0.3207
14301TIP3    H142846   1.606   2.874   1.321 -0.2738  0.5946  0.0377
14301TIP3    H242847   1.671   2.840   1.188 -1.1885  1.9823 -0.7826
14302TIP3   OH242848   5.499   2.439   5.407  0.2872 -0.3336  0.4552
14302TIP3    H142849   5.564   2.502   5.376 -1.1695  0.5670 -0.9697
14302TIP3    H242850   5.490   2.376   5.336 -0.2509 -0.5521  0.7084
14303TIP3   OH242851   2.709   0.729   1.309 -0.3139  0.0806  0.3179
14303TIP3    H142852   2.684   0.640   1.331 -0.0181  0.2226  1.2749
14303TIP3    H242853   2.639   0.783   1.345 -0.8089  0.2153 -0.7924
14304TIP3   OH242854   0.913   2.268   2.450 -0.8567  0.0267  0.0965
14304TIP3    H142855   0.899   2.261   2.355 -1.1645 -1.4458  0.2242
14304TIP3    H242856   0.879   2.186   2.485  1.9350 -0.7931  1.1606
14305TIP3   OH242857   3.636   4.206   5.462  0.1451  0.7291 -0.0356
14305TIP3    H142858   3.679   4.235   5.382 -0.1560 -0.2413 -0.5699
14305TIP3    H242859   3.554   4.255   5.465 -0.2357  0.1577 -0.7799
14306TIP3   OH242860   8.285   5.927   3.015 -0.0075 -0.1214 -0.4702
14306TIP3    H142861   8.270   5.836   3.041  0.9278 -0.2954 -0.5055
14306TIP3    H242862   8.309   5.971   3.097  2.0049 -0.4630 -0.8307
14307TIP3   OH242863   5.952   5.780   4.572 -0.1890 -0.4669  0.0339
14307TIP3    H142864   5.946   5.706   4.633  2.8348 -0.7058  0.1816
14307TIP3    H242865   5.905   5.851   4.616 -0.5258 -1.4307  1.3118
14308TIP3   OH242866   3.201   7.022   3.921  0.4924  0.1362  0.0514
14308TIP3    H142867   3.271   6.958   3.910 -0.3721 -0.4269 -3.0156
14308TIP3    H242868   3.247   7.104   3.940  2.0182 -0.2679 -1.5823
14309TIP3   OH242869   5.648   5.986   0.034  0.2014 -0.1134  0.4364
14309TIP3    H142870   5.635   5.944   0.119  1.1712  0.5449  0.9336
14309TIP3    H242871   5.572   6.042   0.023 -0.0710 -0.4181  0.7370
14310TIP3   OH242872   4.208   7.556   5.054 -0.3265 -0.4028  0.0957
14310TIP3    H142873   4.245   7.483   5.003  0.1465 -0.8985  1.1129
14310TIP3    H242874   4.259   7.556   5.135 -1.4210  0.0173  0.8023
14311TIP3   OH242875   1.320   6.715   4.324  0.2491  0.4049  0.2968
14311TIP3    H142876   1.246   6.738   4.379 -0.1352  2.3934 -0.9243
14311TIP3    H242877   1.396   6.753   4.368 -0.0495  1.9322 -0.4218
14312TIP3   OH242878   5.866   0.659   2.985  0.2773  0.8242  0.1488
14312TIP3    H142879   5.922   0.606   2.929  0.1419 -0.0578  0.8290
14312TIP3    H242880   5.788   0.677   2.932  1.6043  3.0402 -1.2474
14313TIP3   OH242881   3.602   6.448   3.350  0.0112 -0.4330  0.5255
14313TIP3    H142882   3.669   6.516   3.346  0.8870 -1.2437  1.1053
14313TIP3    H242883   3.552   6.469   3.430 -2.4852  1.9865 -1.4805
14314TIP3   OH242884   6.781   2.207   1.707  0.2467 -0.1651 -0.3258
14314TIP3    H142885   6.770   2.202   1.802  1.3990  0.5508 -0.1389
14314TIP3    H242886   6.782   2.116   1.679 -0.7231 -0.3755  0.2595
14315TIP3   OH242887   4.634   6.122   4.837  0.0319 -0.1674 -0.4414
14315TIP3    H142888   4.653   6.146   4.928  0.3421 -1.7323 -0.0676
14315TIP3    H242889   4.708   6.067   4.811 -0.8171 -1.0043 -1.1222
14316TIP3   OH242890   0.889   2.460   3.621 -0.2079  0.3436  0.2777
14316TIP3    H142891   0.892   2.388   3.683 -1.0609  0.7835  0.8490
14316TIP3    H242892   0.805   2.450   3.576  0.1984  0.2936 -0.4941
14317TIP3   OH242893   0.597   2.575   1.749 -0.0419  0.3432 -0.2500
14317TIP3    H142894   0.588   2.497   1.804  1.1133  1.2178  1.2481
14317TIP3    H242895   0.592   2.649   1.810 -2.3081  1.5524 -1.7784
14318TIP3   OH242896   8.036   6.136   1.054 -0.0202 -0.0742  0.1206
14318TIP3    H142897   8.091   6.212   1.072 -0.4928  0.2278  0.3250
14318TIP3    H242898   8.005   6.108   1.140  1.2471 -1.3579  0.1889
14319TIP3   OH242899   6.343   5.013   1.147  0.0570 -0.2638 -0.5287
14319TIP3    H142900   6.418   4.953   1.151 -0.4987 -0.9053  1.2631
14319TIP3    H242901   6.382   5.100   1.148  0.8118 -0.5936 -0.0252
14320TIP3   OH242902   8.138   4.607   4.266  0.3946 -0.0489  0.4313
14320TIP3    H142903   8.131   4.645   4.178 -0.2723  1.5699  1.1392
14320TIP3    H242904   8.182   4.524   4.252 -0.3652 -0.1902 -1.5321
14321TIP3   OH242905   3.514   7.674   4.598  0.4095 -0.0527  0.0547
14321TIP3    H142906   3.558   7.677   4.683  0.3512 -0.6309  0.1145
14321TIP3    H242907   3.579   7.634   4.540 -0.4686 -2.1994  0.4474
14322TIP3   OH242908   2.130   0.235   2.882  0.6729  0.0107 -0.3687
14322TIP3    H142909   2.154   0.143   2.871  1.7158  0.3054 -0.7088
14322TIP3    H242910   2.183   0.264   2.956 -0.1548  0.1758  0.1711
14323TIP3   OH242911   8.010   3.890   0.152  0.4919  0.1511  0.2941
14323TIP3    H142912   8.069   3.841   0.209  0.3186 -1.8548 -1.1535
14323TIP3    H242913   7.927   3.843   0.157  0.5991 -0.3576 -1.9137
14324TIP3   OH242914   4.589   4.837   6.422 -0.6055  0.1287 -1.0411
14324TIP3    H142915   4.597   4.755   6.470  1.6142  0.7148 -0.3085
14324TIP3    H242916   4.540   4.813   6.343 -0.3847 -1.8051 -0.6498
14325TIP3   OH242917   5.793   3.055   3.998 -0.4170  0.2478 -0.5345
14325TIP3    H142918   5.699   3.076   3.991 -1.0347 -1.6029  1.3687
14325TIP3    H242919   5.811   3.001   3.921 -1.3516 -0.7384 -0.0900
14326TIP3   OH242920   6.761   5.159   5.958 -0.6165  0.1833 -0.2420
14326TIP3    H142921   6.673   5.191   5.978 -0.4928  0.0855  0.4537
14326TIP3    H242922   6.754   5.064   5.963 -0.2169  0.2006  0.9213
14327TIP3   OH242923   2.900   6.406   0.293 -0.3905  0.2057 -0.1131
14327TIP3    H142924   2.889   6.437   0.383  0.2694  1.6512 -0.5009
14327TIP3    H242925   2.833   6.452   0.243  0.6747  1.1686 -0.7197
14328TIP3   OH242926   7.847   0.551   6.027  0.0296  0.2760  0.5080
14328TIP3    H142927   7.892   0.634   6.014 -2.1074  1.3725 -0.4381
14328TIP3    H242928   7.795   0.564   6.106  1.6298 -1.1324  1.8600
14329TIP3   OH242929   1.150   5.286   5.654 -0.1641  0.2543 -0.0564
14329TIP3    H142930   1.112   5.229   5.720  1.0866  0.0665  0.5059
14329TIP3    H242931   1.088   5.281   5.580 -0.8098 -0.6717  0.5320
14330TIP3   OH242932   4.702   1.897   4.647  0.5167  0.2260 -0.6546
14330TIP3    H142933   4.794   1.889   4.672  0.3942 -1.8871 -0.7685
14330TIP3    H242934   4.654   1.873   4.727  0.1236 -5.3380 -2.1856
14331TIP3   OH242935   3.406   4.187   6.491  0.4411 -0.0038 -0.0926
14331TIP3    H142936   3.363   4.248   6.551 -0.0789 -0.6025  0.1511
14331TIP3    H242937   3.438   4.243   6.419 -0.7807  0.4529 -0.3013
14332TIP3   OH242938   2.210   1.255   4.389 -0.3704  0.0563  0.4620
14332TIP3    H142939   2.233   1.322   4.325  0.5620  0.2410  0.9775
14332TIP3    H242940   2.120   1.274   4.413 -0.8535 -0.2148 -1.0383
14333TIP3   OH242941   1.397   2.338   2.325  0.1376  0.2624  0.3432
14333TIP3    H142942   1.380   2.368   2.236 -0.9503  3.6220  1.5348
14333TIP3    H242943   1.314   2.298   2.353 -0.4696  1.7101  0.6996
14334TIP3   OH242944   3.958   6.142   2.969  0.4854  0.3653 -0.1295
14334TIP3    H142945   3.913   6.197   2.904  0.7197 -1.2083 -1.7117
14334TIP3    H242946   4.047   6.133   2.934  0.6657 -0.3606  0.5112
14335TIP3   OH242947   5.283   7.015   0.937  0.1029  0.4583 -0.1619
14335TIP3    H142948   5.282   7.101   0.894  0.9579 -0.0258 -1.1874
14335TIP3    H242949   5.224   7.025   1.011 -1.8795  1.1895 -1.7389
14336TIP3   OH242950   2.693   1.422   1.874  0.2343  0.5936 -0.7420
14336TIP3    H142951   2.647   1.469   1.805 -0.8692  1.1277  0.3168
14336TIP3    H242952   2.632   1.353   1.900 -0.8046  2.3060  1.8068
14337TIP3   OH242953   7.452   7.375   4.923 -0.4366  0.1077  0.3785
14337TIP3    H142954   7.536   7.339   4.894  0.6142  1.4502  1.5676
14337TIP3    H242955   7.432   7.442   4.857  0.6483  1.3760  1.2639
14338TIP3   OH242956   4.748   2.189   1.516 -0.0066  0.7947  0.0264
14338TIP3    H142957   4.735   2.096   1.535 -0.9284  0.7987 -0.5311
14338TIP3    H242958   4.824   2.213   1.568  0.2114 -0.2584  0.2233
14339TIP3   OH242959   7.023   7.358   2.742  0.0035 -0.0871 -0.0991
14339TIP3    H142960   6.966   7.281   2.741  0.1974 -0.2356  0.0706
14339TIP3    H242961   7.065   7.356   2.828  0.9830 -0.5295 -0.5671
14340TIP3   OH242962   6.890   1.079   6.625 -0.0339 -0.2998  0.0907
14340TIP3    H142963   6.866   0.989   6.646  1.2975 -0.9020 -0.7979
14340TIP3    H242964   6.898   1.122   6.710  0.4452 -1.3525  0.6019
14341TIP3   OH242965   3.800   5.353   2.695  0.0201  0.0583  0.2944
14341TIP3    H142966   3.824   5.261   2.686  1.9444  0.6897 -2.0699
14341TIP3    H242967   3.740   5.370   2.623 -0.0830  0.7363  0.5260
14342TIP3   OH242968   5.782   2.396   4.110  0.0678  0.6040 -0.2027
14342TIP3    H142969   5.804   2.485   4.084  0.2671  0.6727  0.1957
14342TIP3    H242970   5.851   2.370   4.171  0.0438  0.1570 -0.3576
14343TIP3   OH242971   1.365   3.735   0.523  0.5121  0.1448  0.3688
14343TIP3    H142972   1.281   3.777   0.505 -0.4102 -2.0067 -0.7275
14343TIP3    H242973   1.430   3.798   0.493 -0.7414  1.3055 -0.0280
14344TIP3   OH242974   1.725   1.632   5.550 -0.0228 -0.1550  0.1466
14344TIP3    H142975   1.782   1.671   5.616 -1.2758  1.3337  0.4049
14344TIP3    H242976   1.693   1.551   5.590  0.7598 -0.2628  0.5657
14345TIP3   OH242977   7.054   2.339   0.998 -0.3370 -0.1668 -0.4328
14345TIP3    H142978   7.045   2.261   0.944 -0.3829 -1.1439  0.9140
14345TIP3    H242979   7.092   2.307   1.080 -0.1036  1.2736  0.0546
14346TIP3   OH242980   5.927   5.005   1.749 -0.3029 -0.3732 -0.5349
14346TIP3    H142981   5.905   5.046   1.833  0.9488 -1.4772  0.3731
14346TIP3    H242982   5.843   4.997   1.704 -1.0131  0.2113  0.6197
14347TIP3   OH242983   8.100   6.113   4.259 -0.2165  0.3109 -0.0390
14347TIP3    H142984   8.050   6.174   4.313 -1.3368 -2.8008  2.7817
14347TIP3    H242985   8.171   6.084   4.316 -0.0315 -1.3735 -1.0741
14348TIP3   OH242986   1.599   3.606   1.331 -0.3494 -0.3446  0.2135
14348TIP3    H142987   1.637   3.630   1.247  0.3661 -1.4258  0.1979
14348TIP3    H242988   1.505   3.621   1.321 -0.0592  1.5291 -0.0503
14349TIP3   OH242989   8.236   0.284   1.648 -0.4165  0.3111  0.1940
14349TIP3    H142990   8.252   0.302   1.555 -0.6681 -0.4228  0.0033
14349TIP3    H242991   8.189   0.361   1.680 -0.7799  0.3409 -0.4089
14350TIP3   OH242992   2.869   1.810   4.458 -0.1270 -0.5831  0.6614
14350TIP3    H142993   2.845   1.795   4.366  0.4837 -1.7532  0.6673
14350TIP3    H242994   2.939   1.875   4.454 -1.7807  1.2773  0.5055
14351TIP3   OH242995   8.037   1.749   4.994 -0.0692  0.6737 -0.4596
14351TIP3    H142996   8.046   1.697   4.915  1.9522 -1.9008  1.2941
14351TIP3    H242997   7.949   1.728   5.027  0.0426 -0.2046 -0.7127
14352TIP3   OH242998   2.537   1.751   5.930 -0.6105  0.3677 -0.0347
14352TIP3    H142999   2.631   1.736   5.939 -0.6986 -0.1112  0.1045
14352TIP3    H243000   2.500   1.664   5.917 -1.1344  0.4585  0.7695
14353TIP3   OH243001   0.159   7.385   4.689 -0.1393  0.2823 -0.0569
14353TIP3    H143002   0.172   7.442   4.613 -0.2440  0.9796  0.4448
14353TIP3    H243003   0.203   7.430   4.761 -1.8833  0.7172  0.7828
14354TIP3   OH243004   2.754   3.408   4.353 -0.6198  0.5765  0.1580
14354TIP3    H143005   2.745   3.315   4.372  1.6231  0.5579  1.4865
14354TIP3    H243006   2.820   3.412   4.284 -1.1659  1.1922 -0.3478
14355TIP3   OH243007   6.329   5.778   3.031 -0.4611 -0.2188 -0.1013
14355TIP3    H143008   6.286   5.823   2.958 -2.7525 -0.9452  0.7284
14355TIP3    H243009   6.336   5.845   3.099 -1.0699 -0.3314  0.0695
14356TIP3   OH243010   5.283   3.814   6.673  0.6782  0.4108  0.2041
14356TIP3    H143011   5.215   3.842   6.611  0.3251 -0.5553  0.1275
14356TIP3    H243012   5.237   3.809   6.757  0.5041 -0.7394  0.0592
14357TIP3   OH243013   0.416   0.617   2.595  0.1934  0.6372 -0.4494
14357TIP3    H143014   0.420   0.675   2.518 -2.0900 -0.1603 -1.2625
14357TIP3    H243015   0.464   0.539   2.568 -1.0580  0.1374 -1.3453
14358TIP3   OH243016   0.140   1.030   1.364  0.2924  0.9091  0.6126
14358TIP3    H143017   0.162   1.110   1.316 -0.2234  0.0243 -1.1770
14358TIP3    H243018   0.046   1.036   1.380  0.0585  0.2317 -0.4150
14359TIP3   OH243019   2.386   3.540   3.879  0.1627 -0.5307 -0.0780
14359TIP3    H143020   2.319   3.477   3.906  0.2564 -0.8772 -0.6250
14359TIP3    H243021   2.458   3.526   3.941 -0.2244 -0.2335  0.4425
14360TIP3   OH243022   4.055   1.207   6.612 -0.0624 -0.0981 -0.0882
14360TIP3    H143023   3.981   1.266   6.596  0.7262  0.7879 -0.4990
14360TIP3    H243024   4.100   1.244   6.688 -0.4169 -1.0223  0.5929
14361TIP3   OH243025   1.823   4.281   2.707 -0.3977  0.2275  0.4134
14361TIP3    H143026   1.794   4.365   2.672  0.8650  0.9578  1.0539
14361TIP3    H243027   1.761   4.263   2.778 -2.2933 -0.7257 -1.3760
14362TIP3   OH243028   7.699   2.708   3.621 -0.1032  0.1484 -0.0573
14362TIP3    H143029   7.729   2.794   3.651  0.3340 -0.7036  2.1426
14362TIP3    H243030   7.774   2.672   3.572  0.1800  0.5133  0.1025
14363TIP3   OH243031   6.468   4.697   4.739  0.1008  0.1345 -0.4266
14363TIP3    H143032   6.505   4.698   4.650 -0.3392 -0.4070 -0.6165
14363TIP3    H243033   6.413   4.619   4.742  0.8451 -0.3832  0.6249
14364TIP3   OH243034   6.386   3.771   2.113  0.6245  0.3103 -0.2608
14364TIP3    H143035   6.299   3.813   2.111  1.7439  2.8823  0.3847
14364TIP3    H243036   6.371   3.688   2.157 -1.8120 -0.1731 -1.7952
14365TIP3   OH243037   0.841   1.024   1.727 -0.6798  0.4146 -0.4066
14365TIP3    H143038   0.933   1.002   1.740 -1.3818 -2.4553  0.4343
14365TIP3    H243039   0.834   1.045   1.633  0.5249 -1.3993 -0.9562
14366TIP3   OH243040   1.002   3.471   4.059  0.4031 -0.1368  0.0472
14366TIP3    H143041   0.942   3.541   4.086  0.7891  1.5344 -2.9476
14366TIP3    H243042   0.952   3.390   4.073 -0.4411  0.7495  2.6770
14367TIP3   OH243043   8.248   6.794   2.700  0.3883  0.1624  0.0355
14367TIP3    H143044   8.209   6.707   2.711 -0.2506  0.6194  1.8072
14367TIP3    H243045   8.246   6.831   2.788  1.0957  1.7914 -0.6105
14368TIP3   OH243046   6.266   4.293   1.026 -0.5680  0.5588  0.2326
14368TIP3    H143047   6.190   4.250   1.066 -0.8765  0.4078 -0.5005
14368TIP3    H243048   6.232   4.330   0.944  0.5435 -1.0947 -1.0353
14369TIP3   OH243049   5.050   0.568   3.593 -0.7751  0.7492 -0.0147
14369TIP3    H143050   5.096   0.629   3.651 -0.1879  1.5046 -1.2370
14369TIP3    H243051   5.038   0.489   3.646  0.5971  1.0742  0.8346
14370TIP3   OH243052   4.667   5.402   4.551  0.3733  0.1115 -0.2532
14370TIP3    H143053   4.574   5.396   4.527 -0.3525  0.8016  2.1150
14370TIP3    H243054   4.686   5.496   4.549  0.7839  0.0352  0.1165
14371TIP3   OH243055   4.386   2.067   3.737 -0.0263  0.6889  0.8007
14371TIP3    H143056   4.480   2.080   3.731  0.1019 -0.4906 -0.1189
14371TIP3    H243057   4.348   2.144   3.696  0.6033  0.1957 -0.7691
14372TIP3   OH243058   1.371   0.620   2.726  0.1600  0.1206 -0.2787
14372TIP3    H143059   1.349   0.691   2.665  1.6952  0.1459 -0.8566
14372TIP3    H243060   1.290   0.604   2.774 -0.2979  2.1295 -0.2633
14373TIP3   OH243061   5.080   3.212   2.947  0.1047 -0.2145  0.0179
14373TIP3    H143062   5.011   3.227   2.883  0.7642 -1.6511 -1.0906
14373TIP3    H243063   5.044   3.244   3.029 -2.4961 -2.2141 -0.1948
14374TIP3   OH243064   2.589   0.863   3.314 -0.0526 -0.0578  0.1365
14374TIP3    H143065   2.563   0.844   3.404 -1.6792  2.4510  0.2984
14374TIP3    H243066   2.677   0.900   3.322 -0.4098  0.6861  0.8035
14375TIP3   OH243067   3.695   6.268   0.241  0.6867 -0.1978 -0.1117
14375TIP3    H143068   3.726   6.185   0.204 -1.8119 -0.8177 -1.0249
14375TIP3    H243069   3.641   6.243   0.315 -0.9082  0.4889 -0.9891
14376TIP3   OH243070   1.043   7.108   2.428 -0.6690 -0.0192  0.0855
14376TIP3    H143071   1.039   7.026   2.380 -1.4708  0.1248 -0.1173
14376TIP3    H243072   1.007   7.173   2.368 -1.7832  0.1489  0.8841
14377TIP3   OH243073   6.192   7.210   3.812 -0.7179  0.5717  0.1760
14377TIP3    H143074   6.279   7.186   3.845 -1.0433 -1.3005 -0.2049
14377TIP3    H243075   6.193   7.306   3.810  1.0815  0.6142  0.8451
14378TIP3   OH243076   6.608   1.439   2.234 -0.9385  0.4290  0.1456
14378TIP3    H143077   6.608   1.528   2.270  0.5360  0.1498  0.9248
14378TIP3    H243078   6.521   1.429   2.195 -1.3368  2.0031  0.5483
14379TIP3   OH243079   2.266   1.196   5.564  0.3587  0.3852 -0.1046
14379TIP3    H143080   2.241   1.176   5.474 -2.1862  2.0789  0.1135
14379TIP3    H243081   2.322   1.274   5.557 -0.4872  1.0003 -0.2206
14380TIP3   OH243082   6.059   6.612   1.187 -0.0280  0.1778  0.3311
14380TIP3    H143083   6.117   6.680   1.153 -0.2611  0.2069 -0.0118
14380TIP3    H243084   6.023   6.648   1.268  0.1155  0.3236  0.3289
14381TIP3   OH243085   2.248   4.233   4.216 -0.2582  0.1726 -0.2418
14381TIP3    H143086   2.257   4.307   4.156 -1.0349 -0.9245 -1.7649
14381TIP3    H243087   2.154   4.214   4.218 -0.3583  0.6414  1.9468
14382TIP3   OH243088   2.183   0.449   3.354 -0.1253 -0.1760  0.2465
14382TIP3    H143089   2.223   0.515   3.410  1.5189 -0.3249 -0.6952
14382TIP3    H243090   2.157   0.496   3.274 -0.1852 -0.4180  0.1204
14383TIP3   OH243091   1.319   6.170   6.062  0.4320 -0.8516  0.7653
14383TIP3    H143092   1.411   6.192   6.049  0.2277 -0.8100 -0.8941
14383TIP3    H243093   1.311   6.081   6.027 -0.0403 -1.0955  1.4755
14384TIP3   OH243094   0.466   2.128   3.682  0.3803 -0.4303  0.1235
14384TIP3    H143095   0.521   2.157   3.609  0.9640  0.6915  0.9700
14384TIP3    H243096   0.377   2.150   3.655  0.5668 -0.2449 -0.3545
14385TIP3   OH243097   8.038   0.832   4.461  0.3597  0.1121  0.2901
14385TIP3    H143098   8.020   0.926   4.455 -1.6766 -0.1341  1.5913
14385TIP3    H243099   8.083   0.811   4.379  1.2051  2.2612  0.1301
14386TIP3   OH243100   2.816   5.125   6.295  0.1622 -0.2182  0.0855
14386TIP3    H143101   2.825   5.070   6.217 -2.1440  0.5513 -0.8208
14386TIP3    H243102   2.864   5.205   6.274  0.7513 -0.5775  0.0540
14387TIP3   OH243103   3.991   0.094   4.389 -0.2491  0.0130  0.3461
14387TIP3    H143104   4.033   0.102   4.474  0.0001  0.0554  0.2208
14387TIP3    H243105   3.898   0.106   4.406 -0.1628  0.3987  0.5602
14388TIP3   OH243106   7.367   2.467   0.062 -0.0034  0.3392 -0.2704
14388TIP3    H143107   7.337   2.477  -0.028 -0.8917  0.8118  0.0645
14388TIP3    H243108   7.410   2.382   0.064  0.1310  0.3849 -1.1700
14389TIP3   OH243109   5.888   1.285   5.055  0.2409  0.1792  0.7135
14389TIP3    H143110   5.840   1.239   5.124 -1.0360 -0.3919 -0.4969
14389TIP3    H243111   5.828   1.286   4.981  1.0123  2.0791  0.0613
14390TIP3   OH243112   4.254   7.632   6.533  0.0359 -0.2539 -0.4048
14390TIP3    H143113   4.341   7.635   6.573 -0.8699  2.2480  1.6249
14390TIP3    H243114   4.193   7.654   6.603 -2.2958 -1.7238 -1.8005
14391TIP3   OH243115   2.155   7.283   5.714  0.5253 -0.7671  0.4562
14391TIP3    H143116   2.100   7.311   5.641  1.4847  0.1855  0.0598
14391TIP3    H243117   2.174   7.191   5.697 -0.3808 -0.9189  0.2432
14392TIP3   OH243118   5.027   4.647   6.380  0.1619  0.0185 -0.1761
14392TIP3    H143119   5.122   4.640   6.387  0.1117 -1.5340 -0.5873
14392TIP3    H243120   5.009   4.645   6.286 -0.3053 -0.4960 -0.0848
14393TIP3   OH243121   6.988   3.559   2.365  0.1435  0.1586  0.0609
14393TIP3    H143122   7.063   3.579   2.421 -0.2767  0.9429  0.3507
14393TIP3    H243123   6.934   3.638   2.367  0.2932  0.3468 -1.7361
14394TIP3   OH243124   5.839   3.912   2.232  0.3880  0.0819  0.5626
14394TIP3    H143125   5.819   3.844   2.168  1.4188 -0.2093  0.5369
14394TIP3    H243126   5.890   3.977   2.184  0.4590  0.2648  0.8820
14395TIP3   OH243127   2.840   0.628   0.071  0.2188  0.2106  0.4186
14395TIP3    H143128   2.839   0.637   0.166  0.2069  0.6359  0.3806
14395TIP3    H243129   2.916   0.679   0.043  0.1354  0.2105  0.1882
14396TIP3   OH243130   1.252   5.476   0.657 -0.3356  0.3959  0.4160
14396TIP3    H143131   1.294   5.465   0.742 -1.4525  0.2253  0.9657
14396TIP3    H243132   1.174   5.420   0.661  0.5394 -1.1078 -1.4115
14397TIP3   OH243133   3.856   5.659   0.733  0.0720  0.2249  0.4643
14397TIP3    H143134   3.937   5.608   0.738  0.6076  0.9477 -0.4259
14397TIP3    H243135   3.885   5.747   0.711 -1.0108  0.2666 -0.9847
14398TIP3   OH243136   4.100   0.661   0.538  0.3797 -0.4722  0.3060
14398TIP3    H143137   4.091   0.723   0.610 -1.3719  1.1245 -1.1886
14398TIP3    H243138   4.027   0.600   0.548  1.1976 -1.4005  0.8754
14399TIP3   OH243139   0.839   7.098   1.616  0.2903  0.3503  0.3473
14399TIP3    H143140   0.904   7.120   1.683  2.3749  1.6090 -1.9232
14399TIP3    H243141   0.816   7.007   1.634  0.7721  0.6294  2.7086
14400TIP3   OH243142   3.710   2.414   6.656  0.6093  0.3492  0.3709
14400TIP3    H143143   3.777   2.381   6.716  0.3769 -0.4785  0.1985
14400TIP3    H243144   3.706   2.348   6.586 -0.6840  0.1366  0.6095
14401TIP3   OH243145   4.144   7.354   6.331  0.2128  0.0737  0.3954
14401TIP3    H143146   4.197   7.430   6.352  2.5242 -0.5363 -2.5420
14401TIP3    H243147   4.205   7.280   6.333 -0.2785 -0.6357 -3.3341
14402TIP3   OH243148   5.308   4.648   1.390  0.1935 -0.1099 -0.3670
14402TIP3    H143149   5.369   4.717   1.418 -0.6092  0.2267  0.6397
14402TIP3    H243150   5.285   4.603   1.472  0.2508 -1.2041 -0.9389
14403TIP3   OH243151   5.119   1.616   1.446  0.1913  0.0064 -0.4777
14403TIP3    H143152   5.138   1.650   1.358 -0.0951  1.1708 -0.1119
14403TIP3    H243153   5.095   1.525   1.432  0.6194  0.0423 -1.5560
14404TIP3   OH243154   0.487   5.239   2.784  0.0674  0.5619 -0.7334
14404TIP3    H143155   0.563   5.276   2.740  1.3805 -0.4600  0.5704
14404TIP3    H243156   0.502   5.258   2.877 -0.7671 -0.5343 -0.3596
14405TIP3   OH243157   2.765   6.462   2.621  0.2444  0.2521 -0.8158
14405TIP3    H143158   2.758   6.527   2.691 -0.9003  2.4828 -2.8557
14405TIP3    H243159   2.837   6.406   2.648  1.1667  2.2401  1.1787
14406TIP3   OH243160   7.495   6.954   4.368 -0.4438  0.2658  0.3496
14406TIP3    H143161   7.467   6.875   4.414 -2.6108  1.8596  2.0269
14406TIP3    H243162   7.441   6.957   4.289 -1.2072  0.6104  0.8700
14407TIP3   OH243163   3.249   6.975   5.666  0.0462 -0.0212 -0.0908
14407TIP3    H143164   3.280   7.063   5.687 -0.4343  0.2400 -0.4599
14407TIP3    H243165   3.185   6.955   5.735 -1.6933  0.9238 -1.3413
14408TIP3   OH243166   7.790   7.612   3.366  0.6947 -0.8742  0.5389
14408TIP3    H143167   7.869   7.662   3.388  1.1320 -0.8009 -1.0456
14408TIP3    H243168   7.768   7.641   3.277 -0.7150 -1.4176  0.6874
14409TIP3   OH243169   6.798   7.116   2.035 -0.1030  0.2144  0.6896
14409TIP3    H143170   6.833   7.095   2.121  1.3675 -0.8258 -0.1070
14409TIP3    H243171   6.853   7.188   2.003  0.3695 -0.4136  0.0394
14410TIP3   OH243172   2.879   3.491   0.274  0.7475  0.6678  0.0706
14410TIP3    H143173   2.971   3.494   0.299  0.8938  1.5952 -0.5140
14410TIP3    H243174   2.858   3.581   0.248 -0.4294  0.5568  0.5484
14411TIP3   OH243175   6.898   7.621   2.800 -0.2696 -0.4773  0.2383
14411TIP3    H143176   6.815   7.614   2.753 -1.3891 -1.0419  2.1870
14411TIP3    H243177   6.951   7.548   2.768  0.5342  1.2941 -2.8525
14412TIP3   OH243178   6.446   5.255   2.794 -0.3062 -0.5132 -0.6016
14412TIP3    H143179   6.535   5.219   2.792 -0.7045 -1.8904  1.8542
14412TIP3    H243180   6.458   5.348   2.811  0.6791 -0.5268 -1.1596
14413TIP3   OH243181   3.420   4.824   1.170  0.4841  0.3540 -0.5095
14413TIP3    H143182   3.378   4.741   1.194 -0.1268  0.7336 -0.2606
14413TIP3    H243183   3.510   4.815   1.202  1.5213 -1.6246 -3.4782
14414TIP3   OH243184   7.379   1.014   3.709 -0.0599  0.2597  0.2167
14414TIP3    H143185   7.372   1.108   3.727 -0.5249  0.3055 -0.1603
14414TIP3    H243186   7.341   1.004   3.622 -2.8063 -0.6919  1.4207
14415TIP3   OH243187   0.046   2.637   4.074 -0.2033 -0.4500  0.9957
14415TIP3    H143188   0.070   2.696   4.145  0.3314 -0.0123  0.4635
14415TIP3    H243189   0.128   2.619   4.029 -0.5023 -0.9011  0.6182
14416TIP3   OH243190   0.412   5.906   5.115  0.2144 -0.0064  0.5003
14416TIP3    H143191   0.449   5.917   5.028  1.7679  0.6687  1.2054
14416TIP3    H243192   0.407   5.811   5.127  2.2193 -0.1529  0.5235
14417TIP3   OH243193   3.255   3.462   3.813 -0.4322  0.5257 -0.0256
14417TIP3    H143194   3.291   3.551   3.815  0.9498  0.0189 -0.7357
14417TIP3    H243195   3.321   3.411   3.766 -1.2437 -0.8633  0.2925
14418TIP3   OH243196   4.124   2.656   3.810 -0.2550  0.0238  0.1202
14418TIP3    H143197   4.149   2.564   3.801  0.2571  0.1081  0.6140
14418TIP3    H243198   4.032   2.658   3.784 -0.0261 -0.4624 -0.8042
14419TIP3   OH243199   4.802   1.435   3.447  0.1856 -0.5519  0.5045
14419TIP3    H143200   4.758   1.488   3.514 -1.1566  0.1294 -0.8545
14419TIP3    H243201   4.754   1.352   3.447 -0.3695 -0.2436 -0.1589
14420TIP3   OH243202   1.679   4.781   3.861  0.0033  0.1273 -0.3210
14420TIP3    H143203   1.763   4.767   3.905  0.2292 -1.4676 -1.1695
14420TIP3    H243204   1.689   4.737   3.776 -2.2302 -1.6210  0.2102
14421TIP3   OH243205   2.452   4.976   0.980 -0.6210 -0.2645  0.5645
14421TIP3    H143206   2.403   4.943   0.905 -0.4954 -0.5123  0.5882
14421TIP3    H243207   2.385   4.998   1.045 -0.6935 -0.7943  0.6751
14422TIP3   OH243208   3.853   2.201   6.007 -0.8939  0.5408  0.1023
14422TIP3    H143209   3.919   2.268   5.990  0.2469 -0.6095 -0.1072
14422TIP3    H243210   3.775   2.251   6.032 -0.7352  2.0541 -2.1133
14423TIP3   OH243211   7.999   6.429   1.226  0.0454  0.6405  0.4141
14423TIP3    H143212   7.911   6.413   1.259 -0.0665 -1.8246 -0.8239
14423TIP3    H243213   7.986   6.454   1.134  0.6120  0.6123  0.3247
14424TIP3   OH243214   5.756   3.693   2.771 -1.0091  0.3122 -0.2604
14424TIP3    H143215   5.796   3.753   2.835  0.4574  0.2769 -1.0878
14424TIP3    H243216   5.828   3.634   2.746 -2.6407 -2.6398  1.4140
14425TIP3   OH243217   7.089   4.046   2.714 -0.0317  0.0773  0.0634
14425TIP3    H143218   7.107   4.129   2.758 -1.8014  0.7345 -0.3714
14425TIP3    H243219   7.131   4.054   2.629  0.3731  0.2443  0.2787
14426TIP3   OH243220   5.556   2.733   4.661 -0.5583  0.0660 -0.3862
14426TIP3    H143221   5.594   2.818   4.682 -2.4918  0.8214  0.2917
14426TIP3    H243222   5.613   2.697   4.592  1.6582  0.8132  0.9640
14427TIP3   OH243223   7.737   5.201   6.093  0.0747  0.1228 -0.3728
14427TIP3    H143224   7.677   5.181   6.022  0.2593  0.1763 -0.5435
14427TIP3    H243225   7.786   5.120   6.107  0.8942  0.4646 -1.1339
14428TIP3   OH243226   6.482   1.874   4.992  0.0563  0.7277 -0.2919
14428TIP3    H143227   6.535   1.825   4.929  0.3162  2.0390 -1.1272
14428TIP3    H243228   6.392   1.848   4.973 -0.0438  2.3625 -2.4162
14429TIP3   OH243229   4.492   6.459   5.634 -0.3153 -0.3599  0.2549
14429TIP3    H143230   4.524   6.484   5.720 -0.6154  1.0166 -0.0074
14429TIP3    H243231   4.571   6.451   5.580 -0.1453 -0.9757  0.5964
14430TIP3   OH243232   8.113   7.287   5.272 -0.2966  0.4432  0.2510
14430TIP3    H143233   8.148   7.322   5.190 -1.1698  0.3808 -0.1547
14430TIP3    H243234   8.046   7.350   5.299  0.1934  0.6307  1.0972
14431TIP3   OH243235   6.804   7.773   5.744 -0.4347  0.1320  0.0615
14431TIP3    H143236   6.878   7.814   5.699  0.1507 -0.1065  0.7976
14431TIP3    H243237   6.789   7.692   5.696  0.2956 -0.2007  0.3784
14432TIP3   OH243238   1.213   1.623   3.630  0.5289 -0.6022  0.2076
14432TIP3    H143239   1.295   1.673   3.634  0.3315 -0.3092  0.8061
14432TIP3    H243240   1.187   1.625   3.538  0.5204  0.4035  0.2220
14433TIP3   OH243241   3.185   7.721   5.368  0.2859  0.2976 -0.1543
14433TIP3    H143242   3.140   7.690   5.446 -1.1585  2.9549  0.1991
14433TIP3    H243243   3.165   7.815   5.364  1.5783  0.5769 -2.8771
14434TIP3   OH243244   3.825   1.248   1.496 -0.2569 -0.6388 -0.1059
14434TIP3    H143245   3.796   1.172   1.546 -0.7523 -0.6253 -0.3628
14434TIP3    H243246   3.914   1.227   1.467  0.7728  0.0923  2.2884
14435TIP3   OH243247   6.234   3.392   2.446 -0.4792 -0.0233  0.0369
14435TIP3    H143248   6.250   3.348   2.363 -0.8851 -1.0395  0.4859
14435TIP3    H243249   6.139   3.394   2.456 -0.6527  3.1801 -1.1169
14436TIP3   OH243250   0.096   1.337   1.943  0.2834  0.4577  0.1096
14436TIP3    H143251   0.026   1.356   1.880  0.3077  0.2824  0.0302
14436TIP3    H243252   0.155   1.278   1.897 -0.2918 -0.5900  0.6791
14437TIP3   OH243253   7.138   1.231   2.707 -0.2031 -0.3834 -0.3237
14437TIP3    H143254   7.213   1.235   2.766 -1.4075  2.1339  1.1959
14437TIP3    H243255   7.154   1.154   2.653  2.2451 -1.3146  1.5582
14438TIP3   OH243256   5.342   2.123   4.825  0.1753 -0.2510 -0.0508
14438TIP3    H143257   5.318   2.075   4.746 -0.8925  0.0834  0.0503
14438TIP3    H243258   5.289   2.203   4.821  0.2140 -0.1663  0.9354
14439TIP3   OH243259   7.309   6.065   5.186 -0.1313 -0.8195  0.2213
14439TIP3    H143260   7.286   6.028   5.271  0.5496 -0.2254  0.6830
14439TIP3    H243261   7.239   6.128   5.167 -1.3672 -2.3938 -0.6345
14440TIP3   OH243262   7.472   1.608   4.674  0.2344 -0.3107  0.0697
14440TIP3    H143263   7.495   1.642   4.587  1.1450  0.9190  0.7553
14440TIP3    H243264   7.378   1.621   4.681  0.4625  1.5959  0.0678
14441TIP3   OH243265   5.491   4.917   4.941  0.1378  0.4764  0.2911
14441TIP3    H143266   5.404   4.958   4.936 -0.2772 -0.4435 -0.6549
14441TIP3    H243267   5.489   4.851   4.871  1.1375 -0.4423  1.0985
14442TIP3   OH243268   5.482   3.322   5.981 -0.4899  0.3195 -0.3394
14442TIP3    H143269   5.577   3.320   5.987 -0.4234  0.7145 -1.2006
14442TIP3    H243270   5.460   3.242   5.932 -0.5508  0.6036 -0.7748
14443TIP3   OH243271   5.624   3.475   6.636 -0.0227  0.3129 -0.1408
14443TIP3    H143272   5.585   3.555   6.602  1.5226  0.4382 -1.7547
14443TIP3    H243273   5.648   3.424   6.559 -1.8323 -2.2246  0.8268
14444TIP3   OH243274   2.813   0.812   6.140  0.4457 -0.6894 -0.4665
14444TIP3    H143275   2.739   0.781   6.087 -0.3170 -0.8430  0.6467
14444TIP3    H243276   2.775   0.827   6.227  1.1721  1.6411 -0.4826
14445TIP3   OH243277   1.848   1.852   1.791 -0.3558 -0.3824  0.5294
14445TIP3    H143278   1.802   1.935   1.805 -1.4194 -1.0045  0.8119
14445TIP3    H243279   1.851   1.812   1.878  1.4519  0.0017  0.6776
14446TIP3   OH243280   1.731   1.758   4.529 -0.1984  0.2355  0.1513
14446TIP3    H143281   1.726   1.664   4.550  0.3679  0.2843  0.5105
14446TIP3    H243282   1.818   1.769   4.492 -0.2157  0.6512  0.2338
14447TIP3   OH243283  -0.024   3.761   0.243 -0.0991  0.0776  0.3899
14447TIP3    H143284   0.003   3.813   0.168 -1.5069 -1.2762 -1.1115
14447TIP3    H243285   0.022   3.678   0.232 -2.4134 -1.1401 -0.5448
14448TIP3   OH243286   4.436   1.809   4.321  0.1115  0.2637 -0.1201
14448TIP3    H143287   4.368   1.842   4.263  2.1309  1.3014 -2.0556
14448TIP3    H243288   4.444   1.877   4.388 -1.3650 -0.3391  0.7214
14449TIP3   OH243289   4.858   7.027   0.522 -0.0292  0.1732  0.4385
14449TIP3    H143290   4.767   7.031   0.552 -0.2163  1.5891 -0.2423
14449TIP3    H243291   4.909   7.060   0.596  0.2003 -2.6017  1.6411
14450TIP3   OH243292   1.512   2.373   1.502 -0.0186  0.3406  0.2515
14450TIP3    H143293   1.478   2.335   1.421 -0.9612  1.1836  0.2249
14450TIP3    H243294   1.586   2.428   1.473 -0.6444  1.0100 -0.1170
14451TIP3   OH243295   2.072   3.598   3.613 -0.4906 -0.2918  0.0937
14451TIP3    H143296   2.074   3.682   3.658 -1.4619  0.1797 -0.7225
14451TIP3    H243297   1.979   3.577   3.604 -0.2956 -0.7603 -0.9927
14452TIP3   OH243298   6.113   0.277   3.038 -0.1732 -0.7315  0.1287
14452TIP3    H143299   6.109   0.189   3.076  0.7460 -2.0030 -2.4640
14452TIP3    H243300   6.201   0.308   3.058  0.3605 -1.4586 -0.9937
14453TIP3   OH243301   6.653   1.407   0.261  0.2044  0.0444  0.1701
14453TIP3    H143302   6.654   1.403   0.166  0.8163 -1.3634  0.2233
14453TIP3    H243303   6.567   1.373   0.286  1.1681 -2.5636  0.1941
14454TIP3   OH243304   3.575   2.462   4.676 -0.0829  0.0095  0.4539
14454TIP3    H143305   3.527   2.543   4.657  1.0486  0.2916 -1.3676
14454TIP3    H243306   3.595   2.468   4.769 -1.1363  1.1920  0.6344
14455TIP3   OH243307   4.294   7.654   6.129 -0.2953 -0.1330 -0.8312
14455TIP3    H143308   4.266   7.570   6.092 -1.0291 -0.2141 -0.1115
14455TIP3    H243309   4.228   7.674   6.195  1.5037 -0.5078  1.1766
14456TIP3   OH243310   0.352   1.452   2.735 -0.0088  0.1462  0.0059
14456TIP3    H143311   0.330   1.519   2.670 -0.2293  0.1302  0.0643
14456TIP3    H243312   0.312   1.482   2.816 -1.3466 -0.7699 -0.2908
14457TIP3   OH243313   1.559   7.483   0.351 -0.0468 -0.0499  0.1518
14457TIP3    H143314   1.506   7.456   0.275 -0.4574  0.7735  0.1395
14457TIP3    H243315   1.631   7.420   0.353  0.0943  0.0450 -1.0561
14458TIP3   OH243316   0.933   7.772   0.766  0.5395  0.0890  0.3429
14458TIP3    H143317   0.927   7.787   0.671  0.4560 -0.1715  0.3071
14458TIP3    H243318   0.871   7.701   0.783 -0.0772  0.7028  0.7209
14459TIP3   OH243319   4.906   6.408   3.485 -0.4699 -0.2740 -0.0741
14459TIP3    H143320   4.858   6.474   3.535  1.4006  1.2314 -0.1451
14459TIP3    H243321   4.971   6.373   3.546  0.0856 -0.3324 -0.6798
14460TIP3   OH243322   5.633   2.822   0.212  0.0772  0.4734  0.2170
14460TIP3    H143323   5.657   2.816   0.120  0.5970  2.8477  0.1302
14460TIP3    H243324   5.716   2.839   0.257 -0.3464  0.7432  0.9212
14461TIP3   OH243325   1.359   4.950   1.364  0.1346 -0.4304  0.1131
14461TIP3    H143326   1.412   4.874   1.387  1.6516  0.5797  0.1723
14461TIP3    H243327   1.295   4.958   1.434  0.7122 -0.9758  0.7128
14462TIP3   OH243328   0.073   4.152   1.454  0.3099 -0.1061  0.2978
14462TIP3    H143329   0.090   4.068   1.411  0.4687 -1.1863  2.3517
14462TIP3    H243330   0.103   4.140   1.544 -0.6471  1.8181  0.9428
14463TIP3   OH243331   1.779   4.903   1.227  0.4371 -0.6923 -0.4718
14463TIP3    H143332   1.794   4.980   1.282  0.6503 -0.9338 -0.1874
14463TIP3    H243333   1.716   4.932   1.161  0.7439 -0.1922 -0.5443
14464TIP3   OH243334   2.636   4.447   3.568  0.6377 -0.0452 -0.3047
14464TIP3    H143335   2.688   4.526   3.578 -1.3911  1.1603  1.3498
14464TIP3    H243336   2.615   4.443   3.475  1.5734  0.7967 -0.5619
14465TIP3   OH243337   5.728   4.131   2.373 -0.2665 -0.5336  0.7114
14465TIP3    H143338   5.715   4.136   2.279  0.8089  1.8083  0.6311
14465TIP3    H243339   5.749   4.039   2.390 -0.7258 -1.0392 -1.2708
14466TIP3   OH243340   5.012   4.565   4.727 -0.2298  0.2506  0.4874
14466TIP3    H143341   5.001   4.625   4.653 -0.6064  1.1135  1.2194
14466TIP3    H243342   5.106   4.560   4.740 -0.2164  1.2999  0.8896
14467TIP3   OH243343   4.580   4.197   5.705  0.3107  0.0380 -0.0286
14467TIP3    H143344   4.610   4.172   5.792  1.7012 -0.8466 -0.7288
14467TIP3    H243345   4.497   4.151   5.693 -0.0975  0.4793  0.9488
14468TIP3   OH243346   2.204   3.107   2.343  0.1398 -0.4437  0.4106
14468TIP3    H143347   2.270   3.045   2.311  0.6967  0.7033 -0.7348
14468TIP3    H243348   2.236   3.193   2.316 -0.5064  0.3954  2.1627
14469TIP3   OH243349   6.714   5.290   2.902 -0.5075  0.1202  0.3773
14469TIP3    H143350   6.721   5.275   2.808 -1.9242  0.3978  0.2022
14469TIP3    H243351   6.740   5.381   2.914 -2.0797  0.6503 -0.0226
14470TIP3   OH243352   5.433   6.135   1.447 -0.1346  0.1357 -0.0631
14470TIP3    H143353   5.497   6.068   1.424 -0.2510  0.3048 -0.8975
14470TIP3    H243354   5.379   6.093   1.515 -0.4862 -0.7901 -0.8925
14471TIP3   OH243355   3.958   0.520   2.572 -0.2501  0.0700  0.0646
14471TIP3    H143356   4.005   0.478   2.500 -0.7395 -0.3762  0.0000
14471TIP3    H243357   3.965   0.459   2.645  1.2448  1.0460  0.7665
14472TIP3   OH243358   5.409   6.127   3.286 -0.3791  0.2766  0.8417
14472TIP3    H143359   5.480   6.063   3.282 -0.7811 -0.1328 -0.7823
14472TIP3    H243360   5.377   6.123   3.376 -0.5652 -2.0215  0.7361
14473TIP3   OH243361   2.584   1.190   1.286  0.2774  0.2557 -0.4355
14473TIP3    H143362   2.647   1.146   1.229  1.3359  0.7044  0.3730
14473TIP3    H243363   2.501   1.187   1.237  0.9712 -0.1207 -1.6121
14474TIP3   OH243364   6.612   1.820   1.232  0.4338  0.6588  0.3196
14474TIP3    H143365   6.684   1.876   1.260  0.8670 -0.3283  1.2512
14474TIP3    H243366   6.575   1.786   1.314 -0.5445  0.4914 -0.1857
14475TIP3   OH243367   2.462   7.720   4.246 -0.1797 -0.4365 -0.0615
14475TIP3    H143368   2.403   7.644   4.252  0.9900 -1.4195 -0.4961
14475TIP3    H243369   2.541   7.693   4.292 -0.3188  1.1478  1.1678
14476TIP3   OH243370   2.030   4.680   6.388  0.3100  0.4466 -0.0695
14476TIP3    H143371   2.084   4.644   6.459  1.6326  0.8506 -0.8304
14476TIP3    H243372   1.958   4.725   6.433 -0.1866 -1.2867  0.9421
14477TIP3   OH243373   6.498   4.324   6.677 -0.3154 -0.2086  0.5638
14477TIP3    H143374   6.459   4.410   6.659  0.1498 -0.0493  0.2863
14477TIP3    H243375   6.432   4.277   6.727 -0.0162  0.8601  2.0378
14478TIP3   OH243376   1.009   4.094   0.161  0.3636 -0.6752  0.1025
14478TIP3    H143377   0.940   4.130   0.105  1.6505  1.4343 -0.2422
14478TIP3    H243378   1.016   4.155   0.234  1.2310 -1.3712  0.6267
14479TIP3   OH243379   3.550   0.801   2.738 -0.2252 -0.3843 -0.0840
14479TIP3    H143380   3.565   0.712   2.769 -2.8829 -0.2661  1.8285
14479TIP3    H243381   3.584   0.857   2.809  0.4364  0.1418 -0.7894
14480TIP3   OH243382   1.551   4.509   1.360 -0.3964 -0.1191  0.4042
14480TIP3    H143383   1.614   4.577   1.335 -0.4423 -0.4035 -0.5219
14480TIP3    H243384   1.589   4.428   1.325 -0.1673 -0.6428  1.7955
14481TIP3   OH243385   4.668   0.890   6.582 -0.1719  0.0315  0.0691
14481TIP3    H143386   4.737   0.925   6.526 -2.4182  1.6543 -1.8874
14481TIP3    H243387   4.637   0.966   6.632 -0.9898 -0.5268  0.4259
14482TIP3   OH243388   4.370   7.047   5.933  0.3169  0.7473 -0.4388
14482TIP3    H143389   4.281   7.067   5.963  0.3283 -1.2032  1.0457
14482TIP3    H243390   4.361   6.966   5.884  1.4057 -0.0300  0.6084
14483TIP3   OH243391   3.985   4.889   6.769 -0.1805  0.3279 -0.1896
14483TIP3    H143392   3.897   4.914   6.738 -0.2423  0.7208  0.3101
14483TIP3    H243393   4.026   4.850   6.692 -1.2911 -1.1577 -0.0879
14484TIP3   OH243394   1.272   5.605   2.219 -0.3127  0.3027 -0.2074
14484TIP3    H143395   1.244   5.595   2.310 -1.7451 -0.5470 -0.7054
14484TIP3    H243396   1.314   5.691   2.216 -1.4234  0.9189  0.9817
14485TIP3   OH243397   0.560   1.666   3.148  0.0248 -0.0088 -0.4309
14485TIP3    H143398   0.478   1.617   3.140 -0.0774 -0.2998  1.8520
14485TIP3    H243399   0.535   1.749   3.188  0.4395  1.3203 -2.7328
14486TIP3   OH243400   5.612   6.908   6.324  0.0268  0.4071  0.1680
14486TIP3    H143401   5.529   6.949   6.302  0.5125  1.4299  0.1669
14486TIP3    H243402   5.610   6.900   6.420 -0.7998 -1.2227  0.0503
14487TIP3   OH243403   0.547   7.789   6.226  0.4804  0.2535  0.5545
14487TIP3    H143404   0.619   7.771   6.165 -0.6576  0.1164 -0.7968
14487TIP3    H243405   0.550   7.716   6.288  0.6646 -0.4882 -0.2969
14488TIP3   OH243406   4.399   6.463   0.940 -0.1712 -0.4222  0.0529
14488TIP3    H143407   4.484   6.437   0.904 -0.4942 -0.6361 -0.5818
14488TIP3    H243408   4.419   6.501   1.025  0.6057 -0.0774 -0.2734
14489TIP3   OH243409   8.139   6.354   5.923 -0.0264 -0.4495 -0.0446
14489TIP3    H143410   8.154   6.292   5.852 -1.9141  0.3907 -1.2676
14489TIP3    H243411   8.175   6.436   5.890 -0.0444 -0.2746  0.3701
14490TIP3   OH243412   7.781   6.525   3.884  0.9661  0.1799  0.0865
14490TIP3    H143413   7.780   6.621   3.889  1.3045  0.1050  2.1714
14490TIP3    H243414   7.711   6.497   3.943  1.8749 -0.8916  0.6794
14491TIP3   OH243415   5.378   1.735   4.671 -0.4569 -0.6098 -0.3124
14491TIP3    H143416   5.419   1.718   4.756 -1.3509  0.3388  0.3175
14491TIP3    H243417   5.450   1.766   4.616 -0.2134  0.6362  0.6646
14492TIP3   OH243418   8.288   7.792   1.016  0.0352 -0.0044  0.6776
14492TIP3    H143419   8.297   7.787   0.921  1.2432 -2.0402  0.8609
14492TIP3    H243420   8.277   7.886   1.034 -0.3375  0.3996 -1.4611
14493TIP3   OH243421   6.950   0.827   2.755  0.4010 -0.8568  0.3591
14493TIP3    H143422   6.956   0.862   2.666 -1.1318  0.7472  0.8270
14493TIP3    H243423   6.887   0.755   2.748  0.2486 -0.7054  0.1314
14494TIP3   OH243424   5.612   3.028   4.763 -0.5326 -0.1853 -0.6460
14494TIP3    H143425   5.706   3.048   4.770 -0.6477  0.0157  0.3722
14494TIP3    H243426   5.581   3.085   4.693 -0.1845  0.8108 -0.0116
14495TIP3   OH243427   3.136   2.104   2.242 -0.5277 -0.2912 -0.2547
14495TIP3    H143428   3.204   2.083   2.306  0.6027  0.3408 -1.2019
14495TIP3    H243429   3.055   2.110   2.293 -0.2131 -2.7622  0.6614
14496TIP3   OH243430   5.121   1.303   4.357 -0.5807  0.2973 -0.5061
14496TIP3    H143431   5.124   1.398   4.349 -1.7484  0.3517 -0.3845
14496TIP3    H243432   5.153   1.285   4.445 -0.4271  0.5815 -0.5026
14497TIP3   OH243433   0.805   5.484   4.580 -0.2147  0.6554 -0.4388
14497TIP3    H143434   0.817   5.496   4.485 -0.5340  0.6573 -0.4802
14497TIP3    H243435   0.871   5.540   4.620  1.0304 -0.5637 -0.6765
14498TIP3   OH243436   8.192   2.318   0.358 -0.1953 -0.1677 -0.0142
14498TIP3    H143437   8.100   2.323   0.387 -0.7415  0.7261 -1.7238
14498TIP3    H243438   8.227   2.405   0.378 -0.4155  0.2668 -1.3689
14499TIP3   OH243439   0.437   0.697   4.585 -0.1655 -0.0413  0.3737
14499TIP3    H143440   0.493   0.744   4.647  2.1235 -1.7834 -0.2613
14499TIP3    H243441   0.452   0.605   4.603 -1.6154 -0.5798 -0.9206
14500TIP3   OH243442   4.533   0.948   4.816  0.0993  0.4273 -0.2718
14500TIP3    H143443   4.529   0.855   4.795 -0.6552  0.4067 -0.0701
14500TIP3    H243444   4.586   0.987   4.746  1.4840 -0.3314  0.3023
14501TIP3   OH243445   3.662   2.840   4.892  0.0937 -0.7213  0.5993
14501TIP3    H143446   3.626   2.925   4.916 -1.1267 -0.4374 -1.9267
14501TIP3    H243447   3.617   2.778   4.949 -1.6624  0.0056  0.0768
14502TIP3   OH243448   3.738   6.064   5.607 -0.6450  0.2454  0.4761
14502TIP3    H143449   3.670   6.128   5.629 -1.3646 -0.4671  0.3714
14502TIP3    H243450   3.691   5.981   5.598  0.4839 -0.6280  2.1842
14503TIP3   OH243451   6.267   7.509   2.709 -0.4993  0.0220  0.0741
14503TIP3    H143452   6.295   7.500   2.617 -2.0859 -2.5583 -0.2585
14503TIP3    H243453   6.201   7.441   2.720 -0.4811  0.3899  3.1198
14504TIP3   OH243454   6.077   2.601   4.279 -0.2264 -0.4596  0.0105
14504TIP3    H143455   6.140   2.642   4.219 -0.1747  0.5193  0.7199
14504TIP3    H243456   6.131   2.551   4.340 -0.3099 -1.9547 -1.1002
14505TIP3   OH243457   6.574   2.391   6.542  0.0339  0.1937 -0.2525
14505TIP3    H143458   6.600   2.363   6.630 -0.4069  0.9362  0.1245
14505TIP3    H243459   6.563   2.309   6.494 -0.5716 -0.2758  0.6386
14506TIP3   OH243460   3.593   6.174   6.013 -0.8453  0.0165  0.1190
14506TIP3    H143461   3.571   6.258   5.972 -0.3998  0.0273 -0.1126
14506TIP3    H243462   3.657   6.198   6.081 -0.8340 -0.1187  0.1556
14507TIP3   OH243463   5.865   1.516   0.409  0.2073  0.3229 -0.1587
14507TIP3    H143464   5.951   1.555   0.398  0.1934  0.2777 -0.4355
14507TIP3    H243465   5.880   1.438   0.461  0.1672  0.9636  0.8471
14508TIP3   OH243466   4.629   2.768   2.872  0.4104 -0.1709 -0.2363
14508TIP3    H143467   4.697   2.785   2.938 -0.7878  1.0623  0.7428
14508TIP3    H243468   4.549   2.754   2.922 -0.1679 -1.1334 -1.3838
14509TIP3   OH243469   5.391   5.133   0.551  0.1478 -0.6486 -0.9914
14509TIP3    H143470   5.370   5.048   0.589  0.3774 -0.1478  0.3151
14509TIP3    H243471   5.317   5.152   0.493 -1.8220 -0.1111  1.5018
14510TIP3   OH243472   5.688   0.634   2.519 -0.0645  0.3088  0.0639
14510TIP3    H143473   5.609   0.625   2.572 -1.6009 -1.5831 -2.2940
14510TIP3    H243474   5.754   0.581   2.565 -1.4060 -1.4754  0.0539
14511TIP3   OH243475   6.026   1.747   3.274  0.1589  0.4530 -0.1387
14511TIP3    H143476   6.121   1.748   3.282  0.1473  1.0799 -0.0414
14511TIP3    H243477   5.994   1.734   3.364  0.1566 -0.0585 -0.2123
14512TIP3   OH243478   1.106   5.605   5.627  0.0177 -0.0858  0.7928
14512TIP3    H143479   1.064   5.691   5.635 -1.9540 -0.8241 -0.6411
14512TIP3    H243480   1.054   5.548   5.683  1.7833 -0.2722  2.3495
14513TIP3   OH243481   2.434   1.118   4.468 -0.6431 -0.5286 -0.8927
14513TIP3    H143482   2.369   1.053   4.440 -3.0318  0.3610  2.1125
14513TIP3    H243483   2.386   1.200   4.471  0.6395  0.2126  1.2207
14514TIP3   OH243484   1.002   0.784   0.574 -0.0725 -0.0789  0.0571
14514TIP3    H143485   0.958   0.779   0.659  0.9686 -0.8785  0.5569
14514TIP3    H243486   1.090   0.815   0.594 -0.1530  0.7701 -0.8579
14515TIP3   OH243487   3.424   5.529   5.995  0.2274 -0.2351  0.3135
14515TIP3    H143488   3.499   5.567   6.040 -0.2543  1.2013 -0.0540
14515TIP3    H243489   3.461   5.491   5.915  0.7406 -0.7323  0.7792
14516TIP3   OH243490   3.987   7.151   5.258  0.3542  0.0856 -0.2224
14516TIP3    H143491   3.935   7.176   5.335  0.9401 -1.0877  0.5989
14516TIP3    H243492   4.070   7.197   5.268  1.1417 -1.4643  0.8849
14517TIP3   OH243493   2.799   4.307   0.839 -0.1127 -0.1007 -0.5982
14517TIP3    H143494   2.877   4.285   0.788  0.5035  1.8821 -0.5754
14517TIP3    H243495   2.796   4.402   0.839 -1.3198 -0.0890  1.2377
14518TIP3   OH243496   1.717   5.990   4.563  0.0245  0.4113  0.5561
14518TIP3    H143497   1.767   5.927   4.615  0.9555  1.9932  1.6595
14518TIP3    H243498   1.732   5.962   4.472  1.4593 -0.2075  0.9457
14519TIP3   OH243499   4.546   0.700   2.080  0.1285 -0.7778 -0.3789
14519TIP3    H143500   4.612   0.758   2.117 -0.4950  0.6177 -1.3667
14519TIP3    H243501   4.463   0.734   2.114 -0.4031  0.1508 -2.4519
14520TIP3   OH243502   5.459   1.511   3.198 -0.2934  0.2515 -0.3366
14520TIP3    H143503   5.367   1.488   3.202 -0.0455 -0.5547  1.0878
14520TIP3    H243504   5.464   1.575   3.126 -2.1911  1.4922  0.5564
14521TIP3   OH243505   5.544   3.319   2.819 -0.2051 -0.1924 -0.6888
14521TIP3    H143506   5.495   3.265   2.758 -0.7699  0.2397 -0.6218
14521TIP3    H243507   5.478   3.364   2.871  0.2512  0.3682 -0.5721
14522TIP3   OH243508   7.506   1.780   0.693  0.1546  0.1743  0.0158
14522TIP3    H143509   7.523   1.714   0.760 -0.4261 -0.4360 -0.4237
14522TIP3    H243510   7.496   1.730   0.612  1.8871  0.9784 -0.7463
14523TIP3   OH243511   5.645   5.546   0.102  0.2364  0.1827  0.5218
14523TIP3    H143512   5.561   5.581   0.072  0.7322  2.0737  1.1654
14523TIP3    H243513   5.623   5.465   0.148 -1.0390 -0.2039 -0.7086
14524TIP3   OH243514   7.641   3.285   0.021 -0.0299 -0.1047  0.2936
14524TIP3    H143515   7.674   3.257   0.106  1.8759 -0.2275 -0.4285
14524TIP3    H243516   7.592   3.210  -0.012  0.9243 -0.8281  0.4560
14525TIP3   OH243517   3.003   3.776   1.028 -0.0714 -0.4030  0.0335
14525TIP3    H143518   3.032   3.755   0.940 -0.4035 -1.1410  0.0926
14525TIP3    H243519   2.907   3.779   1.022 -0.2104 -2.2607  0.7329
14526TIP3   OH243520   0.516   7.552   2.452 -1.0857 -0.0365 -0.0152
14526TIP3    H143521   0.454   7.595   2.392 -0.5898 -0.0451 -0.5412
14526TIP3    H243522   0.601   7.591   2.430 -1.0083  0.5477  1.2307
14527TIP3   OH243523   0.164   0.261   3.161 -0.2323  0.1466  0.3386
14527TIP3    H143524   0.155   0.193   3.228  0.1482 -0.4780 -0.2372
14527TIP3    H243525   0.075   0.273   3.128 -0.5473  0.9638  1.4321
14528TIP3   OH243526   1.547   4.648   5.424  0.1710  0.4982  0.2518
14528TIP3    H143527   1.542   4.581   5.357 -1.4790  1.3969 -0.5825
14528TIP3    H243528   1.469   4.702   5.411  2.0958  3.4683 -0.0593
14529TIP3   OH243529   7.309   5.568   0.974 -0.1184  0.2400  0.0479
14529TIP3    H143530   7.365   5.592   0.901 -0.8787  1.5561 -0.1425
14529TIP3    H243531   7.221   5.562   0.935 -0.8788  2.8784  1.1085
14530TIP3   OH243532   1.916   1.095   3.800 -0.1372  0.0804 -0.2706
14530TIP3    H143533   1.842   1.156   3.797 -0.2779  0.1885  2.7438
14530TIP3    H243534   1.975   1.131   3.866  0.7490 -1.9836  0.1454
14531TIP3   OH243535   1.325   0.346   0.913 -0.1030  0.4582  0.4623
14531TIP3    H143536   1.288   0.320   0.828 -0.3805  2.6509 -0.1342
14531TIP3    H243537   1.248   0.365   0.967  0.0667 -1.1959  1.3383
14532TIP3   OH243538   4.551   6.331   4.698 -0.0852  0.3145  0.0474
14532TIP3    H143539   4.573   6.253   4.749  0.2857 -0.0049 -0.5883
14532TIP3    H243540   4.471   6.307   4.651 -0.1215  0.4143  0.0576
14533TIP3   OH243541   6.498   4.327   5.766  0.1107  0.3941 -0.7523
14533TIP3    H143542   6.538   4.411   5.788 -1.2309  0.7681  0.3903
14533TIP3    H243543   6.561   4.262   5.799  0.3316  0.9528 -0.0343
14534TIP3   OH243544   2.543   0.859   5.318 -0.0879 -0.0489  0.1727
14534TIP3    H143545   2.456   0.860   5.279  1.5494  0.1865 -3.8984
14534TIP3    H243546   2.579   0.946   5.301  1.2750 -0.4007  1.0175
14535TIP3   OH243547   3.911   6.157   4.839  0.0379 -0.0885 -0.0273
14535TIP3    H143548   3.941   6.139   4.928 -0.1699  0.0219  0.0667
14535TIP3    H243549   3.962   6.098   4.784  0.9556  0.6027  0.0498
14536TIP3   OH243550   3.401   6.852   3.875  0.6644  0.5325  0.3959
14536TIP3    H143551   3.473   6.833   3.814  0.6204 -1.1079  0.7930
14536TIP3    H243552   3.440   6.840   3.962 -0.7000 -3.6904  0.6758
14537TIP3   OH243553   2.250   0.170   2.070 -0.1604 -0.1956  0.1080
14537TIP3    H143554   2.201   0.107   2.124  0.2833 -1.3544 -0.7888
14537TIP3    H243555   2.337   0.173   2.110 -0.9433  2.0632  1.8612
14538TIP3   OH243556   3.620   7.737   0.812  0.5153  0.1650  0.5356
14538TIP3    H143557   3.643   7.727   0.719 -1.2383 -1.1474  0.1842
14538TIP3    H243558   3.704   7.743   0.857  1.4430  2.3920 -1.2504
14539TIP3   OH243559   2.141   4.898   1.832  0.5302  0.5056 -0.4194
14539TIP3    H143560   2.129   4.963   1.762 -0.9929  1.2644  0.4835
14539TIP3    H243561   2.113   4.815   1.793 -1.6214  1.1493 -0.3726
14540TIP3   OH243562   4.698   7.470   6.484  0.0088 -0.5455 -0.4105
14540TIP3    H143563   4.688   7.425   6.400 -0.8426 -1.3152  0.0864
14540TIP3    H243564   4.793   7.480   6.494  0.1209 -0.2890 -1.5342
14541TIP3   OH243565   0.440   0.798   3.554  0.0535  0.2037 -0.6884
14541TIP3    H143566   0.348   0.802   3.529 -0.1848 -0.2078  0.1211
14541TIP3    H243567   0.479   0.876   3.513 -0.7326  0.5994 -0.6998
14542TIP3   OH243568   0.587   0.133   0.683  0.5878  0.3219  0.1866
14542TIP3    H143569   0.511   0.173   0.725 -0.0638 -1.8393  1.1696
14542TIP3    H243570   0.646   0.111   0.755  1.7410  1.0937 -0.4869
14543TIP3   OH243571   6.102   7.286   4.732 -0.0300  0.1077  0.1417
14543TIP3    H143572   6.139   7.198   4.721 -1.8817 -0.7412  0.2546
14543TIP3    H243573   6.013   7.270   4.764 -0.7029  2.0005 -0.6430
14544TIP3   OH243574   8.053   2.727   5.215 -0.4960  0.5072  0.0839
14544TIP3    H143575   8.138   2.751   5.178  1.2532  0.2546  3.4753
14544TIP3    H243576   7.994   2.797   5.188  1.0044  1.1688 -1.6714
14545TIP3   OH243577   1.422   0.240   1.565  0.1455 -0.1010  0.2753
14545TIP3    H143578   1.338   0.272   1.599  0.4090  0.4751  0.3842
14545TIP3    H243579   1.467   0.318   1.533  0.7439 -0.3753  0.4337
14546TIP3   OH243580   6.636   0.493   2.501 -0.8226  0.1691  0.6372
14546TIP3    H143581   6.589   0.525   2.424  0.5436  1.2175  0.2077
14546TIP3    H243582   6.674   0.410   2.473  0.7198  1.1429 -0.2662
14547TIP3   OH243583   6.753   0.485   5.102 -0.2966  0.5318  0.0544
14547TIP3    H143584   6.679   0.545   5.097 -1.8647 -1.0781  2.1338
14547TIP3    H243585   6.826   0.533   5.062 -1.6791  3.3935  0.7031
14548TIP3   OH243586   6.604   6.220   3.584 -0.2892 -0.2946 -0.0265
14548TIP3    H143587   6.607   6.240   3.490  0.0949 -0.9109 -0.1525
14548TIP3    H243588   6.564   6.298   3.624 -0.7879 -0.1752 -0.7383
14549TIP3   OH243589   6.984   4.360   2.468  0.3099  0.0739 -0.2185
14549TIP3    H143590   7.067   4.321   2.440  0.1810 -0.4418  0.0948
14549TIP3    H243591   7.006   4.406   2.550 -0.0088 -1.3589  0.7043
14550TIP3   OH243592   0.058   2.038   3.907  0.3946  0.5098 -0.0665
14550TIP3    H143593   0.093   2.123   3.933 -0.3742  1.6324 -2.4105
14550TIP3    H243594   0.134   1.990   3.874  0.6182  0.8599 -0.0712
14551TIP3   OH243595   3.196   0.284   6.462 -0.6777  0.0009 -0.0776
14551TIP3    H143596   3.178   0.251   6.374 -0.9726 -0.3616  0.1193
14551TIP3    H243597   3.268   0.230   6.494 -1.5334 -0.8463  0.4633
14552TIP3   OH243598   4.660   6.143   0.387  0.0215 -0.3722  0.6296
14552TIP3    H143599   4.724   6.212   0.373  0.2409 -0.2473  2.1040
14552TIP3    H243600   4.712   6.066   0.408 -0.2439 -0.8895 -0.5149
14553TIP3   OH243601   3.379   1.613   6.052  0.5702  0.6082  0.0733
14553TIP3    H143602   3.356   1.533   6.100  0.0689  0.5402 -0.2750
14553TIP3    H243603   3.474   1.607   6.039  0.8953  1.1144  1.9314
14554TIP3   OH243604   5.059   4.340   6.719  0.2545  1.1451 -0.4715
14554TIP3    H143605   5.007   4.397   6.663  0.5701  0.3051 -1.6572
14554TIP3    H243606   5.017   4.254   6.712  1.2948  0.6386 -0.7984
14555TIP3   OH243607   4.237   7.191   4.406  0.3604  0.3809 -0.0796
14555TIP3    H143608   4.302   7.247   4.449 -0.3090  1.2152 -0.1212
14555TIP3    H243609   4.242   7.215   4.314  0.1439  0.2870 -0.1163
14556TIP3   OH243610   2.585   1.743   0.253 -0.3060  0.3530  0.0946
14556TIP3    H143611   2.547   1.807   0.193 -0.8823  1.8187  1.9403
14556TIP3    H243612   2.678   1.765   0.255  0.0785 -0.9598 -1.7093
14557TIP3   OH243613   7.123   4.850   4.219  0.2194  0.1609  0.1288
14557TIP3    H143614   7.198   4.818   4.169 -0.4185  1.4095 -1.7203
14557TIP3    H243615   7.063   4.776   4.223 -0.3976  0.4597 -2.3842
14558TIP3   OH243616   0.859   3.285   3.431  0.4833 -0.0356  0.2774
14558TIP3    H143617   0.927   3.328   3.484  0.4960  0.8423 -0.4247
14558TIP3    H243618   0.820   3.356   3.380  0.4159 -0.8329 -0.8275
14559TIP3   OH243619   3.742   5.630   1.451  0.6270 -0.3744  1.0863
14559TIP3    H143620   3.819   5.658   1.403 -0.4930  0.8618 -0.0574
14559TIP3    H243621   3.709   5.555   1.402 -0.7166  1.0998 -0.3956
14560TIP3   OH243622   3.128   3.118   1.824  0.6844 -0.1561  0.4090
14560TIP3    H143623   3.206   3.094   1.773  1.2697 -1.0715  1.6777
14560TIP3    H243624   3.063   3.052   1.800  0.9762 -0.6174  0.8637
14561TIP3   OH243625   7.911   2.064   3.424 -0.0039  0.1709  0.0199
14561TIP3    H143626   7.904   2.064   3.329 -0.3311 -1.3378  0.0275
14561TIP3    H243627   7.892   1.974   3.450  1.2700  0.2710  1.4296
14562TIP3   OH243628   0.185   3.782   0.850 -0.3781 -0.2081  0.3654
14562TIP3    H143629   0.192   3.868   0.808  0.2205  0.4781  1.7781
14562TIP3    H243630   0.129   3.731   0.792  0.6744  0.5570 -1.4296
14563TIP3   OH243631   2.680   2.579   1.047 -0.1476  0.2199  0.4456
14563TIP3    H143632   2.772   2.598   1.067  0.1985 -0.2915 -0.5506
14563TIP3    H243633   2.630   2.644   1.096  0.6905 -0.1383  1.8052
14564TIP3   OH243634   2.433   7.511   0.387  0.5016  0.0933 -0.6948
14564TIP3    H143635   2.362   7.540   0.331  0.6093  1.0957 -0.3352
14564TIP3    H243636   2.432   7.572   0.461  0.7579 -0.8200  0.0863
14565TIP3   OH243637   5.245   0.188   3.076 -0.2513  0.3677 -0.0906
14565TIP3    H143638   5.231   0.102   3.117 -0.5386  0.3492 -0.2249
14565TIP3    H243639   5.288   0.168   2.993 -0.3922  0.3479 -0.1587
14566TIP3   OH243640   7.556   6.349   6.363  0.7327 -0.5022 -0.3776
14566TIP3    H143641   7.547   6.376   6.455 -0.1026 -0.1613 -0.5544
14566TIP3    H243642   7.630   6.288   6.364 -0.5213 -2.1186  0.8869
14567TIP3   OH243643   1.185   3.735   5.646 -0.1759  0.5773  0.1926
14567TIP3    H143644   1.258   3.711   5.703  0.2826  2.3400  0.3972
14567TIP3    H243645   1.109   3.738   5.704 -0.1766  0.0505  0.2296
14568TIP3   OH243646   4.227   5.180   1.398 -0.0985 -0.1828  0.1409
14568TIP3    H143647   4.189   5.179   1.486  0.8188 -1.1508  0.5466
14568TIP3    H243648   4.311   5.225   1.409 -0.8391  1.4531 -0.6412
14569TIP3   OH243649   1.062   3.449   3.544 -0.0180 -0.0782  0.1425
14569TIP3    H143650   1.050   3.540   3.517 -0.9788 -0.7155 -1.7035
14569TIP3    H243651   1.102   3.455   3.631  1.4695  2.0861 -0.6287
14570TIP3   OH243652   7.426   0.620   4.705 -0.0694  0.4003 -0.7195
14570TIP3    H143653   7.491   0.668   4.654  0.4600  0.5121  0.0428
14570TIP3    H243654   7.348   0.675   4.705  0.5596  1.3211  0.2231
14571TIP3   OH243655   4.532   1.844   3.574 -0.4048 -0.2325  0.2355
14571TIP3    H143656   4.454   1.846   3.629 -0.4885 -0.8194  0.1446
14571TIP3    H243657   4.508   1.787   3.501 -0.0299 -0.0859 -0.0039
14572TIP3   OH243658   6.260   5.826   3.805  0.7864  0.1921 -0.2563
14572TIP3    H143659   6.244   5.753   3.865 -0.1699  0.9843  0.4773
14572TIP3    H243660   6.303   5.785   3.730  0.3109 -1.1300  0.1547
14573TIP3   OH243661   5.329   4.555   2.707 -0.0306 -0.3418 -0.2176
14573TIP3    H143662   5.238   4.542   2.681 -0.3542 -1.7832  1.4859
14573TIP3    H243663   5.364   4.466   2.716  0.6612  0.1121  2.0373
14574TIP3   OH243664   0.585   7.103   3.549  0.0730 -0.0227  0.2976
14574TIP3    H143665   0.586   7.008   3.564 -1.1557 -0.1488 -0.3532
14574TIP3    H243666   0.655   7.118   3.485 -1.2204 -0.8223 -1.3657
14575TIP3   OH243667   1.169   0.987   5.507 -0.3572  0.1370  0.4287
14575TIP3    H143668   1.119   1.060   5.471 -0.6815 -0.6497 -0.7903
14575TIP3    H243669   1.103   0.931   5.548 -0.1208  0.4579  1.2747
14576TIP3   OH243670   1.204   5.194   6.206 -0.7904  0.4440  0.4218
14576TIP3    H143671   1.153   5.204   6.286 -0.0461 -0.1145  0.9754
14576TIP3    H243672   1.139   5.170   6.140 -1.3176  0.2439  1.0032
14577TIP3   OH243673   7.049   2.755   3.381 -0.1381  0.6618 -0.3273
14577TIP3    H143674   7.094   2.754   3.466 -0.9679 -0.4113  0.1303
14577TIP3    H243675   6.991   2.831   3.386 -2.6738 -1.2159  1.4937
14578TIP3   OH243676   3.189   1.674   3.606  0.6015  0.1445 -0.0531
14578TIP3    H143677   3.154   1.759   3.579  1.8975  0.4521 -0.8373
14578TIP3    H243678   3.112   1.624   3.635 -0.5109  0.7070 -1.9219
14579TIP3   OH243679   7.218   3.864   0.315 -0.2335  0.4346 -0.0718
14579TIP3    H143680   7.223   3.802   0.242  1.0427 -1.4538  1.5069
14579TIP3    H243681   7.240   3.948   0.277 -0.4723 -0.3333 -2.0263
14580TIP3   OH243682   7.120   0.180   1.296 -0.0434  0.2139 -0.0444
14580TIP3    H143683   7.210   0.202   1.324 -0.5729  2.7306 -0.0308
14580TIP3    H243684   7.127   0.167   1.202  0.5013 -0.6284  0.1072
14581TIP3   OH243685   6.029   4.851   3.243 -0.5641  0.1651 -0.4175
14581TIP3    H143686   6.100   4.864   3.306  1.3025  0.0774 -2.4105
14581TIP3    H243687   6.051   4.908   3.170 -2.2676 -0.3089 -1.3463
14582TIP3   OH243688   3.986   0.049   4.105 -0.1034 -0.0303  0.2335
14582TIP3    H143689   4.037  -0.014   4.054 -1.8486 -0.9892 -0.4231
14582TIP3    H243690   4.018   0.039   4.195  0.1405 -1.3673  0.0224
14583TIP3   OH243691   2.310   2.778   0.386 -0.1567 -0.6448 -0.8023
14583TIP3    H143692   2.310   2.687   0.414 -0.1105 -0.3949  0.0524
14583TIP3    H243693   2.373   2.781   0.314 -0.3897 -1.3413 -1.0444
14584TIP3   OH243694   5.199   5.497   0.201 -0.3171  0.2433 -0.3489
14584TIP3    H143695   5.199   5.579   0.152  0.9793  0.1485 -0.5357
14584TIP3    H243696   5.214   5.429   0.135 -0.4601 -0.0599 -0.0712
14585TIP3   OH243697   4.162   4.572   6.571 -0.1181  0.2873 -0.7318
14585TIP3    H143698   4.068   4.557   6.563  0.1190 -2.3211  0.3767
14585TIP3    H243699   4.170   4.665   6.590 -2.3583  0.8707 -2.2208
14586TIP3   OH243700   5.344   5.607   1.810 -0.0027  0.7896 -0.0574
14586TIP3    H143701   5.399   5.560   1.748 -0.2973 -1.3437  1.1908
14586TIP3    H243702   5.258   5.611   1.768 -0.4178 -1.3699  0.4587
14587TIP3   OH243703   7.074   2.409   3.475  0.3472 -0.0846  0.7266
14587TIP3    H143704   7.028   2.434   3.395  0.2540  0.8960  1.0807
14587TIP3    H243705   7.103   2.491   3.514  0.5870 -0.5589  1.5911
14588TIP3   OH243706   0.372   4.035   5.981  0.5876 -0.1531  0.1907
14588TIP3    H143707   0.302   4.066   6.039  2.2694  0.9347  1.7287
14588TIP3    H243708   0.366   4.091   5.903  1.5483  2.0047  1.5713
14589TIP3   OH243709   6.962   3.145   3.602 -0.4455  0.4509 -0.3599
14589TIP3    H143710   6.949   3.107   3.689 -1.5172  2.3772  0.3798
14589TIP3    H243711   7.023   3.217   3.616  0.0314  0.2745 -1.3904
14590TIP3   OH243712   4.183   3.532   0.739 -0.9790  0.5927 -0.1456
14590TIP3    H143713   4.175   3.536   0.834 -0.7104  3.4395 -0.1366
14590TIP3    H243714   4.262   3.481   0.723 -0.2989  1.1706  1.2384
14591TIP3   OH243715   0.070   2.571   2.445 -0.2519 -0.4279  0.0683
14591TIP3    H143716   0.092   2.478   2.433  0.6838 -0.1466 -0.5809
14591TIP3    H243717   0.093   2.611   2.361 -1.8105  0.2018 -0.0913
14592TIP3   OH243718   3.877   7.524   1.729 -0.0475  0.3767  0.1918
14592TIP3    H143719   3.783   7.509   1.713  0.3118 -1.4872 -0.4068
14592TIP3    H243720   3.917   7.515   1.642  0.7939  0.2501  0.5915
14593TIP3   OH243721   1.145   3.302   2.212 -0.1965 -0.1737 -0.1219
14593TIP3    H143722   1.073   3.297   2.149 -0.2005 -1.9224 -0.0305
14593TIP3    H243723   1.165   3.211   2.232  2.8441  0.2043 -1.0095
14594TIP3   OH243724   6.352   6.145   0.485 -0.4087  0.0873  0.3946
14594TIP3    H143725   6.277   6.158   0.428 -0.6388  3.8374  1.3053
14594TIP3    H243726   6.315   6.134   0.572  0.0863 -1.0027  0.4921
14595TIP3   OH243727   3.099   1.776   3.310 -0.4923  0.1739 -0.0228
14595TIP3    H143728   3.155   1.801   3.383  0.1489  0.8400 -0.7237
14595TIP3    H243729   3.027   1.727   3.350 -0.6300  1.3025  1.1520
14596TIP3   OH243730   6.434   3.682   5.003 -0.5041 -0.0523  0.2986
14596TIP3    H143731   6.412   3.601   4.958  1.8409 -0.3170 -0.4609
14596TIP3    H243732   6.406   3.751   4.942 -0.0669 -0.3446 -0.2345
14597TIP3   OH243733   7.369   5.861   3.740 -0.1502 -0.0204 -0.1402
14597TIP3    H143734   7.402   5.920   3.807  0.9345  0.2942 -0.9177
14597TIP3    H243735   7.434   5.867   3.669  1.7882 -4.4977  0.9392
14598TIP3   OH243736   5.717   0.349   3.922 -0.1776 -0.1086  0.4979
14598TIP3    H143737   5.655   0.397   3.867  2.0338 -0.1688 -2.2826
14598TIP3    H243738   5.682   0.358   4.011 -1.7402  3.6734 -0.2977
14599TIP3   OH243739   3.100   4.663   0.332  0.4120  0.2337  0.8642
14599TIP3    H143740   3.102   4.712   0.250  0.8727  0.4429  0.9995
14599TIP3    H243741   3.158   4.711   0.390 -1.3586  1.1805  1.9368
14600TIP3   OH243742   0.332   1.172   6.253  0.0134  0.4461  0.0092
14600TIP3    H143743   0.366   1.200   6.168  1.4807 -0.3385  0.2941
14600TIP3    H243744   0.410   1.161   6.307 -0.7203 -1.1863  0.8015
14601TIP3   OH243745   0.767   4.410   5.579 -0.2437 -0.4807 -0.6209
14601TIP3    H143746   0.729   4.491   5.611 -0.3255 -0.5798 -0.4695
14601TIP3    H243747   0.819   4.437   5.503  1.9314  0.1373  0.9900
14602TIP3   OH243748   6.395   2.613   4.903 -0.4328  0.0049  0.0055
14602TIP3    H143749   6.335   2.677   4.865  0.1491 -0.0287 -1.0135
14602TIP3    H243750   6.478   2.661   4.912 -0.2376 -0.3497  0.1005
14603TIP3   OH243751   2.809   2.826   2.845  0.0142 -0.3327  0.5175
14603TIP3    H143752   2.784   2.748   2.893 -0.2389 -0.9130 -0.5266
14603TIP3    H243753   2.820   2.797   2.754  1.5162  0.5113  0.3945
14604TIP3   OH243754   2.889   2.773   2.556 -0.1546  0.1784  0.2285
14604TIP3    H143755   2.923   2.808   2.474 -0.1722  1.3258  0.6749
14604TIP3    H243756   2.951   2.704   2.581  1.6737  1.9190  0.8053
14605TIP3   OH243757   5.870   0.845   6.622 -0.2602  0.5524  0.2365
14605TIP3    H143758   5.890   0.918   6.681 -1.1763  0.8395  0.2152
14605TIP3    H243759   5.882   0.882   6.534  1.6266 -0.0255  0.2098
14606TIP3   OH243760   6.090   6.695   0.814 -0.2061 -0.0585  0.3224
14606TIP3    H143761   6.018   6.734   0.864  0.1457  0.1180  0.6912
14606TIP3    H243762   6.168   6.741   0.843  0.0728 -0.3130 -0.0127
14607TIP3   OH243763   7.181   7.366   1.022 -0.1551 -0.1386  0.1466
14607TIP3    H143764   7.163   7.368   0.928  0.0651 -1.3008  0.0653
14607TIP3    H243765   7.120   7.430   1.060 -0.4147  0.1586 -0.7575
14608TIP3   OH243766   6.787   1.965   5.576 -0.4176 -0.0438  0.3266
14608TIP3    H143767   6.818   1.983   5.487 -2.9806 -0.7828 -0.8194
14608TIP3    H243768   6.773   2.051   5.615 -0.2288  0.3015 -0.3559
14609TIP3   OH243769   5.465   6.683   2.030  0.1744 -0.2699 -0.5080
14609TIP3    H143770   5.423   6.759   2.070  0.6101 -0.8710  1.2135
14609TIP3    H243771   5.515   6.643   2.102  0.7784 -1.6024 -1.6120
14610TIP3   OH243772   0.255   3.915   1.086  0.1210 -0.3394 -0.7577
14610TIP3    H143773   0.276   3.851   1.154 -0.2881 -1.5910 -1.7511
14610TIP3    H243774   0.238   3.861   1.008 -2.1390  0.8358 -1.1557
14611TIP3   OH243775   0.759   3.559   5.071  0.3351 -0.1450  0.1501
14611TIP3    H143776   0.802   3.643   5.090  1.6265 -0.3223 -1.7743
14611TIP3    H243777   0.686   3.556   5.133  0.3992  2.2789  0.4433
14612TIP3   OH243778   1.098   3.749   3.194  0.5176  0.0201  0.1822
14612TIP3    H143779   1.182   3.705   3.182  0.3730 -0.5717  1.2538
14612TIP3    H243780   1.050   3.734   3.112  1.8246  1.2363 -0.8519
14613TIP3   OH243781   1.447   7.780   0.731  0.3823  0.2911 -0.1995
14613TIP3    H143782   1.448   7.787   0.635 -0.7008  0.0992 -0.2469
14613TIP3    H243783   1.356   7.799   0.754  0.7471  0.8189  0.8406
14614TIP3   OH243784   7.310   3.112   0.469  0.6110 -0.5895 -0.0137
14614TIP3    H143785   7.361   3.167   0.529 -1.4328  1.4748 -0.0049
14614TIP3    H243786   7.347   3.131   0.382  2.0747 -1.8117  0.3117
14615TIP3   OH243787   0.623   3.603   2.652  0.6198 -0.2463 -0.1867
14615TIP3    H143788   0.585   3.536   2.596 -0.7888 -1.4742  2.0592
14615TIP3    H243789   0.691   3.556   2.702 -1.0119 -0.3731  2.0844
14616TIP3   OH243790   1.071   2.755   2.893 -0.3125  0.1430  0.2364
14616TIP3    H143791   1.060   2.664   2.863 -0.5332  0.8673 -2.1199
14616TIP3    H243792   1.098   2.802   2.815  0.4718  2.0123  1.5758
14617TIP3   OH243793   1.422   0.204   1.880 -0.0443 -0.0217 -0.3015
14617TIP3    H143794   1.352   0.251   1.927 -0.7876 -1.6132  0.2559
14617TIP3    H243795   1.376   0.153   1.814  0.9433  1.6321 -2.3612
14618TIP3   OH243796   4.860   7.292   5.500  0.3556  0.1302  0.4048
14618TIP3    H143797   4.901   7.206   5.510 -0.3234 -0.5219 -1.7432
14618TIP3    H243798   4.933   7.354   5.504  1.2414 -0.7878 -0.7668
14619TIP3   OH243799   0.957   2.430   4.323  0.0136  0.7572 -0.4720
14619TIP3    H143800   0.867   2.408   4.298  0.2004  1.8621 -2.2537
14619TIP3    H243801   0.948   2.478   4.405 -0.7030 -2.0416  1.2492
14620TIP3   OH243802   0.850   4.998   3.061 -0.2486  0.4632 -0.1305
14620TIP3    H143803   0.782   4.946   3.103 -0.1093 -0.1213 -0.6179
14620TIP3    H243804   0.803   5.068   3.017 -0.5044  0.2808 -0.1507
14621TIP3   OH243805   4.371   5.422   5.668  0.1749 -0.5381 -0.5174
14621TIP3    H143806   4.381   5.487   5.598 -0.9687 -0.3358 -0.5073
14621TIP3    H243807   4.373   5.474   5.749 -2.0440 -0.3070 -0.5529
14622TIP3   OH243808   0.717   1.410   0.446  0.0471 -0.2635 -0.4570
14622TIP3    H143809   0.786   1.399   0.511 -0.9399 -0.5012  0.5740
14622TIP3    H243810   0.662   1.480   0.480 -1.3029 -1.3678 -0.2899
14623TIP3   OH243811   6.844   3.361   1.998 -0.2101 -0.6536 -0.1469
14623TIP3    H143812   6.771   3.298   1.998 -1.3919  0.5377  2.8570
14623TIP3    H243813   6.827   3.417   1.921 -1.8797 -1.0537 -0.1100
14624TIP3   OH243814   7.886   2.081   5.285  0.0669  0.3483  0.0280
14624TIP3    H143815   7.932   2.062   5.203  0.7297 -0.0942  0.4974
14624TIP3    H243816   7.838   2.162   5.266 -0.6325 -0.3023 -1.1323
14625TIP3   OH243817   6.063   3.018   4.640  0.1207  0.1451  0.0903
14625TIP3    H143818   6.043   2.948   4.578 -0.9334  0.7800 -0.3221
14625TIP3    H243819   6.099   3.089   4.586 -1.1279  0.8342  0.1177
14626TIP3   OH243820   5.234   7.636   2.797  0.2760 -0.2540 -0.3000
14626TIP3    H143821   5.299   7.591   2.851 -0.4185 -0.0549  0.7414
14626TIP3    H243822   5.283   7.707   2.755  0.7285 -0.0841  0.5013
14627TIP3   OH243823   0.312   2.894   5.192 -0.3982  0.2042  0.0742
14627TIP3    H143824   0.365   2.919   5.117 -1.2159  0.6956 -0.3582
14627TIP3    H243825   0.342   2.950   5.264 -1.9144  2.2182 -0.7699
14628TIP3   OH243826   6.365   0.302   2.679 -0.3137  0.4180  0.4569
14628TIP3    H143827   6.404   0.215   2.688 -2.1104 -0.5447 -0.5786
14628TIP3    H243828   6.438   0.358   2.654  1.1894 -0.4374  2.6291
14629TIP3   OH243829   5.111   6.927   6.107 -0.4362  0.2257  0.8262
14629TIP3    H143830   5.098   6.834   6.087 -1.7472  0.6845 -0.6418
14629TIP3    H243831   5.153   6.963   6.029 -1.5856  1.1998  0.6165
14630TIP3   OH243832   2.023   6.408   6.433 -0.4846  0.4373 -0.1336
14630TIP3    H143833   2.024   6.488   6.381 -0.2767  0.7825  0.3880
14630TIP3    H243834   1.932   6.397   6.458 -0.2872  1.4040  1.1196
14631TIP3   OH243835   5.473   5.610   2.827 -0.0570  0.1966  0.3839
14631TIP3    H143836   5.553   5.635   2.780 -1.6642  0.9271 -2.1980
14631TIP3    H243837   5.456   5.521   2.798 -1.9798  1.2231 -1.9976
14632TIP3   OH243838   1.650   6.519   5.997  0.0672  0.2227  0.2914
14632TIP3    H143839   1.599   6.588   5.956 -2.4443 -1.2381  0.7021
14632TIP3    H243840   1.741   6.543   5.981 -0.6904  1.3064 -3.4470
14633TIP3   OH243841   7.243   6.365   6.035  0.0998  0.0253  0.5227
14633TIP3    H143842   7.258   6.326   5.950  2.4546  0.9569  0.4449
14633TIP3    H243843   7.183   6.438   6.018  1.2114  0.7292 -0.5184
14634TIP3   OH243844   0.282   5.803   4.635  0.2798  0.4826  0.4849
14634TIP3    H143845   0.337   5.872   4.671  1.0428  0.5491 -0.7486
14634TIP3    H243846   0.249   5.839   4.552  1.7886 -1.0751 -0.8730
14635TIP3   OH243847   3.230   2.211   4.198  0.1505  0.1776 -0.2162
14635TIP3    H143848   3.268   2.296   4.220 -0.6018  0.3011  0.6919
14635TIP3    H243849   3.179   2.187   4.275  1.7034 -1.9056  0.2574
14636TIP3   OH243850   7.085   1.159   4.589 -0.1344  0.2813  0.0787
14636TIP3    H143851   7.085   1.164   4.684 -1.1065 -2.0881  0.2798
14636TIP3    H243852   7.164   1.207   4.562 -0.5917  2.1931  1.9305
14637TIP3   OH243853   0.479   6.167   6.122 -0.3339  0.7553 -0.0256
14637TIP3    H143854   0.422   6.100   6.082 -0.3077  1.8302 -2.0116
14637TIP3    H243855   0.502   6.131   6.207 -2.6916 -0.4558  0.2045
14638TIP3   OH243856   2.907   5.733   4.514 -0.5948 -0.5731  0.4479
14638TIP3    H143857   2.997   5.747   4.543 -0.9264 -0.1199  1.2976
14638TIP3    H243858   2.879   5.654   4.562 -0.4376 -1.1203 -0.3381
14639TIP3   OH243859   3.739   2.894   5.226  0.8191 -0.3276 -0.1983
14639TIP3    H143860   3.695   2.816   5.194  1.4656 -1.0747  0.6751
14639TIP3    H243861   3.818   2.901   5.172  1.1816 -0.7734  0.2540
14640TIP3   OH243862   3.246   1.134   3.371 -0.4224  0.0743  0.7271
14640TIP3    H143863   3.239   1.225   3.398  1.1874 -0.1693  2.2240
14640TIP3    H243864   3.232   1.135   3.277 -1.8055  1.6596  0.9109
14641TIP3   OH243865   0.647   2.328   1.847  0.1928 -0.3251 -0.1698
14641TIP3    H143866   0.685   2.263   1.906  1.5298  0.7669  0.2122
14641TIP3    H243867   0.709   2.334   1.774 -0.0892  0.2794 -0.3636
14642TIP3   OH243868   3.768   1.661   5.555  0.2121 -0.2761  0.0477
14642TIP3    H143869   3.860   1.668   5.533  0.5781 -0.8496  1.2766
14642TIP3    H243870   3.747   1.743   5.600 -0.3065  0.5187 -1.5624
14643TIP3   OH243871   0.618   7.247   0.084  0.1413 -0.5731 -0.4634
14643TIP3    H143872   0.568   7.191   0.024 -1.2853  0.5715 -0.3952
14643TIP3    H243873   0.600   7.212   0.171 -0.2495 -0.3979 -0.4715
14644TIP3   OH243874   8.112   5.828   1.654 -0.4203  0.4416 -0.0099
14644TIP3    H143875   8.133   5.919   1.633  0.8334 -0.0014 -0.7847
14644TIP3    H243876   8.044   5.804   1.591  0.1606  0.4617 -0.6528
14645TIP3   OH243877   1.738   6.348   1.667 -0.0353 -0.5406 -0.3447
14645TIP3    H143878   1.723   6.387   1.580 -0.3544  1.3209  0.4901
14645TIP3    H243879   1.830   6.366   1.685 -0.5323  1.2862  0.6673
14646TIP3   OH243880   2.771   6.500   0.044 -0.2898  0.4716 -0.3165
14646TIP3    H143881   2.785   6.548  -0.038 -0.6033  1.0447 -0.0365
14646TIP3    H243882   2.779   6.408   0.019 -1.6726  0.5767 -1.2638
14647TIP3   OH243883   3.489   5.220   2.257  0.2680  0.3005 -0.1155
14647TIP3    H143884   3.520   5.232   2.167 -0.1473 -1.4048 -0.5159
14647TIP3    H243885   3.446   5.135   2.256  0.3742  0.1982  1.7396
14648TIP3   OH243886   4.906   5.323   6.140  0.1672 -0.1532 -0.4459
14648TIP3    H143887   4.841   5.315   6.210 -0.2768  3.4015 -0.2382
14648TIP3    H243888   4.985   5.284   6.177 -1.3838 -3.3944 -0.2103
14649TIP3   OH243889   0.647   0.398   5.523  0.2701 -0.9042  0.1654
14649TIP3    H143890   0.651   0.484   5.481 -1.6118 -1.6995 -1.8416
14649TIP3    H243891   0.690   0.339   5.461  0.0350 -1.6819  0.7260
14650TIP3   OH243892   4.097   0.808   1.668 -0.7209 -0.2089  0.3711
14650TIP3    H143893   4.151   0.798   1.747 -0.6709 -0.8025  0.2652
14650TIP3    H243894   4.073   0.719   1.645 -2.5916  0.0914  1.0017
14651TIP3   OH243895   5.243   5.389   3.013  0.1204 -0.1150 -0.2385
14651TIP3    H143896   5.289   5.305   3.006  0.2354 -0.0964  0.2566
14651TIP3    H243897   5.307   5.448   3.052 -0.5584 -0.2847  1.1679
14652TIP3   OH243898   4.813   5.634   5.788 -0.0377  0.2442  0.4366
14652TIP3    H143899   4.739   5.694   5.774 -1.0603 -1.1487 -0.4030
14652TIP3    H243900   4.787   5.583   5.865 -0.2284 -0.6114 -0.1765
14653TIP3   OH243901   3.765   4.323   0.261 -0.8336 -0.6571 -0.5142
14653TIP3    H143902   3.673   4.307   0.241 -0.7616 -0.2114 -1.2290
14653TIP3    H243903   3.805   4.235   0.260 -1.0252 -0.7429 -1.3919
14654TIP3   OH243904   2.005   6.710   3.789 -0.1998 -0.6348  0.4763
14654TIP3    H143905   1.952   6.784   3.759 -1.1545 -1.0891  0.9952
14654TIP3    H243906   2.021   6.729   3.881  0.0302 -0.8022  0.4708
14655TIP3   OH243907   3.255   2.317   2.125 -0.5127  0.3386 -0.1883
14655TIP3    H143908   3.206   2.239   2.148 -0.5145  0.7595  1.3230
14655TIP3    H243909   3.340   2.306   2.167 -0.0947  0.6292 -0.9340
14656TIP3   OH243910   1.124   7.749   5.249  0.4732 -0.5162 -0.0787
14656TIP3    H143911   1.130   7.683   5.318  0.7614  0.0552  0.4465
14656TIP3    H243912   1.215   7.766   5.223  0.4742  0.4311  0.5153
14657TIP3   OH243913   6.624   0.350   0.461  0.0395 -0.3578 -0.2762
14657TIP3    H143914   6.649   0.432   0.504 -0.0041  0.1529 -1.2013
14657TIP3    H243915   6.640   0.365   0.368 -0.2218 -1.3096 -0.4920
14658TIP3   OH243916   5.238   6.689   0.210  0.0498 -0.3122  0.2526
14658TIP3    H143917   5.217   6.781   0.192  0.9182 -0.3331 -0.9415
14658TIP3    H243918   5.227   6.681   0.305 -0.0000  1.0277  0.3862
14659TIP3   OH243919   1.747   1.051   6.203  0.3301  0.3799 -0.4261
14659TIP3    H143920   1.765   1.077   6.293  1.1759  1.5522 -0.9093
14659TIP3    H243921   1.653   1.064   6.193  0.3767  1.1355  0.0211
14660TIP3   OH243922   1.443   0.859   1.603  0.2001 -0.2631 -0.1769
14660TIP3    H143923   1.475   0.829   1.688  0.1642 -2.3827 -0.8551
14660TIP3    H243924   1.348   0.866   1.614  0.3125  0.6960  0.2858
14661TIP3   OH243925   2.597   1.059   1.532 -0.1096  0.3105  0.0285
14661TIP3    H143926   2.579   1.097   1.446  1.4868  0.7072 -0.1556
14661TIP3    H243927   2.619   0.968   1.513 -0.2856  0.2597  0.0708
14662TIP3   OH243928   1.662   7.355   3.928 -0.3163 -0.4073 -0.5519
14662TIP3    H143929   1.752   7.335   3.956  0.5772  1.5112 -1.8179
14662TIP3    H243930   1.615   7.374   4.010  0.7874 -0.1782  0.0490
14663TIP3   OH243931   8.057   4.964   3.107  0.2391 -0.0213 -0.1744
14663TIP3    H143932   8.053   4.955   3.011 -1.8721  0.3147 -0.1661
14663TIP3    H243933   8.038   4.877   3.140 -2.3612  0.5072 -0.1063
14664TIP3   OH243934   7.860   3.529   0.957  0.2894 -0.0350 -0.1770
14664TIP3    H143935   7.866   3.483   0.873  0.0873 -0.9024  0.2791
14664TIP3    H243936   7.803   3.604   0.939  0.1502 -0.2795 -0.7795
14665TIP3   OH243937   4.582   5.752   0.525 -0.4139  0.2926  0.1379
14665TIP3    H143938   4.599   5.703   0.606 -2.6793  1.1264  1.2253
14665TIP3    H243939   4.668   5.783   0.496  0.9074 -2.9506  0.2424
14666TIP3   OH243940   0.683   5.477   6.661  0.0212  0.7700  0.3115
14666TIP3    H143941   0.609   5.524   6.621 -1.3850  0.1561  2.0690
14666TIP3    H243942   0.758   5.501   6.607 -1.3167  2.0278 -1.0950
14667TIP3   OH243943   1.625   6.800   0.635 -0.0497  0.1118 -0.5348
14667TIP3    H143944   1.701   6.827   0.688  2.1745 -1.7882 -2.4925
14667TIP3    H243945   1.645   6.833   0.547 -1.6955 -0.1424 -1.0316
14668TIP3   OH243946   3.969   7.562   5.183  0.1124 -0.3686 -0.5992
14668TIP3    H143947   3.946   7.652   5.162  0.3872 -0.3509 -0.8341
14668TIP3    H243948   4.060   7.553   5.153  0.2759 -0.5546 -0.0638
14669TIP3   OH243949   5.467   7.695   4.711  0.2995 -0.3316  0.0688
14669TIP3    H143950   5.529   7.714   4.781  1.2291  2.0664 -1.2704
14669TIP3    H243951   5.502   7.617   4.668  0.2273 -1.2644  1.6237
14670TIP3   OH243952   7.064   1.662   0.486 -0.3481  0.1188 -0.0555
14670TIP3    H143953   7.065   1.586   0.544 -1.2432 -1.0366 -1.4809
14670TIP3    H243954   6.984   1.651   0.434 -0.2389  1.7896 -0.6363
14671TIP3   OH243955   5.457   0.526   2.625 -0.4287 -0.1582  0.0834
14671TIP3    H143956   5.411   0.500   2.545 -0.2864  2.2305 -0.8609
14671TIP3    H243957   5.394   0.510   2.696 -1.5273  0.1027 -0.8098
14672TIP3   OH243958   7.338   4.182   4.492  0.0272  0.1822  0.0783
14672TIP3    H143959   7.427   4.207   4.470  0.0299  0.9432  0.8745
14672TIP3    H243960   7.326   4.096   4.452 -0.4897  1.9857 -4.1521
14673TIP3   OH243961   0.292   6.683   2.558  1.0599 -0.5617 -0.7199
14673TIP3    H143962   0.264   6.624   2.629 -0.2657 -0.4390 -1.1035
14673TIP3    H243963   0.367   6.639   2.518  0.5069 -1.6840 -0.5694
14674TIP3   OH243964   7.548   5.947   3.536 -0.1863 -0.5139  0.2230
14674TIP3    H143965   7.524   5.945   3.443  0.1196 -0.8865  0.1502
14674TIP3    H243966   7.616   5.880   3.545  1.4478  1.0587  0.2616
14675TIP3   OH243967   3.112   3.472   6.512 -0.2510 -0.0614  0.3871
14675TIP3    H143968   3.024   3.508   6.518  0.1820  1.5384 -1.7893
14675TIP3    H243969   3.101   3.379   6.533 -2.3255  0.2317  0.8250
14676TIP3   OH243970   1.958   7.372   1.318  0.5000  0.0097 -0.2980
14676TIP3    H143971   1.911   7.295   1.285 -0.3529  0.4867 -0.2511
14676TIP3    H243972   2.047   7.361   1.287  0.6533 -1.5061  0.5669
14677TIP3   OH243973   6.030   7.488   4.261 -0.1343 -0.0841  0.2081
14677TIP3    H143974   5.996   7.497   4.173  0.6385  0.9479 -0.0035
14677TIP3    H243975   5.972   7.424   4.303 -2.2563  1.5137 -0.1558
14678TIP3   OH243976   6.725   3.805   3.427  0.1059  0.1841  0.0847
14678TIP3    H143977   6.752   3.786   3.337  1.2441  0.3052  0.3888
14678TIP3    H243978   6.634   3.835   3.419  0.6144  1.4575 -1.1788
14679TIP3   OH243979   2.612   1.797   1.592  0.1672 -0.2653 -0.0230
14679TIP3    H143980   2.559   1.871   1.563 -0.4595 -0.3336  0.8956
14679TIP3    H243981   2.577   1.775   1.679  1.3369 -0.6699  0.3666
14680TIP3   OH243982   6.759   4.237   1.557 -0.2380  0.5428 -0.9795
14680TIP3    H143983   6.722   4.189   1.631 -0.4901  2.2562  0.0715
14680TIP3    H243984   6.780   4.170   1.492  2.0027 -1.3156  1.4497
14681TIP3   OH243985   4.893   1.228   4.580  0.3644  0.4734  0.1129
14681TIP3    H143986   4.953   1.300   4.597  1.3639  0.1523 -1.7317
14681TIP3    H243987   4.943   1.149   4.600 -0.1864  0.2494  0.6354
14682TIP3   OH243988   2.006   3.043   4.244  0.1289 -0.1492  0.0293
14682TIP3    H143989   1.915   3.035   4.272 -0.1272  0.3073 -0.6550
14682TIP3    H243990   2.001   3.071   4.153  0.9535  0.2854  0.1076
14683TIP3   OH243991   2.674   1.905   2.220 -0.1455 -0.8642 -0.2358
14683TIP3    H143992   2.685   1.865   2.307  0.2682 -0.6199 -0.1743
14683TIP3    H243993   2.580   1.920   2.213 -0.0101  0.9682  1.0154
14684TIP3   OH243994   6.145   4.727   6.632 -0.0443  0.3835  0.8501
14684TIP3    H143995   6.112   4.758   6.548 -0.7155  0.2045  1.0415
14684TIP3    H243996   6.092   4.772   6.697 -0.5078 -0.5486  1.1451
14685TIP3   OH243997   7.751   5.837   1.747  0.1888 -0.0268 -1.0721
14685TIP3    H143998   7.719   5.807   1.662 -1.6389  0.6919 -0.6857
14685TIP3    H243999   7.723   5.929   1.752  0.6087  0.0519  0.1615
14686TIP3   OH244000   4.014   2.528   5.345  0.8926  0.8374 -0.2492
14686TIP3    H144001   3.964   2.572   5.276  0.7633 -0.7203 -1.2225
14686TIP3    H244002   3.947   2.493   5.404  0.8557  0.0598 -0.7226
14687TIP3   OH244003   0.610   6.911   6.014 -0.1058  0.0048 -0.2474
14687TIP3    H144004   0.526   6.952   5.993  0.0282 -0.3576 -1.6298
14687TIP3    H244005   0.666   6.930   5.938  0.0242 -2.5302 -0.8922
14688TIP3   OH244006   3.412   4.880   0.276 -0.3578  0.0754 -0.0563
14688TIP3    H144007   3.374   4.957   0.233 -1.3986  0.3688  1.3234
14688TIP3    H244008   3.368   4.876   0.361  0.8324 -1.1271  0.5385
14689TIP3   OH244009   0.071   2.841   0.548  0.5182  0.5684 -0.1647
14689TIP3    H144010  -0.017   2.813   0.521  1.1513 -0.4347 -1.3096
14689TIP3    H244011   0.130   2.787   0.495  1.8455  0.1833  1.6279
14690TIP3   OH244012   5.226   4.667   5.792 -0.4904 -0.3147  0.4397
14690TIP3    H144013   5.149   4.689   5.740 -0.2369 -0.2198  0.1012
14690TIP3    H244014   5.198   4.593   5.847 -0.2534 -1.6238 -1.1208
14691TIP3   OH244015   2.704   5.472   3.868 -0.4336 -0.3124  0.4945
14691TIP3    H144016   2.765   5.401   3.884  1.1132  0.8777  0.1612
14691TIP3    H244017   2.747   5.526   3.801 -1.8790  0.5564  0.2138
14692TIP3   OH244018   5.964   3.458   2.029  0.1105 -0.2805  0.0893
14692TIP3    H144019   6.020   3.493   1.959 -0.4267 -0.7455 -0.5893
14692TIP3    H244020   5.898   3.407   1.983 -0.3397 -0.4800  0.9405
14693TIP3   OH244021   0.078   7.633   5.319  0.0958 -0.1812  0.0107
14693TIP3    H144022   0.111   7.666   5.402  1.1470  1.7152 -1.0956
14693TIP3    H244023   0.047   7.711   5.272 -2.4786 -1.4306 -0.5628
14694TIP3   OH244024   3.949   1.229   5.122  0.2446 -0.4023 -0.2940
14694TIP3    H144025   3.884   1.279   5.072 -0.8773 -1.0119  0.5115
14694TIP3    H244026   3.914   1.141   5.126  1.7226 -1.0486 -0.8381
14695TIP3   OH244027   2.771   4.557   2.126 -0.3098 -0.4752 -0.2570
14695TIP3    H144028   2.699   4.615   2.100 -0.5434 -0.7490 -0.2229
14695TIP3    H244029   2.850   4.603   2.096 -0.5138 -0.2985 -0.5313
14696TIP3   OH244030   6.251   6.782   0.422 -0.0263  0.1627  1.1738
14696TIP3    H144031   6.334   6.767   0.376 -2.0293 -0.0167 -2.7517
14696TIP3    H244032   6.238   6.702   0.473  1.4875 -0.4323  0.7056
14697TIP3   OH244033   0.222   7.564   0.043 -0.0048  0.2750 -0.7063
14697TIP3    H144034   0.170   7.550  -0.036  2.8617  1.5899 -3.0381
14697TIP3    H244035   0.284   7.491   0.044  0.2451  0.4867  0.1303
14698TIP3   OH244036   5.140   1.738   0.475 -0.1567 -0.1563  0.4205
14698TIP3    H144037   5.201   1.770   0.541 -0.9319  0.8162  0.6804
14698TIP3    H244038   5.083   1.678   0.522 -0.5415  0.3316  0.5767
14699TIP3   OH244039   4.996   3.410   0.743  0.1220  0.1580 -0.1703
14699TIP3    H144040   4.960   3.325   0.771  1.7954 -1.0744 -1.5130
14699TIP3    H244041   5.085   3.390   0.714  0.6681  2.4533 -0.2692
14700TIP3   OH244042   5.289   4.515   4.911  0.2482 -0.3378  0.0621
14700TIP3    H144043   5.223   4.477   4.970  2.1870  0.8652  3.2462
14700TIP3    H244044   5.283   4.609   4.926  0.6936  0.0504 -1.9134
14701TIP3   OH244045   0.829   5.139   3.374 -0.0415  0.4324 -0.0850
14701TIP3    H144046   0.776   5.083   3.318  0.2992 -0.6024  0.6059
14701TIP3    H244047   0.910   5.152   3.325  0.3844 -0.7322  0.2694
14702TIP3   OH244048   7.088   4.323   5.202 -0.4549 -0.0767  0.3676
14702TIP3    H144049   7.087   4.419   5.206 -3.0433  0.0031 -0.3448
14702TIP3    H244050   7.034   4.295   5.276  2.3832 -1.1878  2.1649
14703TIP3   OH244051   6.511   2.776   0.833  0.0621 -0.2644  0.5577
14703TIP3    H144052   6.559   2.854   0.862  0.3427  0.6400 -1.9932
14703TIP3    H244053   6.441   2.810   0.777 -0.3176 -1.8069  0.0310
14704TIP3   OH244054   5.520   5.638   5.080  0.0301 -0.2446 -0.3632
14704TIP3    H144055   5.488   5.723   5.050 -0.1979 -0.0338  0.4449
14704TIP3    H244056   5.583   5.611   5.014 -0.7965 -0.0194 -1.2730
14705TIP3   OH244057   7.764   5.017   0.235 -0.7764  0.0559  0.0489
14705TIP3    H144058   7.794   5.009   0.144 -0.4508  0.9139  0.0765
14705TIP3    H244059   7.839   4.990   0.287 -0.9050 -0.2614  0.0751
14706TIP3   OH244060   8.142   0.903   3.799  0.1979  0.3417 -0.3323
14706TIP3    H144061   8.054   0.879   3.770  0.3688  0.7411 -1.2006
14706TIP3    H244062   8.198   0.831   3.771  0.4996  1.1109 -1.7865
14707TIP3   OH244063   3.016   4.512   3.640 -0.0948 -0.7799 -0.0907
14707TIP3    H144064   2.988   4.480   3.554 -1.8957 -0.4918  0.3648
14707TIP3    H244065   3.110   4.529   3.629 -0.4302  0.0176 -2.2437
14708TIP3   OH244066   0.575   5.917   0.471  0.1009  0.0693  0.2270
14708TIP3    H144067   0.652   5.930   0.526  0.1708  0.9039 -0.0575
14708TIP3    H244068   0.543   6.005   0.453  1.0796 -0.0278 -2.4909
14709TIP3   OH244069   3.377   6.184   0.424  0.2239  0.0954  0.4208
14709TIP3    H144070   3.370   6.094   0.394  0.3061  0.6062 -1.2208
14709TIP3    H244071   3.290   6.205   0.457 -0.2327 -0.1257 -0.6042
14710TIP3   OH244072   2.809   7.285   5.577  0.1261  0.5733 -0.7081
14710TIP3    H144073   2.889   7.297   5.628  0.1567 -1.5479 -0.1661
14710TIP3    H244074   2.833   7.221   5.509 -1.9523 -3.5828  1.9998
14711TIP3   OH244075   5.491   0.459   0.516  0.2009 -0.5700  0.0881
14711TIP3    H144076   5.539   0.496   0.590  0.6897 -2.2134  0.6424
14711TIP3    H244077   5.537   0.490   0.439  1.5503 -1.2583  0.5877
14712TIP3   OH244078   1.199   3.347   2.533  0.7156  0.3856 -0.7685
14712TIP3    H144079   1.180   3.417   2.470  1.6603  2.3272  0.9526
14712TIP3    H244080   1.293   3.335   2.528  0.6750 -0.1184 -0.3936
14713TIP3   OH244081   4.071   7.822   2.090  0.7548 -0.6360  0.9313
14713TIP3    H144082   4.024   7.897   2.054  2.4194 -0.3000 -0.6393
14713TIP3    H244083   4.006   7.751   2.090  0.0056  0.0253 -0.3982
14714TIP3   OH244084   4.384   7.656   2.321  0.5804  0.0256 -0.3701
14714TIP3    H144085   4.440   7.663   2.398 -0.1777  1.3985  0.0887
14714TIP3    H244086   4.305   7.612   2.352  0.3105  0.4995 -0.3740
14715TIP3   OH244087   3.813   5.864   5.274  0.2106 -0.0047 -0.5762
14715TIP3    H144088   3.724   5.880   5.243  0.0400  0.6149  0.1950
14715TIP3    H244089   3.807   5.779   5.318  0.0471 -0.0704 -0.7238
14716TIP3   OH244090   3.878   5.370   5.546 -0.0349  0.3724 -0.4880
14716TIP3    H144091   3.870   5.285   5.589  1.1831 -0.1854 -1.3049
14716TIP3    H244092   3.956   5.409   5.586  1.0460 -0.1087 -2.0512
14717TIP3   OH244093   1.154   5.879   2.521 -0.2655 -0.2062  0.2430
14717TIP3    H144094   1.093   5.864   2.449  0.1792  2.6087 -0.8368
14717TIP3    H244095   1.202   5.796   2.529 -0.6020 -0.7575 -2.4333
14718TIP3   OH244096   5.195   5.504   2.246  0.1684 -0.2886 -0.2236
14718TIP3    H144097   5.231   5.448   2.177 -0.4266 -0.6343 -0.2574
14718TIP3    H244098   5.218   5.593   2.218 -0.7749 -0.3594 -1.2996
14719TIP3   OH244099   1.839   6.737   4.211  0.2431 -0.5648  0.5184
14719TIP3    H144100   1.799   6.811   4.165  1.9466  1.1370  1.5951
14719TIP3    H244101   1.812   6.748   4.302  1.1753 -0.7735  0.8329
14720TIP3   OH244102   7.969   4.474   4.011  0.0927 -0.2079 -0.0459
14720TIP3    H144103   7.920   4.400   3.976  1.0707 -1.1239  0.4491
14720TIP3    H244104   8.060   4.455   3.988  0.4383  0.4706  0.7178
14721TIP3   OH244105   1.754   4.369   0.763 -0.3652 -0.7841 -0.6002
14721TIP3    H144106   1.836   4.349   0.808 -1.5996 -1.5019  1.4539
14721TIP3    H244107   1.764   4.460   0.735  0.2408 -0.0509  1.7616
14722TIP3   OH244108   7.862   6.239   5.724 -0.1839 -0.1432 -0.0058
14722TIP3    H144109   7.956   6.225   5.708 -0.2041 -1.9304  1.1166
14722TIP3    H244110   7.819   6.173   5.670 -0.7176 -0.1990  0.4831
14723TIP3   OH244111   5.159   7.506   2.295 -0.2855  0.1680  0.2087
14723TIP3    H144112   5.165   7.430   2.237 -0.2952  0.8704 -0.7298
14723TIP3    H244113   5.076   7.493   2.341 -0.6547 -0.0223 -0.4865
14724TIP3   OH244114   5.787   4.257   1.128  0.1188 -0.0306  0.0158
14724TIP3    H144115   5.727   4.198   1.082 -0.3116  0.9740 -0.7446
14724TIP3    H244116   5.738   4.339   1.136  1.1138  0.5717  0.0657
14725TIP3   OH244117   1.678   2.946   4.717  0.2264  0.0177  0.5585
14725TIP3    H144118   1.665   2.853   4.733 -0.4037  0.1711  1.0039
14725TIP3    H244119   1.633   2.963   4.634 -0.4134  0.0792  0.9036
14726TIP3   OH244120   2.537   7.073   2.971  0.2183 -0.3001  0.2004
14726TIP3    H144121   2.583   7.020   2.906  0.7011  0.7316 -0.3185
14726TIP3    H244122   2.587   7.154   2.976 -0.9153  0.4058  0.4469
14727TIP3   OH244123   7.875   6.749   2.550  0.5520  0.0801  0.6422
14727TIP3    H144124   7.826   6.779   2.474 -0.3905 -0.7744  0.8881
14727TIP3    H244125   7.920   6.670   2.520 -0.2323 -0.5565  1.0805
14728TIP3   OH244126   3.228   4.176   4.222 -0.1876 -0.2465 -0.1314
14728TIP3    H144127   3.236   4.266   4.253  0.2931 -0.4676  0.3995
14728TIP3    H244128   3.213   4.125   4.302 -1.6974 -0.5005 -0.5401
14729TIP3   OH244129   3.223   6.653   5.895  0.4413 -0.0111  0.2872
14729TIP3    H144130   3.199   6.662   5.987  1.3694  4.3496  0.2932
14729TIP3    H244131   3.319   6.656   5.894  0.4203  1.4032 -0.8386
14730TIP3   OH244132   7.032   2.462   2.843  0.2485  0.3564  0.2574
14730TIP3    H144133   6.964   2.411   2.887  0.5287  0.3356  0.6651
14730TIP3    H244134   7.056   2.530   2.905 -1.0184  1.7811 -0.7653
14731TIP3   OH244135   5.568   5.090   1.273  0.1140 -0.6000 -0.2104
14731TIP3    H144136   5.505   5.103   1.202  1.8300 -2.2287 -2.1927
14731TIP3    H244137   5.653   5.110   1.232  1.0770 -0.4189  1.7657
14732TIP3   OH244138   2.100   0.232   1.348 -0.2568 -0.1591 -0.4408
14732TIP3    H144139   2.154   0.311   1.361 -1.5707  0.8765 -1.0329
14732TIP3    H244140   2.021   0.248   1.399 -0.2493 -1.4393  0.0102
14733TIP3   OH244141   3.559   2.579   0.410 -0.6217 -0.2397  1.0418
14733TIP3    H144142   3.535   2.596   0.502 -2.4852 -1.6237  0.8536
14733TIP3    H244143   3.476   2.573   0.364  0.2862  0.3938 -0.7796
14734TIP3   OH244144   3.317   5.594   4.245  0.0802  0.0769  0.2299
14734TIP3    H144145   3.358   5.680   4.232 -1.1471  0.6238 -0.1827
14734TIP3    H244146   3.224   5.610   4.233 -0.1272 -1.4180 -0.3696
14735TIP3   OH244147   3.956   4.916   4.942 -0.7265 -0.2587  0.6924
14735TIP3    H144148   3.966   4.978   5.014 -2.3591 -0.0774  0.7828
14735TIP3    H244149   3.928   4.835   4.983  0.8542 -0.9289  0.5091
14736TIP3   OH244150   1.619   7.287   1.374  0.9713 -0.0535  0.8389
14736TIP3    H144151   1.677   7.270   1.299  1.6430  0.3691  1.2601
14736TIP3    H244152   1.665   7.248   1.449 -0.5775 -2.1819  0.7696
14737TIP3   OH244153   0.997   1.861   3.983 -0.5382  0.0286  0.0257
14737TIP3    H144154   0.904   1.876   4.000 -0.4915  0.2988  0.0534
14737TIP3    H244155   1.007   1.766   3.986 -0.5575  0.0555  1.3498
14738TIP3   OH244156   6.134   5.500   6.556  0.3547  0.4819 -0.1383
14738TIP3    H144157   6.169   5.451   6.630 -0.8122  2.0445  1.5188
14738TIP3    H244158   6.211   5.541   6.516  0.9932 -0.4017  0.1639
14739TIP3   OH244159   0.169   0.527   5.669 -0.5121 -0.0340 -0.1509
14739TIP3    H144160   0.152   0.506   5.578 -1.4728 -0.1196  0.0371
14739TIP3    H244161   0.152   0.621   5.676  0.7066  0.2080 -0.3076
14740TIP3   OH244162   5.345   1.364   3.635  0.4649  0.2242  0.3347
14740TIP3    H144163   5.416   1.332   3.690  0.8032  0.3440 -0.0232
14740TIP3    H244164   5.360   1.321   3.550 -0.5200 -0.5981  0.5593
14741TIP3   OH244165   6.780   7.233   0.376 -0.4083  0.4217 -0.5989
14741TIP3    H144166   6.696   7.194   0.352 -0.2504  1.1012 -2.4202
14741TIP3    H244167   6.813   7.272   0.295  1.6394  0.2461  0.0748
14742TIP3   OH244168   6.576   1.462   5.847  0.6030 -0.3172  0.0355
14742TIP3    H144169   6.484   1.476   5.868  0.3941  0.3965 -1.2401
14742TIP3    H244170   6.580   1.467   5.751  2.3788  2.5525  0.1341
14743TIP3   OH244171   8.042   6.566   2.448 -0.0003 -0.3983 -0.0565
14743TIP3    H144172   8.126   6.545   2.489 -0.3321 -1.0203  0.3262
14743TIP3    H244173   8.030   6.496   2.383 -0.8727 -1.1148  0.8578
14744TIP3   OH244174   3.454   1.203   0.172 -0.1420  0.2444  0.3204
14744TIP3    H144175   3.368   1.221   0.136  0.3792 -1.3587 -1.9014
14744TIP3    H244176   3.454   1.246   0.258 -3.5917 -0.7876  0.9761
14745TIP3   OH244177   1.301   0.015   3.618  0.3421 -0.0549 -0.2423
14745TIP3    H144178   1.353   0.079   3.667 -2.1703  1.2430  0.9755
14745TIP3    H244179   1.214   0.055   3.613 -1.6021 -3.6089  1.1477
14746TIP3   OH244180   4.225   4.493   3.030 -0.1137  0.1582  0.1741
14746TIP3    H144181   4.278   4.571   3.015  0.7212 -0.5893 -0.9943
14746TIP3    H244182   4.266   4.450   3.105  0.4529  0.0017 -0.2197
14747TIP3   OH244183   7.940   5.042   6.628  0.3057 -0.1458 -0.4093
14747TIP3    H144184   7.878   4.989   6.577  0.0162 -0.3319  0.1230
14747TIP3    H244185   8.011   5.061   6.567 -0.3732  0.2506 -1.0991
14748TIP3   OH244186   1.995   7.392   5.504  0.2735 -0.1002  0.0338
14748TIP3    H144187   1.926   7.423   5.563 -1.2966 -0.4323 -1.5522
14748TIP3    H244188   1.954   7.391   5.418  2.8759  1.7216 -1.3837
14749TIP3   OH244189   0.973   0.755   3.734  0.1329  0.4002 -0.5197
14749TIP3    H144190   1.061   0.717   3.736 -0.0381 -0.1149 -2.0049
14749TIP3    H244191   0.927   0.714   3.808  0.5508 -0.7840 -0.9037
14750TIP3   OH244192   6.318   2.002   1.322 -0.2677  0.0635  0.5524
14750TIP3    H144193   6.358   2.020   1.237  0.5339 -0.4004  0.8177
14750TIP3    H244194   6.320   1.907   1.329 -2.8993 -0.1207 -0.1030
14751TIP3   OH244195   6.018   0.023   0.204 -0.2376  0.4043 -0.2297
14751TIP3    H144196   6.055  -0.062   0.181 -0.0694 -0.0191  1.4286
14751TIP3    H244197   5.971   0.051   0.126  0.4353 -0.7990 -1.1057
14752TIP3   OH244198   0.779   4.353   4.287 -0.6937  0.0971  0.1421
14752TIP3    H144199   0.718   4.421   4.316 -1.7879 -0.4162 -0.8577
14752TIP3    H244200   0.725   4.293   4.236  0.9267  0.4552 -2.1425
14753TIP3   OH244201   3.972   2.997   4.859 -0.0687  0.0709  0.3107
14753TIP3    H144202   4.051   3.047   4.838  0.2611 -0.6665 -0.2342
14753TIP3    H244203   3.941   3.035   4.941 -0.2245  1.6357 -0.4350
14754TIP3   OH244204   4.191   2.354   3.146  0.3137 -0.0699  0.3293
14754TIP3    H144205   4.102   2.333   3.120  0.5304  0.4036 -0.8784
14754TIP3    H244206   4.229   2.271   3.174 -0.3971 -0.3286  0.5246
14755TIP3   OH244207   1.742   5.728   2.984  0.3856  0.2255  0.0236
14755TIP3    H144208   1.691   5.775   2.917  0.4689  0.9455  0.4597
14755TIP3    H244209   1.676   5.699   3.047  0.4980  1.1817  0.6026
14756TIP3   OH244210   4.703   0.765   0.376 -0.5610  0.2935  0.2024
14756TIP3    H144211   4.689   0.783   0.283  1.7520  0.4008 -0.1699
14756TIP3    H244212   4.748   0.842   0.410  2.8069 -1.5222  0.2825
14757TIP3   OH244213   4.124   0.979   5.019 -0.0442  0.1758  0.1183
14757TIP3    H144214   4.029   0.965   5.020 -0.0988 -0.5556 -3.0258
14757TIP3    H244215   4.161   0.894   5.045 -0.3110 -0.1993 -0.6695
14758TIP3   OH244216   6.662   4.438   4.644  0.4095  0.0472 -0.3484
14758TIP3    H144217   6.726   4.432   4.715  1.4077  1.5162 -1.0618
14758TIP3    H244218   6.578   4.450   4.689  0.7959 -0.6383  0.5969
14759TIP3   OH244219   8.228   2.716   5.995  0.1424 -0.5522  0.5099
14759TIP3    H144220   8.195   2.691   6.082  2.3249 -0.6680  1.3726
14759TIP3    H244221   8.231   2.633   5.946 -1.2704 -0.4597  0.2082
14760TIP3   OH244222   5.871   5.875   1.975  0.3680  0.1884  0.3449
14760TIP3    H144223   5.783   5.899   1.947  0.4832  0.4687  0.2194
14760TIP3    H244224   5.926   5.892   1.899  0.4466 -0.5276  0.2363
14761TIP3   OH244225   7.369   0.906   0.802  0.2735  0.3692 -0.0979
14761TIP3    H144226   7.397   0.965   0.732  2.4607 -0.5567 -0.0782
14761TIP3    H244227   7.317   0.839   0.757 -2.0380  2.0507 -0.1522
14762TIP3   OH244228   7.802   1.290   3.381 -0.1735  0.0426  0.1962
14762TIP3    H144229   7.756   1.358   3.430 -0.5482 -0.3048  0.3331
14762TIP3    H244230   7.895   1.305   3.400 -0.1563  1.3586 -0.8704
14763TIP3   OH244231   2.885   1.649   6.303  0.1131  0.2042  0.0220
14763TIP3    H144232   2.981   1.653   6.307  0.3169 -2.0056 -0.9645
14763TIP3    H244233   2.863   1.571   6.354 -0.7955 -1.4334 -2.6709
14764TIP3   OH244234   4.634   3.398   1.562  0.1470  0.1415  0.1452
14764TIP3    H144235   4.703   3.463   1.571 -0.3154  0.3883  2.5780
14764TIP3    H244236   4.662   3.326   1.619 -1.2151 -0.0859  0.5611
14765TIP3   OH244237   7.310   5.078   1.491 -0.3008  0.0823 -0.2632
14765TIP3    H144238   7.294   5.169   1.466  0.5708  0.3992  0.2932
14765TIP3    H244239   7.265   5.068   1.575 -0.6436 -0.0930 -0.4646
14766TIP3   OH244240   0.089   3.016   1.761 -0.5139 -0.0979  0.1577
14766TIP3    H144241   0.128   3.096   1.797  0.0769 -1.4465  2.7575
14766TIP3    H244242  -0.004   3.023   1.781 -0.3537 -0.3495  1.0251
14767TIP3   OH244243   0.586   5.856   3.506 -0.7542  0.3247 -0.5150
14767TIP3    H144244   0.591   5.947   3.537 -1.2445  0.0330  0.4878
14767TIP3    H244245   0.493   5.834   3.514 -0.6337 -0.2679 -0.7416
14768TIP3   OH244246   0.820   0.330   6.256 -0.0647  0.1118 -0.1756
14768TIP3    H144247   0.766   0.329   6.335 -1.5769 -0.9000 -1.1642
14768TIP3    H244248   0.801   0.247   6.212  1.7249  0.0699 -0.9789
14769TIP3   OH244249   1.024   6.625   4.790 -0.2238  0.4628 -0.2067
14769TIP3    H144250   1.038   6.704   4.842 -1.9960 -0.0309  1.1740
14769TIP3    H244251   0.928   6.619   4.781 -0.0559 -0.6714 -1.6551
14770TIP3   OH244252   7.307   1.743   6.619 -0.0909 -0.9822 -0.0348
14770TIP3    H144253   7.258   1.791   6.685 -1.2773  1.7141 -2.6376
14770TIP3    H244254   7.392   1.788   6.614  0.3705 -1.7930  0.2788
14771TIP3   OH244255   7.534   2.874   1.907 -0.5561  0.0913 -0.3320
14771TIP3    H144256   7.516   2.949   1.851  0.7193  1.3678  0.9163
14771TIP3    H244257   7.544   2.910   1.994 -1.5156 -1.7436  0.6082
14772TIP3   OH244258   5.801   5.559   4.662 -0.4741  0.2203 -0.0992
14772TIP3    H144259   5.793   5.477   4.710 -0.2426  0.3638  0.1842
14772TIP3    H244260   5.713   5.573   4.625 -0.7455  0.2784  0.5566
14773TIP3   OH244261   1.847   1.666   3.628 -0.8585  0.0127  0.7621
14773TIP3    H144262   1.754   1.663   3.606 -0.6160  0.2487 -0.3473
14773TIP3    H244263   1.863   1.756   3.655 -1.5077 -0.6400  3.6767
14774TIP3   OH244264   1.873   1.272   5.360 -0.0390  0.4320  0.0427
14774TIP3    H144265   1.785   1.308   5.373  0.1950  0.9703  0.1672
14774TIP3    H244266   1.929   1.349   5.352  0.2893  0.0975 -0.9987
14775TIP3   OH244267   1.752   5.520   6.680  0.2424  0.6683 -0.2507
14775TIP3    H144268   1.751   5.441   6.626 -0.0355  0.2611  0.3315
14775TIP3    H244269   1.791   5.588   6.625  1.2454 -0.0778 -0.4751
14776TIP3   OH244270   5.963   2.403   0.456 -0.1265  0.7479 -0.4633
14776TIP3    H144271   5.923   2.480   0.415  0.0499  1.0506 -0.0709
14776TIP3    H244272   6.028   2.439   0.516 -0.0445  0.2905 -0.2751
14777TIP3   OH244273   4.476   6.754   0.891  0.0860 -0.0310  0.0066
14777TIP3    H144274   4.561   6.793   0.913 -0.1967 -0.4882  2.1499
14777TIP3    H244275   4.496   6.688   0.825  1.1649  0.9065 -0.6351
14778TIP3   OH244276   1.965   1.464   0.662 -0.0963 -0.1000 -0.3587
14778TIP3    H144277   2.031   1.477   0.730 -0.9732 -2.9192  1.1960
14778TIP3    H244278   1.956   1.550   0.620  1.1563  1.5498  2.4601
14779TIP3   OH244279   5.217   5.476   5.952  0.7201  0.1676 -0.5626
14779TIP3    H144280   5.149   5.442   5.894  0.8138  1.2585 -1.3361
14779TIP3    H244281   5.297   5.473   5.900  0.8362  1.0160 -0.4466
14780TIP3   OH244282   0.709   6.119   3.033 -0.0823 -0.1172  0.3880
14780TIP3    H144283   0.687   6.032   3.067 -2.5656  0.7117  1.1892
14780TIP3    H244284   0.727   6.172   3.111 -0.5267  0.5268  0.0728
14781TIP3   OH244285   7.505   1.984   1.214  0.3303 -0.1863  0.1550
14781TIP3    H144286   7.546   1.976   1.127  0.6651 -1.2399  0.3885
14781TIP3    H244287   7.558   2.049   1.260  2.0358 -1.7868  0.5792
14782TIP3   OH244288   4.307   2.446   3.694 -0.8502  0.3918 -0.2115
14782TIP3    H144289   4.279   2.369   3.645 -0.9289  0.2482  0.0609
14782TIP3    H244290   4.383   2.417   3.744 -0.0897  0.8245 -1.0831
14783TIP3   OH244291   5.221   7.830   6.146  0.0755  0.6225  0.4317
14783TIP3    H144292   5.156   7.761   6.134  0.6205  0.0826  0.5487
14783TIP3    H244293   5.291   7.789   6.196  1.3058  0.7057 -1.1698
14784TIP3   OH244294   3.337   1.013   6.218 -0.2938 -0.1002 -0.3769
14784TIP3    H144295   3.327   1.086   6.279  0.8458 -0.6607  0.5079
14784TIP3    H244296   3.431   1.005   6.204 -0.3956 -1.4402 -0.4149
14785TIP3   OH244297   3.040   2.589   4.567  0.0146  0.7865 -0.0019
14785TIP3    H144298   3.108   2.631   4.619 -0.5464  1.9516 -0.1645
14785TIP3    H244299   2.985   2.662   4.537  0.1751  0.1291 -2.0242
14786TIP3   OH244300   7.621   2.202   1.322  0.1606  0.0639 -0.2734
14786TIP3    H144301   7.689   2.220   1.387  2.3864 -1.7916 -1.9137
14786TIP3    H244302   7.618   2.281   1.268  1.5839 -0.0839 -0.6053
14787TIP3   OH244303   2.159   2.667   2.109  0.2124  0.4457 -0.7962
14787TIP3    H144304   2.252   2.655   2.131  0.6011 -0.1091 -2.5971
14787TIP3    H244305   2.121   2.707   2.187  1.6368 -0.7345  0.5659
14788TIP3   OH244306   5.128   3.310   5.618  0.0017  0.0868  0.2323
14788TIP3    H144307   5.210   3.261   5.616 -0.1989 -0.3140  1.3560
14788TIP3    H244308   5.152   3.397   5.587  1.0618  0.2599  1.4522
14789TIP3   OH244309   1.275   0.900   3.040  0.2182  0.5142  0.5099
14789TIP3    H144310   1.316   0.903   3.127  0.3341  0.9372  0.4406
14789TIP3    H244311   1.193   0.950   3.051  0.1922  0.4945  0.3980
14790TIP3   OH244312   7.761   1.899   4.829 -0.0856 -0.0496  0.3552
14790TIP3    H144313   7.781   1.974   4.773  1.8162 -0.7630  0.0136
14790TIP3    H244314   7.669   1.911   4.854  0.0160  2.0664 -0.1518
14791TIP3   OH244315   8.172   1.566   5.277 -0.5188 -0.6829 -0.1229
14791TIP3    H144316   8.150   1.520   5.196 -0.5562 -0.4924 -0.2225
14791TIP3    H244317   8.088   1.581   5.320 -1.0334  2.7943 -1.9702
14792TIP3   OH244318   4.530   6.559   5.892  0.0093 -0.3194  0.4979
14792TIP3    H144319   4.609   6.537   5.942  0.1541 -1.4326 -0.1769
14792TIP3    H244320   4.458   6.532   5.949  0.0157  2.0135  1.7331
14793TIP3   OH244321   2.252   2.184   2.895 -0.6513 -0.0483 -0.1134
14793TIP3    H144322   2.272   2.092   2.877 -0.6558 -0.2548  0.8453
14793TIP3    H244323   2.260   2.191   2.990 -4.5743  0.0030  0.3482
14794TIP3   OH244324   2.112   5.679   0.916 -0.3209  0.1513 -0.0273
14794TIP3    H144325   2.039   5.679   0.978  0.0246  0.0316  0.3793
14794TIP3    H244326   2.117   5.589   0.884 -0.5172  0.2192 -0.2514
14795TIP3   OH244327   7.822   4.264   3.855 -0.0926  0.0498 -1.0129
14795TIP3    H144328   7.757   4.287   3.790 -0.8555 -0.5495 -0.4828
14795TIP3    H244329   7.771   4.235   3.931  0.7776  0.2772 -0.3202
14796TIP3   OH244330   7.792   6.562   2.121 -0.6502  0.1717 -0.4128
14796TIP3    H144331   7.776   6.478   2.080 -1.9991  0.3824 -0.3527
14796TIP3    H244332   7.869   6.547   2.176 -0.7657 -0.9698 -0.5326
14797TIP3   OH244333   7.900   7.787   0.111  0.2514  1.0462 -0.0871
14797TIP3    H144334   7.821   7.819   0.068 -1.2913 -1.8137  0.3306
14797TIP3    H244335   7.878   7.787   0.204  0.5590 -0.1130  0.0022
14798TIP3   OH244336   2.970   7.401   1.968  0.2339  0.7635 -0.2673
14798TIP3    H144337   3.048   7.355   2.001  0.7619  1.2971 -0.7518
14798TIP3    H244338   3.005   7.477   1.922 -0.5084  0.2640 -1.7049
14799TIP3   OH244339   7.113   4.480   3.331 -0.4959 -0.0463  0.1951
14799TIP3    H144340   7.197   4.461   3.290  0.7879 -0.1086  2.6365
14799TIP3    H244341   7.102   4.574   3.318 -0.1234 -0.0625 -0.2851
14800TIP3   OH244342   4.229   5.378   4.024 -0.0701  0.2173 -0.2217
14800TIP3    H144343   4.164   5.408   3.960 -0.0250  0.9207  0.0510
14800TIP3    H244344   4.178   5.325   4.085 -0.9357  2.6030  1.3153
14801TIP3   OH244345   3.796   0.174   1.664  0.1519  0.8187 -0.0543
14801TIP3    H144346   3.763   0.254   1.623 -2.1562 -0.3016 -0.5613
14801TIP3    H244347   3.804   0.112   1.592  1.2681  0.3851  0.4301
14802TIP3   OH244348   4.652   0.907   2.534 -0.2479  0.2913 -0.4063
14802TIP3    H144349   4.693   0.867   2.611 -0.2839  1.3525  0.1829
14802TIP3    H244350   4.688   0.996   2.531  1.8636 -0.5160 -3.2121
14803TIP3   OH244351   0.406   4.056   2.431 -0.0533 -0.3663  0.1952
14803TIP3    H144352   0.488   4.074   2.385 -0.9676  2.1920 -0.5803
14803TIP3    H244353   0.407   4.115   2.507 -1.6385  0.5450 -0.4533
14804TIP3   OH244354   2.069   1.214   6.379  0.3976  0.2048  0.5836
14804TIP3    H144355   2.087   1.306   6.360 -1.9732  0.5403 -0.3299
14804TIP3    H244356   2.049   1.175   6.294 -0.9148 -0.5830  1.2184
14805TIP3   OH244357   3.492   6.795   6.730 -0.4333  0.0679  0.2366
14805TIP3    H144358   3.481   6.883   6.694  0.0710  0.2179  0.4293
14805TIP3    H244359   3.454   6.800   6.818 -0.4441  0.0837  0.2307
14806TIP3   OH244360   5.823   2.261   5.765  0.0447  0.2668  0.4892
14806TIP3    H144361   5.872   2.252   5.846  1.2166 -0.5526 -0.2809
14806TIP3    H244362   5.795   2.171   5.743 -2.5155  0.7728  1.2934
14807TIP3   OH244363   4.803   6.805   1.144  0.0043  0.4763  0.5577
14807TIP3    H144364   4.798   6.711   1.164 -1.5979 -0.1965 -2.3624
14807TIP3    H244365   4.896   6.820   1.126  0.3754 -0.3782  1.6423
14808TIP3   OH244366   6.092   5.167   5.656 -0.5170  0.1377 -0.1013
14808TIP3    H144367   6.121   5.086   5.698 -1.0653 -1.3920 -2.4666
14808TIP3    H244368   6.010   5.189   5.699  0.8476  0.9396  2.2930
14809TIP3   OH244369   6.428   5.067   3.323  0.0808  0.4794  0.1689
14809TIP3    H144370   6.446   5.142   3.267  0.8816 -0.8024 -1.3498
14809TIP3    H244371   6.397   4.999   3.263  1.0445 -0.9723  1.2496
14810TIP3   OH244372   0.565   7.506   0.922 -0.5258 -0.3964 -0.2904
14810TIP3    H144373   0.561   7.506   1.018  1.3211 -1.6330 -0.1520
14810TIP3    H244374   0.486   7.552   0.894 -0.3521  1.3604  1.8487
14811TIP3   OH244375   3.949   1.353   4.169  0.1275  0.0746 -0.1593
14811TIP3    H144376   3.857   1.324   4.173  0.0142  0.4930  0.4078
14811TIP3    H244377   3.987   1.323   4.251  0.0924  1.2322  0.2958
14812TIP3   OH244378   4.201   2.401   4.093 -0.0452  0.2791 -0.6374
14812TIP3    H144379   4.173   2.351   4.170 -0.8984 -0.0887 -1.1752
14812TIP3    H244380   4.121   2.412   4.041  0.5150  0.5285 -1.4662
14813TIP3   OH244381   1.104   6.286   6.473 -0.5302 -0.1536  0.5615
14813TIP3    H144382   1.139   6.222   6.535 -3.3659 -2.8065 -0.2900
14813TIP3    H244383   1.037   6.334   6.522 -0.2121  0.3369  0.5192
14814TIP3   OH244384   3.548   1.581   1.615 -0.6016  0.1373 -0.4213
14814TIP3    H144385   3.492   1.603   1.540 -2.2660 -0.1054  0.6844
14814TIP3    H244386   3.509   1.501   1.651  1.0923 -0.6206 -0.1920
14815TIP3   OH244387   8.158   4.451   1.262 -0.1606  0.4715 -0.2977
14815TIP3    H144388   8.143   4.398   1.340  2.0941  1.9236  1.2459
14815TIP3    H244389   8.138   4.541   1.289  0.8103  1.0293 -1.3107
14816TIP3   OH244390   4.197   2.881   4.673 -0.1178  0.0786 -0.0253
14816TIP3    H144391   4.224   2.880   4.765 -2.8516  0.9646  0.8915
14816TIP3    H244392   4.217   2.793   4.641  1.3719 -0.0888  1.2378
14817TIP3   OH244393   2.604   1.847   5.157  0.0320  0.2417 -0.0168
14817TIP3    H144394   2.660   1.865   5.081 -0.4244  2.2950  0.0788
14817TIP3    H244395   2.636   1.907   5.225 -0.2762 -0.7944  1.0713
14818TIP3   OH244396   6.014   4.146   3.985 -0.3546  0.2795 -0.1141
14818TIP3    H144397   6.065   4.086   4.040 -1.3021 -0.1038  0.3735
14818TIP3    H244398   5.934   4.162   4.035 -0.5422  1.1911 -0.6800
14819TIP3   OH244399   2.452   4.225   4.395 -0.0232 -1.1827 -0.4979
14819TIP3    H144400   2.377   4.220   4.337 -2.1988  0.8952  1.9013
14819TIP3    H244401   2.441   4.152   4.456  0.1887 -1.1562 -0.4243
14820TIP3   OH244402   6.497   1.062   6.744 -0.1885 -0.5453 -0.2489
14820TIP3    H144403   6.517   1.092   6.656 -1.8148 -0.2562 -0.5594
14820TIP3    H244404   6.421   1.114   6.771  0.7615 -0.0442  1.6539
14821TIP3   OH244405   7.766   6.965   3.260  0.5909  0.0500 -0.4542
14821TIP3    H144406   7.796   6.882   3.223  0.7958 -0.2433  0.3476
14821TIP3    H244407   7.812   7.032   3.210 -0.1641 -0.2903 -1.6298
14822TIP3   OH244408   2.680   5.036   5.117 -0.1670 -0.4242 -0.4410
14822TIP3    H144409   2.643   5.096   5.182 -0.1189 -0.3698 -0.4640
14822TIP3    H244410   2.640   5.062   5.034 -0.8027 -0.9707 -0.3175
14823TIP3   OH244411   6.163   5.892   4.159  0.4831 -0.0538  0.2423
14823TIP3    H144412   6.220   5.855   4.092 -0.7351  0.2842 -1.0297
14823TIP3    H244413   6.191   5.851   4.241  1.5139 -1.0402 -0.5827
14824TIP3   OH244414   0.359   0.821   3.114 -0.3247 -0.9286  0.3619
14824TIP3    H144415   0.378   0.851   3.025 -0.6469  1.6683  1.0921
14824TIP3    H244416   0.441   0.836   3.161 -0.7526 -0.3622  0.9375
14825TIP3   OH244417   8.157   7.736   5.596 -0.0438 -0.0051  0.0806
14825TIP3    H144418   8.252   7.752   5.594 -0.1202  0.4015 -1.2509
14825TIP3    H244419   8.149   7.643   5.613  0.5939 -0.0396  0.2256
14826TIP3   OH244420   3.920   2.742   2.440  0.0882 -0.5703 -0.4748
14826TIP3    H144421   3.827   2.738   2.462  0.2787 -1.0100  0.3049
14826TIP3    H244422   3.961   2.676   2.497  1.1889  1.1274  0.7958
14827TIP3   OH244423   1.137   7.751   6.254 -0.3989  0.7035 -0.6248
14827TIP3    H144424   1.050   7.738   6.291  0.4647  2.0611  2.1021
14827TIP3    H244425   1.148   7.846   6.251  1.9257  0.6112  1.6425
14828TIP3   OH244426   0.450   6.264   1.936 -0.1833  0.0617 -0.0748
14828TIP3    H144427   0.423   6.295   2.022 -1.8623 -0.1053 -0.5089
14828TIP3    H244428   0.494   6.340   1.896  0.7264  0.1006  0.9408
14829TIP3   OH244429   4.153   2.826   1.128  0.9863  0.0202 -0.2819
14829TIP3    H144430   4.137   2.759   1.062 -1.1811  0.3501 -0.1588
14829TIP3    H244431   4.190   2.899   1.079 -0.8082  0.3475 -1.2336
14830TIP3   OH244432   0.262   7.058   4.815  0.9075  0.3776 -0.1112
14830TIP3    H144433   0.183   7.085   4.769  1.4008  1.1501 -0.5386
14830TIP3    H244434   0.258   6.962   4.816  0.0936  0.4022 -0.3393
   8.29830   7.82371   6.77553   0.00000   0.00000  -2.76609   0.00000  -2.76609  -3.91185
