Title t= 139.00000 step= 69500
29212
    1ASP      N    1   1.967   1.285   2.069
    1ASP    HT1    2   1.956   1.352   2.148
    1ASP    HT2    3   2.036   1.327   2.005
    1ASP    HT3    4   1.997   1.195   2.111
    1ASP     CA    5   1.825   1.265   2.003
    1ASP     HA    6   1.804   1.357   1.952
    1ASP     CB    7   1.832   1.149   1.896
    1ASP    HB1    8   1.731   1.111   1.867
    1ASP    HB2    9   1.895   1.063   1.926
    1ASP     CG   10   1.901   1.200   1.777
    1ASP    OD1   11   1.958   1.312   1.775
    1ASP    OD2   12   1.920   1.131   1.671
    1ASP      C   13   1.721   1.243   2.115
    1ASP      O   14   1.703   1.325   2.201
    2GLY      N   15   1.644   1.132   2.107
    2GLY     HN   16   1.643   1.072   2.027
    2GLY     CA   17   1.525   1.112   2.192
    2GLY    HA1   18   1.543   1.127   2.297
    2GLY    HA2   19   1.487   1.014   2.167
    2GLY      C   20   1.417   1.210   2.142
    2GLY      O   21   1.436   1.292   2.052
    3ASP      N   22   1.304   1.196   2.213
    3ASP     HN   23   1.293   1.131   2.287
    3ASP     CA   24   1.193   1.291   2.201
    3ASP     HA   25   1.162   1.289   2.098
    3ASP     CB   26   1.060   1.246   2.269
    3ASP    HB1   27   0.993   1.334   2.265
    3ASP    HB2   28   1.072   1.219   2.376
    3ASP     CG   29   0.999   1.124   2.193
    3ASP    OD1   30   0.934   1.038   2.257
    3ASP    OD2   31   1.000   1.122   2.064
    3ASP      C   32   1.215   1.442   2.215
    3ASP      O   33   1.299   1.479   2.295
    4GLY      N   34   1.142   1.528   2.147
    4GLY     HN   35   1.073   1.487   2.088
    4GLY     CA   36   1.149   1.672   2.164
    4GLY    HA1   37   1.089   1.718   2.087
    4GLY    HA2   38   1.253   1.702   2.156
    4GLY      C   39   1.097   1.719   2.298
    4GLY      O   40   1.006   1.654   2.357
    5PRO      N   41   1.147   1.829   2.363
    5PRO     CD   42   1.282   1.884   2.343
    5PRO    HD1   43   1.288   1.956   2.258
    5PRO    HD2   44   1.352   1.799   2.333
    5PRO     CA   45   1.081   1.886   2.483
    5PRO     HA   46   1.076   1.813   2.562
    5PRO     CB   47   1.164   2.008   2.512
    5PRO    HB1   48   1.160   2.046   2.616
    5PRO    HB2   49   1.147   2.090   2.440
    5PRO     CG   50   1.302   1.955   2.481
    5PRO    HG1   51   1.380   2.033   2.476
    5PRO    HG2   52   1.335   1.871   2.546
    5PRO      C   53   0.944   1.928   2.447
    5PRO      O   54   0.925   1.997   2.349
    6GLY      N   55   0.845   1.877   2.528
    6GLY     HN   56   0.875   1.814   2.599
    6GLY     CA   57   0.705   1.918   2.535
    6GLY    HA1   58   0.657   1.825   2.561
    6GLY    HA2   59   0.673   1.967   2.444
    6GLY      C   60   0.689   2.009   2.651
    6GLY      O   61   0.768   2.102   2.680
    7ASP      N   62   0.585   1.987   2.732
    7ASP     HN   63   0.519   1.919   2.703
    7ASP     CA   64   0.574   2.052   2.859
    7ASP     HA   65   0.569   2.155   2.826
    7ASP     CB   66   0.436   2.010   2.921
    7ASP    HB1   67   0.438   2.020   3.032
    7ASP    HB2   68   0.424   1.900   2.904
    7ASP     CG   69   0.317   2.081   2.867
    7ASP    OD1   70   0.206   2.024   2.889
    7ASP    OD2   71   0.321   2.185   2.799
    7ASP      C   72   0.689   2.049   2.958
    7ASP      O   73   0.769   1.955   2.960
    8PRO      N   74   0.693   2.151   3.040
    8PRO     CD   75   0.609   2.267   3.035
    8PRO    HD1   76   0.504   2.243   3.061
    8PRO    HD2   77   0.612   2.310   2.932
    8PRO     CA   78   0.775   2.160   3.159
    8PRO     HA   79   0.873   2.190   3.124
    8PRO     CB   80   0.716   2.282   3.239
    8PRO    HB1   81   0.788   2.333   3.306
    8PRO    HB2   82   0.631   2.247   3.301
    8PRO     CG   83   0.669   2.370   3.130
    8PRO    HG1   84   0.600   2.451   3.161
    8PRO    HG2   85   0.753   2.414   3.073
    8PRO      C   86   0.789   2.036   3.249
    8PRO      O   87   0.690   1.966   3.267
    9GLY      N   88   0.912   2.011   3.305
    9GLY     HN   89   0.992   2.068   3.285
    9GLY     CA   90   0.957   1.894   3.379
    9GLY    HA1   91   1.058   1.920   3.410
    9GLY    HA2   92   0.953   1.815   3.306
    9GLY      C   93   0.876   1.860   3.501
    9GLY      O   94   0.815   1.940   3.571
   10ASP      N   95   0.870   1.727   3.527
   10ASP     HN   96   0.910   1.660   3.465
   10ASP     CA   97   0.782   1.679   3.628
   10ASP     HA   98   0.704   1.751   3.646
   10ASP     CB   99   0.723   1.541   3.599
   10ASP    HB1  100   0.647   1.521   3.677
   10ASP    HB2  101   0.796   1.459   3.583
   10ASP     CG  102   0.636   1.533   3.472
   10ASP    OD1  103   0.604   1.633   3.409
   10ASP    OD2  104   0.587   1.427   3.437
   10ASP      C  105   0.854   1.668   3.765
   10ASP      O  106   0.794   1.645   3.869
   11GLY      N  107   0.987   1.695   3.762
   11GLY     HN  108   1.040   1.705   3.678
   11GLY     CA  109   1.076   1.694   3.875
   11GLY    HA1  110   1.021   1.739   3.957
   11GLY    HA2  111   1.174   1.733   3.854
   11GLY      C  112   1.102   1.552   3.925
   11GLY    OT1  113   1.160   1.475   3.849
   11GLY    OT2  114   1.088   1.521   4.049
   12LIT    LIT  115   4.206   5.615   1.912
   13LIT    LIT  116   1.321   2.501   5.591
   14LIT    LIT  117   3.738   0.550   0.093
   15LIT    LIT  118   3.718   2.197   2.743
   16LIT    LIT  119   1.169   1.344   4.005
   17LIT    LIT  120   2.633   5.389   4.573
   18LIT    LIT  121   1.259   0.923   4.254
   19LIT    LIT  122   4.222   0.280   0.615
   20LIT    LIT  123   6.783   1.925   3.894
   21LIT    LIT  124   2.387   0.126   2.367
   22LIT    LIT  125   5.270   4.627   0.212
   23LIT    LIT  126   4.062   4.603   5.523
   24LIT    LIT  127   6.699   4.048   2.271
   25LIT    LIT  128   0.128   2.127   2.748
   26LIT    LIT  129   0.454   1.531   3.319
   27LIT    LIT  130   4.208   1.761   4.821
   28LIT    LIT  131   0.228   5.177   5.772
   29LIT    LIT  132   0.936   2.631   2.998
   30LIT    LIT  133   0.019   2.627   2.014
   31LIT    LIT  134   3.968   0.857   2.143
   32LIT    LIT  135   0.152   2.188   1.239
   33LIT    LIT  136   4.621   3.562   1.630
   34LIT    LIT  137   4.567   2.062   3.884
   35LIT    LIT  138   1.305   2.082   1.942
   36LIT    LIT  139   6.688   6.158   0.165
   37LIT    LIT  140   3.171   5.059   1.559
   38LIT    LIT  141   7.086   1.345   5.829
   39LIT    LIT  142   2.066   1.275   1.617
   40LIT    LIT  143   4.880   0.170   2.865
   41LIT    LIT  144   3.231   0.987   2.706
   42LIT    LIT  145   0.857   0.973   2.094
   43CLA    CLA  146   5.054   0.315   2.807
   44CLA    CLA  147   6.826   1.227   3.998
   45CLA    CLA  148   2.367   2.419   5.304
   46CLA    CLA  149   5.232   3.690   0.379
   47CLA    CLA  150   0.041   2.281   2.293
   48CLA    CLA  151   3.400   2.664   4.543
   49CLA    CLA  152   3.303   4.728   3.037
   50CLA    CLA  153   3.502   5.858   0.631
   51CLA    CLA  154   7.125   2.490   1.298
   52CLA    CLA  155   4.656   5.078   4.194
   53CLA    CLA  156   4.442   3.930   0.948
   54CLA    CLA  157   4.239   2.022   2.300
   55CLA    CLA  158   6.658   2.539   4.194
   56CLA    CLA  159   1.457   3.710   1.083
   57CLA    CLA  160   6.683   1.003   3.205
   58CLA    CLA  161   4.463   3.648   1.785
   59CLA    CLA  162   7.214   4.428   5.154
   60CLA    CLA  163   1.536   0.620   4.886
   61CLA    CLA  164   0.872   0.356   0.372
   62CLA    CLA  165   0.855   3.141   5.720
   63CLA    CLA  166   1.259   0.417   1.547
   64CLA    CLA  167   6.940   5.224   4.971
   65CLA    CLA  168   6.551   4.799   2.331
   66CLA    CLA  169   3.814   0.808   4.029
   67CLA    CLA  170   5.417   2.882   1.923
   68CLA    CLA  171   1.187   2.407   2.625
   69CLA    CLA  172   4.265   4.363   1.231
   70TIP3   OH2  173   0.552   6.493   5.925
   70TIP3    H1  174   0.642   6.470   5.949
   70TIP3    H2  175   0.559   6.578   5.881
   71TIP3   OH2  176   3.706   0.394   2.943
   71TIP3    H1  177   3.620   0.427   2.968
   71TIP3    H2  178   3.742   0.462   2.886
   72TIP3   OH2  179   3.882   3.015   4.851
   72TIP3    H1  180   3.839   2.934   4.822
   72TIP3    H2  181   3.948   2.986   4.914
   73TIP3   OH2  182   2.979   2.673   0.646
   73TIP3    H1  183   3.048   2.739   0.657
   73TIP3    H2  184   2.945   2.659   0.734
   74TIP3   OH2  185   4.573   4.998   3.630
   74TIP3    H1  186   4.647   4.979   3.687
   74TIP3    H2  187   4.607   4.986   3.541
   75TIP3   OH2  188   4.130   3.562   2.098
   75TIP3    H1  189   4.056   3.615   2.128
   75TIP3    H2  190   4.090   3.485   2.059
   76TIP3   OH2  191   2.090   6.579   5.379
   76TIP3    H1  192   2.108   6.604   5.289
   76TIP3    H2  193   2.164   6.526   5.406
   77TIP3   OH2  194   4.502   2.584   2.537
   77TIP3    H1  195   4.415   2.621   2.554
   77TIP3    H2  196   4.485   2.506   2.484
   78TIP3   OH2  197   5.885   0.653   4.565
   78TIP3    H1  198   5.818   0.656   4.634
   78TIP3    H2  199   5.968   0.663   4.611
   79TIP3   OH2  200   1.856   4.384   4.697
   79TIP3    H1  201   1.782   4.424   4.652
   79TIP3    H2  202   1.829   4.293   4.711
   80TIP3   OH2  203   5.617   3.865   5.607
   80TIP3    H1  204   5.705   3.867   5.646
   80TIP3    H2  205   5.606   3.774   5.578
   81TIP3   OH2  206   5.785   2.497   2.502
   81TIP3    H1  207   5.827   2.418   2.536
   81TIP3    H2  208   5.692   2.481   2.512
   82TIP3   OH2  209   4.097   6.521   2.296
   82TIP3    H1  210   4.149   6.523   2.216
   82TIP3    H2  211   4.033   6.451   2.282
   83TIP3   OH2  212   0.989   3.089   1.835
   83TIP3    H1  213   1.040   3.043   1.901
   83TIP3    H2  214   1.025   3.178   1.834
   84TIP3   OH2  215   3.778   6.151   2.119
   84TIP3    H1  216   3.783   6.167   2.025
   84TIP3    H2  217   3.685   6.160   2.140
   85TIP3   OH2  218   4.424   2.576   3.408
   85TIP3    H1  219   4.469   2.660   3.415
   85TIP3    H2  220   4.335   2.598   3.379
   86TIP3   OH2  221   6.589   0.720   3.516
   86TIP3    H1  222   6.561   0.645   3.570
   86TIP3    H2  223   6.511   0.776   3.511
   87TIP3   OH2  224   2.105   6.387   1.804
   87TIP3    H1  225   2.035   6.442   1.840
   87TIP3    H2  226   2.185   6.435   1.826
   88TIP3   OH2  227   6.427   3.890   5.730
   88TIP3    H1  228   6.399   3.975   5.765
   88TIP3    H2  229   6.443   3.907   5.637
   89TIP3   OH2  230   0.369   4.429   3.514
   89TIP3    H1  231   0.313   4.484   3.570
   89TIP3    H2  232   0.446   4.412   3.568
   90TIP3   OH2  233   3.252   6.011   4.780
   90TIP3    H1  234   3.252   5.973   4.868
   90TIP3    H2  235   3.314   6.084   4.786
   91TIP3   OH2  236   1.311   1.591   4.188
   91TIP3    H1  237   1.234   1.564   4.138
   91TIP3    H2  238   1.369   1.630   4.123
   92TIP3   OH2  239   2.929   0.057   1.271
   92TIP3    H1  240   3.015   0.018   1.287
   92TIP3    H2  241   2.882   0.046   1.353
   93TIP3   OH2  242   1.565   4.942   4.197
   93TIP3    H1  243   1.606   4.856   4.205
   93TIP3    H2  244   1.603   4.994   4.267
   94TIP3   OH2  245   4.171   2.318   1.634
   94TIP3    H1  246   4.199   2.273   1.554
   94TIP3    H2  247   4.136   2.402   1.604
   95TIP3   OH2  248   6.747   0.967   0.169
   95TIP3    H1  249   6.679   0.908   0.136
   95TIP3    H2  250   6.799   0.913   0.228
   96TIP3   OH2  251   1.005   1.408   1.156
   96TIP3    H1  252   1.042   1.322   1.136
   96TIP3    H2  253   0.910   1.394   1.160
   97TIP3   OH2  254   4.699   6.474   5.169
   97TIP3    H1  255   4.777   6.419   5.162
   97TIP3    H2  256   4.728   6.551   5.218
   98TIP3   OH2  257   6.868   2.230   0.944
   98TIP3    H1  258   6.898   2.305   0.893
   98TIP3    H2  259   6.946   2.198   0.988
   99TIP3   OH2  260   7.062   5.718   2.348
   99TIP3    H1  261   7.070   5.630   2.384
   99TIP3    H2  262   7.045   5.773   2.425
  100TIP3   OH2  263   3.437   1.127   5.609
  100TIP3    H1  264   3.526   1.109   5.580
  100TIP3    H2  265   3.414   1.052   5.664
  101TIP3   OH2  266   1.559   4.393   5.164
  101TIP3    H1  267   1.596   4.306   5.181
  101TIP3    H2  268   1.488   4.402   5.228
  102TIP3   OH2  269   3.887   2.285   3.846
  102TIP3    H1  270   3.841   2.345   3.786
  102TIP3    H2  271   3.860   2.312   3.933
  103TIP3   OH2  272   3.806   5.503   1.563
  103TIP3    H1  273   3.785   5.535   1.651
  103TIP3    H2  274   3.863   5.427   1.578
  104TIP3   OH2  275   5.613   1.285   5.525
  104TIP3    H1  276   5.694   1.261   5.571
  104TIP3    H2  277   5.612   1.380   5.526
  105TIP3   OH2  278   6.577   5.105   1.122
  105TIP3    H1  279   6.541   5.027   1.079
  105TIP3    H2  280   6.672   5.096   1.112
  106TIP3   OH2  281   3.491   1.629   4.903
  106TIP3    H1  282   3.498   1.645   4.997
  106TIP3    H2  283   3.460   1.712   4.867
  107TIP3   OH2  284   4.552   1.121   1.072
  107TIP3    H1  285   4.614   1.085   1.008
  107TIP3    H2  286   4.602   1.126   1.154
  108TIP3   OH2  287   3.052   1.085   1.790
  108TIP3    H1  288   3.084   1.043   1.711
  108TIP3    H2  289   3.075   1.177   1.780
  109TIP3   OH2  290   2.363   0.230   1.173
  109TIP3    H1  291   2.268   0.221   1.180
  109TIP3    H2  292   2.392   0.244   1.263
  110TIP3   OH2  293   5.930   6.679   1.600
  110TIP3    H1  294   5.987   6.663   1.676
  110TIP3    H2  295   5.871   6.748   1.628
  111TIP3   OH2  296   1.748   2.950   4.892
  111TIP3    H1  297   1.727   2.987   4.806
  111TIP3    H2  298   1.823   2.893   4.876
  112TIP3   OH2  299   6.506   0.871   5.067
  112TIP3    H1  300   6.506   0.789   5.018
  112TIP3    H2  301   6.584   0.866   5.121
  113TIP3   OH2  302   3.945   5.572   2.176
  113TIP3    H1  303   4.037   5.586   2.198
  113TIP3    H2  304   3.936   5.477   2.168
  114TIP3   OH2  305   3.272   1.312   5.373
  114TIP3    H1  306   3.205   1.371   5.405
  114TIP3    H2  307   3.226   1.253   5.313
  115TIP3   OH2  308   3.619   1.372   5.645
  115TIP3    H1  309   3.652   1.398   5.559
  115TIP3    H2  310   3.524   1.366   5.633
  116TIP3   OH2  311   5.284   4.572   1.110
  116TIP3    H1  312   5.303   4.486   1.074
  116TIP3    H2  313   5.337   4.578   1.189
  117TIP3   OH2  314   1.828   6.216   2.235
  117TIP3    H1  315   1.757   6.165   2.273
  117TIP3    H2  316   1.857   6.166   2.159
  118TIP3   OH2  317   6.124   3.827   2.705
  118TIP3    H1  318   6.052   3.872   2.660
  118TIP3    H2  319   6.108   3.734   2.689
  119TIP3   OH2  320   3.049   0.505   1.093
  119TIP3    H1  321   3.020   0.424   1.135
  119TIP3    H2  322   3.084   0.477   1.009
  120TIP3   OH2  323   2.930   0.842   3.067
  120TIP3    H1  324   3.002   0.835   3.130
  120TIP3    H2  325   2.955   0.782   2.996
  121TIP3   OH2  326   1.413   6.536   1.964
  121TIP3    H1  327   1.480   6.484   2.008
  121TIP3    H2  328   1.382   6.596   2.031
  122TIP3   OH2  329   5.015   2.510   4.077
  122TIP3    H1  330   5.090   2.482   4.025
  122TIP3    H2  331   5.043   2.591   4.118
  123TIP3   OH2  332   0.910   5.397   4.552
  123TIP3    H1  333   0.947   5.375   4.637
  123TIP3    H2  334   0.929   5.490   4.541
  124TIP3   OH2  335   6.073   1.154   3.003
  124TIP3    H1  336   6.127   1.090   3.050
  124TIP3    H2  337   6.127   1.233   2.999
  125TIP3   OH2  338   5.104   1.985   3.642
  125TIP3    H1  339   5.087   1.936   3.723
  125TIP3    H2  340   5.192   1.956   3.615
  126TIP3   OH2  341   0.421   6.386   2.532
  126TIP3    H1  342   0.358   6.348   2.592
  126TIP3    H2  343   0.498   6.330   2.539
  127TIP3   OH2  344   5.501   4.315   0.203
  127TIP3    H1  345   5.577   4.285   0.253
  127TIP3    H2  346   5.435   4.247   0.217
  128TIP3   OH2  347   3.389   3.360   2.699
  128TIP3    H1  348   3.436   3.356   2.616
  128TIP3    H2  349   3.379   3.453   2.718
  129TIP3   OH2  350   1.956   1.241   3.791
  129TIP3    H1  351   1.894   1.305   3.758
  129TIP3    H2  352   2.033   1.250   3.734
  130TIP3   OH2  353   7.259   4.982   4.452
  130TIP3    H1  354   7.269   5.026   4.367
  130TIP3    H2  355   7.253   5.053   4.515
  131TIP3   OH2  356   0.618   3.355   0.259
  131TIP3    H1  357   0.672   3.415   0.311
  131TIP3    H2  358   0.634   3.382   0.168
  132TIP3   OH2  359   6.229   1.327   5.284
  132TIP3    H1  360   6.211   1.318   5.190
  132TIP3    H2  361   6.192   1.412   5.307
  133TIP3   OH2  362   5.220   2.326   3.920
  133TIP3    H1  363   5.316   2.334   3.917
  133TIP3    H2  364   5.190   2.386   3.851
  134TIP3   OH2  365   1.526   2.318   2.355
  134TIP3    H1  366   1.614   2.354   2.363
  134TIP3    H2  367   1.535   2.246   2.292
  135TIP3   OH2  368   1.863   4.733   4.288
  135TIP3    H1  369   1.777   4.728   4.329
  135TIP3    H2  370   1.852   4.792   4.213
  136TIP3   OH2  371   6.537   4.273   5.316
  136TIP3    H1  372   6.533   4.178   5.306
  136TIP3    H2  373   6.602   4.301   5.251
  137TIP3   OH2  374   2.183   1.294   0.293
  137TIP3    H1  375   2.140   1.232   0.235
  137TIP3    H2  376   2.124   1.302   0.368
  138TIP3   OH2  377   5.631   1.133   3.505
  138TIP3    H1  378   5.610   1.135   3.599
  138TIP3    H2  379   5.559   1.180   3.463
  139TIP3   OH2  380   6.396   1.510   4.891
  139TIP3    H1  381   6.308   1.546   4.900
  139TIP3    H2  382   6.429   1.547   4.809
  140TIP3   OH2  383   1.369   1.095   1.072
  140TIP3    H1  384   1.306   1.066   1.138
  140TIP3    H2  385   1.331   1.067   0.989
  141TIP3   OH2  386   0.462   1.067   2.201
  141TIP3    H1  387   0.399   1.135   2.181
  141TIP3    H2  388   0.417   0.985   2.181
  142TIP3   OH2  389   3.154   0.174   4.665
  142TIP3    H1  390   3.129   0.138   4.580
  142TIP3    H2  391   3.242   0.140   4.680
  143TIP3   OH2  392   2.785   0.238   3.226
  143TIP3    H1  393   2.758   0.175   3.159
  143TIP3    H2  394   2.860   0.196   3.269
  144TIP3   OH2  395   5.863   2.693   4.929
  144TIP3    H1  396   5.771   2.689   4.904
  144TIP3    H2  397   5.885   2.786   4.926
  145TIP3   OH2  398   2.712   2.321   2.092
  145TIP3    H1  399   2.714   2.358   2.180
  145TIP3    H2  400   2.770   2.376   2.041
  146TIP3   OH2  401   3.779   5.355   0.833
  146TIP3    H1  402   3.735   5.361   0.917
  146TIP3    H2  403   3.746   5.430   0.783
  147TIP3   OH2  404   3.814   0.697   3.030
  147TIP3    H1  405   3.784   0.665   2.945
  147TIP3    H2  406   3.804   0.792   3.024
  148TIP3   OH2  407   6.601   0.322   5.427
  148TIP3    H1  408   6.647   0.312   5.343
  148TIP3    H2  409   6.509   0.308   5.406
  149TIP3   OH2  410   4.789   6.726   4.351
  149TIP3    H1  411   4.760   6.812   4.382
  149TIP3    H2  412   4.798   6.674   4.431
  150TIP3   OH2  413   7.119   6.345   0.987
  150TIP3    H1  414   7.154   6.432   1.011
  150TIP3    H2  415   7.107   6.349   0.893
  151TIP3   OH2  416   2.251   5.870   3.742
  151TIP3    H1  417   2.310   5.858   3.817
  151TIP3    H2  418   2.292   5.819   3.672
  152TIP3   OH2  419   2.214   0.097   0.011
  152TIP3    H1  420   2.247   0.159  -0.055
  152TIP3    H2  421   2.253   0.013  -0.013
  153TIP3   OH2  422   3.000   2.217   3.733
  153TIP3    H1  423   2.960   2.301   3.756
  153TIP3    H2  424   3.074   2.209   3.793
  154TIP3   OH2  425   6.231   6.464   3.246
  154TIP3    H1  426   6.171   6.389   3.250
  154TIP3    H2  427   6.198   6.517   3.174
  155TIP3   OH2  428   3.959   5.690   5.551
  155TIP3    H1  429   3.906   5.638   5.491
  155TIP3    H2  430   4.033   5.719   5.498
  156TIP3   OH2  431   3.370   3.032   3.200
  156TIP3    H1  432   3.426   2.992   3.267
  156TIP3    H2  433   3.431   3.063   3.133
  157TIP3   OH2  434   6.867   3.237   3.439
  157TIP3    H1  435   6.899   3.186   3.365
  157TIP3    H2  436   6.772   3.239   3.428
  158TIP3   OH2  437   2.388   0.177   4.270
  158TIP3    H1  438   2.300   0.188   4.234
  158TIP3    H2  439   2.377   0.187   4.364
  159TIP3   OH2  440   5.760   0.748   1.122
  159TIP3    H1  441   5.853   0.757   1.145
  159TIP3    H2  442   5.715   0.742   1.206
  160TIP3   OH2  443   6.631   2.390   5.422
  160TIP3    H1  444   6.626   2.386   5.518
  160TIP3    H2  445   6.678   2.471   5.404
  161TIP3   OH2  446   5.087   2.167   1.122
  161TIP3    H1  447   5.060   2.247   1.077
  161TIP3    H2  448   5.158   2.132   1.067
  162TIP3   OH2  449   2.267   6.584   3.716
  162TIP3    H1  450   2.221   6.575   3.799
  162TIP3    H2  451   2.350   6.538   3.729
  163TIP3   OH2  452   3.452   1.374   4.852
  163TIP3    H1  453   3.474   1.466   4.864
  163TIP3    H2  454   3.369   1.363   4.899
  164TIP3   OH2  455   5.464   5.121   0.687
  164TIP3    H1  456   5.449   5.197   0.744
  164TIP3    H2  457   5.522   5.065   0.739
  165TIP3   OH2  458   5.181   1.394   5.897
  165TIP3    H1  459   5.163   1.487   5.914
  165TIP3    H2  460   5.257   1.375   5.951
  166TIP3   OH2  461   5.596   6.164   5.609
  166TIP3    H1  462   5.541   6.171   5.687
  166TIP3    H2  463   5.680   6.134   5.642
  167TIP3   OH2  464   5.335   2.007   2.006
  167TIP3    H1  465   5.296   1.929   1.967
  167TIP3    H2  466   5.372   1.977   2.089
  168TIP3   OH2  467   6.517   5.041   1.382
  168TIP3    H1  468   6.424   5.064   1.387
  168TIP3    H2  469   6.539   5.049   1.289
  169TIP3   OH2  470   6.039   4.222   1.425
  169TIP3    H1  471   6.021   4.268   1.344
  169TIP3    H2  472   6.090   4.146   1.399
  170TIP3   OH2  473   4.698   1.326   1.417
  170TIP3    H1  474   4.767   1.262   1.434
  170TIP3    H2  475   4.731   1.378   1.343
  171TIP3   OH2  476   1.115   0.818   0.273
  171TIP3    H1  477   1.091   0.792   0.361
  171TIP3    H2  478   1.205   0.851   0.281
  172TIP3   OH2  479   6.243   1.278   5.025
  172TIP3    H1  480   6.320   1.222   5.023
  172TIP3    H2  481   6.262   1.347   4.962
  173TIP3   OH2  482   6.520   1.135   3.985
  173TIP3    H1  483   6.543   1.043   3.967
  173TIP3    H2  484   6.592   1.185   3.946
  174TIP3   OH2  485   1.436   2.928   1.501
  174TIP3    H1  486   1.531   2.935   1.512
  174TIP3    H2  487   1.403   3.014   1.526
  175TIP3   OH2  488   2.908   6.787   1.206
  175TIP3    H1  489   2.948   6.818   1.287
  175TIP3    H2  490   2.814   6.784   1.225
  176TIP3   OH2  491   3.598   2.174   0.237
  176TIP3    H1  492   3.688   2.195   0.264
  176TIP3    H2  493   3.544   2.200   0.311
  177TIP3   OH2  494   1.445   2.910  -0.050
  177TIP3    H1  495   1.518   2.890  -0.108
  177TIP3    H2  496   1.392   2.831  -0.050
  178TIP3   OH2  497   2.195   3.260   2.329
  178TIP3    H1  498   2.217   3.283   2.419
  178TIP3    H2  499   2.272   3.285   2.278
  179TIP3   OH2  500   2.297   0.604   4.668
  179TIP3    H1  501   2.234   0.533   4.661
  179TIP3    H2  502   2.252   0.673   4.717
  180TIP3   OH2  503   2.855   2.904   3.972
  180TIP3    H1  504   2.937   2.951   3.957
  180TIP3    H2  505   2.838   2.913   4.065
  181TIP3   OH2  506   0.324   2.311   2.182
  181TIP3    H1  507   0.241   2.324   2.229
  181TIP3    H2  508   0.392   2.329   2.247
  182TIP3   OH2  509   0.569   1.200   2.806
  182TIP3    H1  510   0.491   1.215   2.753
  182TIP3    H2  511   0.541   1.136   2.872
  183TIP3   OH2  512   2.558   5.180   4.127
  183TIP3    H1  513   2.589   5.118   4.060
  183TIP3    H2  514   2.464   5.188   4.110
  184TIP3   OH2  515   1.030   4.815   4.378
  184TIP3    H1  516   1.039   4.726   4.344
  184TIP3    H2  517   1.106   4.826   4.436
  185TIP3   OH2  518   5.540   4.929   5.724
  185TIP3    H1  519   5.569   4.849   5.768
  185TIP3    H2  520   5.620   4.977   5.706
  186TIP3   OH2  521   3.673   3.428   3.853
  186TIP3    H1  522   3.755   3.452   3.897
  186TIP3    H2  523   3.606   3.438   3.921
  187TIP3   OH2  524   6.171   6.223   4.497
  187TIP3    H1  525   6.112   6.161   4.455
  187TIP3    H2  526   6.258   6.198   4.465
  188TIP3   OH2  527   0.688   5.687   1.587
  188TIP3    H1  528   0.740   5.763   1.563
  188TIP3    H2  529   0.602   5.722   1.609
  189TIP3   OH2  530   5.823   1.139   4.807
  189TIP3    H1  531   5.866   1.103   4.729
  189TIP3    H2  532   5.888   1.128   4.877
  190TIP3   OH2  533   7.004   6.672   5.046
  190TIP3    H1  534   7.034   6.627   5.125
  190TIP3    H2  535   7.061   6.749   5.039
  191TIP3   OH2  536   2.692   6.616   2.962
  191TIP3    H1  537   2.716   6.683   2.898
  191TIP3    H2  538   2.754   6.629   3.034
  192TIP3   OH2  539   4.675   4.926   0.920
  192TIP3    H1  540   4.629   4.921   0.836
  192TIP3    H2  541   4.762   4.890   0.902
  193TIP3   OH2  542   4.162   1.362   5.281
  193TIP3    H1  543   4.121   1.443   5.311
  193TIP3    H2  544   4.115   1.293   5.327
  194TIP3   OH2  545   1.961   5.101   1.787
  194TIP3    H1  546   1.919   5.036   1.730
  194TIP3    H2  547   1.941   5.072   1.875
  195TIP3   OH2  548   6.401   0.875   3.335
  195TIP3    H1  549   6.481   0.927   3.325
  195TIP3    H2  550   6.423   0.790   3.296
  196TIP3   OH2  551   6.209   2.041   5.229
  196TIP3    H1  552   6.150   2.116   5.228
  196TIP3    H2  553   6.261   2.052   5.309
  197TIP3   OH2  554   6.480   5.374   5.150
  197TIP3    H1  555   6.481   5.279   5.146
  197TIP3    H2  556   6.442   5.394   5.236
  198TIP3   OH2  557   1.964   6.419   0.324
  198TIP3    H1  558   1.976   6.494   0.383
  198TIP3    H2  559   1.948   6.345   0.382
  199TIP3   OH2  560   4.598   2.079   1.967
  199TIP3    H1  561   4.672   2.134   1.993
  199TIP3    H2  562   4.636   2.013   1.908
  200TIP3   OH2  563   3.888   2.748   3.313
  200TIP3    H1  564   3.907   2.667   3.361
  200TIP3    H2  565   3.900   2.818   3.378
  201TIP3   OH2  566   1.466   4.173   3.233
  201TIP3    H1  567   1.551   4.206   3.264
  201TIP3    H2  568   1.413   4.252   3.224
  202TIP3   OH2  569   1.484   4.821   2.470
  202TIP3    H1  570   1.573   4.808   2.439
  202TIP3    H2  571   1.453   4.734   2.492
  203TIP3   OH2  572   2.520   1.476   1.224
  203TIP3    H1  573   2.486   1.566   1.216
  203TIP3    H2  574   2.615   1.487   1.229
  204TIP3   OH2  575   2.042   1.196   0.784
  204TIP3    H1  576   1.990   1.249   0.844
  204TIP3    H2  577   2.019   1.228   0.697
  205TIP3   OH2  578   4.734   1.954   4.620
  205TIP3    H1  579   4.805   1.937   4.559
  205TIP3    H2  580   4.708   2.045   4.602
  206TIP3   OH2  581   1.657   3.356   3.565
  206TIP3    H1  582   1.709   3.335   3.642
  206TIP3    H2  583   1.689   3.297   3.497
  207TIP3   OH2  584   0.594   1.253   4.121
  207TIP3    H1  585   0.499   1.258   4.132
  207TIP3    H2  586   0.621   1.343   4.103
  208TIP3   OH2  587   5.373   5.142   4.936
  208TIP3    H1  588   5.403   5.098   5.016
  208TIP3    H2  589   5.454   5.176   4.897
  209TIP3   OH2  590   0.641   5.454   1.980
  209TIP3    H1  591   0.632   5.421   2.070
  209TIP3    H2  592   0.551   5.463   1.949
  210TIP3   OH2  593   6.579   3.842   3.934
  210TIP3    H1  594   6.619   3.819   3.851
  210TIP3    H2  595   6.578   3.938   3.935
  211TIP3   OH2  596   4.865   1.740   2.507
  211TIP3    H1  597   4.873   1.661   2.454
  211TIP3    H2  598   4.870   1.812   2.445
  212TIP3   OH2  599   6.060   5.898   4.060
  212TIP3    H1  600   6.139   5.952   4.067
  212TIP3    H2  601   6.011   5.918   4.139
  213TIP3   OH2  602   1.899   2.440   4.419
  213TIP3    H1  603   1.891   2.385   4.341
  213TIP3    H2  604   1.972   2.403   4.468
  214TIP3   OH2  605   6.244   3.797   3.453
  214TIP3    H1  606   6.217   3.721   3.402
  214TIP3    H2  607   6.162   3.835   3.486
  215TIP3   OH2  608   4.157   6.740   5.426
  215TIP3    H1  609   4.170   6.737   5.521
  215TIP3    H2  610   4.122   6.653   5.405
  216TIP3   OH2  611   6.237   0.949   3.125
  216TIP3    H1  612   6.285   0.934   3.206
  216TIP3    H2  613   6.185   0.870   3.112
  217TIP3   OH2  614   4.773   6.199   0.140
  217TIP3    H1  615   4.867   6.211   0.146
  217TIP3    H2  616   4.751   6.142   0.214
  218TIP3   OH2  617   0.210   1.332   3.624
  218TIP3    H1  618   0.268   1.262   3.654
  218TIP3    H2  619   0.129   1.288   3.599
  219TIP3   OH2  620   3.679   1.533   1.427
  219TIP3    H1  621   3.653   1.530   1.335
  219TIP3    H2  622   3.669   1.442   1.458
  220TIP3   OH2  623   7.124   0.473   1.798
  220TIP3    H1  624   7.145   0.537   1.730
  220TIP3    H2  625   7.207   0.461   1.845
  221TIP3   OH2  626   0.722   3.566   2.960
  221TIP3    H1  627   0.640   3.520   2.978
  221TIP3    H2  628   0.751   3.598   3.045
  222TIP3   OH2  629   5.322   5.707   2.675
  222TIP3    H1  630   5.250   5.730   2.616
  222TIP3    H2  631   5.337   5.786   2.727
  223TIP3   OH2  632   3.520   1.788   4.075
  223TIP3    H1  633   3.432   1.762   4.046
  223TIP3    H2  634   3.517   1.884   4.076
  224TIP3   OH2  635   5.364   3.002   5.243
  224TIP3    H1  636   5.283   3.040   5.208
  224TIP3    H2  637   5.335   2.932   5.301
  225TIP3   OH2  638   4.109   6.204   5.364
  225TIP3    H1  639   4.160   6.278   5.332
  225TIP3    H2  640   4.149   6.127   5.324
  226TIP3   OH2  641   2.461   6.147   5.702
  226TIP3    H1  642   2.458   6.090   5.779
  226TIP3    H2  643   2.383   6.201   5.710
  227TIP3   OH2  644   1.132   6.230   1.173
  227TIP3    H1  645   1.111   6.294   1.241
  227TIP3    H2  646   1.157   6.283   1.098
  228TIP3   OH2  647   5.695   2.747   0.752
  228TIP3    H1  648   5.634   2.687   0.709
  228TIP3    H2  649   5.688   2.725   0.845
  229TIP3   OH2  650   5.010   0.275   4.287
  229TIP3    H1  651   5.005   0.281   4.383
  229TIP3    H2  652   4.973   0.357   4.256
  230TIP3   OH2  653   4.085   0.331   1.577
  230TIP3    H1  654   4.001   0.351   1.617
  230TIP3    H2  655   4.149   0.348   1.646
  231TIP3   OH2  656   2.228   5.791   1.434
  231TIP3    H1  657   2.232   5.884   1.410
  231TIP3    H2  658   2.142   5.762   1.404
  232TIP3   OH2  659   0.357   0.793   3.257
  232TIP3    H1  660   0.274   0.751   3.236
  232TIP3    H2  661   0.423   0.727   3.238
  233TIP3   OH2  662   2.942   0.879   4.727
  233TIP3    H1  663   2.973   0.925   4.805
  233TIP3    H2  664   2.883   0.811   4.761
  234TIP3   OH2  665   4.714   2.440   1.073
  234TIP3    H1  666   4.702   2.383   0.996
  234TIP3    H2  667   4.707   2.529   1.038
  235TIP3   OH2  668   5.354   3.588   2.277
  235TIP3    H1  669   5.287   3.655   2.264
  235TIP3    H2  670   5.329   3.517   2.217
  236TIP3   OH2  671   0.610   5.708   4.568
  236TIP3    H1  672   0.669   5.688   4.495
  236TIP3    H2  673   0.527   5.667   4.542
  237TIP3   OH2  674   7.034   2.567   0.080
  237TIP3    H1  675   6.939   2.560   0.072
  237TIP3    H2  676   7.066   2.553  -0.009
  238TIP3   OH2  677   4.105   3.199   3.617
  238TIP3    H1  678   4.058   3.271   3.576
  238TIP3    H2  679   4.180   3.184   3.560
  239TIP3   OH2  680   5.649   5.599   0.878
  239TIP3    H1  681   5.673   5.506   0.883
  239TIP3    H2  682   5.690   5.638   0.955
  240TIP3   OH2  683   5.036   4.302   1.592
  240TIP3    H1  684   5.007   4.237   1.528
  240TIP3    H2  685   4.955   4.347   1.619
  241TIP3   OH2  686   2.240   4.062   3.475
  241TIP3    H1  687   2.306   4.116   3.520
  241TIP3    H2  688   2.229   4.105   3.390
  242TIP3   OH2  689   5.600   1.855   5.116
  242TIP3    H1  690   5.568   1.886   5.031
  242TIP3    H2  691   5.571   1.764   5.120
  243TIP3   OH2  692   3.496   6.582   0.029
  243TIP3    H1  693   3.476   6.502  -0.020
  243TIP3    H2  694   3.417   6.599   0.080
  244TIP3   OH2  695   0.823   0.326   1.966
  244TIP3    H1  696   0.872   0.251   2.001
  244TIP3    H2  697   0.815   0.387   2.039
  245TIP3   OH2  698   1.172   4.506   4.345
  245TIP3    H1  699   1.241   4.546   4.398
  245TIP3    H2  700   1.207   4.421   4.319
  246TIP3   OH2  701   4.666   4.215   4.557
  246TIP3    H1  702   4.620   4.261   4.628
  246TIP3    H2  703   4.596   4.182   4.501
  247TIP3   OH2  704   5.359   3.406   2.516
  247TIP3    H1  705   5.375   3.471   2.448
  247TIP3    H2  706   5.400   3.441   2.594
  248TIP3   OH2  707   1.615   4.649   4.848
  248TIP3    H1  708   1.633   4.669   4.756
  248TIP3    H2  709   1.634   4.730   4.895
  249TIP3   OH2  710   5.038   5.958   1.218
  249TIP3    H1  711   5.009   6.043   1.188
  249TIP3    H2  712   4.973   5.931   1.283
  250TIP3   OH2  713   3.858   1.712   3.220
  250TIP3    H1  714   3.865   1.630   3.268
  250TIP3    H2  715   3.918   1.702   3.146
  251TIP3   OH2  716   0.946   4.532   1.767
  251TIP3    H1  717   0.955   4.573   1.853
  251TIP3    H2  718   0.853   4.536   1.747
  252TIP3   OH2  719   6.647   6.624   5.485
  252TIP3    H1  720   6.570   6.629   5.428
  252TIP3    H2  721   6.676   6.715   5.493
  253TIP3   OH2  722   3.800   3.078   1.532
  253TIP3    H1  723   3.813   2.984   1.545
  253TIP3    H2  724   3.799   3.114   1.621
  254TIP3   OH2  725   4.520   0.759   5.100
  254TIP3    H1  726   4.456   0.793   5.163
  254TIP3    H2  727   4.470   0.704   5.041
  255TIP3   OH2  728   3.722   4.139   0.271
  255TIP3    H1  729   3.761   4.051   0.274
  255TIP3    H2  730   3.749   4.178   0.355
  256TIP3   OH2  731   4.495   5.279   4.546
  256TIP3    H1  732   4.475   5.298   4.454
  256TIP3    H2  733   4.419   5.231   4.578
  257TIP3   OH2  734   0.325   1.972   5.864
  257TIP3    H1  735   0.346   2.060   5.834
  257TIP3    H2  736   0.268   1.936   5.796
  258TIP3   OH2  737   4.611   3.252   4.203
  258TIP3    H1  738   4.550   3.323   4.223
  258TIP3    H2  739   4.645   3.225   4.289
  259TIP3   OH2  740   2.503   4.621   3.457
  259TIP3    H1  741   2.443   4.659   3.522
  259TIP3    H2  742   2.587   4.618   3.502
  260TIP3   OH2  743   3.610   5.061   0.863
  260TIP3    H1  744   3.692   5.093   0.826
  260TIP3    H2  745   3.542   5.101   0.808
  261TIP3   OH2  746   1.966   1.152   2.453
  261TIP3    H1  747   1.920   1.162   2.537
  261TIP3    H2  748   2.055   1.128   2.478
  262TIP3   OH2  749   3.043   5.460   4.717
  262TIP3    H1  750   3.138   5.453   4.704
  262TIP3    H2  751   3.034   5.519   4.792
  263TIP3   OH2  752   6.297   0.474   4.151
  263TIP3    H1  753   6.355   0.465   4.226
  263TIP3    H2  754   6.239   0.546   4.173
  264TIP3   OH2  755   2.957   6.230   2.273
  264TIP3    H1  756   3.013   6.208   2.199
  264TIP3    H2  757   2.967   6.325   2.284
  265TIP3   OH2  758   7.043   3.597   1.651
  265TIP3    H1  759   7.032   3.664   1.718
  265TIP3    H2  760   6.957   3.557   1.641
  266TIP3   OH2  761   5.876   1.468   1.960
  266TIP3    H1  762   5.854   1.415   1.883
  266TIP3    H2  763   5.821   1.546   1.952
  267TIP3   OH2  764   3.398   5.230   5.130
  267TIP3    H1  765   3.490   5.206   5.122
  267TIP3    H2  766   3.384   5.295   5.062
  268TIP3   OH2  767   5.127   4.315   1.952
  268TIP3    H1  768   5.174   4.384   1.999
  268TIP3    H2  769   5.035   4.331   1.970
  269TIP3   OH2  770   4.317   0.108   5.748
  269TIP3    H1  771   4.247   0.173   5.752
  269TIP3    H2  772   4.358   0.112   5.835
  270TIP3   OH2  773   3.654   2.558   3.079
  270TIP3    H1  774   3.608   2.524   3.156
  270TIP3    H2  775   3.650   2.653   3.090
  271TIP3   OH2  776   5.248   0.383   3.711
  271TIP3    H1  777   5.275   0.317   3.647
  271TIP3    H2  778   5.245   0.464   3.661
  272TIP3   OH2  779   2.452   6.478   5.696
  272TIP3    H1  780   2.459   6.561   5.649
  272TIP3    H2  781   2.491   6.495   5.782
  273TIP3   OH2  782   2.930   2.363   1.462
  273TIP3    H1  783   2.855   2.312   1.491
  273TIP3    H2  784   3.006   2.317   1.498
  274TIP3   OH2  785   6.278   1.732   5.553
  274TIP3    H1  786   6.200   1.688   5.521
  274TIP3    H2  787   6.345   1.664   5.554
  275TIP3   OH2  788   2.078   2.182   4.721
  275TIP3    H1  789   2.100   2.243   4.651
  275TIP3    H2  790   1.983   2.185   4.727
  276TIP3   OH2  791   0.454   3.481   5.359
  276TIP3    H1  792   0.520   3.525   5.413
  276TIP3    H2  793   0.403   3.429   5.420
  277TIP3   OH2  794   4.689   6.349   4.921
  277TIP3    H1  795   4.609   6.300   4.940
  277TIP3    H2  796   4.717   6.383   5.006
  278TIP3   OH2  797   4.881   5.346   5.550
  278TIP3    H1  798   4.880   5.355   5.645
  278TIP3    H2  799   4.910   5.256   5.535
  279TIP3   OH2  800   6.653   2.922   1.537
  279TIP3    H1  801   6.631   2.830   1.552
  279TIP3    H2  802   6.725   2.920   1.474
  280TIP3   OH2  803   6.640   0.342   4.103
  280TIP3    H1  804   6.660   0.420   4.051
  280TIP3    H2  805   6.663   0.269   4.046
  281TIP3   OH2  806   2.621   0.139   3.917
  281TIP3    H1  807   2.661   0.084   3.850
  281TIP3    H2  808   2.611   0.224   3.876
  282TIP3   OH2  809   5.652   5.227   4.804
  282TIP3    H1  810   5.709   5.275   4.864
  282TIP3    H2  811   5.587   5.291   4.776
  283TIP3   OH2  812   0.609   1.185   1.530
  283TIP3    H1  813   0.678   1.189   1.465
  283TIP3    H2  814   0.563   1.103   1.512
  284TIP3   OH2  815   1.156   3.331   5.702
  284TIP3    H1  816   1.108   3.265   5.650
  284TIP3    H2  817   1.156   3.296   5.791
  285TIP3   OH2  818   2.006   0.507   4.129
  285TIP3    H1  819   2.006   0.581   4.068
  285TIP3    H2  820   2.097   0.480   4.133
  286TIP3   OH2  821   2.981   4.274   3.355
  286TIP3    H1  822   3.048   4.336   3.384
  286TIP3    H2  823   2.971   4.291   3.262
  287TIP3   OH2  824   3.585   6.627   3.775
  287TIP3    H1  825   3.662   6.648   3.721
  287TIP3    H2  826   3.510   6.649   3.719
  288TIP3   OH2  827   5.293   2.618   0.699
  288TIP3    H1  828   5.278   2.713   0.698
  288TIP3    H2  829   5.220   2.582   0.648
  289TIP3   OH2  830   3.633   2.864   4.483
  289TIP3    H1  831   3.688   2.856   4.561
  289TIP3    H2  832   3.551   2.820   4.507
  290TIP3   OH2  833   1.851   5.073   2.046
  290TIP3    H1  834   1.799   5.149   2.020
  290TIP3    H2  835   1.826   5.058   2.138
  291TIP3   OH2  836   6.634   2.568   0.469
  291TIP3    H1  837   6.698   2.604   0.407
  291TIP3    H2  838   6.564   2.534   0.413
  292TIP3   OH2  839   1.691   2.153   5.424
  292TIP3    H1  840   1.632   2.102   5.480
  292TIP3    H2  841   1.633   2.188   5.355
  293TIP3   OH2  842   6.409   3.879   2.580
  293TIP3    H1  843   6.379   3.812   2.641
  293TIP3    H2  844   6.427   3.955   2.634
  294TIP3   OH2  845   0.931   0.028   2.489
  294TIP3    H1  846   0.937  -0.051   2.543
  294TIP3    H2  847   0.943   0.100   2.551
  295TIP3   OH2  848   0.616   0.725   2.597
  295TIP3    H1  849   0.587   0.639   2.565
  295TIP3    H2  850   0.537   0.779   2.593
  296TIP3   OH2  851   5.144   5.199   0.402
  296TIP3    H1  852   5.060   5.209   0.447
  296TIP3    H2  853   5.121   5.199   0.309
  297TIP3   OH2  854   3.418   2.361   2.251
  297TIP3    H1  855   3.397   2.279   2.207
  297TIP3    H2  856   3.505   2.347   2.289
  298TIP3   OH2  857   2.536   3.635   0.861
  298TIP3    H1  858   2.501   3.555   0.900
  298TIP3    H2  859   2.460   3.692   0.851
  299TIP3   OH2  860   5.310   4.746   3.717
  299TIP3    H1  861   5.259   4.685   3.769
  299TIP3    H2  862   5.284   4.730   3.626
  300TIP3   OH2  863   7.057   2.917   0.190
  300TIP3    H1  864   7.108   2.838   0.210
  300TIP3    H2  865   7.107   2.988   0.230
  301TIP3   OH2  866   3.658   5.583   5.235
  301TIP3    H1  867   3.698   5.496   5.226
  301TIP3    H2  868   3.641   5.610   5.145
  302TIP3   OH2  869   3.744   5.322   4.400
  302TIP3    H1  870   3.666   5.297   4.350
  302TIP3    H2  871   3.767   5.409   4.366
  303TIP3   OH2  872   0.454   5.807   5.666
  303TIP3    H1  873   0.399   5.817   5.588
  303TIP3    H2  874   0.538   5.847   5.642
  304TIP3   OH2  875   7.069   2.130   5.003
  304TIP3    H1  876   7.134   2.076   4.959
  304TIP3    H2  877   7.091   2.125   5.096
  305TIP3   OH2  878   0.542   5.448   5.392
  305TIP3    H1  879   0.556   5.354   5.380
  305TIP3    H2  880   0.497   5.455   5.476
  306TIP3   OH2  881   3.875   3.205   4.652
  306TIP3    H1  882   3.867   3.143   4.725
  306TIP3    H2  883   3.942   3.166   4.596
  307TIP3   OH2  884   6.340   4.041   2.134
  307TIP3    H1  885   6.250   4.069   2.117
  307TIP3    H2  886   6.341   4.016   2.226
  308TIP3   OH2  887   1.472   4.561   2.595
  308TIP3    H1  888   1.390   4.516   2.613
  308TIP3    H2  889   1.503   4.523   2.513
  309TIP3   OH2  890   3.533   6.778   2.112
  309TIP3    H1  891   3.456   6.819   2.151
  309TIP3    H2  892   3.607   6.819   2.158
  310TIP3   OH2  893   4.151   6.321   0.684
  310TIP3    H1  894   4.071   6.316   0.737
  310TIP3    H2  895   4.191   6.405   0.709
  311TIP3   OH2  896   4.529   5.779   2.609
  311TIP3    H1  897   4.450   5.832   2.597
  311TIP3    H2  898   4.601   5.838   2.591
  312TIP3   OH2  899   1.258   4.618   3.095
  312TIP3    H1  900   1.225   4.625   3.005
  312TIP3    H2  901   1.345   4.657   3.092
  313TIP3   OH2  902   1.755   2.726   1.895
  313TIP3    H1  903   1.849   2.719   1.878
  313TIP3    H2  904   1.737   2.820   1.893
  314TIP3   OH2  905   0.950   0.091   5.736
  314TIP3    H1  906   0.893   0.065   5.664
  314TIP3    H2  907   1.026   0.033   5.728
  315TIP3   OH2  908   6.326   4.662   2.510
  315TIP3    H1  909   6.381   4.687   2.436
  315TIP3    H2  910   6.367   4.704   2.586
  316TIP3   OH2  911   5.747   6.597   1.951
  316TIP3    H1  912   5.692   6.634   1.882
  316TIP3    H2  913   5.692   6.531   1.993
  317TIP3   OH2  914   2.061   5.568   2.440
  317TIP3    H1  915   2.130   5.520   2.395
  317TIP3    H2  916   1.986   5.563   2.381
  318TIP3   OH2  917   2.756   0.711   5.466
  318TIP3    H1  918   2.754   0.802   5.496
  318TIP3    H2  919   2.816   0.667   5.527
  319TIP3   OH2  920   2.109   1.421   1.211
  319TIP3    H1  921   2.120   1.463   1.125
  319TIP3    H2  922   2.134   1.330   1.196
  320TIP3   OH2  923   0.436   2.492   1.313
  320TIP3    H1  924   0.398   2.540   1.239
  320TIP3    H2  925   0.425   2.550   1.388
  321TIP3   OH2  926   0.420   5.882   4.807
  321TIP3    H1  927   0.499   5.935   4.801
  321TIP3    H2  928   0.432   5.814   4.741
  322TIP3   OH2  929   2.761   3.473   4.613
  322TIP3    H1  930   2.779   3.467   4.707
  322TIP3    H2  931   2.847   3.461   4.572
  323TIP3   OH2  932   2.096   2.680   1.421
  323TIP3    H1  933   2.042   2.624   1.365
  323TIP3    H2  934   2.034   2.743   1.458
  324TIP3   OH2  935   6.837   2.275   2.653
  324TIP3    H1  936   6.845   2.203   2.716
  324TIP3    H2  937   6.859   2.353   2.703
  325TIP3   OH2  938   1.513   4.692   3.048
  325TIP3    H1  939   1.538   4.748   3.121
  325TIP3    H2  940   1.572   4.617   3.054
  326TIP3   OH2  941   1.790   5.319   0.251
  326TIP3    H1  942   1.734   5.324   0.329
  326TIP3    H2  943   1.849   5.394   0.259
  327TIP3   OH2  944   0.132   1.001   0.409
  327TIP3    H1  945   0.189   1.040   0.343
  327TIP3    H2  946   0.043   1.015   0.377
  328TIP3   OH2  947   3.354   3.695   3.871
  328TIP3    H1  948   3.290   3.643   3.918
  328TIP3    H2  949   3.378   3.764   3.933
  329TIP3   OH2  950   1.136   6.496   4.265
  329TIP3    H1  951   1.205   6.444   4.308
  329TIP3    H2  952   1.154   6.586   4.293
  330TIP3   OH2  953   5.809   5.024   5.756
  330TIP3    H1  954   5.848   4.989   5.836
  330TIP3    H2  955   5.751   5.094   5.786
  331TIP3   OH2  956   2.383   2.027   1.200
  331TIP3    H1  957   2.337   2.018   1.116
  331TIP3    H2  958   2.362   2.116   1.229
  332TIP3   OH2  959   5.788   3.503   2.640
  332TIP3    H1  960   5.784   3.410   2.621
  332TIP3    H2  961   5.728   3.516   2.713
  333TIP3   OH2  962   6.254   6.420   1.596
  333TIP3    H1  963   6.221   6.482   1.531
  333TIP3    H2  964   6.268   6.339   1.547
  334TIP3   OH2  965   5.932   5.968   2.644
  334TIP3    H1  966   5.908   5.897   2.584
  334TIP3    H2  967   6.022   5.948   2.670
  335TIP3   OH2  968   5.477   3.029   0.742
  335TIP3    H1  969   5.478   2.940   0.777
  335TIP3    H2  970   5.460   3.085   0.817
  336TIP3   OH2  971   2.251   4.017   5.246
  336TIP3    H1  972   2.307   4.089   5.217
  336TIP3    H2  973   2.255   4.021   5.342
  337TIP3   OH2  974   1.034   3.369   0.847
  337TIP3    H1  975   1.127   3.385   0.832
  337TIP3    H2  976   0.989   3.420   0.779
  338TIP3   OH2  977   2.878   0.201   2.101
  338TIP3    H1  978   2.939   0.183   2.030
  338TIP3    H2  979   2.929   0.250   2.165
  339TIP3   OH2  980   4.247   0.297   1.956
  339TIP3    H1  981   4.182   0.363   1.932
  339TIP3    H2  982   4.321   0.348   1.991
  340TIP3   OH2  983   2.262   5.828   5.303
  340TIP3    H1  984   2.356   5.844   5.307
  340TIP3    H2  985   2.249   5.783   5.219
  341TIP3   OH2  986   5.768   5.804   2.143
  341TIP3    H1  987   5.794   5.867   2.211
  341TIP3    H2  988   5.763   5.720   2.189
  342TIP3   OH2  989   5.191   3.732   3.318
  342TIP3    H1  990   5.139   3.761   3.393
  342TIP3    H2  991   5.126   3.703   3.254
  343TIP3   OH2  992   5.762   5.150   1.610
  343TIP3    H1  993   5.778   5.118   1.699
  343TIP3    H2  994   5.681   5.200   1.617
  344TIP3   OH2  995   2.660   6.199   1.234
  344TIP3    H1  996   2.657   6.294   1.238
  344TIP3    H2  997   2.648   6.178   1.141
  345TIP3   OH2  998   4.227   4.626   4.636
  345TIP3    H1  999   4.238   4.623   4.541
  345TIP3    H2 1000   4.138   4.593   4.651
  346TIP3   OH2 1001   6.472   0.679   4.876
  346TIP3    H1 1002   6.435   0.730   4.804
  346TIP3    H2 1003   6.406   0.611   4.894
  347TIP3   OH2 1004   1.062   4.899   1.594
  347TIP3    H1 1005   1.091   4.898   1.685
  347TIP3    H2 1006   0.967   4.889   1.599
  348TIP3   OH2 1007   6.005   6.065   0.155
  348TIP3    H1 1008   5.963   6.013   0.224
  348TIP3    H2 1009   5.936   6.123   0.122
  349TIP3   OH2 1010   4.722   5.232   1.784
  349TIP3    H1 1011   4.672   5.288   1.844
  349TIP3    H2 1012   4.670   5.231   1.704
  350TIP3   OH2 1013   0.143   0.792   0.191
  350TIP3    H1 1014   0.197   0.784   0.270
  350TIP3    H2 1015   0.094   0.873   0.203
  351TIP3   OH2 1016   2.625   2.861   5.530
  351TIP3    H1 1017   2.658   2.796   5.469
  351TIP3    H2 1018   2.542   2.826   5.560
  352TIP3   OH2 1019   3.446   5.835   3.781
  352TIP3    H1 1020   3.493   5.910   3.746
  352TIP3    H2 1021   3.484   5.822   3.868
  353TIP3   OH2 1022   0.095   4.088   0.077
  353TIP3    H1 1023   0.146   4.036   0.139
  353TIP3    H2 1024   0.006   4.083   0.110
  354TIP3   OH2 1025   0.137   5.296   5.655
  354TIP3    H1 1026   0.043   5.308   5.661
  354TIP3    H2 1027   0.158   5.314   5.563
  355TIP3   OH2 1028   0.468   1.784   3.934
  355TIP3    H1 1029   0.414   1.813   3.860
  355TIP3    H2 1030   0.413   1.800   4.011
  356TIP3   OH2 1031   3.651   0.558   0.467
  356TIP3    H1 1032   3.562   0.555   0.431
  356TIP3    H2 1033   3.648   0.496   0.540
  357TIP3   OH2 1034   0.355   2.422   3.839
  357TIP3    H1 1035   0.340   2.422   3.745
  357TIP3    H2 1036   0.448   2.399   3.849
  358TIP3   OH2 1037   6.215   1.059   5.415
  358TIP3    H1 1038   6.204   1.147   5.379
  358TIP3    H2 1039   6.233   1.004   5.338
  359TIP3   OH2 1040   0.553   5.996   0.232
  359TIP3    H1 1041   0.557   5.947   0.314
  359TIP3    H2 1042   0.557   5.929   0.164
  360TIP3   OH2 1043   1.509   5.497   3.148
  360TIP3    H1 1044   1.464   5.559   3.206
  360TIP3    H2 1045   1.540   5.427   3.206
  361TIP3   OH2 1046   4.198   3.949   3.742
  361TIP3    H1 1047   4.214   3.923   3.833
  361TIP3    H2 1048   4.197   4.045   3.745
  362TIP3   OH2 1049   4.384   1.656   3.685
  362TIP3    H1 1050   4.321   1.588   3.662
  362TIP3    H2 1051   4.361   1.730   3.629
  363TIP3   OH2 1052   4.808   4.181   3.513
  363TIP3    H1 1053   4.714   4.179   3.497
  363TIP3    H2 1054   4.822   4.118   3.583
  364TIP3   OH2 1055   1.112   0.075   1.202
  364TIP3    H1 1056   1.065  -0.009   1.200
  364TIP3    H2 1057   1.075   0.121   1.278
  365TIP3   OH2 1058   2.791   2.659   1.172
  365TIP3    H1 1059   2.881   2.667   1.204
  365TIP3    H2 1060   2.740   2.713   1.232
  366TIP3   OH2 1061   6.282   3.199   2.019
  366TIP3    H1 1062   6.261   3.118   1.973
  366TIP3    H2 1063   6.322   3.171   2.101
  367TIP3   OH2 1064   3.894   5.606   3.708
  367TIP3    H1 1065   3.914   5.685   3.658
  367TIP3    H2 1066   3.942   5.537   3.663
  368TIP3   OH2 1067   0.415   1.496   1.681
  368TIP3    H1 1068   0.506   1.477   1.704
  368TIP3    H2 1069   0.405   1.460   1.593
  369TIP3   OH2 1070   3.985   1.643   2.966
  369TIP3    H1 1071   4.066   1.593   2.973
  369TIP3    H2 1072   3.968   1.648   2.872
  370TIP3   OH2 1073   4.074   6.775   4.848
  370TIP3    H1 1074   4.167   6.763   4.829
  370TIP3    H2 1075   4.032   6.776   4.762
  371TIP3   OH2 1076   1.024   4.719   3.575
  371TIP3    H1 1077   1.019   4.705   3.480
  371TIP3    H2 1078   1.105   4.769   3.587
  372TIP3   OH2 1079   2.591   2.667   1.956
  372TIP3    H1 1080   2.543   2.616   1.891
  372TIP3    H2 1081   2.626   2.741   1.906
  373TIP3   OH2 1082   2.642   0.287   4.272
  373TIP3    H1 1083   2.560   0.238   4.270
  373TIP3    H2 1084   2.627   0.361   4.213
  374TIP3   OH2 1085   1.130   4.726   4.019
  374TIP3    H1 1086   1.090   4.791   3.960
  374TIP3    H2 1087   1.193   4.776   4.070
  375TIP3   OH2 1088   5.005   6.037   1.527
  375TIP3    H1 1089   4.916   6.066   1.509
  375TIP3    H2 1090   5.047   6.114   1.567
  376TIP3   OH2 1091   3.475   3.378   0.193
  376TIP3    H1 1092   3.404   3.433   0.161
  376TIP3    H2 1093   3.504   3.420   0.274
  377TIP3   OH2 1094   1.612   3.974   2.936
  377TIP3    H1 1095   1.578   3.960   3.025
  377TIP3    H2 1096   1.671   3.900   2.922
  378TIP3   OH2 1097   7.153   3.720   3.882
  378TIP3    H1 1098   7.177   3.795   3.936
  378TIP3    H2 1099   7.062   3.703   3.905
  379TIP3   OH2 1100   6.512   3.773   4.816
  379TIP3    H1 1101   6.437   3.832   4.819
  379TIP3    H2 1102   6.582   3.822   4.859
  380TIP3   OH2 1103   6.345   1.594   2.991
  380TIP3    H1 1104   6.263   1.631   2.959
  380TIP3    H2 1105   6.406   1.604   2.917
  381TIP3   OH2 1106   4.854   5.193   3.957
  381TIP3    H1 1107   4.790   5.167   4.022
  381TIP3    H2 1108   4.898   5.269   3.995
  382TIP3   OH2 1109   3.703   4.143   3.851
  382TIP3    H1 1110   3.690   4.149   3.757
  382TIP3    H2 1111   3.797   4.129   3.862
  383TIP3   OH2 1112   0.013   3.105   0.294
  383TIP3    H1 1113   0.071   3.065   0.358
  383TIP3    H2 1114   0.068   3.118   0.217
  384TIP3   OH2 1115   5.654   2.277   3.509
  384TIP3    H1 1116   5.561   2.269   3.530
  384TIP3    H2 1117   5.657   2.279   3.413
  385TIP3   OH2 1118   3.825   1.279   2.954
  385TIP3    H1 1119   3.750   1.338   2.960
  385TIP3    H2 1120   3.852   1.266   3.045
  386TIP3   OH2 1121   4.333   3.314   2.832
  386TIP3    H1 1122   4.395   3.342   2.765
  386TIP3    H2 1123   4.253   3.293   2.783
  387TIP3   OH2 1124   0.404   6.120   2.118
  387TIP3    H1 1125   0.383   6.213   2.112
  387TIP3    H2 1126   0.351   6.088   2.192
  388TIP3   OH2 1127   4.822   5.064   2.350
  388TIP3    H1 1128   4.749   5.049   2.290
  388TIP3    H2 1129   4.901   5.056   2.296
  389TIP3   OH2 1130   1.438   6.176   3.119
  389TIP3    H1 1131   1.515   6.145   3.071
  389TIP3    H2 1132   1.371   6.186   3.051
  390TIP3   OH2 1133   5.265   5.623   3.490
  390TIP3    H1 1134   5.247   5.570   3.412
  390TIP3    H2 1135   5.208   5.700   3.481
  391TIP3   OH2 1136   2.903   2.842   1.560
  391TIP3    H1 1137   2.936   2.772   1.503
  391TIP3    H2 1138   2.880   2.796   1.641
  392TIP3   OH2 1139   1.146   4.478   3.896
  392TIP3    H1 1140   1.096   4.478   3.814
  392TIP3    H2 1141   1.146   4.569   3.924
  393TIP3   OH2 1142   4.114   4.475   4.007
  393TIP3    H1 1143   4.160   4.467   4.090
  393TIP3    H2 1144   4.158   4.548   3.962
  394TIP3   OH2 1145   6.786   3.810   0.641
  394TIP3    H1 1146   6.811   3.899   0.666
  394TIP3    H2 1147   6.866   3.758   0.653
  395TIP3   OH2 1148   6.672   0.307   1.011
  395TIP3    H1 1149   6.590   0.259   0.999
  395TIP3    H2 1150   6.699   0.331   0.922
  396TIP3   OH2 1151   7.255   1.393   0.827
  396TIP3    H1 1152   7.230   1.435   0.744
  396TIP3    H2 1153   7.349   1.411   0.835
  397TIP3   OH2 1154   1.716   1.810   2.976
  397TIP3    H1 1155   1.774   1.850   2.912
  397TIP3    H2 1156   1.629   1.838   2.951
  398TIP3   OH2 1157   3.107   5.668   1.362
  398TIP3    H1 1158   3.016   5.641   1.374
  398TIP3    H2 1159   3.117   5.677   1.267
  399TIP3   OH2 1160   3.942   6.000   1.754
  399TIP3    H1 1161   3.977   6.089   1.762
  399TIP3    H2 1162   3.979   5.966   1.673
  400TIP3   OH2 1163   4.224   1.455   3.986
  400TIP3    H1 1164   4.207   1.362   3.972
  400TIP3    H2 1165   4.141   1.498   3.966
  401TIP3   OH2 1166   4.876   0.926   5.619
  401TIP3    H1 1167   4.888   1.021   5.615
  401TIP3    H2 1168   4.944   0.891   5.562
  402TIP3   OH2 1169   2.855   4.372  -0.023
  402TIP3    H1 1170   2.848   4.300   0.040
  402TIP3    H2 1171   2.796   4.439   0.010
  403TIP3   OH2 1172   1.000   1.632   0.325
  403TIP3    H1 1173   1.032   1.641   0.415
  403TIP3    H2 1174   0.904   1.637   0.333
  404TIP3   OH2 1175   0.665   2.219   3.575
  404TIP3    H1 1176   0.577   2.199   3.544
  404TIP3    H2 1177   0.703   2.133   3.594
  405TIP3   OH2 1178   1.303   3.980   2.739
  405TIP3    H1 1179   1.275   4.024   2.659
  405TIP3    H2 1180   1.247   3.902   2.744
  406TIP3   OH2 1181   7.021   1.626   4.854
  406TIP3    H1 1182   7.044   1.596   4.766
  406TIP3    H2 1183   7.078   1.575   4.912
  407TIP3   OH2 1184   3.355   6.105   3.481
  407TIP3    H1 1185   3.402   6.153   3.413
  407TIP3    H2 1186   3.293   6.168   3.517
  408TIP3   OH2 1187   2.977   4.338   3.091
  408TIP3    H1 1188   2.976   4.433   3.082
  408TIP3    H2 1189   2.994   4.306   3.003
  409TIP3   OH2 1190   6.457   2.888   5.859
  409TIP3    H1 1191   6.494   2.946   5.925
  409TIP3    H2 1192   6.364   2.910   5.856
  410TIP3   OH2 1193   2.734   6.750   5.467
  410TIP3    H1 1194   2.793   6.822   5.486
  410TIP3    H2 1195   2.773   6.674   5.510
  411TIP3   OH2 1196   1.327   6.463   0.468
  411TIP3    H1 1197   1.319   6.374   0.433
  411TIP3    H2 1198   1.320   6.520   0.391
  412TIP3   OH2 1199   6.789   4.980   4.075
  412TIP3    H1 1200   6.710   5.026   4.047
  412TIP3    H2 1201   6.855   5.049   4.083
  413TIP3   OH2 1202   2.999   1.883   2.852
  413TIP3    H1 1203   2.919   1.928   2.879
  413TIP3    H2 1204   2.995   1.799   2.897
  414TIP3   OH2 1205   3.138   1.275   2.330
  414TIP3    H1 1206   3.060   1.286   2.384
  414TIP3    H2 1207   3.161   1.363   2.302
  415TIP3   OH2 1208   6.634   1.100   0.959
  415TIP3    H1 1209   6.631   1.101   0.863
  415TIP3    H2 1210   6.638   1.192   0.983
  416TIP3   OH2 1211   4.782   3.048   0.867
  416TIP3    H1 1212   4.842   3.060   0.940
  416TIP3    H2 1213   4.833   3.000   0.801
  417TIP3   OH2 1214   0.677   2.439  -0.023
  417TIP3    H1 1215   0.683   2.506   0.046
  417TIP3    H2 1216   0.754   2.384  -0.009
  418TIP3   OH2 1217   4.282   2.986   2.551
  418TIP3    H1 1218   4.225   2.930   2.499
  418TIP3    H2 1219   4.337   2.925   2.601
  419TIP3   OH2 1220   4.773   2.577   5.723
  419TIP3    H1 1221   4.698   2.568   5.783
  419TIP3    H2 1222   4.805   2.487   5.711
  420TIP3   OH2 1223   5.180   1.805   3.132
  420TIP3    H1 1224   5.204   1.842   3.047
  420TIP3    H2 1225   5.263   1.775   3.170
  421TIP3   OH2 1226   3.674   1.883   3.284
  421TIP3    H1 1227   3.607   1.874   3.216
  421TIP3    H2 1228   3.732   1.809   3.270
  422TIP3   OH2 1229   5.820   1.114   5.635
  422TIP3    H1 1230   5.891   1.056   5.606
  422TIP3    H2 1231   5.744   1.056   5.642
  423TIP3   OH2 1232   6.874   0.074   0.883
  423TIP3    H1 1233   6.809   0.034   0.825
  423TIP3    H2 1234   6.895   0.157   0.842
  424TIP3   OH2 1235   6.408   5.188   0.873
  424TIP3    H1 1236   6.442   5.126   0.809
  424TIP3    H2 1237   6.427   5.148   0.958
  425TIP3   OH2 1238   0.839   1.364   3.836
  425TIP3    H1 1239   0.842   1.460   3.835
  425TIP3    H2 1240   0.746   1.343   3.834
  426TIP3   OH2 1241   0.757   0.203   3.097
  426TIP3    H1 1242   0.666   0.177   3.087
  426TIP3    H2 1243   0.755   0.299   3.092
  427TIP3   OH2 1244   6.419   2.190   2.252
  427TIP3    H1 1245   6.348   2.164   2.194
  427TIP3    H2 1246   6.442   2.109   2.299
  428TIP3   OH2 1247   2.322   5.714   2.371
  428TIP3    H1 1248   2.306   5.799   2.413
  428TIP3    H2 1249   2.301   5.729   2.279
  429TIP3   OH2 1250   6.287   0.579   1.622
  429TIP3    H1 1251   6.281   0.666   1.582
  429TIP3    H2 1252   6.380   0.565   1.635
  430TIP3   OH2 1253   4.375   1.949   5.247
  430TIP3    H1 1254   4.286   1.982   5.254
  430TIP3    H2 1255   4.381   1.880   5.313
  431TIP3   OH2 1256   2.484   6.728   5.590
  431TIP3    H1 1257   2.412   6.776   5.551
  431TIP3    H2 1258   2.561   6.756   5.540
  432TIP3   OH2 1259   0.301   0.837   2.190
  432TIP3    H1 1260   0.374   0.775   2.186
  432TIP3    H2 1261   0.225   0.787   2.160
  433TIP3   OH2 1262   5.262   2.151   0.057
  433TIP3    H1 1263   5.317   2.116   0.127
  433TIP3    H2 1264   5.214   2.223   0.097
  434TIP3   OH2 1265   0.551   3.703   0.126
  434TIP3    H1 1266   0.495   3.780   0.134
  434TIP3    H2 1267   0.533   3.669   0.039
  435TIP3   OH2 1268   1.912   4.687   4.837
  435TIP3    H1 1269   1.893   4.653   4.924
  435TIP3    H2 1270   1.981   4.630   4.803
  436TIP3   OH2 1271   5.082   5.041   4.191
  436TIP3    H1 1272   5.025   5.112   4.164
  436TIP3    H2 1273   5.030   4.991   4.255
  437TIP3   OH2 1274   2.686   1.600   4.532
  437TIP3    H1 1275   2.770   1.582   4.489
  437TIP3    H2 1276   2.669   1.521   4.584
  438TIP3   OH2 1277   0.773   6.476   1.504
  438TIP3    H1 1278   0.755   6.452   1.595
  438TIP3    H2 1279   0.807   6.396   1.465
  439TIP3   OH2 1280   0.220   5.597   4.093
  439TIP3    H1 1281   0.143   5.541   4.086
  439TIP3    H2 1282   0.262   5.593   4.007
  440TIP3   OH2 1283   6.447   6.475   4.133
  440TIP3    H1 1284   6.366   6.438   4.099
  440TIP3    H2 1285   6.511   6.461   4.064
  441TIP3   OH2 1286   6.074   3.635   4.380
  441TIP3    H1 1287   6.104   3.688   4.306
  441TIP3    H2 1288   6.034   3.558   4.339
  442TIP3   OH2 1289   7.209   6.460   4.904
  442TIP3    H1 1290   7.291   6.507   4.915
  442TIP3    H2 1291   7.146   6.508   4.958
  443TIP3   OH2 1292   3.829   3.856   4.061
  443TIP3    H1 1293   3.858   3.765   4.050
  443TIP3    H2 1294   3.870   3.902   3.988
  444TIP3   OH2 1295   3.462   5.630   3.134
  444TIP3    H1 1296   3.378   5.662   3.165
  444TIP3    H2 1297   3.502   5.589   3.211
  445TIP3   OH2 1298   6.960   0.118   2.150
  445TIP3    H1 1299   6.924   0.205   2.133
  445TIP3    H2 1300   6.894   0.075   2.206
  446TIP3   OH2 1301   0.579   1.298   3.832
  446TIP3    H1 1302   0.517   1.369   3.848
  446TIP3    H2 1303   0.564   1.237   3.904
  447TIP3   OH2 1304   4.198   2.481   3.634
  447TIP3    H1 1305   4.293   2.487   3.623
  447TIP3    H2 1306   4.185   2.480   3.729
  448TIP3   OH2 1307   5.554   5.783   3.052
  448TIP3    H1 1308   5.548   5.689   3.038
  448TIP3    H2 1309   5.615   5.793   3.125
  449TIP3   OH2 1310   1.149   6.730   4.634
  449TIP3    H1 1311   1.216   6.764   4.694
  449TIP3    H2 1312   1.075   6.709   4.691
  450TIP3   OH2 1313   0.132   2.769   3.604
  450TIP3    H1 1314   0.129   2.677   3.579
  450TIP3    H2 1315   0.087   2.773   3.689
  451TIP3   OH2 1316   3.244   2.289   5.573
  451TIP3    H1 1317   3.198   2.335   5.503
  451TIP3    H2 1318   3.337   2.298   5.551
  452TIP3   OH2 1319   6.930   6.043   4.853
  452TIP3    H1 1320   6.971   6.065   4.770
  452TIP3    H2 1321   6.999   5.998   4.903
  453TIP3   OH2 1322   2.435   0.728   5.433
  453TIP3    H1 1323   2.488   0.743   5.512
  453TIP3    H2 1324   2.364   0.792   5.439
  454TIP3   OH2 1325   3.353   4.601   3.314
  454TIP3    H1 1326   3.344   4.641   3.228
  454TIP3    H2 1327   3.373   4.674   3.372
  455TIP3   OH2 1328   5.724   6.469   0.719
  455TIP3    H1 1329   5.692   6.555   0.692
  455TIP3    H2 1330   5.645   6.420   0.739
  456TIP3   OH2 1331   5.477   1.241   2.776
  456TIP3    H1 1332   5.415   1.279   2.713
  456TIP3    H2 1333   5.438   1.157   2.801
  457TIP3   OH2 1334   0.849   2.220   4.895
  457TIP3    H1 1335   0.782   2.215   4.963
  457TIP3    H2 1336   0.820   2.158   4.829
  458TIP3   OH2 1337   4.522   4.886   1.525
  458TIP3    H1 1338   4.611   4.906   1.496
  458TIP3    H2 1339   4.522   4.791   1.539
  459TIP3   OH2 1340   6.288   1.996   2.862
  459TIP3    H1 1341   6.246   2.079   2.884
  459TIP3    H2 1342   6.334   2.013   2.780
  460TIP3   OH2 1343   1.361   4.175   5.519
  460TIP3    H1 1344   1.310   4.160   5.440
  460TIP3    H2 1345   1.303   4.149   5.591
  461TIP3   OH2 1346   0.185   0.811   5.633
  461TIP3    H1 1347   0.218   0.725   5.605
  461TIP3    H2 1348   0.182   0.805   5.729
  462TIP3   OH2 1349   6.240   0.760   4.386
  462TIP3    H1 1350   6.193   0.836   4.419
  462TIP3    H2 1351   6.180   0.718   4.325
  463TIP3   OH2 1352   5.412   0.805   1.942
  463TIP3    H1 1353   5.439   0.835   1.855
  463TIP3    H2 1354   5.492   0.805   1.994
  464TIP3   OH2 1355   2.646   4.310   3.575
  464TIP3    H1 1356   2.668   4.292   3.666
  464TIP3    H2 1357   2.683   4.397   3.558
  465TIP3   OH2 1358   5.861   5.761   2.473
  465TIP3    H1 1359   5.818   5.700   2.413
  465TIP3    H2 1360   5.897   5.706   2.542
  466TIP3   OH2 1361   2.069   6.239   4.538
  466TIP3    H1 1362   2.157   6.204   4.549
  466TIP3    H2 1363   2.064   6.265   4.446
  467TIP3   OH2 1364   2.868   5.632   3.638
  467TIP3    H1 1365   2.913   5.563   3.688
  467TIP3    H2 1366   2.785   5.643   3.683
  468TIP3   OH2 1367   3.289   0.457   3.922
  468TIP3    H1 1368   3.313   0.540   3.879
  468TIP3    H2 1369   3.205   0.434   3.882
  469TIP3   OH2 1370   5.332   1.874   3.541
  469TIP3    H1 1371   5.409   1.868   3.484
  469TIP3    H2 1372   5.285   1.792   3.526
  470TIP3   OH2 1373   0.527   4.158   3.584
  470TIP3    H1 1374   0.555   4.243   3.619
  470TIP3    H2 1375   0.597   4.097   3.608
  471TIP3   OH2 1376   4.413   0.966   3.416
  471TIP3    H1 1377   4.332   1.000   3.378
  471TIP3    H2 1378   4.396   0.873   3.430
  472TIP3   OH2 1379   4.604   3.057   0.232
  472TIP3    H1 1380   4.537   3.047   0.165
  472TIP3    H2 1381   4.675   2.999   0.205
  473TIP3   OH2 1382   7.026   1.105   2.348
  473TIP3    H1 1383   7.047   1.184   2.298
  473TIP3    H2 1384   7.111   1.073   2.379
  474TIP3   OH2 1385   6.150   4.145   5.121
  474TIP3    H1 1386   6.221   4.124   5.060
  474TIP3    H2 1387   6.134   4.064   5.169
  475TIP3   OH2 1388   4.684   2.074   0.176
  475TIP3    H1 1389   4.623   2.132   0.130
  475TIP3    H2 1390   4.637   2.047   0.255
  476TIP3   OH2 1391   0.433   0.455   2.889
  476TIP3    H1 1392   0.365   0.520   2.907
  476TIP3    H2 1393   0.384   0.378   2.860
  477TIP3   OH2 1394   5.919   4.603   2.421
  477TIP3    H1 1395   5.960   4.530   2.469
  477TIP3    H2 1396   5.910   4.672   2.486
  478TIP3   OH2 1397   5.141   0.580   2.919
  478TIP3    H1 1398   5.106   0.500   2.880
  478TIP3    H2 1399   5.157   0.557   3.011
  479TIP3   OH2 1400   2.307   4.327   4.628
  479TIP3    H1 1401   2.253   4.272   4.572
  479TIP3    H2 1402   2.260   4.410   4.632
  480TIP3   OH2 1403   7.137   6.330   3.273
  480TIP3    H1 1404   7.074   6.398   3.248
  480TIP3    H2 1405   7.141   6.272   3.197
  481TIP3   OH2 1406   3.475   1.957   3.094
  481TIP3    H1 1407   3.430   2.026   3.142
  481TIP3    H2 1408   3.415   1.934   3.023
  482TIP3   OH2 1409   6.777   3.222   2.784
  482TIP3    H1 1410   6.840   3.290   2.806
  482TIP3    H2 1411   6.702   3.238   2.842
  483TIP3   OH2 1412   6.125   5.579   3.502
  483TIP3    H1 1413   6.049   5.536   3.542
  483TIP3    H2 1414   6.195   5.515   3.508
  484TIP3   OH2 1415   7.167   4.990   3.175
  484TIP3    H1 1416   7.081   5.010   3.212
  484TIP3    H2 1417   7.225   4.987   3.250
  485TIP3   OH2 1418   6.165   4.796   1.224
  485TIP3    H1 1419   6.129   4.745   1.152
  485TIP3    H2 1420   6.099   4.862   1.244
  486TIP3   OH2 1421   5.531   2.134   0.162
  486TIP3    H1 1422   5.525   2.138   0.066
  486TIP3    H2 1423   5.607   2.078   0.178
  487TIP3   OH2 1424   3.411   6.226   4.913
  487TIP3    H1 1425   3.494   6.272   4.920
  487TIP3    H2 1426   3.350   6.278   4.965
  488TIP3   OH2 1427   4.163   2.864   3.642
  488TIP3    H1 1428   4.258   2.866   3.652
  488TIP3    H2 1429   4.130   2.916   3.716
  489TIP3   OH2 1430   0.673   4.359   0.052
  489TIP3    H1 1431   0.611   4.431   0.036
  489TIP3    H2 1432   0.618   4.288   0.085
  490TIP3   OH2 1433   5.991   0.962   0.935
  490TIP3    H1 1434   6.077   0.928   0.913
  490TIP3    H2 1435   5.983   1.043   0.883
  491TIP3   OH2 1436   7.110   1.199   1.786
  491TIP3    H1 1437   7.053   1.205   1.862
  491TIP3    H2 1438   7.157   1.282   1.784
  492TIP3   OH2 1439   4.028   6.264   1.676
  492TIP3    H1 1440   4.079   6.216   1.610
  492TIP3    H2 1441   3.941   6.273   1.637
  493TIP3   OH2 1442   0.930   1.693   5.888
  493TIP3    H1 1443   0.926   1.765   5.825
  493TIP3    H2 1444   0.967   1.620   5.838
  494TIP3   OH2 1445   2.754   1.481   0.201
  494TIP3    H1 1446   2.784   1.566   0.169
  494TIP3    H2 1447   2.708   1.500   0.282
  495TIP3   OH2 1448   3.588   3.073   0.527
  495TIP3    H1 1449   3.619   3.163   0.521
  495TIP3    H2 1450   3.518   3.076   0.592
  496TIP3   OH2 1451   4.438   5.259   3.552
  496TIP3    H1 1452   4.470   5.188   3.608
  496TIP3    H2 1453   4.419   5.331   3.612
  497TIP3   OH2 1454   1.502   5.165   4.802
  497TIP3    H1 1455   1.511   5.216   4.883
  497TIP3    H2 1456   1.464   5.082   4.831
  498TIP3   OH2 1457   0.046   5.092   3.859
  498TIP3    H1 1458   0.135   5.112   3.829
  498TIP3    H2 1459   0.011   5.035   3.791
  499TIP3   OH2 1460   7.084   3.617   0.217
  499TIP3    H1 1461   7.154   3.682   0.221
  499TIP3    H2 1462   7.093   3.567   0.298
  500TIP3   OH2 1463   1.642   2.146   4.487
  500TIP3    H1 1464   1.619   2.108   4.402
  500TIP3    H2 1465   1.612   2.237   4.482
  501TIP3   OH2 1466   3.813   0.491   4.391
  501TIP3    H1 1467   3.797   0.531   4.476
  501TIP3    H2 1468   3.814   0.565   4.330
  502TIP3   OH2 1469   0.526   3.767   4.053
  502TIP3    H1 1470   0.466   3.693   4.042
  502TIP3    H2 1471   0.469   3.840   4.077
  503TIP3   OH2 1472   1.872   3.301   1.229
  503TIP3    H1 1473   1.808   3.306   1.158
  503TIP3    H2 1474   1.924   3.380   1.220
  504TIP3   OH2 1475   7.281   3.354   1.322
  504TIP3    H1 1476   7.228   3.324   1.248
  504TIP3    H2 1477   7.251   3.301   1.396
  505TIP3   OH2 1478   2.573   0.954   2.627
  505TIP3    H1 1479   2.546   0.915   2.544
  505TIP3    H2 1480   2.568   1.048   2.611
  506TIP3   OH2 1481   0.825   4.680   5.812
  506TIP3    H1 1482   0.800   4.618   5.881
  506TIP3    H2 1483   0.768   4.755   5.824
  507TIP3   OH2 1484   1.056   4.438   3.621
  507TIP3    H1 1485   1.013   4.381   3.557
  507TIP3    H2 1486   1.018   4.525   3.605
  508TIP3   OH2 1487   1.206   1.715   3.139
  508TIP3    H1 1488   1.265   1.714   3.063
  508TIP3    H2 1489   1.122   1.685   3.104
  509TIP3   OH2 1490   0.110   3.146   5.795
  509TIP3    H1 1491   0.206   3.144   5.795
  509TIP3    H2 1492   0.085   3.088   5.868
  510TIP3   OH2 1493   1.944   3.601   5.189
  510TIP3    H1 1494   2.032   3.576   5.161
  510TIP3    H2 1495   1.932   3.556   5.272
  511TIP3   OH2 1496   4.128   5.476   2.611
  511TIP3    H1 1497   4.095   5.560   2.578
  511TIP3    H2 1498   4.056   5.440   2.663
  512TIP3   OH2 1499   5.276   3.714   4.844
  512TIP3    H1 1500   5.286   3.685   4.935
  512TIP3    H2 1501   5.303   3.806   4.846
  513TIP3   OH2 1502   1.753   2.580   4.884
  513TIP3    H1 1503   1.791   2.504   4.929
  513TIP3    H2 1504   1.826   2.642   4.878
  514TIP3   OH2 1505   5.937   3.266   5.719
  514TIP3    H1 1506   5.913   3.195   5.658
  514TIP3    H2 1507   5.905   3.236   5.804
  515TIP3   OH2 1508   1.159   4.181   1.289
  515TIP3    H1 1509   1.249   4.207   1.307
  515TIP3    H2 1510   1.147   4.098   1.335
  516TIP3   OH2 1511   1.256   6.030   2.717
  516TIP3    H1 1512   1.262   6.106   2.776
  516TIP3    H2 1513   1.283   5.956   2.770
  517TIP3   OH2 1514   1.423   3.363   1.095
  517TIP3    H1 1515   1.417   3.447   1.142
  517TIP3    H2 1516   1.498   3.319   1.134
  518TIP3   OH2 1517   0.056   4.846   2.290
  518TIP3    H1 1518   0.149   4.864   2.304
  518TIP3    H2 1519   0.044   4.854   2.195
  519TIP3   OH2 1520   4.841   1.000   2.383
  519TIP3    H1 1521   4.781   0.937   2.423
  519TIP3    H2 1522   4.822   1.083   2.426
  520TIP3   OH2 1523   0.064   0.779   2.992
  520TIP3    H1 1524   0.031   0.724   3.063
  520TIP3    H2 1525   0.083   0.863   3.033
  521TIP3   OH2 1526   0.992   4.011   3.940
  521TIP3    H1 1527   0.975   4.102   3.915
  521TIP3    H2 1528   0.910   3.966   3.923
  522TIP3   OH2 1529   5.701   1.325   3.976
  522TIP3    H1 1530   5.792   1.301   3.960
  522TIP3    H2 1531   5.691   1.411   3.935
  523TIP3   OH2 1532   6.932   2.900   5.202
  523TIP3    H1 1533   7.018   2.908   5.160
  523TIP3    H2 1534   6.952   2.886   5.295
  524TIP3   OH2 1535   0.857   3.080   4.723
  524TIP3    H1 1536   0.825   3.170   4.730
  524TIP3    H2 1537   0.915   3.070   4.799
  525TIP3   OH2 1538   2.271   3.482   2.128
  525TIP3    H1 1539   2.274   3.394   2.092
  525TIP3    H2 1540   2.183   3.514   2.106
  526TIP3   OH2 1541   4.803   5.767   0.799
  526TIP3    H1 1542   4.844   5.698   0.850
  526TIP3    H2 1543   4.770   5.723   0.720
  527TIP3   OH2 1544   3.451   4.400   1.452
  527TIP3    H1 1545   3.489   4.316   1.479
  527TIP3    H2 1546   3.479   4.462   1.518
  528TIP3   OH2 1547   5.710   5.297   2.272
  528TIP3    H1 1548   5.697   5.221   2.216
  528TIP3    H2 1549   5.675   5.270   2.358
  529TIP3   OH2 1550   2.742   4.917   3.657
  529TIP3    H1 1551   2.816   4.968   3.624
  529TIP3    H2 1552   2.669   4.979   3.660
  530TIP3   OH2 1553   4.805   6.204   5.665
  530TIP3    H1 1554   4.899   6.220   5.678
  530TIP3    H2 1555   4.775   6.173   5.751
  531TIP3   OH2 1556   2.057   0.993   1.152
  531TIP3    H1 1557   1.971   1.023   1.181
  531TIP3    H2 1558   2.104   1.074   1.130
  532TIP3   OH2 1559   1.793   6.322   0.935
  532TIP3    H1 1560   1.766   6.413   0.939
  532TIP3    H2 1561   1.888   6.325   0.932
  533TIP3   OH2 1562   4.250   2.192   3.186
  533TIP3    H1 1563   4.270   2.162   3.097
  533TIP3    H2 1564   4.277   2.120   3.242
  534TIP3   OH2 1565   3.290   5.652   5.205
  534TIP3    H1 1566   3.231   5.629   5.277
  534TIP3    H2 1567   3.370   5.682   5.247
  535TIP3   OH2 1568   2.199   2.455   4.123
  535TIP3    H1 1569   2.169   2.371   4.158
  535TIP3    H2 1570   2.119   2.500   4.096
  536TIP3   OH2 1571   3.561   5.929   0.084
  536TIP3    H1 1572   3.495   5.866   0.113
  536TIP3    H2 1573   3.625   5.930   0.155
  537TIP3   OH2 1574   4.762   0.071   4.550
  537TIP3    H1 1575   4.787   0.135   4.484
  537TIP3    H2 1576   4.682   0.031   4.516
  538TIP3   OH2 1577   6.353   5.425   3.582
  538TIP3    H1 1578   6.400   5.376   3.650
  538TIP3    H2 1579   6.346   5.363   3.510
  539TIP3   OH2 1580   2.673   2.200   3.209
  539TIP3    H1 1581   2.758   2.242   3.195
  539TIP3    H2 1582   2.692   2.122   3.260
  540TIP3   OH2 1583   5.189   1.273   3.341
  540TIP3    H1 1584   5.128   1.341   3.372
  540TIP3    H2 1585   5.142   1.229   3.271
  541TIP3   OH2 1586   0.905   0.129   1.038
  541TIP3    H1 1587   0.904   0.201   0.974
  541TIP3    H2 1588   0.998   0.110   1.052
  542TIP3   OH2 1589   4.675   4.549   1.205
  542TIP3    H1 1590   4.593   4.595   1.224
  542TIP3    H2 1591   4.661   4.462   1.243
  543TIP3   OH2 1592   1.967   1.574   0.213
  543TIP3    H1 1593   2.015   1.656   0.203
  543TIP3    H2 1594   1.958   1.562   0.307
  544TIP3   OH2 1595   5.980   0.458   0.446
  544TIP3    H1 1596   6.057   0.478   0.393
  544TIP3    H2 1597   5.911   0.439   0.383
  545TIP3   OH2 1598   2.122   5.041   2.252
  545TIP3    H1 1599   2.165   5.084   2.178
  545TIP3    H2 1600   2.090   5.113   2.306
  546TIP3   OH2 1601   5.604   5.245   2.839
  546TIP3    H1 1602   5.692   5.280   2.847
  546TIP3    H2 1603   5.548   5.322   2.832
  547TIP3   OH2 1604   5.794   3.016   5.864
  547TIP3    H1 1605   5.868   2.985   5.916
  547TIP3    H2 1606   5.777   2.945   5.803
  548TIP3   OH2 1607   1.724   2.653   0.234
  548TIP3    H1 1608   1.661   2.699   0.290
  548TIP3    H2 1609   1.679   2.572   0.209
  549TIP3   OH2 1610   5.593   6.401   3.185
  549TIP3    H1 1611   5.589   6.406   3.281
  549TIP3    H2 1612   5.504   6.379   3.158
  550TIP3   OH2 1613   1.736   1.319   1.324
  550TIP3    H1 1614   1.646   1.344   1.345
  550TIP3    H2 1615   1.768   1.390   1.268
  551TIP3   OH2 1616   0.239   3.053   2.486
  551TIP3    H1 1617   0.210   2.980   2.432
  551TIP3    H2 1618   0.330   3.032   2.509
  552TIP3   OH2 1619   2.010   1.431   2.757
  552TIP3    H1 1620   2.011   1.527   2.768
  552TIP3    H2 1621   1.920   1.406   2.777
  553TIP3   OH2 1622   1.092   6.123   0.305
  553TIP3    H1 1623   1.013   6.130   0.359
  553TIP3    H2 1624   1.157   6.084   0.364
  554TIP3   OH2 1625   6.396   1.072   4.932
  554TIP3    H1 1626   6.459   1.094   4.864
  554TIP3    H2 1627   6.445   1.017   4.993
  555TIP3   OH2 1628   2.386   6.518   2.807
  555TIP3    H1 1629   2.307   6.572   2.807
  555TIP3    H2 1630   2.357   6.435   2.847
  556TIP3   OH2 1631   1.156   2.858   4.263
  556TIP3    H1 1632   1.074   2.899   4.289
  556TIP3    H2 1633   1.157   2.863   4.167
  557TIP3   OH2 1634   2.535   4.732   4.033
  557TIP3    H1 1635   2.487   4.705   4.111
  557TIP3    H2 1636   2.604   4.790   4.066
  558TIP3   OH2 1637   6.042   0.270   2.591
  558TIP3    H1 1638   6.034   0.185   2.549
  558TIP3    H2 1639   5.979   0.326   2.545
  559TIP3   OH2 1640   6.530   0.168   0.637
  559TIP3    H1 1641   6.577   0.241   0.597
  559TIP3    H2 1642   6.437   0.192   0.630
  560TIP3   OH2 1643   4.116   4.609   1.142
  560TIP3    H1 1644   4.186   4.623   1.078
  560TIP3    H2 1645   4.144   4.532   1.191
  561TIP3   OH2 1646   2.699   3.906   3.159
  561TIP3    H1 1647   2.692   3.820   3.201
  561TIP3    H2 1648   2.776   3.899   3.103
  562TIP3   OH2 1649   5.318   2.105   0.660
  562TIP3    H1 1650   5.277   2.020   0.678
  562TIP3    H2 1651   5.256   2.169   0.693
  563TIP3   OH2 1652   1.128   3.710   2.792
  563TIP3    H1 1653   1.158   3.635   2.741
  563TIP3    H2 1654   1.032   3.705   2.788
  564TIP3   OH2 1655   0.871   5.649   5.832
  564TIP3    H1 1656   0.877   5.737   5.794
  564TIP3    H2 1657   0.954   5.638   5.879
  565TIP3   OH2 1658   3.376   1.111   4.580
  565TIP3    H1 1659   3.310   1.112   4.650
  565TIP3    H2 1660   3.460   1.114   4.626
  566TIP3   OH2 1661   2.837   5.376   0.985
  566TIP3    H1 1662   2.873   5.432   1.055
  566TIP3    H2 1663   2.907   5.374   0.919
  567TIP3   OH2 1664   3.976   2.828   3.956
  567TIP3    H1 1665   4.017   2.900   3.909
  567TIP3    H2 1666   4.030   2.815   4.034
  568TIP3   OH2 1667   4.408   3.624   2.103
  568TIP3    H1 1668   4.426   3.649   2.013
  568TIP3    H2 1669   4.313   3.633   2.112
  569TIP3   OH2 1670   0.789   5.669   4.358
  569TIP3    H1 1671   0.870   5.650   4.405
  569TIP3    H2 1672   0.815   5.730   4.289
  570TIP3   OH2 1673   7.227   0.462   3.106
  570TIP3    H1 1674   7.201   0.394   3.168
  570TIP3    H2 1675   7.147   0.479   3.056
  571TIP3   OH2 1676   3.185   3.083   1.910
  571TIP3    H1 1677   3.255   3.019   1.919
  571TIP3    H2 1678   3.214   3.158   1.963
  572TIP3   OH2 1679   2.325   3.810   4.337
  572TIP3    H1 1680   2.413   3.811   4.376
  572TIP3    H2 1681   2.291   3.723   4.357
  573TIP3   OH2 1682   3.630   5.487   0.017
  573TIP3    H1 1683   3.717   5.519   0.042
  573TIP3    H2 1684   3.573   5.564   0.024
  574TIP3   OH2 1685   3.771   1.101   0.224
  574TIP3    H1 1686   3.719   1.086   0.303
  574TIP3    H2 1687   3.855   1.134   0.257
  575TIP3   OH2 1688   6.545   5.365   0.416
  575TIP3    H1 1689   6.605   5.419   0.365
  575TIP3    H2 1690   6.458   5.387   0.383
  576TIP3   OH2 1691   2.958   5.015   4.461
  576TIP3    H1 1692   3.049   5.034   4.439
  576TIP3    H2 1693   2.907   5.069   4.401
  577TIP3   OH2 1694   0.603   2.846   2.332
  577TIP3    H1 1695   0.564   2.768   2.293
  577TIP3    H2 1696   0.604   2.911   2.261
  578TIP3   OH2 1697   6.272   1.993   4.314
  578TIP3    H1 1698   6.307   2.070   4.358
  578TIP3    H2 1699   6.185   1.981   4.351
  579TIP3   OH2 1700   0.389   0.310   5.692
  579TIP3    H1 1701   0.309   0.291   5.643
  579TIP3    H2 1702   0.456   0.321   5.624
  580TIP3   OH2 1703   0.298   6.631   4.062
  580TIP3    H1 1704   0.259   6.635   4.149
  580TIP3    H2 1705   0.334   6.718   4.047
  581TIP3   OH2 1706   6.416   5.537   3.237
  581TIP3    H1 1707   6.456   5.546   3.151
  581TIP3    H2 1708   6.325   5.511   3.219
  582TIP3   OH2 1709   3.864   6.626   3.614
  582TIP3    H1 1710   3.949   6.625   3.568
  582TIP3    H2 1711   3.817   6.700   3.576
  583TIP3   OH2 1712   0.374   6.263   5.460
  583TIP3    H1 1713   0.383   6.340   5.517
  583TIP3    H2 1714   0.444   6.205   5.487
  584TIP3   OH2 1715   0.826   6.603   3.005
  584TIP3    H1 1716   0.887   6.643   3.067
  584TIP3    H2 1717   0.782   6.535   3.055
  585TIP3   OH2 1718   5.037   1.393   4.075
  585TIP3    H1 1719   5.125   1.425   4.096
  585TIP3    H2 1720   4.979   1.464   4.103
  586TIP3   OH2 1721   6.778   3.631   5.200
  586TIP3    H1 1722   6.833   3.569   5.249
  586TIP3    H2 1723   6.835   3.706   5.184
  587TIP3   OH2 1724   1.809   5.044   2.318
  587TIP3    H1 1725   1.858   5.058   2.399
  587TIP3    H2 1726   1.801   4.949   2.311
  588TIP3   OH2 1727   6.203   2.905   0.800
  588TIP3    H1 1728   6.126   2.855   0.826
  588TIP3    H2 1729   6.238   2.858   0.725
  589TIP3   OH2 1730   6.549   5.299   5.837
  589TIP3    H1 1731   6.498   5.359   5.890
  589TIP3    H2 1732   6.581   5.352   5.764
  590TIP3   OH2 1733   0.303   6.256   1.192
  590TIP3    H1 1734   0.333   6.328   1.137
  590TIP3    H2 1735   0.384   6.215   1.224
  591TIP3   OH2 1736   2.722   4.229   3.815
  591TIP3    H1 1737   2.751   4.141   3.791
  591TIP3    H2 1738   2.736   4.235   3.909
  592TIP3   OH2 1739   6.292   5.960   2.230
  592TIP3    H1 1740   6.206   5.981   2.195
  592TIP3    H2 1741   6.352   5.973   2.156
  593TIP3   OH2 1742   4.382   1.979   2.746
  593TIP3    H1 1743   4.360   1.896   2.704
  593TIP3    H2 1744   4.307   1.998   2.802
  594TIP3   OH2 1745   6.718   1.213   2.656
  594TIP3    H1 1746   6.636   1.165   2.643
  594TIP3    H2 1747   6.787   1.148   2.643
  595TIP3   OH2 1748   7.103   0.652   4.822
  595TIP3    H1 1749   7.039   0.696   4.878
  595TIP3    H2 1750   7.188   0.679   4.857
  596TIP3   OH2 1751   2.270   2.957   3.209
  596TIP3    H1 1752   2.224   2.873   3.206
  596TIP3    H2 1753   2.288   2.971   3.302
  597TIP3   OH2 1754   2.534   5.016   2.265
  597TIP3    H1 1755   2.546   5.109   2.283
  597TIP3    H2 1756   2.552   4.973   2.349
  598TIP3   OH2 1757   0.438   6.596   1.928
  598TIP3    H1 1758   0.444   6.571   1.836
  598TIP3    H2 1759   0.465   6.688   1.929
  599TIP3   OH2 1760   5.500   3.401   2.814
  599TIP3    H1 1761   5.513   3.353   2.896
  599TIP3    H2 1762   5.534   3.489   2.832
  600TIP3   OH2 1763   2.768   4.663   4.323
  600TIP3    H1 1764   2.835   4.685   4.388
  600TIP3    H2 1765   2.752   4.569   4.337
  601TIP3   OH2 1766   0.468   0.561   3.268
  601TIP3    H1 1767   0.405   0.506   3.314
  601TIP3    H2 1768   0.552   0.541   3.309
  602TIP3   OH2 1769   1.137   6.054   2.316
  602TIP3    H1 1770   1.057   6.003   2.315
  602TIP3    H2 1771   1.139   6.098   2.231
  603TIP3   OH2 1772   4.467   4.263   5.315
  603TIP3    H1 1773   4.527   4.284   5.386
  603TIP3    H2 1774   4.524   4.248   5.239
  604TIP3   OH2 1775   4.384   3.804   2.322
  604TIP3    H1 1776   4.398   3.732   2.261
  604TIP3    H2 1777   4.444   3.873   2.292
  605TIP3   OH2 1778   6.984   4.445   5.331
  605TIP3    H1 1779   7.062   4.464   5.278
  605TIP3    H2 1780   6.914   4.494   5.287
  606TIP3   OH2 1781   4.171   5.773   3.253
  606TIP3    H1 1782   4.109   5.739   3.317
  606TIP3    H2 1783   4.214   5.846   3.298
  607TIP3   OH2 1784   0.905   4.126   2.185
  607TIP3    H1 1785   0.913   4.060   2.254
  607TIP3    H2 1786   0.912   4.077   2.103
  608TIP3   OH2 1787   2.594   3.238   1.801
  608TIP3    H1 1788   2.580   3.146   1.825
  608TIP3    H2 1789   2.683   3.240   1.765
  609TIP3   OH2 1790   4.414   3.956   5.708
  609TIP3    H1 1791   4.368   3.901   5.773
  609TIP3    H2 1792   4.474   3.895   5.664
  610TIP3   OH2 1793   5.509   2.393   2.001
  610TIP3    H1 1794   5.498   2.485   1.975
  610TIP3    H2 1795   5.429   2.372   2.049
  611TIP3   OH2 1796   6.094   1.729   0.775
  611TIP3    H1 1797   6.032   1.788   0.731
  611TIP3    H2 1798   6.139   1.685   0.703
  612TIP3   OH2 1799  -0.008   1.896   3.912
  612TIP3    H1 1800  -0.012   1.940   3.827
  612TIP3    H2 1801   0.072   1.930   3.953
  613TIP3   OH2 1802   3.611   2.286   5.284
  613TIP3    H1 1803   3.574   2.358   5.233
  613TIP3    H2 1804   3.546   2.216   5.276
  614TIP3   OH2 1805   5.545   3.303   5.452
  614TIP3    H1 1806   5.579   3.384   5.490
  614TIP3    H2 1807   5.607   3.235   5.482
  615TIP3   OH2 1808   4.571   3.549   0.495
  615TIP3    H1 1809   4.640   3.606   0.529
  615TIP3    H2 1810   4.619   3.477   0.453
  616TIP3   OH2 1811   1.560   6.651   4.759
  616TIP3    H1 1812   1.499   6.577   4.755
  616TIP3    H2 1813   1.567   6.681   4.668
  617TIP3   OH2 1814   2.329   4.484   0.847
  617TIP3    H1 1815   2.281   4.404   0.826
  617TIP3    H2 1816   2.402   4.486   0.785
  618TIP3   OH2 1817   4.198   5.793   5.101
  618TIP3    H1 1818   4.287   5.775   5.131
  618TIP3    H2 1819   4.171   5.715   5.054
  619TIP3   OH2 1820   2.322   2.547   1.371
  619TIP3    H1 1821   2.264   2.604   1.421
  619TIP3    H2 1822   2.390   2.605   1.337
  620TIP3   OH2 1823   1.677   3.856   5.919
  620TIP3    H1 1824   1.660   3.950   5.920
  620TIP3    H2 1825   1.629   3.822   5.994
  621TIP3   OH2 1826   3.280   2.807   0.029
  621TIP3    H1 1827   3.257   2.883   0.082
  621TIP3    H2 1828   3.200   2.754   0.026
  622TIP3   OH2 1829   6.301   5.984   3.510
  622TIP3    H1 1830   6.314   5.903   3.461
  622TIP3    H2 1831   6.378   6.037   3.491
  623TIP3   OH2 1832   3.328   6.630   5.768
  623TIP3    H1 1833   3.349   6.720   5.791
  623TIP3    H2 1834   3.408   6.596   5.728
  624TIP3   OH2 1835   2.923   4.859   2.478
  624TIP3    H1 1836   2.903   4.905   2.397
  624TIP3    H2 1837   2.996   4.801   2.456
  625TIP3   OH2 1838   2.982   0.103   5.307
  625TIP3    H1 1839   3.004   0.184   5.352
  625TIP3    H2 1840   3.067   0.067   5.280
  626TIP3   OH2 1841   0.486   4.838   1.876
  626TIP3    H1 1842   0.460   4.751   1.847
  626TIP3    H2 1843   0.427   4.897   1.829
  627TIP3   OH2 1844   4.436   3.642   3.621
  627TIP3    H1 1845   4.403   3.711   3.679
  627TIP3    H2 1846   4.357   3.595   3.593
  628TIP3   OH2 1847   6.232   2.969   0.186
  628TIP3    H1 1848   6.260   3.059   0.172
  628TIP3    H2 1849   6.137   2.975   0.196
  629TIP3   OH2 1850   0.644   1.373   4.687
  629TIP3    H1 1851   0.737   1.368   4.666
  629TIP3    H2 1852   0.641   1.406   4.777
  630TIP3   OH2 1853   6.617   2.577   2.791
  630TIP3    H1 1854   6.562   2.560   2.868
  630TIP3    H2 1855   6.686   2.634   2.824
  631TIP3   OH2 1856   4.718   6.144   1.500
  631TIP3    H1 1857   4.690   6.074   1.441
  631TIP3    H2 1858   4.724   6.222   1.444
  632TIP3   OH2 1859   3.905   2.333   1.519
  632TIP3    H1 1860   3.925   2.413   1.568
  632TIP3    H2 1861   3.810   2.334   1.508
  633TIP3   OH2 1862   5.685   5.038   3.880
  633TIP3    H1 1863   5.706   4.950   3.911
  633TIP3    H2 1864   5.598   5.030   3.840
  634TIP3   OH2 1865   4.717   6.473   0.085
  634TIP3    H1 1866   4.722   6.379   0.100
  634TIP3    H2 1867   4.653   6.505   0.149
  635TIP3   OH2 1868   1.661   1.955   4.269
  635TIP3    H1 1869   1.660   1.955   4.173
  635TIP3    H2 1870   1.582   1.908   4.294
  636TIP3   OH2 1871   4.473   1.442   3.867
  636TIP3    H1 1872   4.386   1.458   3.903
  636TIP3    H2 1873   4.521   1.524   3.883
  637TIP3   OH2 1874   3.910   3.154   0.473
  637TIP3    H1 1875   3.873   3.104   0.545
  637TIP3    H2 1876   3.839   3.158   0.408
  638TIP3   OH2 1877   1.389   1.483   4.713
  638TIP3    H1 1878   1.409   1.492   4.620
  638TIP3    H2 1879   1.430   1.558   4.754
  639TIP3   OH2 1880   5.690   3.563   4.434
  639TIP3    H1 1881   5.738   3.643   4.452
  639TIP3    H2 1882   5.613   3.567   4.492
  640TIP3   OH2 1883   4.592   1.902   3.387
  640TIP3    H1 1884   4.578   1.986   3.343
  640TIP3    H2 1885   4.568   1.836   3.322
  641TIP3   OH2 1886   1.886   6.276   4.961
  641TIP3    H1 1887   1.935   6.259   5.041
  641TIP3    H2 1888   1.919   6.212   4.898
  642TIP3   OH2 1889   6.018   3.953   3.572
  642TIP3    H1 1890   6.014   3.984   3.663
  642TIP3    H2 1891   5.986   4.026   3.520
  643TIP3   OH2 1892   2.313   5.271   5.786
  643TIP3    H1 1893   2.342   5.256   5.877
  643TIP3    H2 1894   2.378   5.225   5.733
  644TIP3   OH2 1895   3.834   0.099   2.064
  644TIP3    H1 1896   3.770   0.097   1.993
  644TIP3    H2 1897   3.919   0.102   2.020
  645TIP3   OH2 1898   2.411   4.834   2.868
  645TIP3    H1 1899   2.486   4.777   2.848
  645TIP3    H2 1900   2.337   4.793   2.824
  646TIP3   OH2 1901   0.156   4.247   2.348
  646TIP3    H1 1902   0.078   4.206   2.311
  646TIP3    H2 1903   0.149   4.231   2.442
  647TIP3   OH2 1904   1.118   1.597   4.996
  647TIP3    H1 1905   1.192   1.609   5.055
  647TIP3    H2 1906   1.051   1.554   5.049
  648TIP3   OH2 1907   6.949   4.758   3.634
  648TIP3    H1 1908   6.987   4.671   3.621
  648TIP3    H2 1909   6.854   4.744   3.631
  649TIP3   OH2 1910   5.173   6.387   0.545
  649TIP3    H1 1911   5.152   6.304   0.586
  649TIP3    H2 1912   5.113   6.450   0.584
  650TIP3   OH2 1913   3.788   2.716   0.583
  650TIP3    H1 1914   3.719   2.742   0.522
  650TIP3    H2 1915   3.750   2.645   0.633
  651TIP3   OH2 1916   4.480   0.702   2.248
  651TIP3    H1 1917   4.544   0.648   2.294
  651TIP3    H2 1918   4.486   0.787   2.290
  652TIP3   OH2 1919   5.835   2.439   3.630
  652TIP3    H1 1920   5.907   2.453   3.568
  652TIP3    H2 1921   5.784   2.367   3.592
  653TIP3   OH2 1922   5.703   6.467   5.487
  653TIP3    H1 1923   5.626   6.428   5.445
  653TIP3    H2 1924   5.699   6.437   5.578
  654TIP3   OH2 1925   0.361   4.681   3.899
  654TIP3    H1 1926   0.275   4.658   3.934
  654TIP3    H2 1927   0.408   4.716   3.974
  655TIP3   OH2 1928   4.921   0.166   0.843
  655TIP3    H1 1929   4.836   0.123   0.850
  655TIP3    H2 1930   4.975   0.105   0.794
  656TIP3   OH2 1931   0.549   1.937   0.418
  656TIP3    H1 1932   0.510   2.002   0.360
  656TIP3    H2 1933   0.494   1.859   0.407
  657TIP3   OH2 1934   2.562   3.639   0.364
  657TIP3    H1 1935   2.570   3.571   0.296
  657TIP3    H2 1936   2.598   3.599   0.443
  658TIP3   OH2 1937   5.378   0.676   3.981
  658TIP3    H1 1938   5.363   0.765   3.950
  658TIP3    H2 1939   5.385   0.623   3.902
  659TIP3   OH2 1940   6.511   6.144   3.459
  659TIP3    H1 1941   6.555   6.179   3.536
  659TIP3    H2 1942   6.571   6.163   3.387
  660TIP3   OH2 1943   3.549   3.886   4.379
  660TIP3    H1 1944   3.558   3.792   4.394
  660TIP3    H2 1945   3.546   3.895   4.283
  661TIP3   OH2 1946   6.124   4.396   1.632
  661TIP3    H1 1947   6.208   4.426   1.598
  661TIP3    H2 1948   6.088   4.341   1.563
  662TIP3   OH2 1949   4.082   1.313   0.604
  662TIP3    H1 1950   4.115   1.402   0.611
  662TIP3    H2 1951   4.070   1.284   0.694
  663TIP3   OH2 1952   1.350   5.215   0.982
  663TIP3    H1 1953   1.336   5.201   0.889
  663TIP3    H2 1954   1.267   5.190   1.023
  664TIP3   OH2 1955   3.598   5.777   0.351
  664TIP3    H1 1956   3.621   5.804   0.440
  664TIP3    H2 1957   3.611   5.682   0.351
  665TIP3   OH2 1958   4.333   1.792   4.960
  665TIP3    H1 1959   4.356   1.748   5.042
  665TIP3    H2 1960   4.400   1.861   4.951
  666TIP3   OH2 1961   6.388   4.142   1.352
  666TIP3    H1 1962   6.307   4.102   1.319
  666TIP3    H2 1963   6.399   4.105   1.440
  667TIP3   OH2 1964   6.587   5.147   4.606
  667TIP3    H1 1965   6.492   5.138   4.595
  667TIP3    H2 1966   6.624   5.102   4.530
  668TIP3   OH2 1967   2.160   5.314   1.796
  668TIP3    H1 1968   2.171   5.345   1.885
  668TIP3    H2 1969   2.099   5.240   1.804
  669TIP3   OH2 1970   2.930   5.746   0.569
  669TIP3    H1 1971   2.984   5.819   0.598
  669TIP3    H2 1972   2.891   5.712   0.649
  670TIP3   OH2 1973   2.912   4.852   1.966
  670TIP3    H1 1974   2.899   4.930   1.911
  670TIP3    H2 1975   3.006   4.836   1.961
  671TIP3   OH2 1976   5.866   3.079   0.531
  671TIP3    H1 1977   5.798   3.052   0.469
  671TIP3    H2 1978   5.831   3.054   0.617
  672TIP3   OH2 1979   2.788   3.354   3.283
  672TIP3    H1 1980   2.694   3.353   3.303
  672TIP3    H2 1981   2.796   3.299   3.205
  673TIP3   OH2 1982   3.330   0.852   1.258
  673TIP3    H1 1983   3.354   0.932   1.211
  673TIP3    H2 1984   3.398   0.842   1.325
  674TIP3   OH2 1985   4.881   4.178   4.865
  674TIP3    H1 1986   4.938   4.223   4.928
  674TIP3    H2 1987   4.900   4.220   4.781
  675TIP3   OH2 1988   1.996   2.055   5.279
  675TIP3    H1 1989   2.044   2.129   5.241
  675TIP3    H2 1990   1.936   2.027   5.209
  676TIP3   OH2 1991   2.610   5.690   2.399
  676TIP3    H1 1992   2.516   5.691   2.379
  676TIP3    H2 1993   2.651   5.724   2.320
  677TIP3   OH2 1994   0.755   6.392   3.150
  677TIP3    H1 1995   0.746   6.302   3.120
  677TIP3    H2 1996   0.684   6.404   3.212
  678TIP3   OH2 1997   5.944   2.531   0.733
  678TIP3    H1 1998   6.038   2.533   0.713
  678TIP3    H2 1999   5.907   2.605   0.685
  679TIP3   OH2 2000   1.517   5.393   5.679
  679TIP3    H1 2001   1.550   5.320   5.626
  679TIP3    H2 2002   1.443   5.428   5.630
  680TIP3   OH2 2003   1.308   4.904   4.161
  680TIP3    H1 2004   1.263   4.981   4.194
  680TIP3    H2 2005   1.400   4.917   4.183
  681TIP3   OH2 2006   5.110   1.894   1.165
  681TIP3    H1 2007   5.054   1.965   1.195
  681TIP3    H2 2008   5.183   1.937   1.121
  682TIP3   OH2 2009   4.116   2.651   3.456
  682TIP3    H1 2010   4.131   2.586   3.524
  682TIP3    H2 2011   4.128   2.735   3.500
  683TIP3   OH2 2012   0.861   2.611   2.135
  683TIP3    H1 2013   0.846   2.688   2.190
  683TIP3    H2 2014   0.938   2.569   2.173
  684TIP3   OH2 2015   0.060   2.458   0.354
  684TIP3    H1 2016  -0.032   2.477   0.373
  684TIP3    H2 2017   0.063   2.363   0.343
  685TIP3   OH2 2018   3.676   5.982   5.037
  685TIP3    H1 2019   3.738   6.055   5.034
  685TIP3    H2 2020   3.598   6.018   5.080
  686TIP3   OH2 2021   6.837   1.480   0.149
  686TIP3    H1 2022   6.747   1.504   0.172
  686TIP3    H2 2023   6.851   1.521   0.063
  687TIP3   OH2 2024   4.147   5.370   4.511
  687TIP3    H1 2025   4.176   5.280   4.497
  687TIP3    H2 2026   4.228   5.419   4.526
  688TIP3   OH2 2027   1.151   0.053   2.776
  688TIP3    H1 2028   1.229   0.098   2.807
  688TIP3    H2 2029   1.088   0.061   2.848
  689TIP3   OH2 2030   1.601   5.175   0.145
  689TIP3    H1 2031   1.688   5.207   0.169
  689TIP3    H2 2032   1.591   5.094   0.196
  690TIP3   OH2 2033   3.835   2.191   3.521
  690TIP3    H1 2034   3.914   2.236   3.491
  690TIP3    H2 2035   3.867   2.123   3.579
  691TIP3   OH2 2036   1.022   3.166   4.140
  691TIP3    H1 2037   0.934   3.160   4.103
  691TIP3    H2 2038   1.008   3.199   4.229
  692TIP3   OH2 2039   2.760   0.214   2.779
  692TIP3    H1 2040   2.772   0.216   2.684
  692TIP3    H2 2041   2.798   0.130   2.807
  693TIP3   OH2 2042   3.317   4.220   4.072
  693TIP3    H1 2043   3.407   4.249   4.059
  693TIP3    H2 2044   3.305   4.219   4.167
  694TIP3   OH2 2045   1.633   1.730   2.468
  694TIP3    H1 2046   1.616   1.726   2.374
  694TIP3    H2 2047   1.682   1.649   2.486
  695TIP3   OH2 2048   7.110   0.354   4.337
  695TIP3    H1 2049   7.019   0.362   4.306
  695TIP3    H2 2050   7.152   0.435   4.308
  696TIP3   OH2 2051   5.236   6.016   5.638
  696TIP3    H1 2052   5.197   5.939   5.681
  696TIP3    H2 2053   5.306   5.979   5.584
  697TIP3   OH2 2054   3.187   1.383   3.283
  697TIP3    H1 2055   3.187   1.465   3.333
  697TIP3    H2 2056   3.150   1.318   3.342
  698TIP3   OH2 2057   3.293   6.742   0.331
  698TIP3    H1 2058   3.258   6.659   0.300
  698TIP3    H2 2059   3.373   6.718   0.378
  699TIP3   OH2 2060   5.283   6.191   2.091
  699TIP3    H1 2061   5.204   6.150   2.124
  699TIP3    H2 2062   5.293   6.156   2.002
  700TIP3   OH2 2063   6.052   3.328   3.151
  700TIP3    H1 2064   6.085   3.417   3.138
  700TIP3    H2 2065   5.998   3.311   3.074
  701TIP3   OH2 2066   4.850   4.464   3.614
  701TIP3    H1 2067   4.840   4.382   3.565
  701TIP3    H2 2068   4.814   4.444   3.700
  702TIP3   OH2 2069   0.931   5.449   5.486
  702TIP3    H1 2070   0.884   5.403   5.416
  702TIP3    H2 2071   0.869   5.452   5.559
  703TIP3   OH2 2072   1.528   2.063   0.991
  703TIP3    H1 2073   1.447   2.060   1.043
  703TIP3    H2 2074   1.504   2.024   0.907
  704TIP3   OH2 2075   5.076   0.293   1.508
  704TIP3    H1 2076   5.084   0.378   1.463
  704TIP3    H2 2077   4.994   0.256   1.474
  705TIP3   OH2 2078   2.243   6.491   2.281
  705TIP3    H1 2079   2.335   6.508   2.263
  705TIP3    H2 2080   2.196   6.563   2.238
  706TIP3   OH2 2081   4.154   1.014   1.811
  706TIP3    H1 2082   4.205   1.060   1.744
  706TIP3    H2 2083   4.079   0.978   1.763
  707TIP3   OH2 2084   0.587   1.797   5.764
  707TIP3    H1 2085   0.633   1.734   5.708
  707TIP3    H2 2086   0.513   1.747   5.799
  708TIP3   OH2 2087   2.041   5.142   0.257
  708TIP3    H1 2088   2.079   5.155   0.170
  708TIP3    H2 2089   1.947   5.155   0.245
  709TIP3   OH2 2090   2.645   2.607   0.748
  709TIP3    H1 2091   2.577   2.597   0.814
  709TIP3    H2 2092   2.715   2.656   0.791
  710TIP3   OH2 2093   2.248   3.319   0.407
  710TIP3    H1 2094   2.206   3.264   0.341
  710TIP3    H2 2095   2.208   3.405   0.395
  711TIP3   OH2 2096   2.876   6.374   0.215
  711TIP3    H1 2097   2.816   6.381   0.140
  711TIP3    H2 2098   2.944   6.314   0.186
  712TIP3   OH2 2099   1.593   0.671   0.151
  712TIP3    H1 2100   1.684   0.679   0.180
  712TIP3    H2 2101   1.541   0.692   0.228
  713TIP3   OH2 2102   4.547   3.831   0.378
  713TIP3    H1 2103   4.487   3.865   0.445
  713TIP3    H2 2104   4.593   3.759   0.422
  714TIP3   OH2 2105   5.086   1.573   0.547
  714TIP3    H1 2106   5.180   1.562   0.532
  714TIP3    H2 2107   5.062   1.647   0.491
  715TIP3   OH2 2108   2.062   1.733   3.542
  715TIP3    H1 2109   1.979   1.779   3.555
  715TIP3    H2 2110   2.077   1.686   3.624
  716TIP3   OH2 2111   2.525   1.939   3.037
  716TIP3    H1 2112   2.473   1.871   3.079
  716TIP3    H2 2113   2.462   2.008   3.014
  717TIP3   OH2 2114   4.293   0.251   0.341
  717TIP3    H1 2115   4.253   0.168   0.314
  717TIP3    H2 2116   4.375   0.256   0.291
  718TIP3   OH2 2117   3.995   0.576   2.232
  718TIP3    H1 2118   4.078   0.584   2.278
  718TIP3    H2 2119   4.016   0.532   2.150
  719TIP3   OH2 2120   1.105   3.723   5.582
  719TIP3    H1 2121   1.073   3.796   5.634
  719TIP3    H2 2122   1.191   3.752   5.550
  720TIP3   OH2 2123   3.270   4.926   0.747
  720TIP3    H1 2124   3.290   4.891   0.660
  720TIP3    H2 2125   3.342   4.895   0.802
  721TIP3   OH2 2126   1.337   3.367   0.097
  721TIP3    H1 2127   1.393   3.395   0.025
  721TIP3    H2 2128   1.308   3.449   0.138
  722TIP3   OH2 2129   5.242   5.923   4.079
  722TIP3    H1 2130   5.288   5.962   4.154
  722TIP3    H2 2131   5.188   5.853   4.117
  723TIP3   OH2 2132   5.707   5.416   5.637
  723TIP3    H1 2133   5.656   5.475   5.581
  723TIP3    H2 2134   5.701   5.331   5.593
  724TIP3   OH2 2135   6.393   5.083   2.626
  724TIP3    H1 2136   6.484   5.107   2.608
  724TIP3    H2 2137   6.357   5.061   2.540
  725TIP3   OH2 2138   4.186   5.405   1.030
  725TIP3    H1 2139   4.097   5.374   1.046
  725TIP3    H2 2140   4.219   5.430   1.116
  726TIP3   OH2 2141   4.852   2.719   3.872
  726TIP3    H1 2142   4.912   2.647   3.860
  726TIP3    H2 2143   4.906   2.791   3.906
  727TIP3   OH2 2144   1.068   6.471   4.749
  727TIP3    H1 2145   0.996   6.502   4.805
  727TIP3    H2 2146   1.027   6.454   4.664
  728TIP3   OH2 2147   0.079   1.675   5.428
  728TIP3    H1 2148   0.073   1.711   5.339
  728TIP3    H2 2149   0.137   1.599   5.419
  729TIP3   OH2 2150   2.326   5.247   3.401
  729TIP3    H1 2151   2.393   5.289   3.455
  729TIP3    H2 2152   2.375   5.186   3.346
  730TIP3   OH2 2153   5.640   5.462   4.003
  730TIP3    H1 2154   5.700   5.396   3.972
  730TIP3    H2 2155   5.680   5.496   4.083
  731TIP3   OH2 2156   2.380   0.282   4.540
  731TIP3    H1 2157   2.380   0.302   4.633
  731TIP3    H2 2158   2.381   0.186   4.536
  732TIP3   OH2 2159   6.659   5.054   4.990
  732TIP3    H1 2160   6.731   5.117   4.995
  732TIP3    H2 2161   6.703   4.968   4.989
  733TIP3   OH2 2162   7.143   0.942   2.622
  733TIP3    H1 2163   7.140   0.864   2.678
  733TIP3    H2 2164   7.062   0.989   2.641
  734TIP3   OH2 2165   2.003   3.340   5.855
  734TIP3    H1 2166   1.972   3.402   5.789
  734TIP3    H2 2167   2.073   3.292   5.811
  735TIP3   OH2 2168   2.402   2.656   5.495
  735TIP3    H1 2169   2.310   2.681   5.489
  735TIP3    H2 2170   2.405   2.567   5.461
  736TIP3   OH2 2171   6.405   3.748   1.523
  736TIP3    H1 2172   6.316   3.746   1.559
  736TIP3    H2 2173   6.431   3.656   1.519
  737TIP3   OH2 2174   6.690   3.623   4.630
  737TIP3    H1 2175   6.657   3.534   4.645
  737TIP3    H2 2176   6.614   3.679   4.645
  738TIP3   OH2 2177   2.314   2.168   2.223
  738TIP3    H1 2178   2.375   2.230   2.264
  738TIP3    H2 2179   2.287   2.110   2.294
  739TIP3   OH2 2180   3.295   2.381   1.022
  739TIP3    H1 2181   3.252   2.311   1.071
  739TIP3    H2 2182   3.223   2.434   0.987
  740TIP3   OH2 2183   4.042   0.418   0.307
  740TIP3    H1 2184   4.132   0.436   0.336
  740TIP3    H2 2185   4.013   0.346   0.364
  741TIP3   OH2 2186   7.056   1.628   0.992
  741TIP3    H1 2187   6.974   1.675   0.985
  741TIP3    H2 2188   7.048   1.555   0.930
  742TIP3   OH2 2189   0.347   4.426   4.270
  742TIP3    H1 2190   0.373   4.445   4.360
  742TIP3    H2 2191   0.429   4.400   4.227
  743TIP3   OH2 2192   0.054   4.644   5.423
  743TIP3    H1 2193   0.038   4.608   5.510
  743TIP3    H2 2194   0.039   4.571   5.363
  744TIP3   OH2 2195   7.054   1.662   2.279
  744TIP3    H1 2196   7.115   1.619   2.339
  744TIP3    H2 2197   7.111   1.709   2.217
  745TIP3   OH2 2198   0.334   6.488   1.019
  745TIP3    H1 2199   0.259   6.488   0.958
  745TIP3    H2 2200   0.409   6.509   0.964
  746TIP3   OH2 2201   5.052   6.644   3.343
  746TIP3    H1 2202   5.147   6.650   3.346
  746TIP3    H2 2203   5.022   6.676   3.428
  747TIP3   OH2 2204   3.865   6.362   4.279
  747TIP3    H1 2205   3.885   6.399   4.193
  747TIP3    H2 2206   3.826   6.276   4.259
  748TIP3   OH2 2207   4.710   2.329   1.330
  748TIP3    H1 2208   4.696   2.369   1.244
  748TIP3    H2 2209   4.666   2.387   1.391
  749TIP3   OH2 2210   4.204   1.741   4.427
  749TIP3    H1 2211   4.176   1.684   4.356
  749TIP3    H2 2212   4.235   1.820   4.382
  750TIP3   OH2 2213   4.191   6.266   2.686
  750TIP3    H1 2214   4.104   6.255   2.726
  750TIP3    H2 2215   4.180   6.235   2.596
  751TIP3   OH2 2216   7.043   0.718   0.896
  751TIP3    H1 2217   6.996   0.760   0.968
  751TIP3    H2 2218   7.075   0.636   0.932
  752TIP3   OH2 2219   2.869   1.977   3.710
  752TIP3    H1 2220   2.780   2.013   3.701
  752TIP3    H2 2221   2.924   2.053   3.726
  753TIP3   OH2 2222   0.954   3.508   4.778
  753TIP3    H1 2223   0.878   3.561   4.754
  753TIP3    H2 2224   0.934   3.478   4.867
  754TIP3   OH2 2225   2.969   4.799   4.968
  754TIP3    H1 2226   2.937   4.888   4.973
  754TIP3    H2 2227   3.012   4.793   4.882
  755TIP3   OH2 2228   0.074   2.513   3.454
  755TIP3    H1 2229   0.052   2.420   3.454
  755TIP3    H2 2230   0.141   2.522   3.386
  756TIP3   OH2 2231   3.235   5.173   1.707
  756TIP3    H1 2232   3.315   5.214   1.740
  756TIP3    H2 2233   3.175   5.173   1.782
  757TIP3   OH2 2234   6.449   3.897   5.122
  757TIP3    H1 2235   6.480   3.978   5.081
  757TIP3    H2 2236   6.487   3.900   5.210
  758TIP3   OH2 2237   5.608   0.185   5.416
  758TIP3    H1 2238   5.636   0.195   5.325
  758TIP3    H2 2239   5.620   0.271   5.454
  759TIP3   OH2 2240   2.891   1.428   4.524
  759TIP3    H1 2241   2.968   1.465   4.567
  759TIP3    H2 2242   2.865   1.355   4.580
  760TIP3   OH2 2243   1.068   1.398   1.750
  760TIP3    H1 2244   1.036   1.349   1.674
  760TIP3    H2 2245   1.155   1.364   1.766
  761TIP3   OH2 2246   5.681   6.413   1.412
  761TIP3    H1 2247   5.661   6.502   1.440
  761TIP3    H2 2248   5.775   6.404   1.427
  762TIP3   OH2 2249   5.619   4.694   4.858
  762TIP3    H1 2250   5.634   4.709   4.952
  762TIP3    H2 2251   5.634   4.780   4.817
  763TIP3   OH2 2252   3.303   4.170   2.777
  763TIP3    H1 2253   3.302   4.082   2.815
  763TIP3    H2 2254   3.210   4.192   2.766
  764TIP3   OH2 2255   6.192   5.295   1.983
  764TIP3    H1 2256   6.257   5.365   1.978
  764TIP3    H2 2257   6.239   5.216   1.954
  765TIP3   OH2 2258   4.375   0.528   2.042
  765TIP3    H1 2259   4.395   0.602   2.100
  765TIP3    H2 2260   4.455   0.476   2.043
  766TIP3   OH2 2261   3.183   3.716   1.382
  766TIP3    H1 2262   3.149   3.805   1.371
  766TIP3    H2 2263   3.105   3.661   1.389
  767TIP3   OH2 2264   4.128   2.373   4.467
  767TIP3    H1 2265   4.097   2.432   4.398
  767TIP3    H2 2266   4.122   2.286   4.428
  768TIP3   OH2 2267   0.286   3.835   5.065
  768TIP3    H1 2268   0.217   3.897   5.041
  768TIP3    H2 2269   0.295   3.845   5.160
  769TIP3   OH2 2270   0.229   3.000   4.958
  769TIP3    H1 2271   0.193   3.009   4.870
  769TIP3    H2 2272   0.226   2.906   4.976
  770TIP3   OH2 2273   0.433   1.899   1.406
  770TIP3    H1 2274   0.340   1.923   1.407
  770TIP3    H2 2275   0.473   1.957   1.341
  771TIP3   OH2 2276   5.051   6.191   4.937
  771TIP3    H1 2277   4.998   6.219   4.862
  771TIP3    H2 2278   5.044   6.096   4.938
  772TIP3   OH2 2279   6.745   0.018   3.564
  772TIP3    H1 2280   6.661   0.063   3.558
  772TIP3    H2 2281   6.807   0.085   3.593
  773TIP3   OH2 2282   4.713   0.537   5.800
  773TIP3    H1 2283   4.630   0.538   5.847
  773TIP3    H2 2284   4.720   0.625   5.763
  774TIP3   OH2 2285   5.985   1.598   2.661
  774TIP3    H1 2286   5.944   1.516   2.689
  774TIP3    H2 2287   5.977   1.656   2.737
  775TIP3   OH2 2288   1.264   6.554   5.290
  775TIP3    H1 2289   1.296   6.497   5.219
  775TIP3    H2 2290   1.315   6.634   5.280
  776TIP3   OH2 2291   6.080   0.792   1.801
  776TIP3    H1 2292   6.170   0.758   1.798
  776TIP3    H2 2293   6.036   0.750   1.727
  777TIP3   OH2 2294   5.687   6.602   3.500
  777TIP3    H1 2295   5.627   6.675   3.486
  777TIP3    H2 2296   5.751   6.610   3.430
  778TIP3   OH2 2297   4.946   4.057   4.328
  778TIP3    H1 2298   4.936   4.108   4.248
  778TIP3    H2 2299   5.036   4.076   4.357
  779TIP3   OH2 2300   1.334   5.734   2.011
  779TIP3    H1 2301   1.408   5.678   1.991
  779TIP3    H2 2302   1.278   5.681   2.068
  780TIP3   OH2 2303   0.811   3.264   1.002
  780TIP3    H1 2304   0.785   3.195   0.940
  780TIP3    H2 2305   0.876   3.315   0.954
  781TIP3   OH2 2306   4.719   5.633   2.055
  781TIP3    H1 2307   4.658   5.696   2.016
  781TIP3    H2 2308   4.746   5.675   2.137
  782TIP3   OH2 2309   3.257   0.548   2.795
  782TIP3    H1 2310   3.216   0.463   2.778
  782TIP3    H2 2311   3.335   0.550   2.739
  783TIP3   OH2 2312   5.658   6.173   0.680
  783TIP3    H1 2313   5.702   6.195   0.598
  783TIP3    H2 2314   5.574   6.136   0.654
  784TIP3   OH2 2315   1.718   5.421   1.765
  784TIP3    H1 2316   1.765   5.504   1.767
  784TIP3    H2 2317   1.762   5.370   1.697
  785TIP3   OH2 2318   0.740   3.204   1.677
  785TIP3    H1 2319   0.688   3.151   1.737
  785TIP3    H2 2320   0.749   3.149   1.599
  786TIP3   OH2 2321   2.641   4.745   1.370
  786TIP3    H1 2322   2.698   4.712   1.300
  786TIP3    H2 2323   2.574   4.677   1.379
  787TIP3   OH2 2324   2.923   2.543   2.511
  787TIP3    H1 2325   2.963   2.598   2.443
  787TIP3    H2 2326   2.983   2.551   2.585
  788TIP3   OH2 2327   0.107   2.666   0.126
  788TIP3    H1 2328   0.054   2.589   0.148
  788TIP3    H2 2329   0.129   2.704   0.211
  789TIP3   OH2 2330   4.102   4.539   0.850
  789TIP3    H1 2331   4.078   4.619   0.803
  789TIP3    H2 2332   4.193   4.523   0.825
  790TIP3   OH2 2333   1.120   5.754   3.640
  790TIP3    H1 2334   1.155   5.666   3.628
  790TIP3    H2 2335   1.158   5.785   3.722
  791TIP3   OH2 2336   1.386   4.640   4.484
  791TIP3    H1 2337   1.449   4.711   4.493
  791TIP3    H2 2338   1.311   4.666   4.537
  792TIP3   OH2 2339   4.774   1.422   3.186
  792TIP3    H1 2340   4.852   1.444   3.135
  792TIP3    H2 2341   4.727   1.505   3.196
  793TIP3   OH2 2342   1.026   4.267   5.070
  793TIP3    H1 2343   1.003   4.309   5.153
  793TIP3    H2 2344   1.037   4.175   5.091
  794TIP3   OH2 2345   6.230   2.099   0.772
  794TIP3    H1 2346   6.285   2.045   0.829
  794TIP3    H2 2347   6.212   2.178   0.824
  795TIP3   OH2 2348   1.895   2.566   0.592
  795TIP3    H1 2349   1.867   2.650   0.555
  795TIP3    H2 2350   1.980   2.549   0.551
  796TIP3   OH2 2351   7.053   3.429   4.800
  796TIP3    H1 2352   7.083   3.492   4.865
  796TIP3    H2 2353   7.109   3.444   4.724
  797TIP3   OH2 2354   4.023   6.305   3.805
  797TIP3    H1 2355   4.111   6.342   3.794
  797TIP3    H2 2356   3.981   6.362   3.869
  798TIP3   OH2 2357   2.097   2.866   0.198
  798TIP3    H1 2358   2.004   2.865   0.178
  798TIP3    H2 2359   2.121   2.959   0.195
  799TIP3   OH2 2360   6.372   3.739   1.841
  799TIP3    H1 2361   6.383   3.834   1.837
  799TIP3    H2 2362   6.326   3.723   1.923
  800TIP3   OH2 2363   6.571   1.475   0.352
  800TIP3    H1 2364   6.660   1.502   0.377
  800TIP3    H2 2365   6.553   1.522   0.271
  801TIP3   OH2 2366   0.828   6.364   5.476
  801TIP3    H1 2367   0.777   6.429   5.427
  801TIP3    H2 2368   0.910   6.409   5.497
  802TIP3   OH2 2369   3.762   0.052   5.335
  802TIP3    H1 2370   3.794   0.138   5.360
  802TIP3    H2 2371   3.709   0.023   5.409
  803TIP3   OH2 2372   1.351   6.457   4.776
  803TIP3    H1 2373   1.258   6.459   4.756
  803TIP3    H2 2374   1.356   6.416   4.862
  804TIP3   OH2 2375   0.011   3.978   5.266
  804TIP3    H1 2376   0.025   4.054   5.322
  804TIP3    H2 2377   0.030   4.009   5.178
  805TIP3   OH2 2378   5.402   5.350   4.373
  805TIP3    H1 2379   5.320   5.392   4.349
  805TIP3    H2 2380   5.407   5.273   4.317
  806TIP3   OH2 2381   1.213   5.485   1.249
  806TIP3    H1 2382   1.265   5.546   1.197
  806TIP3    H2 2383   1.236   5.505   1.339
  807TIP3   OH2 2384   4.839   5.314   2.172
  807TIP3    H1 2385   4.920   5.264   2.166
  807TIP3    H2 2386   4.842   5.354   2.259
  808TIP3   OH2 2387   5.590   4.954   0.352
  808TIP3    H1 2388   5.656   5.021   0.370
  808TIP3    H2 2389   5.559   4.973   0.264
  809TIP3   OH2 2390   4.554   6.115   3.803
  809TIP3    H1 2391   4.550   6.022   3.782
  809TIP3    H2 2392   4.516   6.159   3.727
  810TIP3   OH2 2393   0.910   4.103   3.154
  810TIP3    H1 2394   0.881   4.060   3.234
  810TIP3    H2 2395   0.877   4.047   3.084
  811TIP3   OH2 2396   4.064   0.076   3.143
  811TIP3    H1 2397   4.057   0.171   3.141
  811TIP3    H2 2398   4.004   0.049   3.212
  812TIP3   OH2 2399   5.932   2.239   1.069
  812TIP3    H1 2400   5.971   2.166   1.116
  812TIP3    H2 2401   5.838   2.233   1.088
  813TIP3   OH2 2402   0.174   1.838   0.543
  813TIP3    H1 2403   0.191   1.881   0.627
  813TIP3    H2 2404   0.083   1.859   0.523
  814TIP3   OH2 2405   2.391   3.154   1.067
  814TIP3    H1 2406   2.481   3.120   1.062
  814TIP3    H2 2407   2.378   3.175   1.159
  815TIP3   OH2 2408   6.535   2.291   5.098
  815TIP3    H1 2409   6.555   2.223   5.163
  815TIP3    H2 2410   6.612   2.292   5.040
  816TIP3   OH2 2411   1.729   2.974   4.622
  816TIP3    H1 2412   1.664   2.904   4.631
  816TIP3    H2 2413   1.701   3.021   4.543
  817TIP3   OH2 2414   4.651   1.989   3.723
  817TIP3    H1 2415   4.725   2.015   3.668
  817TIP3    H2 2416   4.600   1.929   3.668
  818TIP3   OH2 2417   2.835   5.458   5.760
  818TIP3    H1 2418   2.896   5.530   5.741
  818TIP3    H2 2419   2.788   5.445   5.678
  819TIP3   OH2 2420   5.670   5.592   5.127
  819TIP3    H1 2421   5.582   5.584   5.092
  819TIP3    H2 2422   5.683   5.687   5.137
  820TIP3   OH2 2423   4.103   3.665   1.160
  820TIP3    H1 2424   4.166   3.645   1.091
  820TIP3    H2 2425   4.025   3.613   1.137
  821TIP3   OH2 2426   6.052   3.339   4.062
  821TIP3    H1 2427   6.119   3.381   4.007
  821TIP3    H2 2428   6.002   3.285   4.001
  822TIP3   OH2 2429   2.507   1.054   0.464
  822TIP3    H1 2430   2.458   0.980   0.426
  822TIP3    H2 2431   2.488   1.127   0.405
  823TIP3   OH2 2432   3.556   4.987   4.791
  823TIP3    H1 2433   3.532   4.895   4.778
  823TIP3    H2 2434   3.642   4.996   4.751
  824TIP3   OH2 2435   3.545   3.679   2.319
  824TIP3    H1 2436   3.557   3.736   2.395
  824TIP3    H2 2437   3.453   3.692   2.294
  825TIP3   OH2 2438   6.873   6.018   2.371
  825TIP3    H1 2439   6.781   6.005   2.395
  825TIP3    H2 2440   6.869   6.052   2.282
  826TIP3   OH2 2441   5.033   4.630   3.910
  826TIP3    H1 2442   4.962   4.675   3.955
  826TIP3    H2 2443   5.051   4.553   3.964
  827TIP3   OH2 2444   0.060   6.388   4.179
  827TIP3    H1 2445   0.121   6.461   4.176
  827TIP3    H2 2446   0.036   6.380   4.271
  828TIP3   OH2 2447   2.652   6.781   1.268
  828TIP3    H1 2448   2.567   6.815   1.238
  828TIP3    H2 2449   2.639   6.686   1.272
  829TIP3   OH2 2450   2.720   1.943   3.428
  829TIP3    H1 2451   2.715   1.889   3.508
  829TIP3    H2 2452   2.798   1.997   3.441
  830TIP3   OH2 2453   6.261   3.364   4.676
  830TIP3    H1 2454   6.180   3.318   4.654
  830TIP3    H2 2455   6.317   3.298   4.717
  831TIP3   OH2 2456   3.157   2.611   4.744
  831TIP3    H1 2457   3.205   2.640   4.667
  831TIP3    H2 2458   3.077   2.664   4.744
  832TIP3   OH2 2459   4.680   4.478   0.086
  832TIP3    H1 2460   4.674   4.429   0.168
  832TIP3    H2 2461   4.769   4.462   0.054
  833TIP3   OH2 2462   0.578   0.801   1.036
  833TIP3    H1 2463   0.638   0.759   1.098
  833TIP3    H2 2464   0.503   0.740   1.031
  834TIP3   OH2 2465   6.626   3.971   2.107
  834TIP3    H1 2466   6.532   3.974   2.092
  834TIP3    H2 2467   6.665   3.981   2.020
  835TIP3   OH2 2468   4.769   3.045   2.899
  835TIP3    H1 2469   4.814   3.004   2.825
  835TIP3    H2 2470   4.713   2.976   2.935
  836TIP3   OH2 2471   6.760   4.637   5.297
  836TIP3    H1 2472   6.776   4.718   5.345
  836TIP3    H2 2473   6.710   4.582   5.358
  837TIP3   OH2 2474   4.525   2.346   0.334
  837TIP3    H1 2475   4.440   2.328   0.294
  837TIP3    H2 2476   4.505   2.361   0.426
  838TIP3   OH2 2477   5.313   3.571   3.574
  838TIP3    H1 2478   5.246   3.527   3.626
  838TIP3    H2 2479   5.265   3.636   3.522
  839TIP3   OH2 2480   0.314   0.565   5.627
  839TIP3    H1 2481   0.343   0.577   5.537
  839TIP3    H2 2482   0.369   0.495   5.661
  840TIP3   OH2 2483   5.808   6.403   2.778
  840TIP3    H1 2484   5.722   6.391   2.819
  840TIP3    H2 2485   5.864   6.338   2.820
  841TIP3   OH2 2486   2.850   4.109   1.568
  841TIP3    H1 2487   2.939   4.143   1.565
  841TIP3    H2 2488   2.859   4.019   1.597
  842TIP3   OH2 2489   2.429   1.075   1.113
  842TIP3    H1 2490   2.377   0.998   1.088
  842TIP3    H2 2491   2.516   1.039   1.135
  843TIP3   OH2 2492   0.980   3.082   1.134
  843TIP3    H1 2493   1.073   3.099   1.143
  843TIP3    H2 2494   0.943   3.164   1.102
  844TIP3   OH2 2495   4.039   1.503   3.354
  844TIP3    H1 2496   3.972   1.436   3.344
  844TIP3    H2 2497   4.072   1.490   3.443
  845TIP3   OH2 2498   4.402   0.854   2.928
  845TIP3    H1 2499   4.410   0.798   3.005
  845TIP3    H2 2500   4.474   0.916   2.935
  846TIP3   OH2 2501   3.685   1.047   5.564
  846TIP3    H1 2502   3.739   1.024   5.489
  846TIP3    H2 2503   3.747   1.060   5.635
  847TIP3   OH2 2504   4.606   6.455   4.676
  847TIP3    H1 2505   4.620   6.440   4.769
  847TIP3    H2 2506   4.659   6.531   4.655
  848TIP3   OH2 2507   1.717   6.526   3.766
  848TIP3    H1 2508   1.689   6.438   3.742
  848TIP3    H2 2509   1.811   6.518   3.782
  849TIP3   OH2 2510   6.380   2.085   0.423
  849TIP3    H1 2511   6.299   2.113   0.380
  849TIP3    H2 2512   6.354   2.008   0.474
  850TIP3   OH2 2513   6.930   2.041   2.500
  850TIP3    H1 2514   6.934   2.105   2.429
  850TIP3    H2 2515   6.958   2.090   2.577
  851TIP3   OH2 2516   1.167   0.891   2.303
  851TIP3    H1 2517   1.080   0.931   2.311
  851TIP3    H2 2518   1.213   0.916   2.383
  852TIP3   OH2 2519   5.425   2.283   1.157
  852TIP3    H1 2520   5.362   2.355   1.165
  852TIP3    H2 2521   5.410   2.230   1.236
  853TIP3   OH2 2522   4.289   0.866   4.170
  853TIP3    H1 2523   4.332   0.939   4.216
  853TIP3    H2 2524   4.326   0.787   4.209
  854TIP3   OH2 2525   0.873   1.160   3.115
  854TIP3    H1 2526   0.823   1.145   3.196
  854TIP3    H2 2527   0.923   1.079   3.103
  855TIP3   OH2 2528   0.633   4.112   5.147
  855TIP3    H1 2529   0.693   4.161   5.091
  855TIP3    H2 2530   0.671   4.024   5.154
  856TIP3   OH2 2531   5.402   0.555   0.497
  856TIP3    H1 2532   5.497   0.547   0.502
  856TIP3    H2 2533   5.381   0.538   0.405
  857TIP3   OH2 2534   6.837   3.280   0.808
  857TIP3    H1 2535   6.772   3.347   0.787
  857TIP3    H2 2536   6.920   3.328   0.813
  858TIP3   OH2 2537   4.413   4.542   0.949
  858TIP3    H1 2538   4.424   4.510   1.039
  858TIP3    H2 2539   4.480   4.496   0.899
  859TIP3   OH2 2540   3.756   3.260   0.005
  859TIP3    H1 2541   3.807   3.265  -0.075
  859TIP3    H2 2542   3.665   3.268  -0.024
  860TIP3   OH2 2543   1.471   4.015   4.125
  860TIP3    H1 2544   1.522   4.022   4.044
  860TIP3    H2 2545   1.512   3.942   4.172
  861TIP3   OH2 2546   2.792   5.155   1.214
  861TIP3    H1 2547   2.715   5.165   1.158
  861TIP3    H2 2548   2.780   5.219   1.283
  862TIP3   OH2 2549   2.705   1.841   1.108
  862TIP3    H1 2550   2.756   1.774   1.153
  862TIP3    H2 2551   2.633   1.861   1.167
  863TIP3   OH2 2552   6.562   6.557   1.948
  863TIP3    H1 2553   6.504   6.587   1.878
  863TIP3    H2 2554   6.506   6.506   2.006
  864TIP3   OH2 2555   6.041   0.800   1.231
  864TIP3    H1 2556   6.087   0.775   1.311
  864TIP3    H2 2557   6.107   0.793   1.162
  865TIP3   OH2 2558   2.574   0.423   3.852
  865TIP3    H1 2559   2.539   0.512   3.857
  865TIP3    H2 2560   2.574   0.402   3.758
  866TIP3   OH2 2561   1.975   5.511   0.325
  866TIP3    H1 2562   2.032   5.587   0.310
  866TIP3    H2 2563   1.996   5.482   0.414
  867TIP3   OH2 2564   3.496   6.181   1.678
  867TIP3    H1 2565   3.434   6.116   1.711
  867TIP3    H2 2566   3.473   6.192   1.586
  868TIP3   OH2 2567   6.496   6.545   3.287
  868TIP3    H1 2568   6.488   6.554   3.382
  868TIP3    H2 2569   6.406   6.530   3.257
  869TIP3   OH2 2570   1.745   0.038   0.149
  869TIP3    H1 2571   1.800  -0.023   0.098
  869TIP3    H2 2572   1.704  -0.017   0.216
  870TIP3   OH2 2573   5.272   3.157   2.918
  870TIP3    H1 2574   5.281   3.239   2.968
  870TIP3    H2 2575   5.209   3.178   2.849
  871TIP3   OH2 2576   5.976   1.253   2.524
  871TIP3    H1 2577   5.891   1.221   2.554
  871TIP3    H2 2578   5.969   1.253   2.429
  872TIP3   OH2 2579   3.450   1.316   3.178
  872TIP3    H1 2580   3.462   1.250   3.246
  872TIP3    H2 2581   3.379   1.371   3.210
  873TIP3   OH2 2582   1.700   2.496   1.581
  873TIP3    H1 2583   1.736   2.407   1.583
  873TIP3    H2 2584   1.632   2.493   1.514
  874TIP3   OH2 2585   5.671   0.481   1.682
  874TIP3    H1 2586   5.581   0.506   1.660
  874TIP3    H2 2587   5.722   0.508   1.606
  875TIP3   OH2 2588   5.852   5.003   4.938
  875TIP3    H1 2589   5.821   5.012   4.848
  875TIP3    H2 2590   5.871   4.910   4.948
  876TIP3   OH2 2591   3.928   1.266   3.636
  876TIP3    H1 2592   3.996   1.319   3.677
  876TIP3    H2 2593   3.848   1.286   3.686
  877TIP3   OH2 2594   2.815   3.775   0.542
  877TIP3    H1 2595   2.906   3.795   0.564
  877TIP3    H2 2596   2.804   3.683   0.566
  878TIP3   OH2 2597   1.338   5.979   3.661
  878TIP3    H1 2598   1.262   6.029   3.691
  878TIP3    H2 2599   1.344   5.998   3.568
  879TIP3   OH2 2600   3.037   3.570   4.896
  879TIP3    H1 2601   3.098   3.590   4.825
  879TIP3    H2 2602   3.088   3.584   4.976
  880TIP3   OH2 2603   2.019   0.950   3.215
  880TIP3    H1 2604   2.025   1.032   3.265
  880TIP3    H2 2605   1.955   0.968   3.147
  881TIP3   OH2 2606   3.195   2.072   4.280
  881TIP3    H1 2607   3.215   1.996   4.225
  881TIP3    H2 2608   3.108   2.053   4.316
  882TIP3   OH2 2609   0.977   4.003   0.310
  882TIP3    H1 2610   0.977   4.057   0.389
  882TIP3    H2 2611   0.904   4.036   0.258
  883TIP3   OH2 2612   2.682   6.093   3.101
  883TIP3    H1 2613   2.660   6.009   3.142
  883TIP3    H2 2614   2.629   6.096   3.022
  884TIP3   OH2 2615   7.069   2.039   1.536
  884TIP3    H1 2616   7.078   1.954   1.579
  884TIP3    H2 2617   7.007   2.087   1.591
  885TIP3   OH2 2618   2.563   2.549   3.096
  885TIP3    H1 2619   2.521   2.465   3.081
  885TIP3    H2 2620   2.545   2.569   3.188
  886TIP3   OH2 2621   4.439   1.533   2.535
  886TIP3    H1 2622   4.381   1.499   2.603
  886TIP3    H2 2623   4.380   1.563   2.466
  887TIP3   OH2 2624   5.975   6.202   5.379
  887TIP3    H1 2625   6.024   6.216   5.460
  887TIP3    H2 2626   6.039   6.169   5.316
  888TIP3   OH2 2627   3.668   6.485   5.740
  888TIP3    H1 2628   3.707   6.404   5.772
  888TIP3    H2 2629   3.630   6.462   5.655
  889TIP3   OH2 2630   6.714   0.085   4.019
  889TIP3    H1 2631   6.776   0.020   4.052
  889TIP3    H2 2632   6.655   0.035   3.963
  890TIP3   OH2 2633   0.926   3.080   0.689
  890TIP3    H1 2634   0.953   3.136   0.617
  890TIP3    H2 2635   0.968   2.996   0.671
  891TIP3   OH2 2636   1.264   0.714   1.644
  891TIP3    H1 2637   1.331   0.722   1.711
  891TIP3    H2 2638   1.258   0.620   1.627
  892TIP3   OH2 2639   4.276   2.266   5.739
  892TIP3    H1 2640   4.213   2.335   5.758
  892TIP3    H2 2641   4.321   2.296   5.659
  893TIP3   OH2 2642   6.790   1.092   0.520
  893TIP3    H1 2643   6.776   1.130   0.433
  893TIP3    H2 2644   6.705   1.055   0.544
  894TIP3   OH2 2645   6.083   0.125   0.079
  894TIP3    H1 2646   6.064   0.131   0.172
  894TIP3    H2 2647   6.028   0.054   0.047
  895TIP3   OH2 2648   1.957   2.568   1.224
  895TIP3    H1 2649   2.034   2.553   1.168
  895TIP3    H2 2650   1.919   2.481   1.236
  896TIP3   OH2 2651   0.342   4.864   2.369
  896TIP3    H1 2652   0.356   4.954   2.339
  896TIP3    H2 2653   0.401   4.811   2.315
  897TIP3   OH2 2654   6.038   6.516   3.569
  897TIP3    H1 2655   5.973   6.500   3.638
  897TIP3    H2 2656   6.032   6.610   3.552
  898TIP3   OH2 2657   4.940   5.900   0.557
  898TIP3    H1 2658   4.898   5.897   0.643
  898TIP3    H2 2659   4.974   5.811   0.545
  899TIP3   OH2 2660   4.459   4.251   0.894
  899TIP3    H1 2661   4.430   4.160   0.906
  899TIP3    H2 2662   4.433   4.295   0.975
  900TIP3   OH2 2663   6.698   5.819   2.721
  900TIP3    H1 2664   6.650   5.763   2.660
  900TIP3    H2 2665   6.754   5.759   2.770
  901TIP3   OH2 2666   4.419   1.492   4.191
  901TIP3    H1 2667   4.479   1.439   4.140
  901TIP3    H2 2668   4.338   1.492   4.140
  902TIP3   OH2 2669   3.316   1.773   2.121
  902TIP3    H1 2670   3.323   1.854   2.172
  902TIP3    H2 2671   3.278   1.800   2.037
  903TIP3   OH2 2672   3.256   5.905   0.164
  903TIP3    H1 2673   3.185   5.843   0.175
  903TIP3    H2 2674   3.270   5.910   0.069
  904TIP3   OH2 2675   3.266   3.816   0.288
  904TIP3    H1 2676   3.320   3.895   0.288
  904TIP3    H2 2677   3.298   3.764   0.362
  905TIP3   OH2 2678   1.248   6.018   4.682
  905TIP3    H1 2679   1.250   6.019   4.586
  905TIP3    H2 2680   1.187   5.948   4.704
  906TIP3   OH2 2681   3.123   4.476   3.739
  906TIP3    H1 2682   3.191   4.501   3.801
  906TIP3    H2 2683   3.041   4.483   3.788
  907TIP3   OH2 2684   7.205   4.378   4.463
  907TIP3    H1 2685   7.176   4.372   4.554
  907TIP3    H2 2686   7.139   4.433   4.420
  908TIP3   OH2 2687   5.233   4.350   4.093
  908TIP3    H1 2688   5.187   4.353   4.177
  908TIP3    H2 2689   5.322   4.323   4.116
  909TIP3   OH2 2690   0.320   4.465   2.339
  909TIP3    H1 2691   0.254   4.398   2.356
  909TIP3    H2 2692   0.293   4.504   2.256
  910TIP3   OH2 2693   6.729   0.363   2.868
  910TIP3    H1 2694   6.735   0.271   2.895
  910TIP3    H2 2695   6.659   0.365   2.804
  911TIP3   OH2 2696   0.131   4.147   5.064
  911TIP3    H1 2697   0.212   4.168   5.017
  911TIP3    H2 2698   0.082   4.229   5.067
  912TIP3   OH2 2699   5.162   4.244   2.730
  912TIP3    H1 2700   5.191   4.326   2.768
  912TIP3    H2 2701   5.126   4.194   2.803
  913TIP3   OH2 2702   5.210   2.453   1.225
  913TIP3    H1 2703   5.119   2.466   1.252
  913TIP3    H2 2704   5.261   2.511   1.282
  914TIP3   OH2 2705   3.694   5.657   3.436
  914TIP3    H1 2706   3.654   5.736   3.472
  914TIP3    H2 2707   3.779   5.685   3.402
  915TIP3   OH2 2708   4.373   2.896   5.352
  915TIP3    H1 2709   4.413   2.919   5.436
  915TIP3    H2 2710   4.288   2.939   5.353
  916TIP3   OH2 2711   2.180   0.586   2.400
  916TIP3    H1 2712   2.187   0.671   2.355
  916TIP3    H2 2713   2.149   0.526   2.332
  917TIP3   OH2 2714   1.527   0.428   4.198
  917TIP3    H1 2715   1.467   0.353   4.189
  917TIP3    H2 2716   1.495   0.476   4.274
  918TIP3   OH2 2717   3.756   3.105   0.222
  918TIP3    H1 2718   3.763   3.177   0.159
  918TIP3    H2 2719   3.739   3.028   0.168
  919TIP3   OH2 2720   5.743   4.584   4.590
  919TIP3    H1 2721   5.774   4.629   4.511
  919TIP3    H2 2722   5.768   4.642   4.662
  920TIP3   OH2 2723   4.173   3.233   4.057
  920TIP3    H1 2724   4.205   3.319   4.028
  920TIP3    H2 2725   4.241   3.201   4.116
  921TIP3   OH2 2726   6.179   6.406   1.870
  921TIP3    H1 2727   6.218   6.429   1.786
  921TIP3    H2 2728   6.253   6.379   1.924
  922TIP3   OH2 2729   2.810   4.377   1.677
  922TIP3    H1 2730   2.832   4.288   1.704
  922TIP3    H2 2731   2.830   4.432   1.753
  923TIP3   OH2 2732   2.144   3.161   3.034
  923TIP3    H1 2733   2.149   3.098   3.105
  923TIP3    H2 2734   2.223   3.214   3.043
  924TIP3   OH2 2735   5.400   0.853   0.354
  924TIP3    H1 2736   5.450   0.931   0.377
  924TIP3    H2 2737   5.438   0.783   0.406
  925TIP3   OH2 2738   5.210   5.294   1.553
  925TIP3    H1 2739   5.154   5.372   1.549
  925TIP3    H2 2740   5.228   5.283   1.646
  926TIP3   OH2 2741   1.114   4.858   5.748
  926TIP3    H1 2742   1.199   4.866   5.705
  926TIP3    H2 2743   1.057   4.819   5.682
  927TIP3   OH2 2744   1.863   4.914   4.086
  927TIP3    H1 2745   1.871   4.903   3.991
  927TIP3    H2 2746   1.846   5.008   4.097
  928TIP3   OH2 2747   6.519   0.901   1.307
  928TIP3    H1 2748   6.478   0.944   1.231
  928TIP3    H2 2749   6.513   0.965   1.377
  929TIP3   OH2 2750   3.512   5.765   1.631
  929TIP3    H1 2751   3.594   5.797   1.668
  929TIP3    H2 2752   3.444   5.814   1.678
  930TIP3   OH2 2753   0.488   4.179   4.492
  930TIP3    H1 2754   0.523   4.116   4.429
  930TIP3    H2 2755   0.397   4.191   4.466
  931TIP3   OH2 2756   2.825   2.313   2.905
  931TIP3    H1 2757   2.784   2.375   2.845
  931TIP3    H2 2758   2.906   2.356   2.934
  932TIP3   OH2 2759   3.134   0.855   5.413
  932TIP3    H1 2760   3.131   0.767   5.374
  932TIP3    H2 2761   3.227   0.872   5.427
  933TIP3   OH2 2762   0.300   2.920   5.350
  933TIP3    H1 2763   0.226   2.967   5.312
  933TIP3    H2 2764   0.291   2.933   5.445
  934TIP3   OH2 2765   7.200   1.420   2.493
  934TIP3    H1 2766   7.198   1.414   2.397
  934TIP3    H2 2767   7.115   1.385   2.520
  935TIP3   OH2 2768   5.427   2.261   4.967
  935TIP3    H1 2769   5.393   2.343   5.003
  935TIP3    H2 2770   5.449   2.209   5.045
  936TIP3   OH2 2771   3.624   4.697   2.804
  936TIP3    H1 2772   3.662   4.677   2.889
  936TIP3    H2 2773   3.561   4.627   2.789
  937TIP3   OH2 2774   6.659   4.351   2.730
  937TIP3    H1 2775   6.679   4.258   2.743
  937TIP3    H2 2776   6.636   4.359   2.638
  938TIP3   OH2 2777   0.607   1.606   2.961
  938TIP3    H1 2778   0.658   1.534   2.997
  938TIP3    H2 2779   0.648   1.685   2.998
  939TIP3   OH2 2780   3.994   2.412   0.986
  939TIP3    H1 2781   4.082   2.375   0.988
  939TIP3    H2 2782   4.003   2.493   0.936
  940TIP3   OH2 2783   6.570   5.908   1.694
  940TIP3    H1 2784   6.487   5.885   1.736
  940TIP3    H2 2785   6.579   5.845   1.623
  941TIP3   OH2 2786   2.984   0.516   4.738
  941TIP3    H1 2787   3.062   0.477   4.698
  941TIP3    H2 2788   3.006   0.524   4.831
  942TIP3   OH2 2789   1.612   1.269   3.054
  942TIP3    H1 2790   1.626   1.346   3.110
  942TIP3    H2 2791   1.699   1.230   3.045
  943TIP3   OH2 2792   2.192   1.243   5.450
  943TIP3    H1 2793   2.202   1.199   5.535
  943TIP3    H2 2794   2.170   1.333   5.472
  944TIP3   OH2 2795   4.442   0.744   1.838
  944TIP3    H1 2796   4.411   0.686   1.907
  944TIP3    H2 2797   4.462   0.686   1.764
  945TIP3   OH2 2798   1.717   3.779   1.829
  945TIP3    H1 2799   1.640   3.792   1.773
  945TIP3    H2 2800   1.789   3.761   1.768
  946TIP3   OH2 2801   0.696   1.493   4.086
  946TIP3    H1 2802   0.763   1.522   4.147
  946TIP3    H2 2803   0.686   1.566   4.024
  947TIP3   OH2 2804   7.104   4.788   0.838
  947TIP3    H1 2805   7.067   4.724   0.777
  947TIP3    H2 2806   7.038   4.800   0.906
  948TIP3   OH2 2807   4.704   6.686   2.955
  948TIP3    H1 2808   4.776   6.676   2.893
  948TIP3    H2 2809   4.653   6.760   2.922
  949TIP3   OH2 2810   7.124   0.933   1.144
  949TIP3    H1 2811   7.194   0.914   1.082
  949TIP3    H2 2812   7.073   1.003   1.102
  950TIP3   OH2 2813   1.082   5.783   4.717
  950TIP3    H1 2814   1.146   5.771   4.787
  950TIP3    H2 2815   1.006   5.821   4.760
  951TIP3   OH2 2816   2.731   2.746   3.160
  951TIP3    H1 2817   2.673   2.822   3.166
  951TIP3    H2 2818   2.675   2.677   3.125
  952TIP3   OH2 2819  -0.022   0.071   5.839
  952TIP3    H1 2820   0.034   0.112   5.904
  952TIP3    H2 2821  -0.011   0.124   5.760
  953TIP3   OH2 2822   6.601   4.269   3.359
  953TIP3    H1 2823   6.595   4.191   3.414
  953TIP3    H2 2824   6.569   4.241   3.274
  954TIP3   OH2 2825   2.450   2.320   2.636
  954TIP3    H1 2826   2.522   2.382   2.629
  954TIP3    H2 2827   2.442   2.302   2.730
  955TIP3   OH2 2828   3.180   0.559   3.599
  955TIP3    H1 2829   3.208   0.504   3.525
  955TIP3    H2 2830   3.094   0.525   3.623
  956TIP3   OH2 2831   5.401   4.678   2.262
  956TIP3    H1 2832   5.435   4.609   2.206
  956TIP3    H2 2833   5.364   4.743   2.202
  957TIP3   OH2 2834   1.769   5.292   4.648
  957TIP3    H1 2835   1.767   5.212   4.701
  957TIP3    H2 2836   1.712   5.353   4.694
  958TIP3   OH2 2837   3.434   4.486   4.992
  958TIP3    H1 2838   3.468   4.411   4.943
  958TIP3    H2 2839   3.512   4.528   5.029
  959TIP3   OH2 2840   3.672   0.503   1.279
  959TIP3    H1 2841   3.696   0.537   1.193
  959TIP3    H2 2842   3.736   0.542   1.338
  960TIP3   OH2 2843   6.481   0.129   1.275
  960TIP3    H1 2844   6.517   0.089   1.354
  960TIP3    H2 2845   6.386   0.121   1.285
  961TIP3   OH2 2846   3.124   2.610   0.257
  961TIP3    H1 2847   3.065   2.570   0.193
  961TIP3    H2 2848   3.090   2.579   0.342
  962TIP3   OH2 2849   4.272   6.104   3.866
  962TIP3    H1 2850   4.249   6.186   3.824
  962TIP3    H2 2851   4.367   6.097   3.855
  963TIP3   OH2 2852   0.438   1.389   1.431
  963TIP3    H1 2853   0.412   1.349   1.348
  963TIP3    H2 2854   0.484   1.319   1.478
  964TIP3   OH2 2855   6.207   2.292   2.450
  964TIP3    H1 2856   6.164   2.207   2.457
  964TIP3    H2 2857   6.301   2.271   2.452
  965TIP3   OH2 2858   0.683   6.696   0.934
  965TIP3    H1 2859   0.629   6.626   0.895
  965TIP3    H2 2860   0.731   6.733   0.859
  966TIP3   OH2 2861   1.652   5.223   1.306
  966TIP3    H1 2862   1.720   5.270   1.258
  966TIP3    H2 2863   1.587   5.290   1.326
  967TIP3   OH2 2864   4.110   4.681   2.494
  967TIP3    H1 2865   4.035   4.665   2.552
  967TIP3    H2 2866   4.120   4.776   2.492
  968TIP3   OH2 2867   2.808   3.475   5.264
  968TIP3    H1 2868   2.720   3.450   5.291
  968TIP3    H2 2869   2.857   3.485   5.345
  969TIP3   OH2 2870   6.910   0.204   3.243
  969TIP3    H1 2871   6.835   0.165   3.196
  969TIP3    H2 2872   6.876   0.287   3.277
  970TIP3   OH2 2873   3.551   0.461   4.320
  970TIP3    H1 2874   3.516   0.452   4.408
  970TIP3    H2 2875   3.646   0.459   4.332
  971TIP3   OH2 2876   2.349   3.811   1.011
  971TIP3    H1 2877   2.353   3.794   1.105
  971TIP3    H2 2878   2.305   3.734   0.975
  972TIP3   OH2 2879   5.122   2.427   0.959
  972TIP3    H1 2880   5.150   2.435   1.050
  972TIP3    H2 2881   5.112   2.518   0.929
  973TIP3   OH2 2882   2.791   5.053   0.073
  973TIP3    H1 2883   2.812   5.125   0.132
  973TIP3    H2 2884   2.833   4.977   0.112
  974TIP3   OH2 2885   5.921   3.275   3.813
  974TIP3    H1 2886   5.875   3.338   3.758
  974TIP3    H2 2887   5.941   3.202   3.754
  975TIP3   OH2 2888   6.359   4.431   3.096
  975TIP3    H1 2889   6.454   4.429   3.087
  975TIP3    H2 2890   6.335   4.342   3.122
  976TIP3   OH2 2891   2.811   0.712   5.814
  976TIP3    H1 2892   2.778   0.785   5.867
  976TIP3    H2 2893   2.737   0.652   5.808
  977TIP3   OH2 2894   3.870   5.947   1.104
  977TIP3    H1 2895   3.842   5.861   1.135
  977TIP3    H2 2896   3.919   5.929   1.024
  978TIP3   OH2 2897   3.069   6.390   4.327
  978TIP3    H1 2898   3.125   6.467   4.330
  978TIP3    H2 2899   3.023   6.397   4.243
  979TIP3   OH2 2900   3.237   2.235   2.767
  979TIP3    H1 2901   3.240   2.264   2.676
  979TIP3    H2 2902   3.285   2.304   2.815
  980TIP3   OH2 2903   3.741   3.002   3.919
  980TIP3    H1 2904   3.719   2.994   4.011
  980TIP3    H2 2905   3.818   2.947   3.908
  981TIP3   OH2 2906   4.291   5.200   5.410
  981TIP3    H1 2907   4.360   5.228   5.469
  981TIP3    H2 2908   4.273   5.276   5.355
  982TIP3   OH2 2909   4.351   4.062   0.438
  982TIP3    H1 2910   4.278   4.032   0.383
  982TIP3    H2 2911   4.403   4.118   0.379
  983TIP3   OH2 2912   0.323   4.464   1.212
  983TIP3    H1 2913   0.326   4.377   1.173
  983TIP3    H2 2914   0.414   4.483   1.236
  984TIP3   OH2 2915   2.782   0.677   4.813
  984TIP3    H1 2916   2.718   0.620   4.856
  984TIP3    H2 2917   2.838   0.617   4.764
  985TIP3   OH2 2918   3.662   5.220   0.582
  985TIP3    H1 2919   3.628   5.216   0.493
  985TIP3    H2 2920   3.585   5.207   0.637
  986TIP3   OH2 2921   3.787   0.912   4.614
  986TIP3    H1 2922   3.753   0.913   4.524
  986TIP3    H2 2923   3.725   0.966   4.663
  987TIP3   OH2 2924   1.322   5.088   5.483
  987TIP3    H1 2925   1.298   5.014   5.539
  987TIP3    H2 2926   1.260   5.157   5.507
  988TIP3   OH2 2927   4.612   3.327   0.362
  988TIP3    H1 2928   4.602   3.232   0.357
  988TIP3    H2 2929   4.682   3.347   0.300
  989TIP3   OH2 2930   4.390   3.573   4.016
  989TIP3    H1 2931   4.337   3.517   3.960
  989TIP3    H2 2932   4.340   3.581   4.097
  990TIP3   OH2 2933   6.750   2.339   0.612
  990TIP3    H1 2934   6.696   2.413   0.586
  990TIP3    H2 2935   6.799   2.371   0.688
  991TIP3   OH2 2936   5.457   5.579   5.645
  991TIP3    H1 2937   5.389   5.564   5.711
  991TIP3    H2 2938   5.505   5.655   5.676
  992TIP3   OH2 2939   0.637   6.752   4.944
  992TIP3    H1 2940   0.692   6.729   4.869
  992TIP3    H2 2941   0.592   6.671   4.966
  993TIP3   OH2 2942   2.463   0.018   1.015
  993TIP3    H1 2943   2.426   0.093   1.062
  993TIP3    H2 2944   2.500   0.056   0.935
  994TIP3   OH2 2945   5.654   0.595   3.638
  994TIP3    H1 2946   5.694   0.554   3.715
  994TIP3    H2 2947   5.726   0.606   3.577
  995TIP3   OH2 2948   4.770   2.974   5.726
  995TIP3    H1 2949   4.729   3.003   5.808
  995TIP3    H2 2950   4.858   3.012   5.729
  996TIP3   OH2 2951   5.169   4.463   0.273
  996TIP3    H1 2952   5.181   4.429   0.362
  996TIP3    H2 2953   5.137   4.388   0.222
  997TIP3   OH2 2954   3.026   2.332   5.817
  997TIP3    H1 2955   3.076   2.289   5.886
  997TIP3    H2 2956   3.080   2.326   5.739
  998TIP3   OH2 2957   0.705   1.999   5.090
  998TIP3    H1 2958   0.670   2.071   5.038
  998TIP3    H2 2959   0.664   1.920   5.053
  999TIP3   OH2 2960   2.656   1.658   4.978
  999TIP3    H1 2961   2.708   1.704   4.913
  999TIP3    H2 2962   2.708   1.580   4.999
 1000TIP3   OH2 2963   2.136   3.083   4.586
 1000TIP3    H1 2964   2.185   3.056   4.509
 1000TIP3    H2 2965   2.095   3.002   4.617
 1001TIP3   OH2 2966   6.836   5.654   1.679
 1001TIP3    H1 2967   6.777   5.650   1.754
 1001TIP3    H2 2968   6.859   5.747   1.671
 1002TIP3   OH2 2969   0.142   0.171   5.077
 1002TIP3    H1 2970   0.134   0.236   5.146
 1002TIP3    H2 2971   0.068   0.112   5.090
 1003TIP3   OH2 2972   3.358   5.530   3.535
 1003TIP3    H1 2973   3.437   5.518   3.482
 1003TIP3    H2 2974   3.287   5.529   3.472
 1004TIP3   OH2 2975   1.785   4.425   5.555
 1004TIP3    H1 2976   1.858   4.465   5.508
 1004TIP3    H2 2977   1.732   4.499   5.584
 1005TIP3   OH2 2978   0.947   3.747   4.492
 1005TIP3    H1 2979   0.938   3.668   4.440
 1005TIP3    H2 2980   1.019   3.795   4.451
 1006TIP3   OH2 2981   5.117   6.126   0.715
 1006TIP3    H1 2982   5.175   6.108   0.789
 1006TIP3    H2 2983   5.114   6.044   0.666
 1007TIP3   OH2 2984   3.706   4.537   2.095
 1007TIP3    H1 2985   3.728   4.549   2.003
 1007TIP3    H2 2986   3.788   4.555   2.141
 1008TIP3   OH2 2987   5.342   0.226   1.699
 1008TIP3    H1 2988   5.350   0.131   1.708
 1008TIP3    H2 2989   5.429   0.255   1.669
 1009TIP3   OH2 2990   2.449   2.287   0.197
 1009TIP3    H1 2991   2.448   2.380   0.219
 1009TIP3    H2 2992   2.373   2.251   0.241
 1010TIP3   OH2 2993   0.044   0.807   2.402
 1010TIP3    H1 2994   0.071   0.720   2.430
 1010TIP3    H2 2995   0.005   0.847   2.480
 1011TIP3   OH2 2996   0.678   3.394   3.662
 1011TIP3    H1 2997   0.688   3.488   3.681
 1011TIP3    H2 2998   0.610   3.391   3.595
 1012TIP3   OH2 2999   0.770   6.197   0.767
 1012TIP3    H1 3000   0.787   6.204   0.673
 1012TIP3    H2 3001   0.677   6.217   0.775
 1013TIP3   OH2 3002   5.023   5.203   5.747
 1013TIP3    H1 3003   5.094   5.228   5.688
 1013TIP3    H2 3004   5.050   5.119   5.783
 1014TIP3   OH2 3005   6.650   2.053   2.883
 1014TIP3    H1 3006   6.640   2.148   2.878
 1014TIP3    H2 3007   6.691   2.029   2.799
 1015TIP3   OH2 3008   3.041   4.252   2.344
 1015TIP3    H1 3009   3.008   4.256   2.434
 1015TIP3    H2 3010   3.053   4.343   2.318
 1016TIP3   OH2 3011   4.347   2.665   1.210
 1016TIP3    H1 3012   4.434   2.694   1.239
 1016TIP3    H2 3013   4.313   2.615   1.284
 1017TIP3   OH2 3014   7.078   3.980   1.543
 1017TIP3    H1 3015   7.067   4.074   1.525
 1017TIP3    H2 3016   7.167   3.972   1.576
 1018TIP3   OH2 3017   1.426   3.848   5.617
 1018TIP3    H1 3018   1.452   3.762   5.650
 1018TIP3    H2 3019   1.410   3.833   5.523
 1019TIP3   OH2 3020   4.772   3.485   1.795
 1019TIP3    H1 3021   4.715   3.482   1.872
 1019TIP3    H2 3022   4.830   3.409   1.806
 1020TIP3   OH2 3023   1.491   4.379   0.255
 1020TIP3    H1 3024   1.516   4.311   0.192
 1020TIP3    H2 3025   1.445   4.331   0.324
 1021TIP3   OH2 3026   6.152   2.982   3.387
 1021TIP3    H1 3027   6.092   3.056   3.389
 1021TIP3    H2 3028   6.232   3.016   3.346
 1022TIP3   OH2 3029   0.195   6.345   2.740
 1022TIP3    H1 3030   0.182   6.332   2.834
 1022TIP3    H2 3031   0.189   6.440   2.728
 1023TIP3   OH2 3032   3.498   6.057   2.131
 1023TIP3    H1 3033   3.426   6.121   2.131
 1023TIP3    H2 3034   3.502   6.027   2.222
 1024TIP3   OH2 3035   4.594   5.346   0.533
 1024TIP3    H1 3036   4.501   5.357   0.553
 1024TIP3    H2 3037   4.607   5.251   0.529
 1025TIP3   OH2 3038   2.320   4.192   2.498
 1025TIP3    H1 3039   2.384   4.226   2.435
 1025TIP3    H2 3040   2.372   4.174   2.577
 1026TIP3   OH2 3041   2.515   3.320   5.817
 1026TIP3    H1 3042   2.529   3.230   5.844
 1026TIP3    H2 3043   2.585   3.338   5.754
 1027TIP3   OH2 3044   3.380   2.100   2.474
 1027TIP3    H1 3045   3.293   2.077   2.440
 1027TIP3    H2 3046   3.439   2.036   2.433
 1028TIP3   OH2 3047   4.222  -0.040   3.372
 1028TIP3    H1 3048   4.157  -0.059   3.439
 1028TIP3    H2 3049   4.170  -0.008   3.298
 1029TIP3   OH2 3050   2.347   6.051   1.883
 1029TIP3    H1 3051   2.368   6.064   1.975
 1029TIP3    H2 3052   2.401   5.977   1.855
 1030TIP3   OH2 3053   6.023   3.820   2.108
 1030TIP3    H1 3054   5.964   3.749   2.135
 1030TIP3    H2 3055   5.974   3.900   2.126
 1031TIP3   OH2 3056   3.261   2.035   1.009
 1031TIP3    H1 3057   3.258   2.066   0.918
 1031TIP3    H2 3058   3.176   1.992   1.022
 1032TIP3   OH2 3059   3.040   4.909   1.576
 1032TIP3    H1 3060   2.994   4.888   1.657
 1032TIP3    H2 3061   2.970   4.926   1.513
 1033TIP3   OH2 3062   1.345   4.935   4.781
 1033TIP3    H1 3063   1.313   4.934   4.691
 1033TIP3    H2 3064   1.320   4.849   4.816
 1034TIP3   OH2 3065   4.375   3.302   0.995
 1034TIP3    H1 3066   4.467   3.303   1.024
 1034TIP3    H2 3067   4.327   3.341   1.068
 1035TIP3   OH2 3068   1.640   6.430   5.751
 1035TIP3    H1 3069   1.632   6.372   5.827
 1035TIP3    H2 3070   1.733   6.428   5.728
 1036TIP3   OH2 3071   1.093   4.278   5.797
 1036TIP3    H1 3072   1.181   4.293   5.831
 1036TIP3    H2 3073   1.059   4.366   5.781
 1037TIP3   OH2 3074   4.882   4.898   5.593
 1037TIP3    H1 3075   4.922   4.919   5.508
 1037TIP3    H2 3076   4.804   4.848   5.571
 1038TIP3   OH2 3077   5.893   2.421   4.776
 1038TIP3    H1 3078   5.928   2.496   4.824
 1038TIP3    H2 3079   5.970   2.365   4.761
 1039TIP3   OH2 3080   6.110   3.116   3.676
 1039TIP3    H1 3081   6.142   3.131   3.765
 1039TIP3    H2 3082   6.120   3.021   3.663
 1040TIP3   OH2 3083   3.253   1.421   1.004
 1040TIP3    H1 3084   3.291   1.476   1.072
 1040TIP3    H2 3085   3.158   1.432   1.016
 1041TIP3   OH2 3086   5.174   2.764   1.013
 1041TIP3    H1 3087   5.170   2.766   1.109
 1041TIP3    H2 3088   5.267   2.753   0.994
 1042TIP3   OH2 3089   2.715   0.283   0.490
 1042TIP3    H1 3090   2.762   0.213   0.535
 1042TIP3    H2 3091   2.766   0.300   0.411
 1043TIP3   OH2 3092   1.705   1.331   5.201
 1043TIP3    H1 3093   1.611   1.351   5.202
 1043TIP3    H2 3094   1.745   1.406   5.246
 1044TIP3   OH2 3095   5.180   5.307   5.302
 1044TIP3    H1 3096   5.258   5.349   5.337
 1044TIP3    H2 3097   5.109   5.369   5.320
 1045TIP3   OH2 3098   5.553   2.547   0.631
 1045TIP3    H1 3099   5.583   2.482   0.694
 1045TIP3    H2 3100   5.459   2.556   0.648
 1046TIP3   OH2 3101   1.759   3.666   1.141
 1046TIP3    H1 3102   1.747   3.703   1.228
 1046TIP3    H2 3103   1.670   3.659   1.105
 1047TIP3   OH2 3104   6.878   4.695   2.346
 1047TIP3    H1 3105   6.933   4.753   2.292
 1047TIP3    H2 3106   6.792   4.736   2.346
 1048TIP3   OH2 3107   2.380   6.653   4.046
 1048TIP3    H1 3108   2.420   6.576   4.086
 1048TIP3    H2 3109   2.445   6.683   3.982
 1049TIP3   OH2 3110   6.817   0.343   2.149
 1049TIP3    H1 3111   6.773   0.323   2.067
 1049TIP3    H2 3112   6.822   0.438   2.151
 1050TIP3   OH2 3113   6.996   2.608   2.912
 1050TIP3    H1 3114   6.995   2.546   2.984
 1050TIP3    H2 3115   7.087   2.609   2.882
 1051TIP3   OH2 3116   0.587   1.637   5.284
 1051TIP3    H1 3117   0.546   1.559   5.248
 1051TIP3    H2 3118   0.515   1.699   5.295
 1052TIP3   OH2 3119   2.576   1.148   5.210
 1052TIP3    H1 3120   2.536   1.232   5.188
 1052TIP3    H2 3121   2.646   1.137   5.147
 1053TIP3   OH2 3122   6.602   0.549   4.529
 1053TIP3    H1 3123   6.540   0.512   4.591
 1053TIP3    H2 3124   6.601   0.643   4.547
 1054TIP3   OH2 3125   4.659   2.558   0.616
 1054TIP3    H1 3126   4.735   2.603   0.654
 1054TIP3    H2 3127   4.697   2.487   0.564
 1055TIP3   OH2 3128   3.411   3.639   4.195
 1055TIP3    H1 3129   3.460   3.634   4.277
 1055TIP3    H2 3130   3.437   3.722   4.156
 1056TIP3   OH2 3131   6.169   6.055   3.219
 1056TIP3    H1 3132   6.255   6.069   3.258
 1056TIP3    H2 3133   6.140   5.971   3.253
 1057TIP3   OH2 3134   0.117   5.550   3.326
 1057TIP3    H1 3135   0.089   5.497   3.401
 1057TIP3    H2 3136   0.069   5.514   3.252
 1058TIP3   OH2 3137   1.773   5.613   1.043
 1058TIP3    H1 3138   1.752   5.612   0.949
 1058TIP3    H2 3139   1.741   5.697   1.074
 1059TIP3   OH2 3140   7.099   1.043   0.302
 1059TIP3    H1 3141   7.082   0.960   0.258
 1059TIP3    H2 3142   7.017   1.064   0.347
 1060TIP3   OH2 3143   1.576   6.240   1.098
 1060TIP3    H1 3144   1.665   6.229   1.067
 1060TIP3    H2 3145   1.541   6.312   1.046
 1061TIP3   OH2 3146   4.835   0.888   0.608
 1061TIP3    H1 3147   4.907   0.825   0.613
 1061TIP3    H2 3148   4.872   0.965   0.565
 1062TIP3   OH2 3149   4.591   5.106   5.265
 1062TIP3    H1 3150   4.524   5.136   5.204
 1062TIP3    H2 3151   4.594   5.174   5.333
 1063TIP3   OH2 3152   2.376   4.022   2.115
 1063TIP3    H1 3153   2.350   3.957   2.050
 1063TIP3    H2 3154   2.344   3.987   2.198
 1064TIP3   OH2 3155   2.222   6.727   0.041
 1064TIP3    H1 3156   2.249   6.684  -0.040
 1064TIP3    H2 3157   2.226   6.658   0.108
 1065TIP3   OH2 3158   0.340   4.919   2.948
 1065TIP3    H1 3159   0.414   4.913   3.009
 1065TIP3    H2 3160   0.277   4.856   2.981
 1066TIP3   OH2 3161   2.838   4.422   5.415
 1066TIP3    H1 3162   2.928   4.447   5.435
 1066TIP3    H2 3163   2.844   4.371   5.334
 1067TIP3   OH2 3164   6.934   1.187   4.317
 1067TIP3    H1 3165   6.899   1.152   4.235
 1067TIP3    H2 3166   7.028   1.169   4.313
 1068TIP3   OH2 3167   0.658   6.092   1.601
 1068TIP3    H1 3168   0.654   6.137   1.685
 1068TIP3    H2 3169   0.698   6.007   1.621
 1069TIP3   OH2 3170   6.087   4.539   2.644
 1069TIP3    H1 3171   6.178   4.568   2.636
 1069TIP3    H2 3172   6.055   4.583   2.723
 1070TIP3   OH2 3173   0.134   6.111   2.626
 1070TIP3    H1 3174   0.145   6.169   2.702
 1070TIP3    H2 3175   0.115   6.025   2.664
 1071TIP3   OH2 3176   4.424   4.032   3.169
 1071TIP3    H1 3177   4.439   4.125   3.186
 1071TIP3    H2 3178   4.498   4.006   3.114
 1072TIP3   OH2 3179   4.085   6.479   3.312
 1072TIP3    H1 3180   4.031   6.503   3.236
 1072TIP3    H2 3181   4.044   6.399   3.345
 1073TIP3   OH2 3182   2.110   0.174   4.192
 1073TIP3    H1 3183   2.148   0.260   4.174
 1073TIP3    H2 3184   2.016   0.186   4.179
 1074TIP3   OH2 3185   0.081   5.302   0.276
 1074TIP3    H1 3186   0.075   5.225   0.220
 1074TIP3    H2 3187   0.173   5.329   0.270
 1075TIP3   OH2 3188   0.221   5.742   3.654
 1075TIP3    H1 3189   0.130   5.751   3.680
 1075TIP3    H2 3190   0.255   5.831   3.655
 1076TIP3   OH2 3191   0.626   4.754   0.092
 1076TIP3    H1 3192   0.644   4.727   0.002
 1076TIP3    H2 3193   0.621   4.671   0.140
 1077TIP3   OH2 3194   5.687   0.221   3.248
 1077TIP3    H1 3195   5.685   0.312   3.217
 1077TIP3    H2 3196   5.672   0.228   3.342
 1078TIP3   OH2 3197   3.652   1.849   2.912
 1078TIP3    H1 3198   3.601   1.826   2.834
 1078TIP3    H2 3199   3.588   1.888   2.972
 1079TIP3   OH2 3200   6.128   5.491   1.079
 1079TIP3    H1 3201   6.103   5.401   1.059
 1079TIP3    H2 3202   6.190   5.514   1.010
 1080TIP3   OH2 3203   7.136   1.337   2.221
 1080TIP3    H1 3204   7.102   1.338   2.131
 1080TIP3    H2 3205   7.212   1.396   2.218
 1081TIP3   OH2 3206   2.266   0.823   1.097
 1081TIP3    H1 3207   2.239   0.753   1.037
 1081TIP3    H2 3208   2.194   0.886   1.095
 1082TIP3   OH2 3209   3.853   0.044   2.582
 1082TIP3    H1 3210   3.870   0.073   2.492
 1082TIP3    H2 3211   3.870   0.122   2.636
 1083TIP3   OH2 3212   2.439   1.426   3.906
 1083TIP3    H1 3213   2.379   1.498   3.888
 1083TIP3    H2 3214   2.445   1.423   4.002
 1084TIP3   OH2 3215   6.750   6.364   2.593
 1084TIP3    H1 3216   6.800   6.334   2.517
 1084TIP3    H2 3217   6.659   6.348   2.570
 1085TIP3   OH2 3218   1.896   5.447   4.038
 1085TIP3    H1 3219   1.920   5.444   3.945
 1085TIP3    H2 3220   1.902   5.539   4.062
 1086TIP3   OH2 3221   5.351   6.162   1.807
 1086TIP3    H1 3222   5.357   6.067   1.790
 1086TIP3    H2 3223   5.423   6.200   1.757
 1087TIP3   OH2 3224   6.873   3.774   4.120
 1087TIP3    H1 3225   6.792   3.731   4.146
 1087TIP3    H2 3226   6.941   3.730   4.170
 1088TIP3   OH2 3227   0.058   2.779   5.509
 1088TIP3    H1 3228   0.130   2.833   5.541
 1088TIP3    H2 3229   0.081   2.690   5.537
 1089TIP3   OH2 3230   0.010   2.949   3.165
 1089TIP3    H1 3231   0.004   3.012   3.093
 1089TIP3    H2 3232   0.096   2.909   3.154
 1090TIP3   OH2 3233   3.781   2.462   1.780
 1090TIP3    H1 3234   3.715   2.530   1.793
 1090TIP3    H2 3235   3.742   2.383   1.816
 1091TIP3   OH2 3236   5.754   1.079   2.003
 1091TIP3    H1 3237   5.695   1.043   2.069
 1091TIP3    H2 3238   5.789   1.003   1.958
 1092TIP3   OH2 3239   1.524   2.684   2.769
 1092TIP3    H1 3240   1.550   2.592   2.779
 1092TIP3    H2 3241   1.607   2.732   2.766
 1093TIP3   OH2 3242   5.711   0.704   3.335
 1093TIP3    H1 3243   5.659   0.645   3.281
 1093TIP3    H2 3244   5.686   0.792   3.306
 1094TIP3   OH2 3245   3.572   0.862   2.561
 1094TIP3    H1 3246   3.597   0.770   2.556
 1094TIP3    H2 3247   3.635   0.901   2.622
 1095TIP3   OH2 3248   0.088   3.143   3.992
 1095TIP3    H1 3249  -0.005   3.144   3.970
 1095TIP3    H2 3250   0.120   3.229   3.966
 1096TIP3   OH2 3251   6.331   4.263   0.122
 1096TIP3    H1 3252   6.386   4.196   0.081
 1096TIP3    H2 3253   6.252   4.217   0.148
 1097TIP3   OH2 3254   2.936   3.226   0.729
 1097TIP3    H1 3255   3.017   3.175   0.736
 1097TIP3    H2 3256   2.868   3.169   0.764
 1098TIP3   OH2 3257   6.180   6.249   2.382
 1098TIP3    H1 3258   6.167   6.332   2.337
 1098TIP3    H2 3259   6.099   6.201   2.368
 1099TIP3   OH2 3260   6.097   0.618   2.810
 1099TIP3    H1 3261   6.090   0.640   2.902
 1099TIP3    H2 3262   6.135   0.695   2.769
 1100TIP3   OH2 3263   0.774   6.476   0.118
 1100TIP3    H1 3264   0.832   6.470   0.041
 1100TIP3    H2 3265   0.748   6.386   0.135
 1101TIP3   OH2 3266   4.060   4.498   5.003
 1101TIP3    H1 3267   4.037   4.570   5.061
 1101TIP3    H2 3268   4.040   4.419   5.053
 1102TIP3   OH2 3269   4.388   0.974   2.055
 1102TIP3    H1 3270   4.469   0.935   2.024
 1102TIP3    H2 3271   4.336   0.988   1.976
 1103TIP3   OH2 3272   3.469   2.623   3.778
 1103TIP3    H1 3273   3.478   2.704   3.829
 1103TIP3    H2 3274   3.399   2.575   3.822
 1104TIP3   OH2 3275   0.734   0.608   1.923
 1104TIP3    H1 3276   0.738   0.513   1.910
 1104TIP3    H2 3277   0.751   0.645   1.837
 1105TIP3   OH2 3278   2.699   4.860   5.073
 1105TIP3    H1 3279   2.790   4.841   5.049
 1105TIP3    H2 3280   2.688   4.819   5.159
 1106TIP3   OH2 3281   1.286   6.692   3.961
 1106TIP3    H1 3282   1.216   6.719   4.020
 1106TIP3    H2 3283   1.367   6.719   4.006
 1107TIP3   OH2 3284   2.887  -0.014   2.872
 1107TIP3    H1 3285   2.976   0.020   2.879
 1107TIP3    H2 3286   2.892  -0.078   2.801
 1108TIP3   OH2 3287   5.918   4.707   3.591
 1108TIP3    H1 3288   5.835   4.661   3.577
 1108TIP3    H2 3289   5.896   4.799   3.578
 1109TIP3   OH2 3290   3.046   3.828   0.115
 1109TIP3    H1 3291   3.128   3.800   0.156
 1109TIP3    H2 3292   3.072   3.863   0.030
 1110TIP3   OH2 3293   1.688   1.839   4.752
 1110TIP3    H1 3294   1.674   1.806   4.664
 1110TIP3    H2 3295   1.616   1.802   4.804
 1111TIP3   OH2 3296   3.650  -0.014   0.539
 1111TIP3    H1 3297   3.688   0.074   0.544
 1111TIP3    H2 3298   3.650  -0.034   0.445
 1112TIP3   OH2 3299   1.782   5.583   3.035
 1112TIP3    H1 3300   1.687   5.578   3.049
 1112TIP3    H2 3301   1.820   5.567   3.121
 1113TIP3   OH2 3302   5.106   3.445   3.707
 1113TIP3    H1 3303   5.033   3.432   3.647
 1113TIP3    H2 3304   5.071   3.503   3.775
 1114TIP3   OH2 3305   3.306   3.689   1.068
 1114TIP3    H1 3306   3.372   3.758   1.076
 1114TIP3    H2 3307   3.223   3.734   1.079
 1115TIP3   OH2 3308   3.814   4.831   3.468
 1115TIP3    H1 3309   3.757   4.795   3.536
 1115TIP3    H2 3310   3.860   4.903   3.511
 1116TIP3   OH2 3311   0.373   6.453   1.378
 1116TIP3    H1 3312   0.326   6.373   1.353
 1116TIP3    H2 3313   0.447   6.457   1.318
 1117TIP3   OH2 3314   2.098   0.641   0.454
 1117TIP3    H1 3315   2.076   0.731   0.433
 1117TIP3    H2 3316   2.025   0.610   0.507
 1118TIP3   OH2 3317   3.345   0.904   4.266
 1118TIP3    H1 3318   3.365   0.818   4.229
 1118TIP3    H2 3319   3.334   0.888   4.360
 1119TIP3   OH2 3320   2.668   4.369   2.756
 1119TIP3    H1 3321   2.652   4.311   2.682
 1119TIP3    H2 3322   2.660   4.313   2.833
 1120TIP3   OH2 3323   5.527   2.042   4.802
 1120TIP3    H1 3324   5.611   2.068   4.766
 1120TIP3    H2 3325   5.482   2.124   4.821
 1121TIP3   OH2 3326   0.332   2.279   3.397
 1121TIP3    H1 3327   0.329   2.184   3.411
 1121TIP3    H2 3328   0.308   2.290   3.305
 1122TIP3   OH2 3329   6.726   4.389   5.102
 1122TIP3    H1 3330   6.817   4.360   5.089
 1122TIP3    H2 3331   6.732   4.484   5.113
 1123TIP3   OH2 3332   1.877   3.300   0.553
 1123TIP3    H1 3333   1.889   3.362   0.625
 1123TIP3    H2 3334   1.784   3.277   0.556
 1124TIP3   OH2 3335   0.983   3.945   0.778
 1124TIP3    H1 3336   0.957   3.967   0.867
 1124TIP3    H2 3337   0.956   3.854   0.766
 1125TIP3   OH2 3338   0.746   4.434   3.294
 1125TIP3    H1 3339   0.754   4.519   3.337
 1125TIP3    H2 3340   0.653   4.412   3.302
 1126TIP3   OH2 3341   2.294   5.175   4.121
 1126TIP3    H1 3342   2.235   5.140   4.188
 1126TIP3    H2 3343   2.263   5.264   4.106
 1127TIP3   OH2 3344   1.889   4.815   5.315
 1127TIP3    H1 3345   1.887   4.906   5.287
 1127TIP3    H2 3346   1.928   4.768   5.240
 1128TIP3   OH2 3347   5.636   6.001   2.019
 1128TIP3    H1 3348   5.692   5.929   2.050
 1128TIP3    H2 3349   5.547   5.966   2.024
 1129TIP3   OH2 3350   6.539   6.228   0.896
 1129TIP3    H1 3351   6.456   6.180   0.898
 1129TIP3    H2 3352   6.584   6.196   0.818
 1130TIP3   OH2 3353   6.302   3.304   3.681
 1130TIP3    H1 3354   6.334   3.342   3.599
 1130TIP3    H2 3355   6.231   3.246   3.654
 1131TIP3   OH2 3356   4.027   4.370   4.502
 1131TIP3    H1 3357   3.964   4.348   4.571
 1131TIP3    H2 3358   3.981   4.433   4.446
 1132TIP3   OH2 3359   6.108   4.186   2.095
 1132TIP3    H1 3360   6.117   4.277   2.124
 1132TIP3    H2 3361   6.023   4.159   2.128
 1133TIP3   OH2 3362   5.467   4.844   1.105
 1133TIP3    H1 3363   5.497   4.759   1.073
 1133TIP3    H2 3364   5.438   4.826   1.195
 1134TIP3   OH2 3365   4.870   1.941   2.986
 1134TIP3    H1 3366   4.794   1.947   2.928
 1134TIP3    H2 3367   4.909   1.856   2.966
 1135TIP3   OH2 3368   1.287   4.830   3.612
 1135TIP3    H1 3369   1.324   4.810   3.698
 1135TIP3    H2 3370   1.335   4.907   3.583
 1136TIP3   OH2 3371   5.898   5.223   3.356
 1136TIP3    H1 3372   5.817   5.221   3.405
 1136TIP3    H2 3373   5.967   5.219   3.422
 1137TIP3   OH2 3374   1.179   0.172   4.172
 1137TIP3    H1 3375   1.132   0.092   4.147
 1137TIP3    H2 3376   1.249   0.179   4.108
 1138TIP3   OH2 3377   3.290   4.652   1.071
 1138TIP3    H1 3378   3.294   4.618   1.161
 1138TIP3    H2 3379   3.207   4.619   1.037
 1139TIP3   OH2 3380   6.407   3.747   0.562
 1139TIP3    H1 3381   6.425   3.653   0.559
 1139TIP3    H2 3382   6.421   3.777   0.472
 1140TIP3   OH2 3383   1.226   5.213   0.738
 1140TIP3    H1 3384   1.187   5.245   0.656
 1140TIP3    H2 3385   1.168   5.142   0.766
 1141TIP3   OH2 3386   0.509   0.665   2.090
 1141TIP3    H1 3387   0.472   0.578   2.104
 1141TIP3    H2 3388   0.596   0.649   2.052
 1142TIP3   OH2 3389   3.258   6.469   4.996
 1142TIP3    H1 3390   3.249   6.475   4.901
 1142TIP3    H2 3391   3.178   6.508   5.030
 1143TIP3   OH2 3392   7.044   2.501   4.573
 1143TIP3    H1 3393   7.015   2.577   4.522
 1143TIP3    H2 3394   6.966   2.476   4.623
 1144TIP3   OH2 3395   5.761   3.309   4.820
 1144TIP3    H1 3396   5.829   3.357   4.773
 1144TIP3    H2 3397   5.808   3.263   4.890
 1145TIP3   OH2 3398   2.818   6.403   5.232
 1145TIP3    H1 3399   2.892   6.440   5.279
 1145TIP3    H2 3400   2.775   6.346   5.295
 1146TIP3   OH2 3401   0.149   6.650   2.054
 1146TIP3    H1 3402   0.237   6.624   2.028
 1146TIP3    H2 3403   0.092   6.582   2.019
 1147TIP3   OH2 3404   6.055   3.144   0.838
 1147TIP3    H1 3405   5.968   3.106   0.828
 1147TIP3    H2 3406   6.115   3.074   0.810
 1148TIP3   OH2 3407   2.691   5.544   4.013
 1148TIP3    H1 3408   2.655   5.544   3.924
 1148TIP3    H2 3409   2.765   5.484   4.009
 1149TIP3   OH2 3410   3.477   6.557   0.454
 1149TIP3    H1 3411   3.434   6.472   0.455
 1149TIP3    H2 3412   3.546   6.550   0.519
 1150TIP3   OH2 3413   5.883   0.728   4.313
 1150TIP3    H1 3414   5.861   0.733   4.406
 1150TIP3    H2 3415   5.819   0.666   4.278
 1151TIP3   OH2 3416   3.649   4.355   0.919
 1151TIP3    H1 3417   3.724   4.413   0.905
 1151TIP3    H2 3418   3.641   4.348   1.014
 1152TIP3   OH2 3419   3.022   4.311   5.648
 1152TIP3    H1 3420   3.026   4.217   5.632
 1152TIP3    H2 3421   2.934   4.327   5.681
 1153TIP3   OH2 3422   4.407   4.863   4.609
 1153TIP3    H1 3423   4.354   4.790   4.641
 1153TIP3    H2 3424   4.393   4.863   4.515
 1154TIP3   OH2 3425   1.857   2.934   4.331
 1154TIP3    H1 3426   1.949   2.948   4.310
 1154TIP3    H2 3427   1.839   2.844   4.304
 1155TIP3   OH2 3428   3.756   3.407   5.575
 1155TIP3    H1 3429   3.745   3.318   5.543
 1155TIP3    H2 3430   3.667   3.442   5.580
 1156TIP3   OH2 3431   2.853   1.605   3.371
 1156TIP3    H1 3432   2.861   1.548   3.294
 1156TIP3    H2 3433   2.838   1.692   3.335
 1157TIP3   OH2 3434   6.110   6.254   0.369
 1157TIP3    H1 3435   6.091   6.318   0.437
 1157TIP3    H2 3436   6.029   6.249   0.318
 1158TIP3   OH2 3437   3.289   2.064   2.137
 1158TIP3    H1 3438   3.247   2.031   2.057
 1158TIP3    H2 3439   3.224   2.052   2.206
 1159TIP3   OH2 3440   6.075   5.380   5.034
 1159TIP3    H1 3441   6.097   5.464   4.994
 1159TIP3    H2 3442   6.114   5.314   4.976
 1160TIP3   OH2 3443   1.750   4.300   1.710
 1160TIP3    H1 3444   1.819   4.365   1.693
 1160TIP3    H2 3445   1.769   4.267   1.797
 1161TIP3   OH2 3446   0.551   3.800   2.856
 1161TIP3    H1 3447   0.596   3.849   2.788
 1161TIP3    H2 3448   0.608   3.806   2.933
 1162TIP3   OH2 3449   6.695   2.134   0.434
 1162TIP3    H1 3450   6.729   2.195   0.499
 1162TIP3    H2 3451   6.619   2.179   0.397
 1163TIP3   OH2 3452   3.175   4.530   0.717
 1163TIP3    H1 3453   3.148   4.531   0.809
 1163TIP3    H2 3454   3.270   4.541   0.719
 1164TIP3   OH2 3455   3.489   6.367   2.637
 1164TIP3    H1 3456   3.448   6.377   2.552
 1164TIP3    H2 3457   3.483   6.454   2.677
 1165TIP3   OH2 3458   2.294   2.975   1.314
 1165TIP3    H1 3459   2.227   3.000   1.378
 1165TIP3    H2 3460   2.371   3.025   1.339
 1166TIP3   OH2 3461   6.782   1.218   0.275
 1166TIP3    H1 3462   6.712   1.273   0.240
 1166TIP3    H2 3463   6.775   1.135   0.227
 1167TIP3   OH2 3464   4.516   1.948   4.812
 1167TIP3    H1 3465   4.568   2.023   4.840
 1167TIP3    H2 3466   4.553   1.923   4.727
 1168TIP3   OH2 3467   6.951   0.457   3.008
 1168TIP3    H1 3468   6.942   0.552   3.013
 1168TIP3    H2 3469   6.867   0.426   2.976
 1169TIP3   OH2 3470   6.001   3.410   5.089
 1169TIP3    H1 3471   5.925   3.452   5.050
 1169TIP3    H2 3472   6.075   3.462   5.059
 1170TIP3   OH2 3473   2.333   4.425   2.985
 1170TIP3    H1 3474   2.422   4.458   2.999
 1170TIP3    H2 3475   2.339   4.332   3.008
 1171TIP3   OH2 3476   0.301   5.196   3.290
 1171TIP3    H1 3477   0.240   5.140   3.339
 1171TIP3    H2 3478   0.387   5.162   3.311
 1172TIP3   OH2 3479   2.557   6.439   1.553
 1172TIP3    H1 3480   2.629   6.480   1.505
 1172TIP3    H2 3481   2.579   6.451   1.645
 1173TIP3   OH2 3482   1.942   1.601   0.512
 1173TIP3    H1 3483   2.020   1.655   0.502
 1173TIP3    H2 3484   1.944   1.573   0.603
 1174TIP3   OH2 3485   3.171   0.331   1.261
 1174TIP3    H1 3486   3.205   0.390   1.328
 1174TIP3    H2 3487   3.217   0.357   1.181
 1175TIP3   OH2 3488   2.855   2.262   5.097
 1175TIP3    H1 3489   2.838   2.179   5.053
 1175TIP3    H2 3490   2.868   2.324   5.025
 1176TIP3   OH2 3491   3.364   1.796   0.739
 1176TIP3    H1 3492   3.284   1.843   0.762
 1176TIP3    H2 3493   3.374   1.808   0.645
 1177TIP3   OH2 3494   0.939   3.405   0.262
 1177TIP3    H1 3495   0.935   3.312   0.241
 1177TIP3    H2 3496   1.032   3.423   0.277
 1178TIP3   OH2 3497   6.907   4.871   4.635
 1178TIP3    H1 3498   6.998   4.889   4.613
 1178TIP3    H2 3499   6.863   4.955   4.627
 1179TIP3   OH2 3500   1.952   1.760   4.406
 1179TIP3    H1 3501   1.946   1.665   4.402
 1179TIP3    H2 3502   1.983   1.786   4.319
 1180TIP3   OH2 3503   1.270   5.519   0.669
 1180TIP3    H1 3504   1.263   5.525   0.573
 1180TIP3    H2 3505   1.257   5.427   0.689
 1181TIP3   OH2 3506   5.502   1.653   2.641
 1181TIP3    H1 3507   5.552   1.571   2.637
 1181TIP3    H2 3508   5.501   1.686   2.552
 1182TIP3   OH2 3509   0.606   0.278   1.358
 1182TIP3    H1 3510   0.653   0.195   1.365
 1182TIP3    H2 3511   0.632   0.327   1.435
 1183TIP3   OH2 3512   2.164   1.897   3.024
 1183TIP3    H1 3513   2.199   1.864   3.107
 1183TIP3    H2 3514   2.119   1.821   2.986
 1184TIP3   OH2 3515   0.509   4.324   1.004
 1184TIP3    H1 3516   0.492   4.418   0.994
 1184TIP3    H2 3517   0.441   4.294   1.065
 1185TIP3   OH2 3518   5.371   3.621   5.675
 1185TIP3    H1 3519   5.460   3.589   5.658
 1185TIP3    H2 3520   5.321   3.542   5.694
 1186TIP3   OH2 3521   6.279   4.300   4.772
 1186TIP3    H1 3522   6.217   4.355   4.724
 1186TIP3    H2 3523   6.261   4.318   4.864
 1187TIP3   OH2 3524   1.195   5.791   0.672
 1187TIP3    H1 3525   1.195   5.828   0.761
 1187TIP3    H2 3526   1.238   5.706   0.683
 1188TIP3   OH2 3527   2.707   1.918   0.836
 1188TIP3    H1 3528   2.768   1.847   0.817
 1188TIP3    H2 3529   2.658   1.887   0.913
 1189TIP3   OH2 3530   0.597   5.921   1.313
 1189TIP3    H1 3531   0.668   5.931   1.377
 1189TIP3    H2 3532   0.561   6.009   1.304
 1190TIP3   OH2 3533   5.794   5.499   4.238
 1190TIP3    H1 3534   5.738   5.558   4.289
 1190TIP3    H2 3535   5.864   5.555   4.205
 1191TIP3   OH2 3536   5.611   1.009   2.241
 1191TIP3    H1 3537   5.702   1.034   2.260
 1191TIP3    H2 3538   5.617   0.915   2.221
 1192TIP3   OH2 3539   1.323   3.937   0.869
 1192TIP3    H1 3540   1.238   3.892   0.871
 1192TIP3    H2 3541   1.372   3.898   0.942
 1193TIP3   OH2 3542   5.865   6.583   1.133
 1193TIP3    H1 3543   5.938   6.604   1.075
 1193TIP3    H2 3544   5.889   6.498   1.172
 1194TIP3   OH2 3545   3.515   6.611   0.754
 1194TIP3    H1 3546   3.573   6.687   0.760
 1194TIP3    H2 3547   3.566   6.539   0.792
 1195TIP3   OH2 3548   6.939   4.395   0.995
 1195TIP3    H1 3549   7.029   4.392   0.963
 1195TIP3    H2 3550   6.903   4.309   0.976
 1196TIP3   OH2 3551   5.772   4.364   1.837
 1196TIP3    H1 3552   5.836   4.295   1.821
 1196TIP3    H2 3553   5.708   4.324   1.895
 1197TIP3   OH2 3554   3.734   3.161   3.526
 1197TIP3    H1 3555   3.792   3.235   3.511
 1197TIP3    H2 3556   3.676   3.189   3.597
 1198TIP3   OH2 3557   1.635   5.000   5.660
 1198TIP3    H1 3558   1.685   4.920   5.649
 1198TIP3    H2 3559   1.647   5.048   5.578
 1199TIP3   OH2 3560   5.761   4.038   0.386
 1199TIP3    H1 3561   5.851   4.027   0.356
 1199TIP3    H2 3562   5.709   4.037   0.305
 1200TIP3   OH2 3563   0.622   6.022   2.286
 1200TIP3    H1 3564   0.543   6.058   2.246
 1200TIP3    H2 3565   0.651   5.954   2.225
 1201TIP3   OH2 3566   0.159   2.432   1.597
 1201TIP3    H1 3567   0.168   2.490   1.522
 1201TIP3    H2 3568   0.235   2.374   1.591
 1202TIP3   OH2 3569   3.634   6.674   0.261
 1202TIP3    H1 3570   3.595   6.628   0.187
 1202TIP3    H2 3571   3.589   6.638   0.338
 1203TIP3   OH2 3572   6.614   3.336   4.703
 1203TIP3    H1 3573   6.643   3.261   4.754
 1203TIP3    H2 3574   6.623   3.310   4.612
 1204TIP3   OH2 3575   0.665   4.234   2.111
 1204TIP3    H1 3576   0.739   4.174   2.124
 1204TIP3    H2 3577   0.634   4.251   2.200
 1205TIP3   OH2 3578   4.675   3.475   2.044
 1205TIP3    H1 3579   4.598   3.519   2.081
 1205TIP3    H2 3580   4.667   3.384   2.074
 1206TIP3   OH2 3581   1.576   3.914   3.267
 1206TIP3    H1 3582   1.536   3.866   3.339
 1206TIP3    H2 3583   1.534   4.000   3.270
 1207TIP3   OH2 3584   4.692   2.321   4.311
 1207TIP3    H1 3585   4.665   2.229   4.319
 1207TIP3    H2 3586   4.766   2.330   4.371
 1208TIP3   OH2 3587   0.362   4.963   5.315
 1208TIP3    H1 3588   0.392   5.051   5.291
 1208TIP3    H2 3589   0.278   4.953   5.270
 1209TIP3   OH2 3590   6.459   2.942   0.322
 1209TIP3    H1 3591   6.377   2.953   0.274
 1209TIP3    H2 3592   6.479   3.030   0.355
 1210TIP3   OH2 3593   3.297   2.946   4.452
 1210TIP3    H1 3594   3.319   2.956   4.360
 1210TIP3    H2 3595   3.312   2.853   4.471
 1211TIP3   OH2 3596   6.953   5.782   0.788
 1211TIP3    H1 3597   6.900   5.852   0.750
 1211TIP3    H2 3598   6.891   5.732   0.841
 1212TIP3   OH2 3599   3.433   5.366   3.014
 1212TIP3    H1 3600   3.387   5.437   3.058
 1212TIP3    H2 3601   3.514   5.407   2.981
 1213TIP3   OH2 3602   6.308   6.481   1.094
 1213TIP3    H1 3603   6.392   6.511   1.129
 1213TIP3    H2 3604   6.274   6.422   1.161
 1214TIP3   OH2 3605   4.440   6.691   5.591
 1214TIP3    H1 3606   4.365   6.669   5.537
 1214TIP3    H2 3607   4.468   6.778   5.561
 1215TIP3   OH2 3608   5.800   5.011   1.838
 1215TIP3    H1 3609   5.860   4.962   1.782
 1215TIP3    H2 3610   5.751   4.944   1.885
 1216TIP3   OH2 3611   1.821   4.849   0.045
 1216TIP3    H1 3612   1.797   4.766   0.004
 1216TIP3    H2 3613   1.829   4.828   0.138
 1217TIP3   OH2 3614   1.368   6.108   2.461
 1217TIP3    H1 3615   1.293   6.081   2.408
 1217TIP3    H2 3616   1.353   6.068   2.546
 1218TIP3   OH2 3617   0.718   0.765   2.833
 1218TIP3    H1 3618   0.699   0.767   2.739
 1218TIP3    H2 3619   0.804   0.806   2.841
 1219TIP3   OH2 3620   5.206   4.338   5.532
 1219TIP3    H1 3621   5.134   4.317   5.591
 1219TIP3    H2 3622   5.283   4.302   5.576
 1220TIP3   OH2 3623   3.396   1.415   2.097
 1220TIP3    H1 3624   3.324   1.476   2.116
 1220TIP3    H2 3625   3.385   1.393   2.005
 1221TIP3   OH2 3626   6.738   2.383   2.078
 1221TIP3    H1 3627   6.819   2.380   2.129
 1221TIP3    H2 3628   6.682   2.445   2.125
 1222TIP3   OH2 3629   2.955   2.408   1.994
 1222TIP3    H1 3630   2.954   2.489   2.045
 1222TIP3    H2 3631   3.046   2.399   1.965
 1223TIP3   OH2 3632   5.505   3.582   4.247
 1223TIP3    H1 3633   5.579   3.547   4.297
 1223TIP3    H2 3634   5.458   3.505   4.216
 1224TIP3   OH2 3635   3.835   4.545   1.056
 1224TIP3    H1 3636   3.822   4.550   1.151
 1224TIP3    H2 3637   3.930   4.536   1.046
 1225TIP3   OH2 3638   2.058   5.465   4.384
 1225TIP3    H1 3639   2.080   5.388   4.436
 1225TIP3    H2 3640   2.097   5.448   4.298
 1226TIP3   OH2 3641   6.966   4.609   3.170
 1226TIP3    H1 3642   6.880   4.570   3.187
 1226TIP3    H2 3643   7.018   4.583   3.246
 1227TIP3   OH2 3644   4.108   6.516   2.557
 1227TIP3    H1 3645   4.105   6.518   2.461
 1227TIP3    H2 3646   4.104   6.423   2.580
 1228TIP3   OH2 3647   3.567   6.072   3.685
 1228TIP3    H1 3648   3.537   6.050   3.596
 1228TIP3    H2 3649   3.584   6.166   3.681
 1229TIP3   OH2 3650   6.971   4.272   4.979
 1229TIP3    H1 3651   7.046   4.328   4.995
 1229TIP3    H2 3652   6.951   4.283   4.886
 1230TIP3   OH2 3653   5.108   5.179   0.134
 1230TIP3    H1 3654   5.166   5.185   0.058
 1230TIP3    H2 3655   5.046   5.110   0.111
 1231TIP3   OH2 3656   5.931   1.317   4.415
 1231TIP3    H1 3657   6.002   1.329   4.479
 1231TIP3    H2 3658   5.958   1.369   4.339
 1232TIP3   OH2 3659   3.823   6.808   1.979
 1232TIP3    H1 3660   3.791   6.834   2.065
 1232TIP3    H2 3661   3.833   6.713   1.985
 1233TIP3   OH2 3662   0.870   4.260   3.758
 1233TIP3    H1 3663   0.795   4.317   3.777
 1233TIP3    H2 3664   0.935   4.318   3.719
 1234TIP3   OH2 3665   0.494   1.402   5.217
 1234TIP3    H1 3666   0.576   1.355   5.234
 1234TIP3    H2 3667   0.473   1.380   5.126
 1235TIP3   OH2 3668   0.914   1.516   4.255
 1235TIP3    H1 3669   0.943   1.591   4.308
 1235TIP3    H2 3670   0.959   1.527   4.171
 1236TIP3   OH2 3671   3.334   3.117   1.054
 1236TIP3    H1 3672   3.406   3.149   1.000
 1236TIP3    H2 3673   3.334   3.174   1.130
 1237TIP3   OH2 3674   0.250   6.607   3.499
 1237TIP3    H1 3675   0.248   6.511   3.496
 1237TIP3    H2 3676   0.159   6.632   3.514
 1238TIP3   OH2 3677   2.036   4.582   1.376
 1238TIP3    H1 3678   2.108   4.580   1.312
 1238TIP3    H2 3679   1.965   4.627   1.330
 1239TIP3   OH2 3680   4.921   4.747   1.946
 1239TIP3    H1 3681   4.852   4.690   1.978
 1239TIP3    H2 3682   5.002   4.705   1.973
 1240TIP3   OH2 3683   5.392   4.300   0.997
 1240TIP3    H1 3684   5.302   4.278   1.017
 1240TIP3    H2 3685   5.444   4.257   1.064
 1241TIP3   OH2 3686   6.027   0.266   5.849
 1241TIP3    H1 3687   5.990   0.313   5.924
 1241TIP3    H2 3688   6.112   0.307   5.834
 1242TIP3   OH2 3689   1.527   6.567   2.473
 1242TIP3    H1 3690   1.505   6.658   2.489
 1242TIP3    H2 3691   1.443   6.522   2.468
 1243TIP3   OH2 3692   3.359   1.729   1.451
 1243TIP3    H1 3693   3.407   1.755   1.372
 1243TIP3    H2 3694   3.285   1.790   1.454
 1244TIP3   OH2 3695   6.164   2.717   1.069
 1244TIP3    H1 3696   6.254   2.695   1.091
 1244TIP3    H2 3697   6.131   2.640   1.022
 1245TIP3   OH2 3698   0.418   0.512   5.386
 1245TIP3    H1 3699   0.475   0.436   5.403
 1245TIP3    H2 3700   0.431   0.530   5.293
 1246TIP3   OH2 3701   2.462   2.340   2.372
 1246TIP3    H1 3702   2.551   2.376   2.365
 1246TIP3    H2 3703   2.444   2.341   2.466
 1247TIP3   OH2 3704   5.847   5.008   3.662
 1247TIP3    H1 3705   5.779   5.004   3.729
 1247TIP3    H2 3706   5.802   5.041   3.584
 1248TIP3   OH2 3707   5.568   3.954   0.041
 1248TIP3    H1 3708   5.538   3.961   0.131
 1248TIP3    H2 3709   5.493   3.919  -0.007
 1249TIP3   OH2 3710   5.375   1.066   1.722
 1249TIP3    H1 3711   5.375   0.979   1.682
 1249TIP3    H2 3712   5.467   1.093   1.720
 1250TIP3   OH2 3713   7.132   6.478   1.964
 1250TIP3    H1 3714   7.151   6.436   2.048
 1250TIP3    H2 3715   7.098   6.407   1.909
 1251TIP3   OH2 3716   6.450   0.409   1.330
 1251TIP3    H1 3717   6.470   0.401   1.423
 1251TIP3    H2 3718   6.450   0.318   1.298
 1252TIP3   OH2 3719   5.703   4.974   1.390
 1252TIP3    H1 3720   5.743   5.028   1.458
 1252TIP3    H2 3721   5.619   5.016   1.373
 1253TIP3   OH2 3722   6.945   4.309   0.644
 1253TIP3    H1 3723   6.953   4.315   0.549
 1253TIP3    H2 3724   7.012   4.369   0.678
 1254TIP3   OH2 3725   4.126   4.112   1.314
 1254TIP3    H1 3726   4.169   4.193   1.287
 1254TIP3    H2 3727   4.178   4.042   1.273
 1255TIP3   OH2 3728   0.929   6.659   5.517
 1255TIP3    H1 3729   0.991   6.590   5.494
 1255TIP3    H2 3730   0.932   6.664   5.613
 1256TIP3   OH2 3731   3.948   0.561   0.939
 1256TIP3    H1 3732   3.907   0.622   1.001
 1256TIP3    H2 3733   3.898   0.480   0.949
 1257TIP3   OH2 3734   6.805   2.813   4.836
 1257TIP3    H1 3735   6.830   2.788   4.925
 1257TIP3    H2 3736   6.885   2.801   4.785
 1258TIP3   OH2 3737   6.737   6.227   3.673
 1258TIP3    H1 3738   6.665   6.290   3.677
 1258TIP3    H2 3739   6.714   6.161   3.739
 1259TIP3   OH2 3740   7.009   0.966   3.955
 1259TIP3    H1 3741   7.042   0.966   3.866
 1259TIP3    H2 3742   6.962   1.050   3.964
 1260TIP3   OH2 3743   6.296   5.278   3.974
 1260TIP3    H1 3744   6.206   5.308   3.985
 1260TIP3    H2 3745   6.345   5.359   3.957
 1261TIP3   OH2 3746   4.748   0.982   1.771
 1261TIP3    H1 3747   4.708   0.937   1.845
 1261TIP3    H2 3748   4.760   1.072   1.802
 1262TIP3   OH2 3749   5.566   0.153   0.668
 1262TIP3    H1 3750   5.616   0.084   0.712
 1262TIP3    H2 3751   5.596   0.234   0.708
 1263TIP3   OH2 3752   1.833   2.031   5.639
 1263TIP3    H1 3753   1.804   2.036   5.548
 1263TIP3    H2 3754   1.928   2.036   5.635
 1264TIP3   OH2 3755   0.620   1.083   1.105
 1264TIP3    H1 3756   0.630   0.990   1.083
 1264TIP3    H2 3757   0.691   1.101   1.166
 1265TIP3   OH2 3758   2.042   3.827   2.533
 1265TIP3    H1 3759   1.999   3.765   2.474
 1265TIP3    H2 3760   1.971   3.868   2.581
 1266TIP3   OH2 3761   6.396   5.464   0.980
 1266TIP3    H1 3762   6.381   5.380   0.937
 1266TIP3    H2 3763   6.416   5.442   1.071
 1267TIP3   OH2 3764   7.036   6.293   1.747
 1267TIP3    H1 3765   6.941   6.306   1.752
 1267TIP3    H2 3766   7.053   6.278   1.654
 1268TIP3   OH2 3767   0.974   3.252   4.438
 1268TIP3    H1 3768   0.899   3.312   4.436
 1268TIP3    H2 3769   1.046   3.305   4.472
 1269TIP3   OH2 3770   1.855   0.696   5.215
 1269TIP3    H1 3771   1.898   0.769   5.170
 1269TIP3    H2 3772   1.811   0.648   5.145
 1270TIP3   OH2 3773   7.176   0.647   1.587
 1270TIP3    H1 3774   7.181   0.736   1.620
 1270TIP3    H2 3775   7.141   0.655   1.499
 1271TIP3   OH2 3776   4.270   2.533   1.455
 1271TIP3    H1 3777   4.288   2.600   1.521
 1271TIP3    H2 3778   4.354   2.491   1.440
 1272TIP3   OH2 3779   2.451   0.231   5.147
 1272TIP3    H1 3780   2.431   0.171   5.220
 1272TIP3    H2 3781   2.492   0.306   5.189
 1273TIP3   OH2 3782   0.614   2.318   3.828
 1273TIP3    H1 3783   0.699   2.309   3.870
 1273TIP3    H2 3784   0.626   2.281   3.741
 1274TIP3   OH2 3785   0.173   0.960   4.574
 1274TIP3    H1 3786   0.163   0.867   4.551
 1274TIP3    H2 3787   0.215   0.958   4.660
 1275TIP3   OH2 3788   4.665   0.987   4.098
 1275TIP3    H1 3789   4.596   1.049   4.074
 1275TIP3    H2 3790   4.743   1.042   4.108
 1276TIP3   OH2 3791   4.747   0.669   3.310
 1276TIP3    H1 3792   4.678   0.644   3.372
 1276TIP3    H2 3793   4.748   0.598   3.245
 1277TIP3   OH2 3794   3.889   3.904   1.226
 1277TIP3    H1 3795   3.961   3.875   1.281
 1277TIP3    H2 3796   3.914   3.992   1.197
 1278TIP3   OH2 3797   5.294   0.450   5.200
 1278TIP3    H1 3798   5.327   0.466   5.112
 1278TIP3    H2 3799   5.201   0.473   5.195
 1279TIP3   OH2 3800   5.920   0.728   2.362
 1279TIP3    H1 3801   5.919   0.720   2.266
 1279TIP3    H2 3802   6.008   0.703   2.388
 1280TIP3   OH2 3803   4.900   4.958   0.083
 1280TIP3    H1 3804   4.828   4.920   0.134
 1280TIP3    H2 3805   4.857   5.023   0.026
 1281TIP3   OH2 3806   4.852   2.045   3.523
 1281TIP3    H1 3807   4.940   2.028   3.556
 1281TIP3    H2 3808   4.828   1.965   3.476
 1282TIP3   OH2 3809   2.738   1.067   4.398
 1282TIP3    H1 3810   2.767   1.057   4.308
 1282TIP3    H2 3811   2.749   0.981   4.437
 1283TIP3   OH2 3812   3.482   0.109   1.357
 1283TIP3    H1 3813   3.459   0.095   1.265
 1283TIP3    H2 3814   3.463   0.026   1.400
 1284TIP3   OH2 3815   0.907   2.888   2.559
 1284TIP3    H1 3816   0.943   2.803   2.535
 1284TIP3    H2 3817   0.870   2.923   2.478
 1285TIP3   OH2 3818   4.581   2.650   1.918
 1285TIP3    H1 3819   4.632   2.593   1.974
 1285TIP3    H2 3820   4.497   2.660   1.963
 1286TIP3   OH2 3821   2.303   5.129   3.690
 1286TIP3    H1 3822   2.281   5.143   3.598
 1286TIP3    H2 3823   2.356   5.206   3.714
 1287TIP3   OH2 3824   3.416   3.847   4.758
 1287TIP3    H1 3825   3.475   3.909   4.715
 1287TIP3    H2 3826   3.352   3.824   4.690
 1288TIP3   OH2 3827   7.091   4.369   1.781
 1288TIP3    H1 3828   7.155   4.420   1.731
 1288TIP3    H2 3829   7.006   4.403   1.751
 1289TIP3   OH2 3830   1.748   1.753   1.012
 1289TIP3    H1 3831   1.760   1.821   0.945
 1289TIP3    H2 3832   1.656   1.760   1.036
 1290TIP3   OH2 3833   4.734   2.458   4.062
 1290TIP3    H1 3834   4.826   2.479   4.077
 1290TIP3    H2 3835   4.709   2.407   4.139
 1291TIP3   OH2 3836   6.121   0.689   0.168
 1291TIP3    H1 3837   6.030   0.718   0.167
 1291TIP3    H2 3838   6.125   0.618   0.104
 1292TIP3   OH2 3839   1.824   0.801   4.833
 1292TIP3    H1 3840   1.783   0.879   4.796
 1292TIP3    H2 3841   1.752   0.739   4.843
 1293TIP3   OH2 3842   1.700   6.563   1.082
 1293TIP3    H1 3843   1.618   6.537   1.039
 1293TIP3    H2 3844   1.718   6.650   1.047
 1294TIP3   OH2 3845   4.399   6.540   3.616
 1294TIP3    H1 3846   4.389   6.632   3.592
 1294TIP3    H2 3847   4.397   6.493   3.533
 1295TIP3   OH2 3848   6.155   4.262   3.548
 1295TIP3    H1 3849   6.085   4.223   3.496
 1295TIP3    H2 3850   6.112   4.331   3.598
 1296TIP3   OH2 3851   5.364   2.935   5.549
 1296TIP3    H1 3852   5.332   3.024   5.532
 1296TIP3    H2 3853   5.307   2.879   5.496
 1297TIP3   OH2 3854   4.098   6.119   0.965
 1297TIP3    H1 3855   4.074   6.130   1.057
 1297TIP3    H2 3856   4.026   6.157   0.916
 1298TIP3   OH2 3857   5.000   4.027   5.219
 1298TIP3    H1 3858   5.084   3.981   5.221
 1298TIP3    H2 3859   5.023   4.118   5.199
 1299TIP3   OH2 3860   0.586   3.080  -0.023
 1299TIP3    H1 3861   0.559   3.000   0.022
 1299TIP3    H2 3862   0.537   3.150   0.020
 1300TIP3   OH2 3863   3.459   1.031   1.598
 1300TIP3    H1 3864   3.453   0.989   1.683
 1300TIP3    H2 3865   3.369   1.049   1.573
 1301TIP3   OH2 3866   2.013   5.962   3.879
 1301TIP3    H1 3867   2.055   5.917   3.806
 1301TIP3    H2 3868   1.920   5.964   3.857
 1302TIP3   OH2 3869   4.928   5.446   5.845
 1302TIP3    H1 3870   4.974   5.362   5.842
 1302TIP3    H2 3871   4.948   5.481   5.932
 1303TIP3   OH2 3872   0.350   2.435   0.105
 1303TIP3    H1 3873   0.263   2.475   0.107
 1303TIP3    H2 3874   0.357   2.398   0.017
 1304TIP3   OH2 3875   6.854   4.447   1.650
 1304TIP3    H1 3876   6.818   4.367   1.613
 1304TIP3    H2 3877   6.829   4.516   1.589
 1305TIP3   OH2 3878   1.313   2.579   4.540
 1305TIP3    H1 3879   1.240   2.617   4.589
 1305TIP3    H2 3880   1.389   2.587   4.599
 1306TIP3   OH2 3881   4.627   2.719   4.507
 1306TIP3    H1 3882   4.552   2.664   4.484
 1306TIP3    H2 3883   4.695   2.693   4.445
 1307TIP3   OH2 3884   2.816   5.334   4.538
 1307TIP3    H1 3885   2.895   5.350   4.589
 1307TIP3    H2 3886   2.842   5.266   4.475
 1308TIP3   OH2 3887   4.066   1.507   1.664
 1308TIP3    H1 3888   4.007   1.566   1.712
 1308TIP3    H2 3889   4.144   1.559   1.647
 1309TIP3   OH2 3890   4.370   5.332   1.993
 1309TIP3    H1 3891   4.359   5.294   2.080
 1309TIP3    H2 3892   4.464   5.335   1.979
 1310TIP3   OH2 3893   6.792   4.211   2.191
 1310TIP3    H1 3894   6.805   4.295   2.236
 1310TIP3    H2 3895   6.811   4.230   2.100
 1311TIP3   OH2 3896   6.605   5.640   1.470
 1311TIP3    H1 3897   6.673   5.575   1.486
 1311TIP3    H2 3898   6.527   5.605   1.513
 1312TIP3   OH2 3899   4.607   0.216   5.738
 1312TIP3    H1 3900   4.565   0.219   5.824
 1312TIP3    H2 3901   4.535   0.208   5.675
 1313TIP3   OH2 3902   6.134   4.763   0.727
 1313TIP3    H1 3903   6.211   4.751   0.671
 1313TIP3    H2 3904   6.096   4.846   0.697
 1314TIP3   OH2 3905   0.842   6.807   1.994
 1314TIP3    H1 3906   0.781   6.880   2.004
 1314TIP3    H2 3907   0.850   6.796   1.900
 1315TIP3   OH2 3908   3.803   0.456   1.903
 1315TIP3    H1 3909   3.760   0.425   1.983
 1315TIP3    H2 3910   3.788   0.387   1.839
 1316TIP3   OH2 3911   1.523   3.804   2.689
 1316TIP3    H1 3912   1.599   3.861   2.690
 1316TIP3    H2 3913   1.448   3.863   2.699
 1317TIP3   OH2 3914   2.837   5.524   2.378
 1317TIP3    H1 3915   2.804   5.489   2.295
 1317TIP3    H2 3916   2.766   5.578   2.411
 1318TIP3   OH2 3917   5.627   6.472   5.102
 1318TIP3    H1 3918   5.548   6.420   5.114
 1318TIP3    H2 3919   5.699   6.408   5.109
 1319TIP3   OH2 3920   5.974   4.536   1.830
 1319TIP3    H1 3921   5.894   4.484   1.843
 1319TIP3    H2 3922   6.023   4.487   1.764
 1320TIP3   OH2 3923   4.862   1.015   0.262
 1320TIP3    H1 3924   4.930   0.954   0.231
 1320TIP3    H2 3925   4.780   0.973   0.237
 1321TIP3   OH2 3926   4.393   0.208   4.235
 1321TIP3    H1 3927   4.460   0.164   4.182
 1321TIP3    H2 3928   4.346   0.263   4.172
 1322TIP3   OH2 3929   0.480   0.590   0.614
 1322TIP3    H1 3930   0.572   0.564   0.619
 1322TIP3    H2 3931   0.440   0.526   0.555
 1323TIP3   OH2 3932   5.547   4.804   1.532
 1323TIP3    H1 3933   5.514   4.853   1.608
 1323TIP3    H2 3934   5.596   4.869   1.481
 1324TIP3   OH2 3935   4.909   0.896   2.889
 1324TIP3    H1 3936   4.932   0.826   2.951
 1324TIP3    H2 3937   4.928   0.977   2.937
 1325TIP3   OH2 3938   3.810   5.953   5.857
 1325TIP3    H1 3939   3.892   5.909   5.880
 1325TIP3    H2 3940   3.831   6.002   5.777
 1326TIP3   OH2 3941   6.752   4.774   5.061
 1326TIP3    H1 3942   6.745   4.742   5.151
 1326TIP3    H2 3943   6.733   4.697   5.007
 1327TIP3   OH2 3944   1.766   1.755   5.384
 1327TIP3    H1 3945   1.717   1.738   5.303
 1327TIP3    H2 3946   1.700   1.762   5.452
 1328TIP3   OH2 3947   5.642   3.653   2.305
 1328TIP3    H1 3948   5.569   3.598   2.332
 1328TIP3    H2 3949   5.719   3.614   2.345
 1329TIP3   OH2 3950   0.976   0.174   4.598
 1329TIP3    H1 3951   0.966   0.081   4.617
 1329TIP3    H2 3952   0.959   0.181   4.504
 1330TIP3   OH2 3953   2.000   4.983   5.783
 1330TIP3    H1 3954   2.082   4.934   5.773
 1330TIP3    H2 3955   1.941   4.944   5.718
 1331TIP3   OH2 3956   2.204   2.872   0.626
 1331TIP3    H1 3957   2.272   2.926   0.667
 1331TIP3    H2 3958   2.131   2.874   0.688
 1332TIP3   OH2 3959   5.373   6.207   2.364
 1332TIP3    H1 3960   5.354   6.219   2.271
 1332TIP3    H2 3961   5.307   6.260   2.409
 1333TIP3   OH2 3962   1.772   6.050   0.481
 1333TIP3    H1 3963   1.843   5.985   0.486
 1333TIP3    H2 3964   1.745   6.063   0.571
 1334TIP3   OH2 3965   1.228   4.066   5.247
 1334TIP3    H1 3966   1.197   4.063   5.157
 1334TIP3    H2 3967   1.312   4.021   5.245
 1335TIP3   OH2 3968   5.380   4.143   4.222
 1335TIP3    H1 3969   5.304   4.143   4.280
 1335TIP3    H2 3970   5.412   4.053   4.225
 1336TIP3   OH2 3971   4.203   4.235   3.924
 1336TIP3    H1 3972   4.148   4.310   3.948
 1336TIP3    H2 3973   4.204   4.236   3.828
 1337TIP3   OH2 3974   0.852   3.939   2.363
 1337TIP3    H1 3975   0.883   3.852   2.391
 1337TIP3    H2 3976   0.769   3.921   2.318
 1338TIP3   OH2 3977   2.063   3.432   3.004
 1338TIP3    H1 3978   2.081   3.346   2.967
 1338TIP3    H2 3979   2.145   3.480   2.994
 1339TIP3   OH2 3980   1.957   6.553   3.002
 1339TIP3    H1 3981   1.916   6.625   2.954
 1339TIP3    H2 3982   1.975   6.486   2.936
 1340TIP3   OH2 3983   6.665   6.198   3.231
 1340TIP3    H1 3984   6.731   6.243   3.284
 1340TIP3    H2 3985   6.711   6.175   3.150
 1341TIP3   OH2 3986   0.258   1.366   0.130
 1341TIP3    H1 3987   0.303   1.319   0.201
 1341TIP3    H2 3988   0.222   1.297   0.075
 1342TIP3   OH2 3989   3.023   0.892   5.001
 1342TIP3    H1 3990   2.968   0.833   5.051
 1342TIP3    H2 3991   3.112   0.862   5.016
 1343TIP3   OH2 3992   5.763   1.032   1.406
 1343TIP3    H1 3993   5.820   1.050   1.331
 1343TIP3    H2 3994   5.814   1.057   1.482
 1344TIP3   OH2 3995   4.846   2.670   0.780
 1344TIP3    H1 3996   4.778   2.666   0.848
 1344TIP3    H2 3997   4.899   2.746   0.805
 1345TIP3   OH2 3998   1.119   3.485   1.372
 1345TIP3    H1 3999   1.084   3.490   1.283
 1345TIP3    H2 4000   1.172   3.405   1.373
 1346TIP3   OH2 4001   1.423   1.342   5.161
 1346TIP3    H1 4002   1.373   1.423   5.172
 1346TIP3    H2 4003   1.404   1.313   5.072
 1347TIP3   OH2 4004   1.232   1.534   0.225
 1347TIP3    H1 4005   1.246   1.602   0.159
 1347TIP3    H2 4006   1.151   1.559   0.268
 1348TIP3   OH2 4007   0.923   2.867   3.940
 1348TIP3    H1 4008   0.927   2.780   3.978
 1348TIP3    H2 4009   1.014   2.895   3.933
 1349TIP3   OH2 4010   2.423   0.404   3.191
 1349TIP3    H1 4011   2.400   0.319   3.152
 1349TIP3    H2 4012   2.377   0.468   3.138
 1350TIP3   OH2 4013   3.947   6.597   0.071
 1350TIP3    H1 4014   4.027   6.543   0.073
 1350TIP3    H2 4015   3.893   6.556   0.004
 1351TIP3   OH2 4016   7.125   1.937   0.464
 1351TIP3    H1 4017   7.061   1.920   0.395
 1351TIP3    H2 4018   7.082   1.909   0.544
 1352TIP3   OH2 4019   2.614   0.743   0.061
 1352TIP3    H1 4020   2.585   0.694   0.138
 1352TIP3    H2 4021   2.679   0.685   0.019
 1353TIP3   OH2 4022   5.227   1.752   5.538
 1353TIP3    H1 4023   5.246   1.845   5.525
 1353TIP3    H2 4024   5.307   1.707   5.509
 1354TIP3   OH2 4025   4.192   6.540   0.444
 1354TIP3    H1 4026   4.165   6.492   0.522
 1354TIP3    H2 4027   4.284   6.518   0.433
 1355TIP3   OH2 4028   4.301   2.684   0.542
 1355TIP3    H1 4029   4.313   2.776   0.565
 1355TIP3    H2 4030   4.369   2.666   0.477
 1356TIP3   OH2 4031   1.933   4.402   3.496
 1356TIP3    H1 4032   1.987   4.369   3.568
 1356TIP3    H2 4033   1.958   4.350   3.421
 1357TIP3   OH2 4034   6.991   2.094   5.560
 1357TIP3    H1 4035   6.901   2.066   5.580
 1357TIP3    H2 4036   7.040   2.013   5.550
 1358TIP3   OH2 4037   2.812   3.122   4.780
 1358TIP3    H1 4038   2.789   3.153   4.868
 1358TIP3    H2 4039   2.898   3.159   4.764
 1359TIP3   OH2 4040   2.463   0.936   3.676
 1359TIP3    H1 4041   2.512   0.905   3.752
 1359TIP3    H2 4042   2.450   1.029   3.692
 1360TIP3   OH2 4043   1.224   6.240   2.943
 1360TIP3    H1 4044   1.191   6.303   3.008
 1360TIP3    H2 4045   1.174   6.260   2.863
 1361TIP3   OH2 4046   4.022   3.480   1.730
 1361TIP3    H1 4047   3.965   3.556   1.741
 1361TIP3    H2 4048   3.963   3.409   1.704
 1362TIP3   OH2 4049   0.635   2.421   0.974
 1362TIP3    H1 4050   0.649   2.352   0.909
 1362TIP3    H2 4051   0.626   2.374   1.057
 1363TIP3   OH2 4052   5.807   1.382   3.448
 1363TIP3    H1 4053   5.799   1.478   3.453
 1363TIP3    H2 4054   5.731   1.350   3.495
 1364TIP3   OH2 4055   0.545   6.212   0.423
 1364TIP3    H1 4056   0.594   6.154   0.365
 1364TIP3    H2 4057   0.491   6.153   0.476
 1365TIP3   OH2 4058   1.384   0.062   1.270
 1365TIP3    H1 4059   1.329   0.047   1.193
 1365TIP3    H2 4060   1.469   0.086   1.235
 1366TIP3   OH2 4061   1.800   3.954   2.605
 1366TIP3    H1 4062   1.788   3.959   2.510
 1366TIP3    H2 4063   1.801   4.046   2.634
 1367TIP3   OH2 4064   2.612   6.326   1.807
 1367TIP3    H1 4065   2.618   6.233   1.782
 1367TIP3    H2 4066   2.651   6.330   1.894
 1368TIP3   OH2 4067   1.477   5.942   0.030
 1368TIP3    H1 4068   1.533   5.964   0.104
 1368TIP3    H2 4069   1.503   5.853   0.005
 1369TIP3   OH2 4070   4.567   4.174   1.830
 1369TIP3    H1 4071   4.503   4.118   1.786
 1369TIP3    H2 4072   4.551   4.261   1.794
 1370TIP3   OH2 4073   6.568   5.850   2.983
 1370TIP3    H1 4074   6.629   5.918   2.956
 1370TIP3    H2 4075   6.482   5.893   2.980
 1371TIP3   OH2 4076   0.776   5.731   5.043
 1371TIP3    H1 4077   0.839   5.659   5.042
 1371TIP3    H2 4078   0.725   5.717   5.123
 1372TIP3   OH2 4079   2.947   2.977   2.651
 1372TIP3    H1 4080   3.011   3.041   2.681
 1372TIP3    H2 4081   2.927   2.925   2.729
 1373TIP3   OH2 4082   0.169   2.747   4.397
 1373TIP3    H1 4083   0.077   2.764   4.377
 1373TIP3    H2 4084   0.167   2.684   4.469
 1374TIP3   OH2 4085   5.973   2.949   4.831
 1374TIP3    H1 4086   5.969   3.035   4.873
 1374TIP3    H2 4087   5.923   2.960   4.750
 1375TIP3   OH2 4088   0.124   1.523   2.235
 1375TIP3    H1 4089   0.184   1.559   2.300
 1375TIP3    H2 4090   0.119   1.590   2.167
 1376TIP3   OH2 4091   4.169   5.801   2.312
 1376TIP3    H1 4092   4.218   5.860   2.369
 1376TIP3    H2 4093   4.085   5.790   2.355
 1377TIP3   OH2 4094   2.191   4.705   2.480
 1377TIP3    H1 4095   2.114   4.684   2.532
 1377TIP3    H2 4096   2.257   4.643   2.509
 1378TIP3   OH2 4097   4.334   6.268   1.057
 1378TIP3    H1 4098   4.249   6.233   1.029
 1378TIP3    H2 4099   4.390   6.191   1.064
 1379TIP3   OH2 4100   6.552   6.274   0.076
 1379TIP3    H1 4101   6.468   6.318   0.093
 1379TIP3    H2 4102   6.564   6.281  -0.018
 1380TIP3   OH2 4103   0.439   5.470   1.786
 1380TIP3    H1 4104   0.412   5.558   1.812
 1380TIP3    H2 4105   0.471   5.480   1.696
 1381TIP3   OH2 4106   4.333   3.030   4.956
 1381TIP3    H1 4107   4.414   2.996   4.919
 1381TIP3    H2 4108   4.272   3.033   4.881
 1382TIP3   OH2 4109   4.511   0.975   1.642
 1382TIP3    H1 4110   4.479   0.892   1.677
 1382TIP3    H2 4111   4.584   0.998   1.699
 1383TIP3   OH2 4112   1.251   5.763   3.188
 1383TIP3    H1 4113   1.334   5.807   3.208
 1383TIP3    H2 4114   1.230   5.715   3.268
 1384TIP3   OH2 4115   3.444   5.313   5.399
 1384TIP3    H1 4116   3.351   5.294   5.407
 1384TIP3    H2 4117   3.464   5.294   5.307
 1385TIP3   OH2 4118   2.369   2.260   1.354
 1385TIP3    H1 4119   2.351   2.220   1.439
 1385TIP3    H2 4120   2.344   2.352   1.365
 1386TIP3   OH2 4121   6.738   6.020   4.266
 1386TIP3    H1 4122   6.691   6.035   4.348
 1386TIP3    H2 4123   6.722   6.099   4.215
 1387TIP3   OH2 4124   4.084   5.148   1.410
 1387TIP3    H1 4125   4.117   5.142   1.320
 1387TIP3    H2 4126   4.097   5.060   1.445
 1388TIP3   OH2 4127   3.454   0.091   3.576
 1388TIP3    H1 4128   3.410   0.168   3.611
 1388TIP3    H2 4129   3.383   0.035   3.544
 1389TIP3   OH2 4130   2.760   2.174   1.561
 1389TIP3    H1 4131   2.747   2.140   1.472
 1389TIP3    H2 4132   2.711   2.114   1.617
 1390TIP3   OH2 4133   2.690   3.036   5.344
 1390TIP3    H1 4134   2.661   2.962   5.396
 1390TIP3    H2 4135   2.773   3.007   5.305
 1391TIP3   OH2 4136   4.880   4.315   5.243
 1391TIP3    H1 4137   4.791   4.289   5.218
 1391TIP3    H2 4138   4.899   4.391   5.187
 1392TIP3   OH2 4139   4.883   2.723   4.886
 1392TIP3    H1 4140   4.948   2.656   4.906
 1392TIP3    H2 4141   4.845   2.696   4.802
 1393TIP3   OH2 4142   2.193   3.701   1.259
 1393TIP3    H1 4143   2.166   3.777   1.311
 1393TIP3    H2 4144   2.254   3.654   1.315
 1394TIP3   OH2 4145   2.926   5.134   2.938
 1394TIP3    H1 4146   2.907   5.040   2.935
 1394TIP3    H2 4147   3.018   5.138   2.964
 1395TIP3   OH2 4148   4.894   4.174   0.522
 1395TIP3    H1 4149   4.852   4.157   0.606
 1395TIP3    H2 4150   4.833   4.233   0.477
 1396TIP3   OH2 4151   4.333   5.452   1.270
 1396TIP3    H1 4152   4.426   5.439   1.290
 1396TIP3    H2 4153   4.290   5.444   1.355
 1397TIP3   OH2 4154   6.245   1.216   1.256
 1397TIP3    H1 4155   6.291   1.140   1.220
 1397TIP3    H2 4156   6.306   1.289   1.242
 1398TIP3   OH2 4157   6.708   3.480   0.691
 1398TIP3    H1 4158   6.731   3.489   0.598
 1398TIP3    H2 4159   6.612   3.476   0.692
 1399TIP3   OH2 4160   0.042   2.734   0.373
 1399TIP3    H1 4161   0.110   2.786   0.418
 1399TIP3    H2 4162   0.064   2.643   0.394
 1400TIP3   OH2 4163   4.432   5.706   3.964
 1400TIP3    H1 4164   4.482   5.653   4.027
 1400TIP3    H2 4165   4.351   5.657   3.950
 1401TIP3   OH2 4166   0.902   5.513   2.164
 1401TIP3    H1 4167   0.840   5.449   2.129
 1401TIP3    H2 4168   0.867   5.536   2.250
 1402TIP3   OH2 4169   1.419   0.604   2.973
 1402TIP3    H1 4170   1.393   0.615   2.881
 1402TIP3    H2 4171   1.337   0.609   3.022
 1403TIP3   OH2 4172   5.307   0.826   5.632
 1403TIP3    H1 4173   5.286   0.910   5.591
 1403TIP3    H2 4174   5.230   0.805   5.684
 1404TIP3   OH2 4175   6.762   0.962   3.490
 1404TIP3    H1 4176   6.763   0.967   3.394
 1404TIP3    H2 4177   6.705   0.887   3.509
 1405TIP3   OH2 4178   1.625   6.753   3.922
 1405TIP3    H1 4179   1.654   6.820   3.860
 1405TIP3    H2 4180   1.623   6.672   3.871
 1406TIP3   OH2 4181   6.868   0.696   2.918
 1406TIP3    H1 4182   6.797   0.733   2.867
 1406TIP3    H2 4183   6.948   0.731   2.877
 1407TIP3   OH2 4184   0.678   2.530   1.530
 1407TIP3    H1 4185   0.691   2.598   1.464
 1407TIP3    H2 4186   0.712   2.570   1.611
 1408TIP3   OH2 4187   2.541   5.627   0.166
 1408TIP3    H1 4188   2.614   5.616   0.105
 1408TIP3    H2 4189   2.521   5.720   0.163
 1409TIP3   OH2 4190   2.487   3.817   4.564
 1409TIP3    H1 4191   2.415   3.862   4.608
 1409TIP3    H2 4192   2.564   3.838   4.616
 1410TIP3   OH2 4193   4.992   3.668   2.544
 1410TIP3    H1 4194   5.023   3.726   2.475
 1410TIP3    H2 4195   4.968   3.588   2.499
 1411TIP3   OH2 4196   4.723   2.932   5.457
 1411TIP3    H1 4197   4.661   2.859   5.455
 1411TIP3    H2 4198   4.747   2.940   5.549
 1412TIP3   OH2 4199   2.509   3.157   1.379
 1412TIP3    H1 4200   2.571   3.226   1.358
 1412TIP3    H2 4201   2.550   3.108   1.451
 1413TIP3   OH2 4202   1.989   0.908   5.122
 1413TIP3    H1 4203   2.026   0.934   5.037
 1413TIP3    H2 4204   1.900   0.943   5.121
 1414TIP3   OH2 4205   3.353   1.056   4.974
 1414TIP3    H1 4206   3.414   1.000   4.925
 1414TIP3    H2 4207   3.410   1.119   5.019
 1415TIP3   OH2 4208   6.566   1.566   2.780
 1415TIP3    H1 4209   6.564   1.629   2.709
 1415TIP3    H2 4210   6.501   1.499   2.756
 1416TIP3   OH2 4211   5.707   4.765   5.126
 1416TIP3    H1 4212   5.672   4.683   5.160
 1416TIP3    H2 4213   5.801   4.761   5.145
 1417TIP3   OH2 4214   2.893   3.246   1.188
 1417TIP3    H1 4215   2.951   3.172   1.208
 1417TIP3    H2 4216   2.952   3.316   1.162
 1418TIP3   OH2 4217   4.370   6.025   5.356
 1418TIP3    H1 4218   4.375   6.099   5.417
 1418TIP3    H2 4219   4.461   5.994   5.350
 1419TIP3   OH2 4220   2.178   1.825   5.676
 1419TIP3    H1 4221   2.223   1.904   5.705
 1419TIP3    H2 4222   2.148   1.846   5.587
 1420TIP3   OH2 4223   6.028   0.249   4.857
 1420TIP3    H1 4224   5.991   0.271   4.942
 1420TIP3    H2 4225   5.960   0.197   4.814
 1421TIP3   OH2 4226   1.718   4.905   0.731
 1421TIP3    H1 4227   1.791   4.844   0.721
 1421TIP3    H2 4228   1.654   4.878   0.664
 1422TIP3   OH2 4229   1.186   5.378   3.322
 1422TIP3    H1 4230   1.136   5.398   3.243
 1422TIP3    H2 4231   1.253   5.446   3.327
 1423TIP3   OH2 4232   7.113   4.531   4.149
 1423TIP3    H1 4233   7.068   4.610   4.119
 1423TIP3    H2 4234   7.110   4.537   4.244
 1424TIP3   OH2 4235   7.114   2.546   1.631
 1424TIP3    H1 4236   7.195   2.497   1.623
 1424TIP3    H2 4237   7.078   2.548   1.543
 1425TIP3   OH2 4238   6.009   3.810   0.946
 1425TIP3    H1 4239   6.066   3.747   0.903
 1425TIP3    H2 4240   6.018   3.890   0.895
 1426TIP3   OH2 4241   0.846   5.983   3.279
 1426TIP3    H1 4242   0.868   5.950   3.366
 1426TIP3    H2 4243   0.930   6.008   3.241
 1427TIP3   OH2 4244   6.913   0.157   5.279
 1427TIP3    H1 4245   6.869   0.238   5.255
 1427TIP3    H2 4246   6.909   0.155   5.374
 1428TIP3   OH2 4247   3.949   4.574   2.235
 1428TIP3    H1 4248   4.032   4.577   2.187
 1428TIP3    H2 4249   3.967   4.519   2.311
 1429TIP3   OH2 4250   6.217   4.498   0.243
 1429TIP3    H1 4251   6.151   4.565   0.227
 1429TIP3    H2 4252   6.223   4.450   0.161
 1430TIP3   OH2 4253   1.252   4.691   4.870
 1430TIP3    H1 4254   1.305   4.613   4.890
 1430TIP3    H2 4255   1.216   4.673   4.783
 1431TIP3   OH2 4256   5.730   1.919   1.086
 1431TIP3    H1 4257   5.722   2.000   1.137
 1431TIP3    H2 4258   5.811   1.931   1.037
 1432TIP3   OH2 4259   5.240   1.509   2.337
 1432TIP3    H1 4260   5.148   1.532   2.350
 1432TIP3    H2 4261   5.240   1.449   2.263
 1433TIP3   OH2 4262   7.041   3.095   1.836
 1433TIP3    H1 4263   7.078   3.179   1.809
 1433TIP3    H2 4264   6.970   3.079   1.774
 1434TIP3   OH2 4265   2.949   2.977   5.278
 1434TIP3    H1 4266   3.008   2.974   5.203
 1434TIP3    H2 4267   3.007   2.980   5.354
 1435TIP3   OH2 4268   2.714   0.445   5.144
 1435TIP3    H1 4269   2.695   0.422   5.053
 1435TIP3    H2 4270   2.632   0.479   5.178
 1436TIP3   OH2 4271   3.699   3.023   1.208
 1436TIP3    H1 4272   3.721   3.073   1.129
 1436TIP3    H2 4273   3.634   3.078   1.253
 1437TIP3   OH2 4274   4.716   1.569   0.478
 1437TIP3    H1 4275   4.778   1.612   0.418
 1437TIP3    H2 4276   4.686   1.640   0.536
 1438TIP3   OH2 4277   0.694   4.912   5.378
 1438TIP3    H1 4278   0.600   4.905   5.359
 1438TIP3    H2 4279   0.736   4.861   5.309
 1439TIP3   OH2 4280   2.222   1.889   3.310
 1439TIP3    H1 4281   2.163   1.864   3.381
 1439TIP3    H2 4282   2.278   1.957   3.348
 1440TIP3   OH2 4283   4.899   3.955   2.964
 1440TIP3    H1 4284   4.975   3.948   2.906
 1440TIP3    H2 4285   4.921   4.026   3.024
 1441TIP3   OH2 4286   0.322   5.426   2.076
 1441TIP3    H1 4287   0.252   5.365   2.056
 1441TIP3    H2 4288   0.309   5.499   2.016
 1442TIP3   OH2 4289   0.354   5.752   1.420
 1442TIP3    H1 4290   0.291   5.823   1.405
 1442TIP3    H2 4291   0.410   5.752   1.343
 1443TIP3   OH2 4292   4.621   0.354   1.125
 1443TIP3    H1 4293   4.589   0.270   1.157
 1443TIP3    H2 4294   4.586   0.418   1.187
 1444TIP3   OH2 4295   0.440   5.400   2.902
 1444TIP3    H1 4296   0.485   5.462   2.959
 1444TIP3    H2 4297   0.469   5.423   2.814
 1445TIP3   OH2 4298   1.859   5.882   3.647
 1445TIP3    H1 4299   1.797   5.948   3.677
 1445TIP3    H2 4300   1.824   5.799   3.680
 1446TIP3   OH2 4301   0.741   2.956   0.863
 1446TIP3    H1 4302   0.764   2.866   0.889
 1446TIP3    H2 4303   0.812   2.982   0.804
 1447TIP3   OH2 4304   3.908   3.475   1.125
 1447TIP3    H1 4305   3.852   3.430   1.188
 1447TIP3    H2 4306   3.933   3.408   1.062
 1448TIP3   OH2 4307   1.833   5.301   5.745
 1448TIP3    H1 4308   1.870   5.335   5.664
 1448TIP3    H2 4309   1.739   5.299   5.729
 1449TIP3   OH2 4310   1.581   1.012   2.829
 1449TIP3    H1 4311   1.494   1.001   2.790
 1449TIP3    H2 4312   1.595   0.932   2.880
 1450TIP3   OH2 4313   6.825   1.035   2.925
 1450TIP3    H1 4314   6.759   1.029   2.994
 1450TIP3    H2 4315   6.904   1.068   2.969
 1451TIP3   OH2 4316   2.664   2.866   3.782
 1451TIP3    H1 4317   2.673   2.781   3.740
 1451TIP3    H2 4318   2.717   2.860   3.861
 1452TIP3   OH2 4319   7.013   5.458   2.449
 1452TIP3    H1 4320   6.927   5.433   2.416
 1452TIP3    H2 4321   7.046   5.379   2.491
 1453TIP3   OH2 4322   6.361   0.872   1.779
 1453TIP3    H1 4323   6.336   0.930   1.707
 1453TIP3    H2 4324   6.394   0.932   1.847
 1454TIP3   OH2 4325   5.823   4.205   5.485
 1454TIP3    H1 4326   5.881   4.274   5.451
 1454TIP3    H2 4327   5.841   4.203   5.579
 1455TIP3   OH2 4328   5.239   4.008   0.849
 1455TIP3    H1 4329   5.334   4.008   0.856
 1455TIP3    H2 4330   5.221   4.063   0.772
 1456TIP3   OH2 4331   3.387   6.182   2.807
 1456TIP3    H1 4332   3.375   6.102   2.755
 1456TIP3    H2 4333   3.439   6.239   2.751
 1457TIP3   OH2 4334   4.228   5.843   5.743
 1457TIP3    H1 4335   4.160   5.870   5.681
 1457TIP3    H2 4336   4.180   5.806   5.817
 1458TIP3   OH2 4337   6.170   5.698   4.621
 1458TIP3    H1 4338   6.211   5.691   4.707
 1458TIP3    H2 4339   6.212   5.774   4.581
 1459TIP3   OH2 4340   6.113   3.108   4.395
 1459TIP3    H1 4341   6.094   3.130   4.486
 1459TIP3    H2 4342   6.207   3.091   4.394
 1460TIP3   OH2 4343   6.488   3.131   1.512
 1460TIP3    H1 4344   6.536   3.055   1.478
 1460TIP3    H2 4345   6.434   3.159   1.438
 1461TIP3   OH2 4346   0.216   1.226   4.549
 1461TIP3    H1 4347   0.310   1.239   4.534
 1461TIP3    H2 4348   0.203   1.132   4.532
 1462TIP3   OH2 4349   3.968   3.494   2.881
 1462TIP3    H1 4350   4.012   3.540   2.810
 1462TIP3    H2 4351   3.892   3.548   2.902
 1463TIP3   OH2 4352   5.724   1.644   4.183
 1463TIP3    H1 4353   5.776   1.650   4.103
 1463TIP3    H2 4354   5.635   1.628   4.153
 1464TIP3   OH2 4355   5.996   4.194   1.776
 1464TIP3    H1 4356   6.018   4.110   1.816
 1464TIP3    H2 4357   6.079   4.241   1.772
 1465TIP3   OH2 4358   2.460   3.342   4.730
 1465TIP3    H1 4359   2.397   3.405   4.764
 1465TIP3    H2 4360   2.545   3.372   4.763
 1466TIP3   OH2 4361   3.807   2.004   3.860
 1466TIP3    H1 4362   3.876   2.065   3.836
 1466TIP3    H2 4363   3.780   1.962   3.778
 1467TIP3   OH2 4364   2.183   1.455   1.614
 1467TIP3    H1 4365   2.276   1.439   1.633
 1467TIP3    H2 4366   2.181   1.545   1.581
 1468TIP3   OH2 4367   5.129   2.767   1.299
 1468TIP3    H1 4368   5.090   2.739   1.382
 1468TIP3    H2 4369   5.176   2.847   1.321
 1469TIP3   OH2 4370   7.181   0.697   3.982
 1469TIP3    H1 4371   7.125   0.770   3.955
 1469TIP3    H2 4372   7.266   0.718   3.943
 1470TIP3   OH2 4373   1.390   1.651   0.665
 1470TIP3    H1 4374   1.391   1.647   0.569
 1470TIP3    H2 4375   1.483   1.653   0.689
 1471TIP3   OH2 4376   5.756   3.085   1.181
 1471TIP3    H1 4377   5.827   3.028   1.153
 1471TIP3    H2 4378   5.696   3.028   1.228
 1472TIP3   OH2 4379   1.814   0.192   4.827
 1472TIP3    H1 4380   1.861   0.275   4.835
 1472TIP3    H2 4381   1.870   0.138   4.771
 1473TIP3   OH2 4382   4.990   4.438   3.253
 1473TIP3    H1 4383   5.083   4.416   3.259
 1473TIP3    H2 4384   4.949   4.356   3.227
 1474TIP3   OH2 4385   3.708   4.473   5.295
 1474TIP3    H1 4386   3.646   4.493   5.365
 1474TIP3    H2 4387   3.671   4.396   5.252
 1475TIP3   OH2 4388   0.512   1.773   4.647
 1475TIP3    H1 4389   0.582   1.770   4.582
 1475TIP3    H2 4390   0.498   1.866   4.663
 1476TIP3   OH2 4391   7.091   0.450   0.110
 1476TIP3    H1 4392   7.138   0.520   0.064
 1476TIP3    H2 4393   7.011   0.437   0.060
 1477TIP3   OH2 4394   1.421   3.447   3.474
 1477TIP3    H1 4395   1.472   3.389   3.531
 1477TIP3    H2 4396   1.448   3.535   3.499
 1478TIP3   OH2 4397   6.215   6.006   1.662
 1478TIP3    H1 4398   6.124   6.029   1.644
 1478TIP3    H2 4399   6.266   6.078   1.624
 1479TIP3   OH2 4400   3.225   0.779   4.798
 1479TIP3    H1 4401   3.132   0.772   4.777
 1479TIP3    H2 4402   3.260   0.839   4.732
 1480TIP3   OH2 4403   6.174   0.249   0.926
 1480TIP3    H1 4404   6.206   0.330   0.968
 1480TIP3    H2 4405   6.142   0.278   0.841
 1481TIP3   OH2 4406   6.902   0.617   1.829
 1481TIP3    H1 4407   6.981   0.567   1.809
 1481TIP3    H2 4408   6.926   0.669   1.906
 1482TIP3   OH2 4409   1.653   2.830   3.355
 1482TIP3    H1 4410   1.657   2.736   3.370
 1482TIP3    H2 4411   1.695   2.843   3.270
 1483TIP3   OH2 4412   0.392   6.269   0.142
 1483TIP3    H1 4413   0.355   6.252   0.055
 1483TIP3    H2 4414   0.485   6.251   0.132
 1484TIP3   OH2 4415   3.903   5.266   4.618
 1484TIP3    H1 4416   3.984   5.313   4.634
 1484TIP3    H2 4417   3.865   5.310   4.542
 1485TIP3   OH2 4418   5.952   4.437   5.169
 1485TIP3    H1 4419   5.968   4.441   5.074
 1485TIP3    H2 4420   6.005   4.508   5.205
 1486TIP3   OH2 4421   0.334   5.702   3.114
 1486TIP3    H1 4422   0.344   5.762   3.188
 1486TIP3    H2 4423   0.244   5.714   3.086
 1487TIP3   OH2 4424   3.629   4.153   4.555
 1487TIP3    H1 4425   3.667   4.104   4.628
 1487TIP3    H2 4426   3.534   4.142   4.566
 1488TIP3   OH2 4427   6.273   2.532   0.308
 1488TIP3    H1 4428   6.203   2.540   0.243
 1488TIP3    H2 4429   6.266   2.611   0.361
 1489TIP3   OH2 4430   3.408   2.987   3.634
 1489TIP3    H1 4431   3.405   2.915   3.697
 1489TIP3    H2 4432   3.476   3.045   3.666
 1490TIP3   OH2 4433   0.186   2.776   4.074
 1490TIP3    H1 4434   0.186   2.803   4.166
 1490TIP3    H2 4435   0.246   2.837   4.031
 1491TIP3   OH2 4436   6.060   3.334   2.063
 1491TIP3    H1 4437   6.147   3.297   2.051
 1491TIP3    H2 4438   6.006   3.292   1.996
 1492TIP3   OH2 4439   1.157   3.315   4.843
 1492TIP3    H1 4440   1.196   3.387   4.894
 1492TIP3    H2 4441   1.085   3.355   4.795
 1493TIP3   OH2 4442   1.855   4.224   2.360
 1493TIP3    H1 4443   1.886   4.149   2.310
 1493TIP3    H2 4444   1.913   4.296   2.334
 1494TIP3   OH2 4445   6.539   4.164   5.038
 1494TIP3    H1 4446   6.459   4.213   5.019
 1494TIP3    H2 4447   6.597   4.229   5.078
 1495TIP3   OH2 4448   4.712   4.691   5.528
 1495TIP3    H1 4449   4.623   4.725   5.539
 1495TIP3    H2 4450   4.726   4.691   5.433
 1496TIP3   OH2 4451   5.388   0.580   4.981
 1496TIP3    H1 4452   5.468   0.624   4.953
 1496TIP3    H2 4453   5.321   0.648   4.977
 1497TIP3   OH2 4454   2.685   2.172   0.449
 1497TIP3    H1 4455   2.633   2.250   0.429
 1497TIP3    H2 4456   2.766   2.207   0.487
 1498TIP3   OH2 4457   7.131   2.722   4.986
 1498TIP3    H1 4458   7.167   2.778   5.055
 1498TIP3    H2 4459   7.142   2.633   5.020
 1499TIP3   OH2 4460   3.285   1.205   0.834
 1499TIP3    H1 4461   3.254   1.283   0.881
 1499TIP3    H2 4462   3.225   1.136   0.860
 1500TIP3   OH2 4463   1.559   2.420   1.055
 1500TIP3    H1 4464   1.616   2.497   1.045
 1500TIP3    H2 4465   1.504   2.421   0.976
 1501TIP3   OH2 4466   0.606   0.960   5.492
 1501TIP3    H1 4467   0.644   1.043   5.462
 1501TIP3    H2 4468   0.538   0.941   5.428
 1502TIP3   OH2 4469   0.265   0.229   5.422
 1502TIP3    H1 4470   0.249   0.312   5.379
 1502TIP3    H2 4471   0.335   0.188   5.371
 1503TIP3   OH2 4472   1.695   6.044   2.970
 1503TIP3    H1 4473   1.750   5.969   2.947
 1503TIP3    H2 4474   1.658   6.072   2.887
 1504TIP3   OH2 4475   6.425   2.256   3.544
 1504TIP3    H1 4476   6.392   2.195   3.609
 1504TIP3    H2 4477   6.437   2.338   3.592
 1505TIP3   OH2 4478   3.121   3.641   2.869
 1505TIP3    H1 4479   3.083   3.675   2.950
 1505TIP3    H2 4480   3.130   3.718   2.813
 1506TIP3   OH2 4481   0.477   0.643   5.152
 1506TIP3    H1 4482   0.572   0.650   5.144
 1506TIP3    H2 4483   0.452   0.573   5.092
 1507TIP3   OH2 4484   1.493   1.030   5.850
 1507TIP3    H1 4485   1.505   0.937   5.829
 1507TIP3    H2 4486   1.507   1.035   5.944
 1508TIP3   OH2 4487   3.095   6.635   1.483
 1508TIP3    H1 4488   3.157   6.707   1.473
 1508TIP3    H2 4489   3.146   6.556   1.466
 1509TIP3   OH2 4490   5.736   0.047   2.962
 1509TIP3    H1 4491   5.745   0.134   3.001
 1509TIP3    H2 4492   5.642   0.029   2.962
 1510TIP3   OH2 4493   0.072   6.017   5.652
 1510TIP3    H1 4494   0.133   6.049   5.719
 1510TIP3    H2 4495   0.008   6.087   5.644
 1511TIP3   OH2 4496   2.294   2.020   0.674
 1511TIP3    H1 4497   2.381   2.001   0.639
 1511TIP3    H2 4498   2.287   2.115   0.673
 1512TIP3   OH2 4499   4.637   3.984   2.974
 1512TIP3    H1 4500   4.716   3.931   2.980
 1512TIP3    H2 4501   4.583   3.938   2.908
 1513TIP3   OH2 4502   6.303   1.767   2.294
 1513TIP3    H1 4503   6.311   1.695   2.232
 1513TIP3    H2 4504   6.283   1.725   2.377
 1514TIP3   OH2 4505   3.000   4.962   1.158
 1514TIP3    H1 4506   3.044   4.989   1.077
 1514TIP3    H2 4507   2.939   5.033   1.176
 1515TIP3   OH2 4508   3.312   0.146   2.701
 1515TIP3    H1 4509   3.370   0.157   2.777
 1515TIP3    H2 4510   3.272   0.060   2.714
 1516TIP3   OH2 4511   4.992   1.850   1.854
 1516TIP3    H1 4512   4.977   1.826   1.762
 1516TIP3    H2 4513   4.910   1.890   1.882
 1517TIP3   OH2 4514   6.421   4.145   3.163
 1517TIP3    H1 4515   6.416   4.128   3.069
 1517TIP3    H2 4516   6.453   4.063   3.200
 1518TIP3   OH2 4517   3.235   3.589   4.692
 1518TIP3    H1 4518   3.238   3.670   4.640
 1518TIP3    H2 4519   3.315   3.543   4.668
 1519TIP3   OH2 4520   5.514   0.571   5.897
 1519TIP3    H1 4521   5.443   0.541   5.953
 1519TIP3    H2 4522   5.488   0.543   5.809
 1520TIP3   OH2 4523   3.935   0.355   3.414
 1520TIP3    H1 4524   3.850   0.373   3.456
 1520TIP3    H2 4525   3.992   0.328   3.486
 1521TIP3   OH2 4526   0.899   6.669   4.036
 1521TIP3    H1 4527   0.968   6.725   4.071
 1521TIP3    H2 4528   0.930   6.580   4.050
 1522TIP3   OH2 4529   3.948   4.782   4.571
 1522TIP3    H1 4530   3.970   4.716   4.636
 1522TIP3    H2 4531   4.011   4.769   4.500
 1523TIP3   OH2 4532   2.567   2.352   4.653
 1523TIP3    H1 4533   2.478   2.320   4.641
 1523TIP3    H2 4534   2.579   2.414   4.580
 1524TIP3   OH2 4535   3.416   2.550   5.600
 1524TIP3    H1 4536   3.456   2.634   5.623
 1524TIP3    H2 4537   3.398   2.557   5.506
 1525TIP3   OH2 4538   2.879   6.260   1.678
 1525TIP3    H1 4539   2.802   6.204   1.682
 1525TIP3    H2 4540   2.881   6.292   1.587
 1526TIP3   OH2 4541   6.962   1.078   0.731
 1526TIP3    H1 4542   6.903   1.057   0.658
 1526TIP3    H2 4543   6.923   1.033   0.806
 1527TIP3   OH2 4544   6.229   2.531   0.735
 1527TIP3    H1 4545   6.243   2.453   0.681
 1527TIP3    H2 4546   6.317   2.566   0.750
 1528TIP3   OH2 4547   6.821   0.590   4.715
 1528TIP3    H1 4548   6.770   0.571   4.636
 1528TIP3    H2 4549   6.870   0.670   4.694
 1529TIP3   OH2 4550   2.722   4.779   0.685
 1529TIP3    H1 4551   2.813   4.752   0.678
 1529TIP3    H2 4552   2.704   4.822   0.601
 1530TIP3   OH2 4553   5.747   5.778   4.867
 1530TIP3    H1 4554   5.725   5.842   4.934
 1530TIP3    H2 4555   5.663   5.753   4.829
 1531TIP3   OH2 4556   1.211   4.225   2.906
 1531TIP3    H1 4557   1.127   4.190   2.875
 1531TIP3    H2 4558   1.246   4.272   2.831
 1532TIP3   OH2 4559   4.803   3.199   5.456
 1532TIP3    H1 4560   4.771   3.112   5.483
 1532TIP3    H2 4561   4.804   3.195   5.361
 1533TIP3   OH2 4562   5.828   1.910   3.503
 1533TIP3    H1 4563   5.910   1.915   3.454
 1533TIP3    H2 4564   5.762   1.945   3.443
 1534TIP3   OH2 4565   6.310   0.345   2.665
 1534TIP3    H1 4566   6.326   0.307   2.752
 1534TIP3    H2 4567   6.214   0.341   2.656
 1535TIP3   OH2 4568   6.703   3.116   2.551
 1535TIP3    H1 4569   6.672   3.185   2.492
 1535TIP3    H2 4570   6.727   3.162   2.631
 1536TIP3   OH2 4571   3.292   5.231   4.247
 1536TIP3    H1 4572   3.354   5.303   4.248
 1536TIP3    H2 4573   3.218   5.264   4.197
 1537TIP3   OH2 4574   5.953   0.565   3.326
 1537TIP3    H1 4575   5.887   0.632   3.310
 1537TIP3    H2 4576   5.917   0.512   3.397
 1538TIP3   OH2 4577   5.664   6.773   5.245
 1538TIP3    H1 4578   5.750   6.733   5.234
 1538TIP3    H2 4579   5.602   6.705   5.217
 1539TIP3   OH2 4580   1.965   5.772   1.241
 1539TIP3    H1 4581   1.882   5.818   1.230
 1539TIP3    H2 4582   1.954   5.690   1.193
 1540TIP3   OH2 4583   7.191   2.173   0.367
 1540TIP3    H1 4584   7.199   2.099   0.428
 1540TIP3    H2 4585   7.097   2.179   0.349
 1541TIP3   OH2 4586   5.068   2.533   4.984
 1541TIP3    H1 4587   5.118   2.458   4.954
 1541TIP3    H2 4588   4.984   2.496   5.012
 1542TIP3   OH2 4589   6.993   0.169   0.361
 1542TIP3    H1 4590   7.085   0.196   0.360
 1542TIP3    H2 4591   6.970   0.158   0.269
 1543TIP3   OH2 4592   2.506   4.725   1.819
 1543TIP3    H1 4593   2.521   4.791   1.751
 1543TIP3    H2 4594   2.412   4.728   1.835
 1544TIP3   OH2 4595   0.174   0.887   0.645
 1544TIP3    H1 4596   0.181   0.913   0.553
 1544TIP3    H2 4597   0.119   0.953   0.685
 1545TIP3   OH2 4598   4.355   6.552   5.019
 1545TIP3    H1 4599   4.359   6.605   4.939
 1545TIP3    H2 4600   4.368   6.614   5.090
 1546TIP3   OH2 4601   6.026   4.211   0.055
 1546TIP3    H1 4602   5.940   4.170   0.066
 1546TIP3    H2 4603   6.007   4.304   0.040
 1547TIP3   OH2 4604   2.251   0.291   3.784
 1547TIP3    H1 4605   2.273   0.383   3.768
 1547TIP3    H2 4606   2.273   0.246   3.702
 1548TIP3   OH2 4607   4.711   6.144   2.123
 1548TIP3    H1 4608   4.780   6.107   2.069
 1548TIP3    H2 4609   4.657   6.195   2.063
 1549TIP3   OH2 4610   6.473   2.485   4.626
 1549TIP3    H1 4611   6.522   2.504   4.547
 1549TIP3    H2 4612   6.386   2.522   4.610
 1550TIP3   OH2 4613   6.525   5.740   0.492
 1550TIP3    H1 4614   6.549   5.682   0.564
 1550TIP3    H2 4615   6.431   5.752   0.500
 1551TIP3   OH2 4616   4.333   2.953   0.600
 1551TIP3    H1 4617   4.387   3.028   0.625
 1551TIP3    H2 4618   4.299   2.919   0.683
 1552TIP3   OH2 4619   2.267   5.457   2.296
 1552TIP3    H1 4620   2.344   5.410   2.329
 1552TIP3    H2 4621   2.284   5.548   2.319
 1553TIP3   OH2 4622   4.319   1.821   2.514
 1553TIP3    H1 4623   4.285   1.878   2.445
 1553TIP3    H2 4624   4.384   1.766   2.469
 1554TIP3   OH2 4625   4.376   0.475   2.786
 1554TIP3    H1 4626   4.338   0.446   2.869
 1554TIP3    H2 4627   4.315   0.542   2.754
 1555TIP3   OH2 4628   4.124   5.026   0.886
 1555TIP3    H1 4629   4.100   5.076   0.808
 1555TIP3    H2 4630   4.184   5.084   0.934
 1556TIP3   OH2 4631   4.719   4.221   3.061
 1556TIP3    H1 4632   4.708   4.162   2.986
 1556TIP3    H2 4633   4.796   4.187   3.107
 1557TIP3   OH2 4634   2.740   4.898   0.937
 1557TIP3    H1 4635   2.770   4.985   0.912
 1557TIP3    H2 4636   2.720   4.855   0.854
 1558TIP3   OH2 4637   4.796   2.647   1.464
 1558TIP3    H1 4638   4.748   2.593   1.526
 1558TIP3    H2 4639   4.850   2.705   1.518
 1559TIP3   OH2 4640   0.080   0.152   4.822
 1559TIP3    H1 4641   0.098   0.146   4.916
 1559TIP3    H2 4642   0.049   0.241   4.809
 1560TIP3   OH2 4643   5.099   4.766   1.631
 1560TIP3    H1 4644   5.130   4.850   1.596
 1560TIP3    H2 4645   5.154   4.701   1.587
 1561TIP3   OH2 4646   3.158   6.148   5.880
 1561TIP3    H1 4647   3.180   6.201   5.803
 1561TIP3    H2 4648   3.241   6.138   5.926
 1562TIP3   OH2 4649   2.145   2.827   1.145
 1562TIP3    H1 4650   2.119   2.750   1.196
 1562TIP3    H2 4651   2.213   2.869   1.199
 1563TIP3   OH2 4652   1.771   4.934   1.013
 1563TIP3    H1 4653   1.761   4.937   0.918
 1563TIP3    H2 4654   1.687   4.965   1.047
 1564TIP3   OH2 4655   6.937   3.322   0.358
 1564TIP3    H1 4656   7.004   3.348   0.421
 1564TIP3    H2 4657   6.982   3.260   0.300
 1565TIP3   OH2 4658   1.070   6.344   3.157
 1565TIP3    H1 4659   0.977   6.365   3.162
 1565TIP3    H2 4660   1.100   6.342   3.247
 1566TIP3   OH2 4661   6.647   4.855   4.410
 1566TIP3    H1 4662   6.717   4.831   4.471
 1566TIP3    H2 4663   6.691   4.869   4.326
 1567TIP3   OH2 4664   3.796   2.557   2.575
 1567TIP3    H1 4665   3.815   2.520   2.489
 1567TIP3    H2 4666   3.866   2.524   2.631
 1568TIP3   OH2 4667   2.555   2.917   4.318
 1568TIP3    H1 4668   2.572   2.911   4.224
 1568TIP3    H2 4669   2.641   2.924   4.358
 1569TIP3   OH2 4670   1.573   6.695   2.806
 1569TIP3    H1 4671   1.660   6.665   2.779
 1569TIP3    H2 4672   1.532   6.724   2.725
 1570TIP3   OH2 4673   5.674   0.605   2.707
 1570TIP3    H1 4674   5.583   0.576   2.717
 1570TIP3    H2 4675   5.692   0.655   2.787
 1571TIP3   OH2 4676   1.460   3.809   3.517
 1571TIP3    H1 4677   1.428   3.882   3.569
 1571TIP3    H2 4678   1.457   3.734   3.576
 1572TIP3   OH2 4679   5.622   6.733   4.298
 1572TIP3    H1 4680   5.543   6.688   4.328
 1572TIP3    H2 4681   5.686   6.718   4.367
 1573TIP3   OH2 4682   4.409   6.617   1.771
 1573TIP3    H1 4683   4.458   6.598   1.852
 1573TIP3    H2 4684   4.356   6.693   1.792
 1574TIP3   OH2 4685   5.953   1.427   5.105
 1574TIP3    H1 4686   6.031   1.480   5.120
 1574TIP3    H2 4687   5.911   1.469   5.029
 1575TIP3   OH2 4688   2.550   2.392  -0.035
 1575TIP3    H1 4689   2.510   2.353   0.042
 1575TIP3    H2 4690   2.477   2.427  -0.085
 1576TIP3   OH2 4691   7.057   6.393   4.643
 1576TIP3    H1 4692   7.090   6.387   4.554
 1576TIP3    H2 4693   7.136   6.397   4.698
 1577TIP3   OH2 4694   0.737   1.416   2.524
 1577TIP3    H1 4695   0.749   1.347   2.460
 1577TIP3    H2 4696   0.651   1.454   2.505
 1578TIP3   OH2 4697   5.024   1.710   0.808
 1578TIP3    H1 4698   5.026   1.679   0.717
 1578TIP3    H2 4699   5.102   1.765   0.817
 1579TIP3   OH2 4700   4.533   1.721   4.265
 1579TIP3    H1 4701   4.455   1.777   4.266
 1579TIP3    H2 4702   4.502   1.637   4.230
 1580TIP3   OH2 4703   4.885   4.388   2.020
 1580TIP3    H1 4704   4.828   4.329   2.070
 1580TIP3    H2 4705   4.857   4.475   2.046
 1581TIP3   OH2 4706   6.564   1.817   5.267
 1581TIP3    H1 4707   6.497   1.788   5.205
 1581TIP3    H2 4708   6.623   1.871   5.214
 1582TIP3   OH2 4709   3.385   3.623   2.672
 1582TIP3    H1 4710   3.335   3.688   2.623
 1582TIP3    H2 4711   3.434   3.674   2.736
 1583TIP3   OH2 4712   0.475   5.885   1.948
 1583TIP3    H1 4713   0.567   5.870   1.970
 1583TIP3    H2 4714   0.454   5.970   1.988
 1584TIP3   OH2 4715   6.192   1.595   3.940
 1584TIP3    H1 4716   6.274   1.547   3.940
 1584TIP3    H2 4717   6.124   1.528   3.930
 1585TIP3   OH2 4718   1.050   4.550   2.881
 1585TIP3    H1 4719   0.992   4.621   2.908
 1585TIP3    H2 4720   1.024   4.475   2.935
 1586TIP3   OH2 4721   0.262   3.623   2.187
 1586TIP3    H1 4722   0.181   3.646   2.232
 1586TIP3    H2 4723   0.308   3.706   2.176
 1587TIP3   OH2 4724   6.769   1.694   0.651
 1587TIP3    H1 4725   6.750   1.760   0.586
 1587TIP3    H2 4726   6.807   1.621   0.602
 1588TIP3   OH2 4727   6.890   3.805   3.063
 1588TIP3    H1 4728   6.966   3.771   3.015
 1588TIP3    H2 4729   6.824   3.736   3.054
 1589TIP3   OH2 4730   2.276   0.457   1.753
 1589TIP3    H1 4731   2.313   0.470   1.666
 1589TIP3    H2 4732   2.341   0.404   1.799
 1590TIP3   OH2 4733   1.013   3.972   1.436
 1590TIP3    H1 4734   1.083   3.935   1.381
 1590TIP3    H2 4735   1.060   4.016   1.507
 1591TIP3   OH2 4736   5.076   6.632   2.299
 1591TIP3    H1 4737   4.999   6.612   2.353
 1591TIP3    H2 4738   5.121   6.702   2.346
 1592TIP3   OH2 4739   6.400   3.435   4.234
 1592TIP3    H1 4740   6.437   3.519   4.209
 1592TIP3    H2 4741   6.366   3.448   4.323
 1593TIP3   OH2 4742   4.044   6.677   1.121
 1593TIP3    H1 4743   4.075   6.759   1.159
 1593TIP3    H2 4744   4.114   6.614   1.138
 1594TIP3   OH2 4745   0.226   2.337   0.838
 1594TIP3    H1 4746   0.195   2.421   0.805
 1594TIP3    H2 4747   0.153   2.277   0.823
 1595TIP3   OH2 4748   5.196   0.997   1.246
 1595TIP3    H1 4749   5.178   0.938   1.320
 1595TIP3    H2 4750   5.198   1.084   1.285
 1596TIP3   OH2 4751   6.092   0.662   5.469
 1596TIP3    H1 4752   6.185   0.683   5.459
 1596TIP3    H2 4753   6.086   0.569   5.448
 1597TIP3   OH2 4754   4.494   3.197   5.405
 1597TIP3    H1 4755   4.493   3.197   5.310
 1597TIP3    H2 4756   4.463   3.284   5.430
 1598TIP3   OH2 4757   1.337   6.382   4.479
 1598TIP3    H1 4758   1.378   6.438   4.546
 1598TIP3    H2 4759   1.340   6.294   4.517
 1599TIP3   OH2 4760   0.045   4.341   2.057
 1599TIP3    H1 4761   0.061   4.322   1.964
 1599TIP3    H2 4762   0.118   4.396   2.083
 1600TIP3   OH2 4763   1.568   0.909   5.279
 1600TIP3    H1 4764   1.637   0.965   5.244
 1600TIP3    H2 4765   1.490   0.964   5.281
 1601TIP3   OH2 4766   1.611   1.702   4.498
 1601TIP3    H1 4767   1.673   1.652   4.444
 1601TIP3    H2 4768   1.548   1.738   4.435
 1602TIP3   OH2 4769   1.648   2.222   5.733
 1602TIP3    H1 4770   1.693   2.137   5.728
 1602TIP3    H2 4771   1.694   2.269   5.803
 1603TIP3   OH2 4772   5.790   5.366   5.022
 1603TIP3    H1 4773   5.881   5.364   4.993
 1603TIP3    H2 4774   5.772   5.458   5.041
 1604TIP3   OH2 4775   3.914   5.878   0.088
 1604TIP3    H1 4776   3.948   5.962   0.056
 1604TIP3    H2 4777   3.851   5.901   0.156
 1605TIP3   OH2 4778   0.092   5.934   5.182
 1605TIP3    H1 4779   0.179   5.953   5.147
 1605TIP3    H2 4780   0.086   5.985   5.262
 1606TIP3   OH2 4781   5.088   4.017   2.502
 1606TIP3    H1 4782   5.056   3.991   2.416
 1606TIP3    H2 4783   5.132   4.101   2.487
 1607TIP3   OH2 4784   1.017   4.953   2.270
 1607TIP3    H1 4785   1.089   4.928   2.328
 1607TIP3    H2 4786   0.971   4.871   2.252
 1608TIP3   OH2 4787   5.680   2.832   3.931
 1608TIP3    H1 4788   5.678   2.879   3.848
 1608TIP3    H2 4789   5.747   2.765   3.920
 1609TIP3   OH2 4790   5.383   6.024   4.704
 1609TIP3    H1 4791   5.368   6.116   4.682
 1609TIP3    H2 4792   5.331   5.976   4.639
 1610TIP3   OH2 4793   2.418   5.543   3.060
 1610TIP3    H1 4794   2.331   5.569   3.091
 1610TIP3    H2 4795   2.410   5.543   2.964
 1611TIP3   OH2 4796   5.896   2.643   3.912
 1611TIP3    H1 4797   5.960   2.629   3.842
 1611TIP3    H2 4798   5.907   2.567   3.970
 1612TIP3   OH2 4799   6.189   2.547   4.565
 1612TIP3    H1 4800   6.155   2.605   4.633
 1612TIP3    H2 4801   6.190   2.600   4.485
 1613TIP3   OH2 4802   0.940   0.636   1.117
 1613TIP3    H1 4803   0.871   0.665   1.177
 1613TIP3    H2 4804   1.021   0.661   1.161
 1614TIP3   OH2 4805   1.924   5.259   5.052
 1614TIP3    H1 4806   1.948   5.345   5.018
 1614TIP3    H2 4807   1.876   5.217   4.980
 1615TIP3   OH2 4808   6.601   5.175   4.031
 1615TIP3    H1 4809   6.669   5.240   4.013
 1615TIP3    H2 4810   6.521   5.212   3.995
 1616TIP3   OH2 4811   3.872   6.187   5.067
 1616TIP3    H1 4812   3.910   6.267   5.032
 1616TIP3    H2 4813   3.947   6.127   5.075
 1617TIP3   OH2 4814   1.270   5.520   3.650
 1617TIP3    H1 4815   1.196   5.459   3.651
 1617TIP3    H2 4816   1.297   5.527   3.741
 1618TIP3   OH2 4817   3.110   0.197   1.509
 1618TIP3    H1 4818   3.116   0.241   1.424
 1618TIP3    H2 4819   3.098   0.105   1.487
 1619TIP3   OH2 4820   1.285   6.810   1.017
 1619TIP3    H1 4821   1.381   6.804   1.024
 1619TIP3    H2 4822   1.253   6.757   1.090
 1620TIP3   OH2 4823   5.929   6.643   5.732
 1620TIP3    H1 4824   5.952   6.601   5.649
 1620TIP3    H2 4825   5.855   6.592   5.765
 1621TIP3   OH2 4826   2.589   6.271   4.683
 1621TIP3    H1 4827   2.569   6.361   4.709
 1621TIP3    H2 4828   2.655   6.242   4.746
 1622TIP3   OH2 4829   2.264   1.068   1.821
 1622TIP3    H1 4830   2.256   0.972   1.829
 1622TIP3    H2 4831   2.226   1.102   1.902
 1623TIP3   OH2 4832   6.329   5.997   1.952
 1623TIP3    H1 4833   6.349   5.903   1.951
 1623TIP3    H2 4834   6.263   6.008   1.884
 1624TIP3   OH2 4835   3.545   0.529   3.623
 1624TIP3    H1 4836   3.535   0.573   3.708
 1624TIP3    H2 4837   3.495   0.448   3.631
 1625TIP3   OH2 4838   1.797   0.071   5.112
 1625TIP3    H1 4839   1.784   0.141   5.049
 1625TIP3    H2 4840   1.882   0.092   5.152
 1626TIP3   OH2 4841   5.114   4.876   5.752
 1626TIP3    H1 4842   5.164   4.863   5.671
 1626TIP3    H2 4843   5.027   4.904   5.722
 1627TIP3   OH2 4844   3.039   5.072   0.649
 1627TIP3    H1 4845   3.110   5.008   0.655
 1627TIP3    H2 4846   3.066   5.132   0.580
 1628TIP3   OH2 4847   4.055   3.210   4.429
 1628TIP3    H1 4848   4.130   3.165   4.390
 1628TIP3    H2 4849   4.092   3.291   4.466
 1629TIP3   OH2 4850   6.914   1.846   3.424
 1629TIP3    H1 4851   6.842   1.833   3.485
 1629TIP3    H2 4852   6.899   1.782   3.355
 1630TIP3   OH2 4853   4.568   3.129   3.255
 1630TIP3    H1 4854   4.538   3.151   3.167
 1630TIP3    H2 4855   4.598   3.038   3.247
 1631TIP3   OH2 4856   5.139   3.931   1.664
 1631TIP3    H1 4857   5.225   3.949   1.626
 1631TIP3    H2 4858   5.089   3.894   1.592
 1632TIP3   OH2 4859   5.948   0.284   3.971
 1632TIP3    H1 4860   5.927   0.195   3.999
 1632TIP3    H2 4861   6.035   0.301   4.005
 1633TIP3   OH2 4862   5.861   0.311   1.387
 1633TIP3    H1 4863   5.784   0.257   1.369
 1633TIP3    H2 4864   5.920   0.293   1.314
 1634TIP3   OH2 4865   3.360   6.119   0.739
 1634TIP3    H1 4866   3.409   6.051   0.694
 1634TIP3    H2 4867   3.321   6.172   0.669
 1635TIP3   OH2 4868   0.828   6.479   2.473
 1635TIP3    H1 4869   0.910   6.456   2.430
 1635TIP3    H2 4870   0.774   6.401   2.466
 1636TIP3   OH2 4871   5.617   2.408   4.819
 1636TIP3    H1 4872   5.705   2.413   4.858
 1636TIP3    H2 4873   5.570   2.345   4.873
 1637TIP3   OH2 4874   3.556   3.966   1.692
 1637TIP3    H1 4875   3.493   3.894   1.691
 1637TIP3    H2 4876   3.639   3.925   1.666
 1638TIP3   OH2 4877   2.881   2.138  -0.033
 1638TIP3    H1 4878   2.912   2.047  -0.038
 1638TIP3    H2 4879   2.932   2.177   0.038
 1639TIP3   OH2 4880   1.486   0.855   2.400
 1639TIP3    H1 4881   1.436   0.933   2.425
 1639TIP3    H2 4882   1.578   0.883   2.403
 1640TIP3   OH2 4883   2.766   1.194   2.996
 1640TIP3    H1 4884   2.744   1.263   2.932
 1640TIP3    H2 4885   2.695   1.198   3.060
 1641TIP3   OH2 4886   3.596   4.227   1.197
 1641TIP3    H1 4887   3.567   4.195   1.283
 1641TIP3    H2 4888   3.526   4.200   1.137
 1642TIP3   OH2 4889   3.512   4.288   0.105
 1642TIP3    H1 4890   3.570   4.212   0.113
 1642TIP3    H2 4891   3.526   4.319   0.016
 1643TIP3   OH2 4892   6.079   0.668   4.142
 1643TIP3    H1 4893   6.065   0.681   4.048
 1643TIP3    H2 4894   5.995   0.689   4.182
 1644TIP3   OH2 4895   1.503   3.326   3.982
 1644TIP3    H1 4896   1.585   3.372   3.971
 1644TIP3    H2 4897   1.486   3.329   4.076
 1645TIP3   OH2 4898   2.765   4.635   3.175
 1645TIP3    H1 4899   2.782   4.721   3.213
 1645TIP3    H2 4900   2.850   4.590   3.178
 1646TIP3   OH2 4901   2.756   2.668   5.370
 1646TIP3    H1 4902   2.836   2.683   5.319
 1646TIP3    H2 4903   2.737   2.575   5.356
 1647TIP3   OH2 4904   5.729   6.254   1.925
 1647TIP3    H1 4905   5.684   6.307   1.991
 1647TIP3    H2 4906   5.699   6.165   1.941
 1648TIP3   OH2 4907   4.961   2.720   5.918
 1648TIP3    H1 4908   4.982   2.636   5.960
 1648TIP3    H2 4909   4.874   2.706   5.881
 1649TIP3   OH2 4910   7.084   2.681   1.909
 1649TIP3    H1 4911   7.015   2.748   1.900
 1649TIP3    H2 4912   7.079   2.631   1.827
 1650TIP3   OH2 4913   3.667   4.127   3.133
 1650TIP3    H1 4914   3.672   4.180   3.053
 1650TIP3    H2 4915   3.684   4.188   3.204
 1651TIP3   OH2 4916   6.700   2.078   2.258
 1651TIP3    H1 4917   6.662   2.157   2.296
 1651TIP3    H2 4918   6.794   2.091   2.264
 1652TIP3   OH2 4919   3.813   0.995   0.634
 1652TIP3    H1 4920   3.731   1.009   0.588
 1652TIP3    H2 4921   3.871   0.954   0.570
 1653TIP3   OH2 4922   5.307   5.765   3.197
 1653TIP3    H1 4923   5.230   5.811   3.165
 1653TIP3    H2 4924   5.381   5.809   3.155
 1654TIP3   OH2 4925   2.959   0.845   4.460
 1654TIP3    H1 4926   2.872   0.808   4.445
 1654TIP3    H2 4927   2.960   0.867   4.553
 1655TIP3   OH2 4928   4.562   3.382   2.623
 1655TIP3    H1 4929   4.598   3.387   2.711
 1655TIP3    H2 4930   4.626   3.426   2.568
 1656TIP3   OH2 4931   6.987   6.225   4.332
 1656TIP3    H1 4932   6.955   6.285   4.264
 1656TIP3    H2 4933   7.063   6.182   4.292
 1657TIP3   OH2 4934   5.306   1.130   4.129
 1657TIP3    H1 4935   5.390   1.167   4.157
 1657TIP3    H2 4936   5.264   1.201   4.080
 1658TIP3   OH2 4937   1.767   1.696   3.813
 1658TIP3    H1 4938   1.730   1.771   3.859
 1658TIP3    H2 4939   1.857   1.723   3.794
 1659TIP3   OH2 4940   3.311   1.182   0.538
 1659TIP3    H1 4941   3.267   1.232   0.608
 1659TIP3    H2 4942   3.321   1.245   0.467
 1660TIP3   OH2 4943   3.258   4.925   2.800
 1660TIP3    H1 4944   3.256   4.995   2.865
 1660TIP3    H2 4945   3.272   4.845   2.850
 1661TIP3   OH2 4946   0.589   3.270   1.947
 1661TIP3    H1 4947   0.627   3.307   1.868
 1661TIP3    H2 4948   0.498   3.298   1.946
 1662TIP3   OH2 4949   6.944   5.672   0.510
 1662TIP3    H1 4950   6.942   5.644   0.602
 1662TIP3    H2 4951   6.887   5.749   0.508
 1663TIP3   OH2 4952   4.598   5.423   1.280
 1663TIP3    H1 4953   4.638   5.360   1.220
 1663TIP3    H2 4954   4.653   5.501   1.273
 1664TIP3   OH2 4955   4.549   3.619   1.449
 1664TIP3    H1 4956   4.501   3.596   1.369
 1664TIP3    H2 4957   4.564   3.713   1.441
 1665TIP3   OH2 4958   5.290   3.095   1.502
 1665TIP3    H1 4959   5.300   3.161   1.433
 1665TIP3    H2 4960   5.260   3.145   1.578
 1666TIP3   OH2 4961   2.142   2.121   2.493
 1666TIP3    H1 4962   2.052   2.090   2.486
 1666TIP3    H2 4963   2.172   2.090   2.578
 1667TIP3   OH2 4964   0.310   4.407   0.697
 1667TIP3    H1 4965   0.363   4.342   0.650
 1667TIP3    H2 4966   0.335   4.491   0.658
 1668TIP3   OH2 4967   5.530   6.739   3.944
 1668TIP3    H1 4968   5.595   6.674   3.969
 1668TIP3    H2 4969   5.554   6.817   3.994
 1669TIP3   OH2 4970   4.224   1.492   2.699
 1669TIP3    H1 4971   4.134   1.463   2.695
 1669TIP3    H2 4972   4.266   1.435   2.764
 1670TIP3   OH2 4973   4.086   1.206   3.427
 1670TIP3    H1 4974   4.016   1.219   3.491
 1670TIP3    H2 4975   4.164   1.189   3.480
 1671TIP3   OH2 4976   7.022   2.452   3.129
 1671TIP3    H1 4977   6.952   2.395   3.162
 1671TIP3    H2 4978   7.045   2.508   3.203
 1672TIP3   OH2 4979   0.550   3.554   0.815
 1672TIP3    H1 4980   0.486   3.571   0.746
 1672TIP3    H2 4981   0.556   3.637   0.863
 1673TIP3   OH2 4982   3.114   3.990   1.413
 1673TIP3    H1 4983   3.149   4.042   1.341
 1673TIP3    H2 4984   3.127   4.045   1.490
 1674TIP3   OH2 4985   0.391   3.328   5.629
 1674TIP3    H1 4986   0.403   3.338   5.724
 1674TIP3    H2 4987   0.475   3.294   5.598
 1675TIP3   OH2 4988   4.303   6.578   4.699
 1675TIP3    H1 4989   4.335   6.667   4.715
 1675TIP3    H2 4990   4.343   6.553   4.616
 1676TIP3   OH2 4991   1.733   2.081   1.892
 1676TIP3    H1 4992   1.752   2.008   1.951
 1676TIP3    H2 4993   1.773   2.157   1.934
 1677TIP3   OH2 4994   3.731   1.386   5.353
 1677TIP3    H1 4995   3.663   1.365   5.289
 1677TIP3    H2 4996   3.721   1.480   5.369
 1678TIP3   OH2 4997   5.734   5.612   0.390
 1678TIP3    H1 4998   5.643   5.627   0.416
 1678TIP3    H2 4999   5.748   5.518   0.403
 1679TIP3   OH2 5000   3.981   3.182   5.112
 1679TIP3    H1 5001   3.910   3.246   5.115
 1679TIP3    H2 5002   3.948   3.107   5.162
 1680TIP3   OH2 5003   1.258   3.560   4.955
 1680TIP3    H1 5004   1.352   3.576   4.948
 1680TIP3    H2 5005   1.223   3.587   4.870
 1681TIP3   OH2 5006   4.858   6.631   1.979
 1681TIP3    H1 5007   4.940   6.676   2.001
 1681TIP3    H2 5008   4.792   6.701   1.980
 1682TIP3   OH2 5009   3.621   6.245   5.493
 1682TIP3    H1 5010   3.685   6.271   5.427
 1682TIP3    H2 5011   3.601   6.154   5.472
 1683TIP3   OH2 5012   0.731   6.215   0.141
 1683TIP3    H1 5013   0.762   6.207   0.051
 1683TIP3    H2 5014   0.698   6.128   0.163
 1684TIP3   OH2 5015   0.900   0.674   4.754
 1684TIP3    H1 5016   0.896   0.601   4.816
 1684TIP3    H2 5017   0.892   0.633   4.668
 1685TIP3   OH2 5018   5.281   1.957   2.594
 1685TIP3    H1 5019   5.329   1.923   2.518
 1685TIP3    H2 5020   5.223   1.885   2.620
 1686TIP3   OH2 5021   1.829   1.985   0.870
 1686TIP3    H1 5022   1.769   2.059   0.878
 1686TIP3    H2 5023   1.868   1.996   0.783
 1687TIP3   OH2 5024   1.946   4.208   2.796
 1687TIP3    H1 5025   2.032   4.235   2.764
 1687TIP3    H2 5026   1.964   4.172   2.883
 1688TIP3   OH2 5027   4.947   2.879   2.360
 1688TIP3    H1 5028   5.039   2.873   2.386
 1688TIP3    H2 5029   4.905   2.928   2.431
 1689TIP3   OH2 5030   2.121   2.145   1.427
 1689TIP3    H1 5031   2.199   2.110   1.470
 1689TIP3    H2 5032   2.144   2.147   1.334
 1690TIP3   OH2 5033   3.346   0.170   1.627
 1690TIP3    H1 5034   3.385   0.182   1.540
 1690TIP3    H2 5035   3.258   0.207   1.619
 1691TIP3   OH2 5036   2.019   4.388   4.415
 1691TIP3    H1 5037   1.945   4.336   4.447
 1691TIP3    H2 5038   2.014   4.469   4.467
 1692TIP3   OH2 5039   1.318   6.230   5.846
 1692TIP3    H1 5040   1.351   6.319   5.847
 1692TIP3    H2 5041   1.367   6.186   5.776
 1693TIP3   OH2 5042   4.978   5.784   1.829
 1693TIP3    H1 5043   4.983   5.843   1.904
 1693TIP3    H2 5044   4.897   5.808   1.784
 1694TIP3   OH2 5045   5.395   2.565   1.417
 1694TIP3    H1 5046   5.473   2.516   1.440
 1694TIP3    H2 5047   5.366   2.605   1.500
 1695TIP3   OH2 5048   3.594   6.697   4.624
 1695TIP3    H1 5049   3.540   6.773   4.647
 1695TIP3    H2 5050   3.549   6.623   4.664
 1696TIP3   OH2 5051   0.404   5.732   5.155
 1696TIP3    H1 5052   0.372   5.822   5.151
 1696TIP3    H2 5053   0.457   5.729   5.234
 1697TIP3   OH2 5054   4.262   5.322   3.832
 1697TIP3    H1 5055   4.354   5.350   3.837
 1697TIP3    H2 5056   4.226   5.346   3.917
 1698TIP3   OH2 5057   6.999   4.178   2.691
 1698TIP3    H1 5058   6.979   4.254   2.637
 1698TIP3    H2 5059   7.091   4.158   2.673
 1699TIP3   OH2 5060   5.363   1.133   4.970
 1699TIP3    H1 5061   5.316   1.200   5.020
 1699TIP3    H2 5062   5.439   1.178   4.935
 1700TIP3   OH2 5063   0.970   6.078   0.022
 1700TIP3    H1 5064   0.987   6.118  -0.064
 1700TIP3    H2 5065   1.056   6.077   0.065
 1701TIP3   OH2 5066   3.468   3.214   1.312
 1701TIP3    H1 5067   3.491   3.168   1.393
 1701TIP3    H2 5068   3.412   3.286   1.341
 1702TIP3   OH2 5069   3.047   4.519   0.957
 1702TIP3    H1 5070   3.026   4.472   1.038
 1702TIP3    H2 5071   2.972   4.503   0.899
 1703TIP3   OH2 5072   5.013   1.964   5.587
 1703TIP3    H1 5073   5.030   1.917   5.668
 1703TIP3    H2 5074   5.078   2.035   5.586
 1704TIP3   OH2 5075   6.079   1.097   4.923
 1704TIP3    H1 5076   6.129   1.016   4.935
 1704TIP3    H2 5077   6.131   1.163   4.969
 1705TIP3   OH2 5078   5.200   3.397   0.496
 1705TIP3    H1 5079   5.210   3.486   0.463
 1705TIP3    H2 5080   5.221   3.341   0.422
 1706TIP3   OH2 5081   3.865   2.836   5.838
 1706TIP3    H1 5082   3.777   2.843   5.800
 1706TIP3    H2 5083   3.894   2.927   5.847
 1707TIP3   OH2 5084   2.244   3.572   5.064
 1707TIP3    H1 5085   2.204   3.494   5.102
 1707TIP3    H2 5086   2.326   3.583   5.112
 1708TIP3   OH2 5087   6.891   3.486   5.770
 1708TIP3    H1 5088   6.972   3.510   5.724
 1708TIP3    H2 5089   6.921   3.436   5.846
 1709TIP3   OH2 5090   4.366   3.920   3.531
 1709TIP3    H1 5091   4.372   4.015   3.539
 1709TIP3    H2 5092   4.324   3.892   3.612
 1710TIP3   OH2 5093   3.202   3.016   0.201
 1710TIP3    H1 5094   3.260   3.049   0.269
 1710TIP3    H2 5095   3.119   2.999   0.246
 1711TIP3   OH2 5096   5.338   1.742   2.122
 1711TIP3    H1 5097   5.414   1.710   2.072
 1711TIP3    H2 5098   5.357   1.718   2.212
 1712TIP3   OH2 5099   3.111   1.051   4.309
 1712TIP3    H1 5100   3.187   0.998   4.286
 1712TIP3    H2 5101   3.039   0.988   4.316
 1713TIP3   OH2 5102   1.168   4.560   1.623
 1713TIP3    H1 5103   1.186   4.639   1.675
 1713TIP3    H2 5104   1.078   4.538   1.644
 1714TIP3   OH2 5105   1.475   2.696   2.156
 1714TIP3    H1 5106   1.536   2.671   2.225
 1714TIP3    H2 5107   1.438   2.614   2.125
 1715TIP3   OH2 5108   2.398   2.289   3.431
 1715TIP3    H1 5109   2.474   2.317   3.482
 1715TIP3    H2 5110   2.405   2.194   3.427
 1716TIP3   OH2 5111   0.681   0.038   3.676
 1716TIP3    H1 5112   0.706  -0.008   3.756
 1716TIP3    H2 5113   0.699   0.130   3.695
 1717TIP3   OH2 5114   6.937   1.842   1.927
 1717TIP3    H1 5115   6.921   1.936   1.934
 1717TIP3    H2 5116   7.014   1.834   1.871
 1718TIP3   OH2 5117   6.160   3.469   1.668
 1718TIP3    H1 5118   6.248   3.497   1.643
 1718TIP3    H2 5119   6.167   3.374   1.679
 1719TIP3   OH2 5120   5.491   6.374   1.224
 1719TIP3    H1 5121   5.414   6.356   1.277
 1719TIP3    H2 5122   5.563   6.380   1.287
 1720TIP3   OH2 5123   6.173   5.738   5.807
 1720TIP3    H1 5124   6.166   5.644   5.790
 1720TIP3    H2 5125   6.203   5.775   5.724
 1721TIP3   OH2 5126   3.038   5.560   1.996
 1721TIP3    H1 5127   3.127   5.533   2.019
 1721TIP3    H2 5128   2.997   5.480   1.961
 1722TIP3   OH2 5129   0.104   2.654   3.126
 1722TIP3    H1 5130   0.169   2.709   3.083
 1722TIP3    H2 5131   0.055   2.614   3.054
 1723TIP3   OH2 5132   4.057   3.542   3.156
 1723TIP3    H1 5133   4.032   3.634   3.154
 1723TIP3    H2 5134   4.020   3.506   3.075
 1724TIP3   OH2 5135   5.383   2.062   5.148
 1724TIP3    H1 5136   5.390   1.982   5.200
 1724TIP3    H2 5137   5.289   2.080   5.144
 1725TIP3   OH2 5138   5.796   1.134   2.917
 1725TIP3    H1 5139   5.762   1.144   3.006
 1725TIP3    H2 5140   5.887   1.108   2.928
 1726TIP3   OH2 5141   3.071   0.848   5.820
 1726TIP3    H1 5142   3.010   0.776   5.804
 1726TIP3    H2 5143   3.066   0.862   5.915
 1727TIP3   OH2 5144   1.527   6.643   1.340
 1727TIP3    H1 5145   1.455   6.586   1.368
 1727TIP3    H2 5146   1.587   6.584   1.294
 1728TIP3   OH2 5147   6.497   2.630   3.060
 1728TIP3    H1 5148   6.499   2.561   3.127
 1728TIP3    H2 5149   6.553   2.699   3.094
 1729TIP3   OH2 5150   6.755   1.202   1.791
 1729TIP3    H1 5151   6.782   1.262   1.722
 1729TIP3    H2 5152   6.735   1.120   1.746
 1730TIP3   OH2 5153   0.720   4.983   2.684
 1730TIP3    H1 5154   0.658   4.930   2.734
 1730TIP3    H2 5155   0.693   4.972   2.593
 1731TIP3   OH2 5156   0.141   5.375   4.804
 1731TIP3    H1 5157   0.156   5.451   4.860
 1731TIP3    H2 5158   0.064   5.398   4.752
 1732TIP3   OH2 5159   5.040   0.675   0.552
 1732TIP3    H1 5160   5.068   0.589   0.584
 1732TIP3    H2 5161   5.110   0.734   0.579
 1733TIP3   OH2 5162   6.807   0.546   0.541
 1733TIP3    H1 5163   6.746   0.583   0.605
 1733TIP3    H2 5164   6.751   0.502   0.476
 1734TIP3   OH2 5165   6.458   2.539   3.939
 1734TIP3    H1 5166   6.516   2.556   4.013
 1734TIP3    H2 5167   6.373   2.520   3.979
 1735TIP3   OH2 5168   0.297   3.950   4.052
 1735TIP3    H1 5169   0.248   4.021   4.011
 1735TIP3    H2 5170   0.230   3.889   4.084
 1736TIP3   OH2 5171   6.608   5.746   4.488
 1736TIP3    H1 5172   6.645   5.687   4.422
 1736TIP3    H2 5173   6.679   5.808   4.507
 1737TIP3   OH2 5174   0.973   5.817   2.351
 1737TIP3    H1 5175   0.891   5.829   2.398
 1737TIP3    H2 5176   1.020   5.750   2.401
 1738TIP3   OH2 5177   5.383   4.538   4.744
 1738TIP3    H1 5178   5.338   4.500   4.819
 1738TIP3    H2 5179   5.446   4.599   4.782
 1739TIP3   OH2 5180   5.065   2.708   1.548
 1739TIP3    H1 5181   5.149   2.736   1.584
 1739TIP3    H2 5182   5.025   2.657   1.618
 1740TIP3   OH2 5183   6.016   6.493   4.251
 1740TIP3    H1 5184   6.086   6.447   4.205
 1740TIP3    H2 5185   5.980   6.553   4.185
 1741TIP3   OH2 5186   2.362   6.566   3.209
 1741TIP3    H1 5187   2.307   6.491   3.186
 1741TIP3    H2 5188   2.300   6.637   3.224
 1742TIP3   OH2 5189   2.218   1.581   4.257
 1742TIP3    H1 5190   2.244   1.597   4.347
 1742TIP3    H2 5191   2.291   1.531   4.219
 1743TIP3   OH2 5192   1.335   4.381   1.138
 1743TIP3    H1 5193   1.345   4.445   1.068
 1743TIP3    H2 5194   1.362   4.427   1.217
 1744TIP3   OH2 5195   1.489   4.157   1.012
 1744TIP3    H1 5196   1.444   4.224   1.065
 1744TIP3    H2 5197   1.420   4.120   0.957
 1745TIP3   OH2 5198   4.350   5.868   1.635
 1745TIP3    H1 5199   4.411   5.850   1.563
 1745TIP3    H2 5200   4.292   5.936   1.601
 1746TIP3   OH2 5201   1.297   4.584   0.920
 1746TIP3    H1 5202   1.222   4.625   0.964
 1746TIP3    H2 5203   1.373   4.635   0.951
 1747TIP3   OH2 5204   1.255   5.610   4.325
 1747TIP3    H1 5205   1.344   5.641   4.340
 1747TIP3    H2 5206   1.263   5.515   4.318
 1748TIP3   OH2 5207   4.926   0.102   2.224
 1748TIP3    H1 5208   4.967   0.147   2.150
 1748TIP3    H2 5209   4.982   0.124   2.299
 1749TIP3   OH2 5210   1.395   3.396   3.198
 1749TIP3    H1 5211   1.369   3.385   3.290
 1749TIP3    H2 5212   1.477   3.445   3.202
 1750TIP3   OH2 5213   5.315   2.193   5.713
 1750TIP3    H1 5214   5.291   2.273   5.667
 1750TIP3    H2 5215   5.410   2.188   5.705
 1751TIP3   OH2 5216   1.619   1.844   1.344
 1751TIP3    H1 5217   1.653   1.930   1.323
 1751TIP3    H2 5218   1.578   1.814   1.263
 1752TIP3   OH2 5219   1.636   0.334   1.039
 1752TIP3    H1 5220   1.633   0.429   1.034
 1752TIP3    H2 5221   1.674   0.315   1.124
 1753TIP3   OH2 5222   1.115   1.044   4.344
 1753TIP3    H1 5223   1.080   1.008   4.425
 1753TIP3    H2 5224   1.088   1.135   4.344
 1754TIP3   OH2 5225   0.889   0.708   0.872
 1754TIP3    H1 5226   0.796   0.688   0.861
 1754TIP3    H2 5227   0.911   0.676   0.959
 1755TIP3   OH2 5228   4.131   1.258   0.875
 1755TIP3    H1 5229   4.140   1.305   0.958
 1755TIP3    H2 5230   4.161   1.170   0.894
 1756TIP3   OH2 5231   0.044   5.276   2.305
 1756TIP3    H1 5232   0.056   5.370   2.319
 1756TIP3    H2 5233   0.070   5.237   2.388
 1757TIP3   OH2 5234   3.223   4.835   1.258
 1757TIP3    H1 5235   3.237   4.800   1.170
 1757TIP3    H2 5236   3.134   4.870   1.256
 1758TIP3   OH2 5237   4.244   2.977   0.331
 1758TIP3    H1 5238   4.266   3.004   0.421
 1758TIP3    H2 5239   4.307   2.908   0.311
 1759TIP3   OH2 5240   5.815   5.867   0.296
 1759TIP3    H1 5241   5.786   5.777   0.313
 1759TIP3    H2 5242   5.788   5.883   0.205
 1760TIP3   OH2 5243   0.258   6.344   4.897
 1760TIP3    H1 5244   0.206   6.382   4.827
 1760TIP3    H2 5245   0.317   6.283   4.853
 1761TIP3   OH2 5246   0.123   4.782   3.028
 1761TIP3    H1 5247   0.078   4.840   3.090
 1761TIP3    H2 5248   0.082   4.697   3.041
 1762TIP3   OH2 5249   6.016   3.077   5.507
 1762TIP3    H1 5250   5.970   3.127   5.439
 1762TIP3    H2 5251   6.083   3.028   5.460
 1763TIP3   OH2 5252   2.441   4.127   0.683
 1763TIP3    H1 5253   2.498   4.053   0.703
 1763TIP3    H2 5254   2.500   4.200   0.668
 1764TIP3   OH2 5255   1.946   5.866   5.617
 1764TIP3    H1 5256   1.923   5.940   5.673
 1764TIP3    H2 5257   2.022   5.827   5.660
 1765TIP3   OH2 5258   1.992   5.462   5.538
 1765TIP3    H1 5259   2.041   5.382   5.521
 1765TIP3    H2 5260   2.057   5.532   5.531
 1766TIP3   OH2 5261   6.663   1.339   4.260
 1766TIP3    H1 5262   6.579   1.379   4.235
 1766TIP3    H2 5263   6.698   1.305   4.178
 1767TIP3   OH2 5264   4.494   4.478   4.648
 1767TIP3    H1 5265   4.415   4.431   4.674
 1767TIP3    H2 5266   4.471   4.520   4.565
 1768TIP3   OH2 5267   2.799   0.003   1.520
 1768TIP3    H1 5268   2.817   0.079   1.574
 1768TIP3    H2 5269   2.704  -0.003   1.516
 1769TIP3   OH2 5270   6.379   4.520   4.204
 1769TIP3    H1 5271   6.293   4.482   4.221
 1769TIP3    H2 5272   6.361   4.607   4.170
 1770TIP3   OH2 5273   6.530   3.034   0.773
 1770TIP3    H1 5274   6.462   2.969   0.788
 1770TIP3    H2 5275   6.582   3.034   0.853
 1771TIP3   OH2 5276   1.019   1.092   1.140
 1771TIP3    H1 5277   1.072   1.025   1.183
 1771TIP3    H2 5278   1.042   1.087   1.048
 1772TIP3   OH2 5279   6.999  -0.063   1.443
 1772TIP3    H1 5280   6.975   0.005   1.380
 1772TIP3    H2 5281   7.094  -0.071   1.435
 1773TIP3   OH2 5282   4.959   0.908   3.514
 1773TIP3    H1 5283   5.034   0.968   3.513
 1773TIP3    H2 5284   4.892   0.955   3.564
 1774TIP3   OH2 5285   5.069   4.369   4.337
 1774TIP3    H1 5286   5.102   4.296   4.390
 1774TIP3    H2 5287   4.991   4.400   4.383
 1775TIP3   OH2 5288   5.362   6.044   0.606
 1775TIP3    H1 5289   5.376   5.954   0.635
 1775TIP3    H2 5290   5.323   6.087   0.682
 1776TIP3   OH2 5291   6.596   3.462   1.036
 1776TIP3    H1 5292   6.529   3.472   0.969
 1776TIP3    H2 5293   6.641   3.547   1.038
 1777TIP3   OH2 5294   5.501   2.646   0.392
 1777TIP3    H1 5295   5.533   2.616   0.477
 1777TIP3    H2 5296   5.446   2.573   0.361
 1778TIP3   OH2 5297   1.767   1.327   4.899
 1778TIP3    H1 5298   1.747   1.326   4.992
 1778TIP3    H2 5299   1.860   1.352   4.894
 1779TIP3   OH2 5300   4.004   4.408   2.751
 1779TIP3    H1 5301   4.078   4.399   2.811
 1779TIP3    H2 5302   3.953   4.328   2.763
 1780TIP3   OH2 5303   1.051   5.350   4.802
 1780TIP3    H1 5304   1.040   5.259   4.830
 1780TIP3    H2 5305   1.132   5.349   4.750
 1781TIP3   OH2 5306   5.866   2.606   2.202
 1781TIP3    H1 5307   5.873   2.530   2.260
 1781TIP3    H2 5308   5.786   2.651   2.231
 1782TIP3   OH2 5309   6.121   3.786   1.587
 1782TIP3    H1 5310   6.071   3.863   1.616
 1782TIP3    H2 5311   6.077   3.712   1.628
 1783TIP3   OH2 5312   2.161   1.988   4.521
 1783TIP3    H1 5313   2.097   1.932   4.476
 1783TIP3    H2 5314   2.109   2.041   4.581
 1784TIP3   OH2 5315   6.025   2.860   1.743
 1784TIP3    H1 5316   6.099   2.909   1.705
 1784TIP3    H2 5317   6.057   2.770   1.751
 1785TIP3   OH2 5318   2.108   6.761   4.518
 1785TIP3    H1 5319   2.115   6.679   4.566
 1785TIP3    H2 5320   2.025   6.754   4.471
 1786TIP3   OH2 5321   5.581   6.775   0.298
 1786TIP3    H1 5322   5.662   6.806   0.338
 1786TIP3    H2 5323   5.610   6.720   0.224
 1787TIP3   OH2 5324   0.129   3.425   5.761
 1787TIP3    H1 5325   0.204   3.415   5.703
 1787TIP3    H2 5326   0.104   3.336   5.784
 1788TIP3   OH2 5327   6.301   4.529   3.616
 1788TIP3    H1 5328   6.377   4.504   3.669
 1788TIP3    H2 5329   6.274   4.447   3.574
 1789TIP3   OH2 5330   4.678   6.224   2.367
 1789TIP3    H1 5331   4.693   6.174   2.287
 1789TIP3    H2 5332   4.763   6.264   2.387
 1790TIP3   OH2 5333   5.702   5.479   3.720
 1790TIP3    H1 5334   5.669   5.474   3.810
 1790TIP3    H2 5335   5.713   5.573   3.704
 1791TIP3   OH2 5336   1.017   5.760   3.391
 1791TIP3    H1 5337   0.987   5.676   3.355
 1791TIP3    H2 5338   1.036   5.741   3.483
 1792TIP3   OH2 5339   5.968   5.439   3.642
 1792TIP3    H1 5340   5.888   5.447   3.694
 1792TIP3    H2 5341   5.987   5.346   3.642
 1793TIP3   OH2 5342   6.207   5.113   5.331
 1793TIP3    H1 5343   6.137   5.168   5.295
 1793TIP3    H2 5344   6.272   5.108   5.262
 1794TIP3   OH2 5345   1.847   3.636   5.832
 1794TIP3    H1 5346   1.774   3.580   5.803
 1794TIP3    H2 5347   1.807   3.697   5.894
 1795TIP3   OH2 5348   3.954   1.155   2.641
 1795TIP3    H1 5349   4.025   1.160   2.577
 1795TIP3    H2 5350   3.967   1.232   2.696
 1796TIP3   OH2 5351   5.853   2.626   2.740
 1796TIP3    H1 5352   5.801   2.704   2.760
 1796TIP3    H2 5353   5.797   2.574   2.682
 1797TIP3   OH2 5354   7.092   0.076   1.926
 1797TIP3    H1 5355   7.055   0.140   1.866
 1797TIP3    H2 5356   7.026   0.066   1.994
 1798TIP3   OH2 5357   3.503   1.756   1.222
 1798TIP3    H1 5358   3.520   1.827   1.160
 1798TIP3    H2 5359   3.540   1.678   1.180
 1799TIP3   OH2 5360   4.299   1.679   4.668
 1799TIP3    H1 5361   4.394   1.685   4.654
 1799TIP3    H2 5362   4.262   1.684   4.580
 1800TIP3   OH2 5363   5.586   2.021   3.404
 1800TIP3    H1 5364   5.632   2.029   3.320
 1800TIP3    H2 5365   5.506   2.074   3.393
 1801TIP3   OH2 5366   3.690   4.042   4.799
 1801TIP3    H1 5367   3.705   4.096   4.876
 1801TIP3    H2 5368   3.726   3.956   4.822
 1802TIP3   OH2 5369   2.124   1.493   5.249
 1802TIP3    H1 5370   2.117   1.538   5.165
 1802TIP3    H2 5371   2.217   1.500   5.272
 1803TIP3   OH2 5372   2.998   5.135   2.214
 1803TIP3    H1 5373   2.939   5.118   2.287
 1803TIP3    H2 5374   3.065   5.067   2.220
 1804TIP3   OH2 5375   1.043   6.157   5.734
 1804TIP3    H1 5376   1.138   6.153   5.729
 1804TIP3    H2 5377   1.017   6.072   5.770
 1805TIP3   OH2 5378   5.162   5.441   0.580
 1805TIP3    H1 5379   5.254   5.459   0.558
 1805TIP3    H2 5380   5.156   5.346   0.582
 1806TIP3   OH2 5381   0.967   5.913   2.929
 1806TIP3    H1 5382   0.977   5.971   2.853
 1806TIP3    H2 5383   1.042   5.934   2.984
 1807TIP3   OH2 5384   1.124   5.069   0.306
 1807TIP3    H1 5385   1.033   5.058   0.332
 1807TIP3    H2 5386   1.173   5.008   0.361
 1808TIP3   OH2 5387   5.396   5.732   3.720
 1808TIP3    H1 5388   5.352   5.676   3.784
 1808TIP3    H2 5389   5.401   5.679   3.641
 1809TIP3   OH2 5390   6.831   5.033   1.953
 1809TIP3    H1 5391   6.919   5.043   1.990
 1809TIP3    H2 5392   6.815   5.114   1.906
 1810TIP3   OH2 5393   1.048   2.184   4.589
 1810TIP3    H1 5394   1.142   2.178   4.603
 1810TIP3    H2 5395   1.019   2.094   4.575
 1811TIP3   OH2 5396   5.877   0.780   0.735
 1811TIP3    H1 5397   5.946   0.718   0.759
 1811TIP3    H2 5398   5.825   0.790   0.815
 1812TIP3   OH2 5399   1.662   0.006   2.535
 1812TIP3    H1 5400   1.753   0.016   2.508
 1812TIP3    H2 5401   1.666   0.008   2.631
 1813TIP3   OH2 5402   5.453   6.151   2.869
 1813TIP3    H1 5403   5.417   6.063   2.876
 1813TIP3    H2 5404   5.542   6.143   2.902
 1814TIP3   OH2 5405   1.439   4.695   3.414
 1814TIP3    H1 5406   1.390   4.754   3.357
 1814TIP3    H2 5407   1.392   4.696   3.497
 1815TIP3   OH2 5408   1.572   6.661   0.017
 1815TIP3    H1 5409   1.492   6.638   0.065
 1815TIP3    H2 5410   1.548   6.649  -0.075
 1816TIP3   OH2 5411   0.883   4.438   2.160
 1816TIP3    H1 5412   0.891   4.378   2.234
 1816TIP3    H2 5413   0.913   4.388   2.085
 1817TIP3   OH2 5414   4.421   4.901   4.316
 1817TIP3    H1 5415   4.346   4.930   4.264
 1817TIP3    H2 5416   4.496   4.948   4.279
 1818TIP3   OH2 5417   6.391   5.925   1.370
 1818TIP3    H1 5418   6.405   5.945   1.278
 1818TIP3    H2 5419   6.399   5.830   1.376
 1819TIP3   OH2 5420   1.146   6.581   0.685
 1819TIP3    H1 5421   1.139   6.506   0.627
 1819TIP3    H2 5422   1.197   6.645   0.636
 1820TIP3   OH2 5423   6.579   2.299   2.959
 1820TIP3    H1 5424   6.633   2.359   2.908
 1820TIP3    H2 5425   6.533   2.356   3.021
 1821TIP3   OH2 5426   0.929   2.032   1.051
 1821TIP3    H1 5427   0.979   1.955   1.025
 1821TIP3    H2 5428   0.875   2.003   1.124
 1822TIP3   OH2 5429   5.484   0.611   2.353
 1822TIP3    H1 5430   5.474   0.665   2.431
 1822TIP3    H2 5431   5.412   0.548   2.358
 1823TIP3   OH2 5432   3.378   5.460   2.541
 1823TIP3    H1 5433   3.296   5.504   2.517
 1823TIP3    H2 5434   3.381   5.384   2.483
 1824TIP3   OH2 5435   1.851   3.655   2.094
 1824TIP3    H1 5436   1.896   3.572   2.109
 1824TIP3    H2 5437   1.913   3.707   2.043
 1825TIP3   OH2 5438   3.025   5.652   4.484
 1825TIP3    H1 5439   3.013   5.588   4.555
 1825TIP3    H2 5440   2.975   5.729   4.513
 1826TIP3   OH2 5441   5.365   4.676   5.211
 1826TIP3    H1 5442   5.283   4.660   5.258
 1826TIP3    H2 5443   5.433   4.662   5.277
 1827TIP3   OH2 5444   3.766   1.709   2.351
 1827TIP3    H1 5445   3.852   1.741   2.322
 1827TIP3    H2 5446   3.754   1.628   2.302
 1828TIP3   OH2 5447   0.927   0.950   4.547
 1828TIP3    H1 5448   0.835   0.975   4.548
 1828TIP3    H2 5449   0.967   1.005   4.615
 1829TIP3   OH2 5450   1.338   2.923   2.081
 1829TIP3    H1 5451   1.413   2.869   2.102
 1829TIP3    H2 5452   1.340   2.931   1.986
 1830TIP3   OH2 5453   0.236   0.048   0.151
 1830TIP3    H1 5454   0.288   0.026   0.073
 1830TIP3    H2 5455   0.184  -0.031   0.167
 1831TIP3   OH2 5456   5.043   5.914   2.729
 1831TIP3    H1 5457   5.110   5.956   2.784
 1831TIP3    H2 5458   5.000   5.852   2.787
 1832TIP3   OH2 5459   1.565   5.096   1.686
 1832TIP3    H1 5460   1.546   5.187   1.662
 1832TIP3    H2 5461   1.518   5.043   1.621
 1833TIP3   OH2 5462   3.722   3.142   5.437
 1833TIP3    H1 5463   3.670   3.202   5.383
 1833TIP3    H2 5464   3.747   3.072   5.378
 1834TIP3   OH2 5465   2.100   1.206   4.630
 1834TIP3    H1 5466   2.026   1.168   4.582
 1834TIP3    H2 5467   2.177   1.169   4.588
 1835TIP3   OH2 5468   6.925   0.272   0.661
 1835TIP3    H1 5469   7.013   0.307   0.676
 1835TIP3    H2 5470   6.937   0.207   0.592
 1836TIP3   OH2 5471   6.737   0.667   5.722
 1836TIP3    H1 5472   6.707   0.752   5.752
 1836TIP3    H2 5473   6.720   0.608   5.796
 1837TIP3   OH2 5474   5.564   1.259   2.000
 1837TIP3    H1 5475   5.504   1.209   2.055
 1837TIP3    H2 5476   5.636   1.199   1.983
 1838TIP3   OH2 5477   6.721   2.734   3.300
 1838TIP3    H1 5478   6.812   2.724   3.275
 1838TIP3    H2 5479   6.688   2.802   3.241
 1839TIP3   OH2 5480   3.293   4.918   5.008
 1839TIP3    H1 5481   3.257   4.935   5.095
 1839TIP3    H2 5482   3.366   4.979   5.000
 1840TIP3   OH2 5483   1.680   5.439   2.173
 1840TIP3    H1 5484   1.662   5.356   2.129
 1840TIP3    H2 5485   1.598   5.463   2.215
 1841TIP3   OH2 5486   5.595   4.237   3.819
 1841TIP3    H1 5487   5.593   4.144   3.839
 1841TIP3    H2 5488   5.666   4.247   3.755
 1842TIP3   OH2 5489   2.437   0.282   4.842
 1842TIP3    H1 5490   2.528   0.251   4.843
 1842TIP3    H2 5491   2.445   0.377   4.855
 1843TIP3   OH2 5492   1.847   5.196   4.116
 1843TIP3    H1 5493   1.817   5.236   4.197
 1843TIP3    H2 5494   1.845   5.267   4.052
 1844TIP3   OH2 5495   5.720   2.817   0.192
 1844TIP3    H1 5496   5.704   2.724   0.176
 1844TIP3    H2 5497   5.633   2.857   0.191
 1845TIP3   OH2 5498   7.055   4.302   2.430
 1845TIP3    H1 5499   6.964   4.310   2.402
 1845TIP3    H2 5500   7.082   4.391   2.451
 1846TIP3   OH2 5501   4.475   0.180   2.264
 1846TIP3    H1 5502   4.503   0.248   2.203
 1846TIP3    H2 5503   4.556   0.141   2.296
 1847TIP3   OH2 5504   4.693   1.477   5.668
 1847TIP3    H1 5505   4.622   1.455   5.729
 1847TIP3    H2 5506   4.758   1.408   5.683
 1848TIP3   OH2 5507   7.261   6.332   5.579
 1848TIP3    H1 5508   7.184   6.296   5.624
 1848TIP3    H2 5509   7.256   6.426   5.592
 1849TIP3   OH2 5510   3.826   3.544   3.648
 1849TIP3    H1 5511   3.860   3.631   3.666
 1849TIP3    H2 5512   3.778   3.519   3.727
 1850TIP3   OH2 5513   4.133   1.114   2.414
 1850TIP3    H1 5514   4.066   1.065   2.367
 1850TIP3    H2 5515   4.200   1.131   2.349
 1851TIP3   OH2 5516   2.302   4.778   2.236
 1851TIP3    H1 5517   2.337   4.855   2.281
 1851TIP3    H2 5518   2.272   4.720   2.306
 1852TIP3   OH2 5519   2.966   1.092   5.729
 1852TIP3    H1 5520   2.982   1.002   5.754
 1852TIP3    H2 5521   2.976   1.093   5.634
 1853TIP3   OH2 5522   1.954   5.550   5.004
 1853TIP3    H1 5523   1.987   5.638   4.990
 1853TIP3    H2 5524   1.874   5.562   5.056
 1854TIP3   OH2 5525   3.968   6.673   0.831
 1854TIP3    H1 5526   3.975   6.578   0.823
 1854TIP3    H2 5527   4.029   6.696   0.901
 1855TIP3   OH2 5528   2.521   5.429   5.101
 1855TIP3    H1 5529   2.446   5.371   5.084
 1855TIP3    H2 5530   2.597   5.371   5.092
 1856TIP3   OH2 5531   0.489   2.817   0.654
 1856TIP3    H1 5532   0.530   2.811   0.740
 1856TIP3    H2 5533   0.487   2.911   0.635
 1857TIP3   OH2 5534   4.988   5.894   4.471
 1857TIP3    H1 5535   4.961   5.852   4.552
 1857TIP3    H2 5536   4.915   5.953   4.449
 1858TIP3   OH2 5537   2.868   5.699   1.083
 1858TIP3    H1 5538   2.862   5.729   1.173
 1858TIP3    H2 5539   2.944   5.640   1.083
 1859TIP3   OH2 5540   2.542   5.134   0.605
 1859TIP3    H1 5541   2.558   5.170   0.518
 1859TIP3    H2 5542   2.494   5.203   0.651
 1860TIP3   OH2 5543   2.700   2.407   5.287
 1860TIP3    H1 5544   2.609   2.404   5.256
 1860TIP3    H2 5545   2.751   2.372   5.213
 1861TIP3   OH2 5546   7.141   4.627   1.143
 1861TIP3    H1 5547   7.208   4.665   1.087
 1861TIP3    H2 5548   7.180   4.546   1.176
 1862TIP3   OH2 5549   6.957   3.819   1.349
 1862TIP3    H1 5550   7.004   3.854   1.425
 1862TIP3    H2 5551   6.994   3.732   1.335
 1863TIP3   OH2 5552   1.590   6.100   2.284
 1863TIP3    H1 5553   1.514   6.096   2.343
 1863TIP3    H2 5554   1.585   6.018   2.234
 1864TIP3   OH2 5555   1.889   3.383   3.791
 1864TIP3    H1 5556   1.910   3.464   3.745
 1864TIP3    H2 5557   1.967   3.329   3.781
 1865TIP3   OH2 5558   4.876   5.559   0.980
 1865TIP3    H1 5559   4.816   5.491   0.947
 1865TIP3    H2 5560   4.963   5.526   0.958
 1866TIP3   OH2 5561   5.482   0.309   0.119
 1866TIP3    H1 5562   5.575   0.329   0.121
 1866TIP3    H2 5563   5.478   0.218   0.091
 1867TIP3   OH2 5564   6.553   4.050   2.415
 1867TIP3    H1 5565   6.481   4.113   2.420
 1867TIP3    H2 5566   6.524   3.975   2.467
 1868TIP3   OH2 5567   3.083   2.756   5.426
 1868TIP3    H1 5568   3.028   2.734   5.350
 1868TIP3    H2 5569   3.161   2.700   5.415
 1869TIP3   OH2 5570   4.129   0.898   3.954
 1869TIP3    H1 5571   4.173   0.890   4.039
 1869TIP3    H2 5572   4.037   0.878   3.973
 1870TIP3   OH2 5573   3.153   1.896   0.248
 1870TIP3    H1 5574   3.209   1.967   0.215
 1870TIP3    H2 5575   3.193   1.871   0.331
 1871TIP3   OH2 5576   1.642   2.372   3.117
 1871TIP3    H1 5577   1.579   2.301   3.129
 1871TIP3    H2 5578   1.724   2.327   3.096
 1872TIP3   OH2 5579   1.957   3.638   3.207
 1872TIP3    H1 5580   2.025   3.603   3.263
 1872TIP3    H2 5581   1.950   3.575   3.135
 1873TIP3   OH2 5582   6.248   4.246   2.799
 1873TIP3    H1 5583   6.222   4.167   2.846
 1873TIP3    H2 5584   6.338   4.229   2.772
 1874TIP3   OH2 5585   1.938   1.712   2.770
 1874TIP3    H1 5586   1.850   1.679   2.751
 1874TIP3    H2 5587   1.952   1.691   2.862
 1875TIP3   OH2 5588   4.905   6.686   5.567
 1875TIP3    H1 5589   4.974   6.672   5.632
 1875TIP3    H2 5590   4.844   6.613   5.580
 1876TIP3   OH2 5591   0.561   3.786   3.550
 1876TIP3    H1 5592   0.546   3.742   3.634
 1876TIP3    H2 5593   0.581   3.716   3.489
 1877TIP3   OH2 5594   4.703   0.783   4.284
 1877TIP3    H1 5595   4.788   0.742   4.267
 1877TIP3    H2 5596   4.695   0.851   4.217
 1878TIP3   OH2 5597   5.230   0.369   2.551
 1878TIP3    H1 5598   5.180   0.362   2.632
 1878TIP3    H2 5599   5.252   0.462   2.544
 1879TIP3   OH2 5600   2.459   2.906   4.656
 1879TIP3    H1 5601   2.549   2.925   4.630
 1879TIP3    H2 5602   2.440   2.969   4.726
 1880TIP3   OH2 5603   0.648   2.774   4.060
 1880TIP3    H1 5604   0.671   2.688   4.094
 1880TIP3    H2 5605   0.614   2.757   3.972
 1881TIP3   OH2 5606   2.153   5.771   4.235
 1881TIP3    H1 5607   2.131   5.863   4.217
 1881TIP3    H2 5608   2.193   5.773   4.322
 1882TIP3   OH2 5609   6.195   0.849   2.728
 1882TIP3    H1 5610   6.232   0.871   2.642
 1882TIP3    H2 5611   6.149   0.928   2.755
 1883TIP3   OH2 5612   4.749   3.719   1.609
 1883TIP3    H1 5613   4.706   3.804   1.600
 1883TIP3    H2 5614   4.838   3.733   1.577
 1884TIP3   OH2 5615   3.484   2.888   5.517
 1884TIP3    H1 5616   3.460   2.980   5.517
 1884TIP3    H2 5617   3.406   2.844   5.481
 1885TIP3   OH2 5618   2.849   5.271   3.958
 1885TIP3    H1 5619   2.805   5.312   3.883
 1885TIP3    H2 5620   2.853   5.178   3.935
 1886TIP3   OH2 5621   6.010   4.455   3.700
 1886TIP3    H1 5622   5.983   4.543   3.672
 1886TIP3    H2 5623   5.949   4.432   3.770
 1887TIP3   OH2 5624   5.379   1.505   0.556
 1887TIP3    H1 5625   5.357   1.414   0.576
 1887TIP3    H2 5626   5.375   1.550   0.641
 1888TIP3   OH2 5627   3.101   3.412   4.078
 1888TIP3    H1 5628   3.059   3.415   3.992
 1888TIP3    H2 5629   3.031   3.382   4.137
 1889TIP3   OH2 5630   5.468   1.743   3.272
 1889TIP3    H1 5631   5.546   1.718   3.223
 1889TIP3    H2 5632   5.423   1.661   3.289
 1890TIP3   OH2 5633   4.471   5.574   2.219
 1890TIP3    H1 5634   4.550   5.520   2.222
 1890TIP3    H2 5635   4.427   5.556   2.302
 1891TIP3   OH2 5636   3.114   6.660   1.053
 1891TIP3    H1 5637   3.048   6.702   1.107
 1891TIP3    H2 5638   3.079   6.572   1.036
 1892TIP3   OH2 5639   4.641   6.186   5.434
 1892TIP3    H1 5640   4.677   6.211   5.519
 1892TIP3    H2 5641   4.647   6.090   5.432
 1893TIP3   OH2 5642   3.721   0.744   1.031
 1893TIP3    H1 5643   3.670   0.812   1.075
 1893TIP3    H2 5644   3.661   0.708   0.966
 1894TIP3   OH2 5645   0.484   2.937   2.573
 1894TIP3    H1 5646   0.545   3.004   2.603
 1894TIP3    H2 5647   0.537   2.879   2.517
 1895TIP3   OH2 5648   0.370   3.538   4.029
 1895TIP3    H1 5649   0.315   3.476   4.076
 1895TIP3    H2 5650   0.453   3.493   4.018
 1896TIP3   OH2 5651   4.123   5.628   1.423
 1896TIP3    H1 5652   4.147   5.546   1.467
 1896TIP3    H2 5653   4.156   5.618   1.334
 1897TIP3   OH2 5654   6.196   3.787   5.046
 1897TIP3    H1 5655   6.284   3.809   5.076
 1897TIP3    H2 5656   6.197   3.691   5.038
 1898TIP3   OH2 5657   1.412   6.445   5.624
 1898TIP3    H1 5658   1.394   6.355   5.596
 1898TIP3    H2 5659   1.495   6.440   5.671
 1899TIP3   OH2 5660   4.483   1.177   5.577
 1899TIP3    H1 5661   4.471   1.270   5.558
 1899TIP3    H2 5662   4.415   1.157   5.641
 1900TIP3   OH2 5663   5.179   4.577   5.386
 1900TIP3    H1 5664   5.114   4.545   5.323
 1900TIP3    H2 5665   5.185   4.508   5.452
 1901TIP3   OH2 5666   2.622   2.377   3.608
 1901TIP3    H1 5667   2.710   2.409   3.587
 1901TIP3    H2 5668   2.592   2.435   3.678
 1902TIP3   OH2 5669   3.354   1.424   1.440
 1902TIP3    H1 5670   3.416   1.351   1.434
 1902TIP3    H2 5671   3.408   1.502   1.440
 1903TIP3   OH2 5672   0.507   1.663   0.923
 1903TIP3    H1 5673   0.491   1.725   0.852
 1903TIP3    H2 5674   0.602   1.661   0.932
 1904TIP3   OH2 5675   0.176   5.346   1.164
 1904TIP3    H1 5676   0.162   5.254   1.145
 1904TIP3    H2 5677   0.215   5.347   1.251
 1905TIP3   OH2 5678   5.673   5.022   3.431
 1905TIP3    H1 5679   5.671   4.947   3.372
 1905TIP3    H2 5680   5.582   5.039   3.453
 1906TIP3   OH2 5681   1.509   2.732   1.768
 1906TIP3    H1 5682   1.590   2.731   1.820
 1906TIP3    H2 5683   1.540   2.734   1.677
 1907TIP3   OH2 5684   5.881   1.617   3.917
 1907TIP3    H1 5685   5.927   1.549   3.867
 1907TIP3    H2 5686   5.909   1.699   3.878
 1908TIP3   OH2 5687   6.961   2.797   2.246
 1908TIP3    H1 5688   6.915   2.733   2.300
 1908TIP3    H2 5689   6.902   2.815   2.173
 1909TIP3   OH2 5690   6.758   6.099   2.985
 1909TIP3    H1 5691   6.765   6.179   2.933
 1909TIP3    H2 5692   6.833   6.046   2.958
 1910TIP3   OH2 5693   1.166   6.435   2.084
 1910TIP3    H1 5694   1.236   6.496   2.061
 1910TIP3    H2 5695   1.095   6.455   2.023
 1911TIP3   OH2 5696   6.448   0.846   2.585
 1911TIP3    H1 5697   6.465   0.822   2.494
 1911TIP3    H2 5698   6.418   0.937   2.581
 1912TIP3   OH2 5699   7.014   5.040   5.344
 1912TIP3    H1 5700   7.103   5.027   5.379
 1912TIP3    H2 5701   7.017   5.003   5.256
 1913TIP3   OH2 5702   5.528   4.227   4.850
 1913TIP3    H1 5703   5.561   4.216   4.761
 1913TIP3    H2 5704   5.455   4.288   4.841
 1914TIP3   OH2 5705   0.687   6.719   5.801
 1914TIP3    H1 5706   0.769   6.698   5.756
 1914TIP3    H2 5707   0.691   6.814   5.813
 1915TIP3   OH2 5708   6.093   1.633   3.567
 1915TIP3    H1 5709   6.060   1.615   3.479
 1915TIP3    H2 5710   6.108   1.547   3.604
 1916TIP3   OH2 5711   1.309   5.731   2.350
 1916TIP3    H1 5712   1.260   5.764   2.425
 1916TIP3    H2 5713   1.249   5.669   2.308
 1917TIP3   OH2 5714   1.723   4.850   2.775
 1917TIP3    H1 5715   1.684   4.848   2.862
 1917TIP3    H2 5716   1.679   4.780   2.727
 1918TIP3   OH2 5717   5.289   3.246   3.424
 1918TIP3    H1 5718   5.204   3.243   3.468
 1918TIP3    H2 5719   5.272   3.295   3.343
 1919TIP3   OH2 5720   1.744   3.770   1.381
 1919TIP3    H1 5721   1.763   3.724   1.464
 1919TIP3    H2 5722   1.662   3.816   1.397
 1920TIP3   OH2 5723   1.415   3.012   3.523
 1920TIP3    H1 5724   1.358   2.990   3.450
 1920TIP3    H2 5725   1.374   3.090   3.562
 1921TIP3   OH2 5726   1.966   0.844   5.439
 1921TIP3    H1 5727   1.920   0.807   5.364
 1921TIP3    H2 5728   1.928   0.931   5.450
 1922TIP3   OH2 5729   2.487   4.846   0.271
 1922TIP3    H1 5730   2.497   4.941   0.263
 1922TIP3    H2 5731   2.426   4.835   0.344
 1923TIP3   OH2 5732   6.713   4.497   3.591
 1923TIP3    H1 5733   6.668   4.501   3.675
 1923TIP3    H2 5734   6.665   4.432   3.540
 1924TIP3   OH2 5735   6.087   1.815   0.271
 1924TIP3    H1 5736   6.130   1.836   0.353
 1924TIP3    H2 5737   6.003   1.778   0.296
 1925TIP3   OH2 5738   2.584   0.998   3.411
 1925TIP3    H1 5739   2.675   0.992   3.441
 1925TIP3    H2 5740   2.532   0.965   3.485
 1926TIP3   OH2 5741   6.597   5.679   2.515
 1926TIP3    H1 5742   6.646   5.660   2.434
 1926TIP3    H2 5743   6.514   5.633   2.504
 1927TIP3   OH2 5744   4.109   6.621   3.531
 1927TIP3    H1 5745   4.116   6.568   3.452
 1927TIP3    H2 5746   4.169   6.694   3.517
 1928TIP3   OH2 5747   2.174   6.381   3.170
 1928TIP3    H1 5748   2.090   6.426   3.163
 1928TIP3    H2 5749   2.172   6.339   3.256
 1929TIP3   OH2 5750   0.747   5.750   1.123
 1929TIP3    H1 5751   0.788   5.690   1.184
 1929TIP3    H2 5752   0.657   5.759   1.154
 1930TIP3   OH2 5753   4.623   2.962   3.947
 1930TIP3    H1 5754   4.681   2.930   3.879
 1930TIP3    H2 5755   4.639   3.056   3.951
 1931TIP3   OH2 5756   5.484   3.179   1.794
 1931TIP3    H1 5757   5.500   3.087   1.815
 1931TIP3    H2 5758   5.557   3.225   1.835
 1932TIP3   OH2 5759   5.151   5.330   1.832
 1932TIP3    H1 5760   5.073   5.276   1.819
 1932TIP3    H2 5761   5.118   5.412   1.869
 1933TIP3   OH2 5762   0.949   5.293   3.439
 1933TIP3    H1 5763   0.895   5.278   3.361
 1933TIP3    H2 5764   1.034   5.320   3.404
 1934TIP3   OH2 5765   3.966   2.817   1.602
 1934TIP3    H1 5766   4.029   2.845   1.536
 1934TIP3    H2 5767   3.969   2.886   1.668
 1935TIP3   OH2 5768   0.039   5.970   1.634
 1935TIP3    H1 5769   0.028   6.059   1.601
 1935TIP3    H2 5770   0.036   5.915   1.556
 1936TIP3   OH2 5771   0.064   5.738   2.172
 1936TIP3    H1 5772   0.054   5.749   2.077
 1936TIP3    H2 5773  -0.025   5.735   2.205
 1937TIP3   OH2 5774   0.886   6.674   3.537
 1937TIP3    H1 5775   0.927   6.599   3.493
 1937TIP3    H2 5776   0.818   6.635   3.592
 1938TIP3   OH2 5777   3.930   6.108   1.363
 1938TIP3    H1 5778   3.892   6.031   1.320
 1938TIP3    H2 5779   3.865   6.135   1.428
 1939TIP3   OH2 5780   0.720   0.075   2.302
 1939TIP3    H1 5781   0.779   0.085   2.227
 1939TIP3    H2 5782   0.770   0.021   2.364
 1940TIP3   OH2 5783   5.550   4.339   1.584
 1940TIP3    H1 5784   5.625   4.309   1.635
 1940TIP3    H2 5785   5.475   4.322   1.640
 1941TIP3   OH2 5786   2.148   5.373   3.041
 1941TIP3    H1 5787   2.069   5.335   3.003
 1941TIP3    H2 5788   2.211   5.376   2.969
 1942TIP3   OH2 5789   1.957   4.663   5.813
 1942TIP3    H1 5790   2.038   4.650   5.861
 1942TIP3    H2 5791   1.906   4.723   5.867
 1943TIP3   OH2 5792   1.853   3.797   2.830
 1943TIP3    H1 5793   1.867   3.849   2.751
 1943TIP3    H2 5794   1.808   3.718   2.799
 1944TIP3   OH2 5795   1.683   3.683   0.646
 1944TIP3    H1 5796   1.706   3.775   0.665
 1944TIP3    H2 5797   1.720   3.666   0.560
 1945TIP3   OH2 5798   0.294   4.354   1.811
 1945TIP3    H1 5799   0.339   4.274   1.838
 1945TIP3    H2 5800   0.204   4.327   1.793
 1946TIP3   OH2 5801   0.040   5.016   0.678
 1946TIP3    H1 5802   0.026   5.080   0.608
 1946TIP3    H2 5803  -0.022   5.042   0.747
 1947TIP3   OH2 5804   1.024   1.425   2.620
 1947TIP3    H1 5805   1.027   1.520   2.617
 1947TIP3    H2 5806   0.932   1.403   2.604
 1948TIP3   OH2 5807   4.202   5.746   4.291
 1948TIP3    H1 5808   4.289   5.714   4.316
 1948TIP3    H2 5809   4.214   5.788   4.206
 1949TIP3   OH2 5810   3.179   2.869   0.680
 1949TIP3    H1 5811   3.169   2.942   0.741
 1949TIP3    H2 5812   3.268   2.836   0.698
 1950TIP3   OH2 5813  -0.084   0.372   3.464
 1950TIP3    H1 5814   0.006   0.391   3.491
 1950TIP3    H2 5815  -0.076   0.346   3.372
 1951TIP3   OH2 5816   3.968   3.751   4.697
 1951TIP3    H1 5817   3.986   3.660   4.672
 1951TIP3    H2 5818   3.902   3.745   4.766
 1952TIP3   OH2 5819   5.802   2.078   2.485
 1952TIP3    H1 5820   5.841   2.072   2.398
 1952TIP3    H2 5821   5.812   2.170   2.510
 1953TIP3   OH2 5822   4.418   3.503   1.244
 1953TIP3    H1 5823   4.366   3.542   1.173
 1953TIP3    H2 5824   4.501   3.479   1.202
 1954TIP3   OH2 5825   6.725   4.407   4.528
 1954TIP3    H1 5826   6.770   4.468   4.587
 1954TIP3    H2 5827   6.638   4.445   4.516
 1955TIP3   OH2 5828   0.592   2.602   2.847
 1955TIP3    H1 5829   0.528   2.534   2.865
 1955TIP3    H2 5830   0.656   2.561   2.789
 1956TIP3   OH2 5831   2.997   2.634   1.393
 1956TIP3    H1 5832   2.972   2.541   1.395
 1956TIP3    H2 5833   3.091   2.633   1.374
 1957TIP3   OH2 5834   4.512   4.431   1.836
 1957TIP3    H1 5835   4.545   4.511   1.875
 1957TIP3    H2 5836   4.464   4.460   1.759
 1958TIP3   OH2 5837   4.298   0.426   1.208
 1958TIP3    H1 5838   4.310   0.508   1.160
 1958TIP3    H2 5839   4.354   0.434   1.285
 1959TIP3   OH2 5840   4.585   5.020   2.932
 1959TIP3    H1 5841   4.562   5.010   2.839
 1959TIP3    H2 5842   4.646   4.948   2.948
 1960TIP3   OH2 5843   2.056   5.678   3.987
 1960TIP3    H1 5844   2.104   5.734   4.047
 1960TIP3    H2 5845   2.008   5.739   3.930
 1961TIP3   OH2 5846   4.697   1.187   2.003
 1961TIP3    H1 5847   4.648   1.234   1.935
 1961TIP3    H2 5848   4.638   1.120   2.034
 1962TIP3   OH2 5849   5.912   5.992   1.683
 1962TIP3    H1 5850   5.840   5.933   1.661
 1962TIP3    H2 5851   5.946   5.960   1.766
 1963TIP3   OH2 5852   4.619   0.049   0.415
 1963TIP3    H1 5853   4.691   0.012   0.362
 1963TIP3    H2 5854   4.628   0.144   0.404
 1964TIP3   OH2 5855   3.079   0.145   3.227
 1964TIP3    H1 5856   3.098   0.063   3.273
 1964TIP3    H2 5857   3.130   0.211   3.273
 1965TIP3   OH2 5858   1.631   4.081   5.476
 1965TIP3    H1 5859   1.651   3.995   5.512
 1965TIP3    H2 5860   1.552   4.109   5.522
 1966TIP3   OH2 5861   0.550   1.115   0.061
 1966TIP3    H1 5862   0.539   1.208   0.041
 1966TIP3    H2 5863   0.636   1.093   0.025
 1967TIP3   OH2 5864   1.251   5.007   4.527
 1967TIP3    H1 5865   1.188   5.076   4.549
 1967TIP3    H2 5866   1.327   5.054   4.492
 1968TIP3   OH2 5867  -0.002   5.702   0.473
 1968TIP3    H1 5868   0.017   5.720   0.381
 1968TIP3    H2 5869  -0.097   5.699   0.479
 1969TIP3   OH2 5870   1.716   5.270   2.706
 1969TIP3    H1 5871   1.764   5.316   2.638
 1969TIP3    H2 5872   1.680   5.193   2.662
 1970TIP3   OH2 5873   3.686   1.295   4.402
 1970TIP3    H1 5874   3.644   1.349   4.469
 1970TIP3    H2 5875   3.616   1.236   4.372
 1971TIP3   OH2 5876   4.396   3.711   0.200
 1971TIP3    H1 5877   4.437   3.767   0.266
 1971TIP3    H2 5878   4.358   3.638   0.250
 1972TIP3   OH2 5879   5.393   5.247   0.240
 1972TIP3    H1 5880   5.349   5.180   0.293
 1972TIP3    H2 5881   5.441   5.198   0.174
 1973TIP3   OH2 5882   2.708   1.535   1.666
 1973TIP3    H1 5883   2.735   1.500   1.751
 1973TIP3    H2 5884   2.781   1.589   1.638
 1974TIP3   OH2 5885   6.527   6.595   5.023
 1974TIP3    H1 5886   6.524   6.690   5.013
 1974TIP3    H2 5887   6.620   6.573   5.020
 1975TIP3   OH2 5888   3.597   3.612   4.438
 1975TIP3    H1 5889   3.559   3.552   4.502
 1975TIP3    H2 5890   3.669   3.563   4.399
 1976TIP3   OH2 5891   1.291   1.162   4.977
 1976TIP3    H1 5892   1.320   1.072   4.995
 1976TIP3    H2 5893   1.353   1.196   4.914
 1977TIP3   OH2 5894   1.384   1.551   5.684
 1977TIP3    H1 5895   1.398   1.464   5.721
 1977TIP3    H2 5896   1.378   1.609   5.760
 1978TIP3   OH2 5897   4.458   6.101   4.769
 1978TIP3    H1 5898   4.413   6.185   4.762
 1978TIP3    H2 5899   4.456   6.081   4.863
 1979TIP3   OH2 5900   4.524   5.967   0.162
 1979TIP3    H1 5901   4.585   5.975   0.235
 1979TIP3    H2 5902   4.499   5.874   0.163
 1980TIP3   OH2 5903   3.440   2.564   0.576
 1980TIP3    H1 5904   3.524   2.524   0.600
 1980TIP3    H2 5905   3.464   2.643   0.528
 1981TIP3   OH2 5906   0.100   5.190   3.070
 1981TIP3    H1 5907   0.170   5.210   3.131
 1981TIP3    H2 5908   0.048   5.123   3.113
 1982TIP3   OH2 5909   7.090   6.802   4.543
 1982TIP3    H1 5910   7.035   6.726   4.526
 1982TIP3    H2 5911   7.066   6.830   4.632
 1983TIP3   OH2 5912   3.234   1.951   1.274
 1983TIP3    H1 5913   3.153   2.002   1.267
 1983TIP3    H2 5914   3.279   1.966   1.190
 1984TIP3   OH2 5915   5.562   4.940   2.366
 1984TIP3    H1 5916   5.539   4.849   2.347
 1984TIP3    H2 5917   5.599   4.973   2.284
 1985TIP3   OH2 5918   3.818   2.244   5.639
 1985TIP3    H1 5919   3.739   2.283   5.674
 1985TIP3    H2 5920   3.871   2.318   5.609
 1986TIP3   OH2 5921   1.967   4.353   3.837
 1986TIP3    H1 5922   1.998   4.290   3.773
 1986TIP3    H2 5923   1.967   4.305   3.920
 1987TIP3   OH2 5924   0.496   3.513   4.343
 1987TIP3    H1 5925   0.461   3.438   4.294
 1987TIP3    H2 5926   0.433   3.583   4.325
 1988TIP3   OH2 5927   0.781   4.109   1.065
 1988TIP3    H1 5928   0.871   4.143   1.056
 1988TIP3    H2 5929   0.780   4.066   1.150
 1989TIP3   OH2 5930   5.394   3.327   4.098
 1989TIP3    H1 5931   5.355   3.272   4.030
 1989TIP3    H2 5932   5.486   3.302   4.099
 1990TIP3   OH2 5933   5.106   2.890   5.008
 1990TIP3    H1 5934   5.107   2.858   4.918
 1990TIP3    H2 5935   5.015   2.917   5.023
 1991TIP3   OH2 5936   5.251   4.531   3.132
 1991TIP3    H1 5937   5.247   4.510   3.039
 1991TIP3    H2 5938   5.204   4.614   3.140
 1992TIP3   OH2 5939   6.113   1.481   1.768
 1992TIP3    H1 5940   6.088   1.562   1.725
 1992TIP3    H2 5941   6.033   1.451   1.812
 1993TIP3   OH2 5942   0.226   2.979   0.457
 1993TIP3    H1 5943   0.292   3.034   0.415
 1993TIP3    H2 5944   0.276   2.920   0.513
 1994TIP3   OH2 5945   5.822   6.025   3.763
 1994TIP3    H1 5946   5.915   6.002   3.766
 1994TIP3    H2 5947   5.816   6.090   3.693
 1995TIP3   OH2 5948   6.356   1.100   0.394
 1995TIP3    H1 5949   6.281   1.042   0.378
 1995TIP3    H2 5950   6.398   1.109   0.308
 1996TIP3   OH2 5951   7.054   5.496   3.735
 1996TIP3    H1 5952   7.042   5.434   3.806
 1996TIP3    H2 5953   7.100   5.446   3.667
 1997TIP3   OH2 5954   5.543   4.040   3.186
 1997TIP3    H1 5955   5.560   4.089   3.106
 1997TIP3    H2 5956   5.594   3.959   3.177
 1998TIP3   OH2 5957   3.917   6.088   2.596
 1998TIP3    H1 5958   3.946   6.128   2.678
 1998TIP3    H2 5959   3.838   6.137   2.572
 1999TIP3   OH2 5960   5.394   5.458   3.864
 1999TIP3    H1 5961   5.459   5.432   3.930
 1999TIP3    H2 5962   5.356   5.539   3.898
 2000TIP3   OH2 5963   5.569   1.003   0.501
 2000TIP3    H1 5964   5.638   0.937   0.492
 2000TIP3    H2 5965   5.567   1.022   0.595
 2001TIP3   OH2 5966   0.680   1.235   1.824
 2001TIP3    H1 5967   0.678   1.209   1.732
 2001TIP3    H2 5968   0.686   1.331   1.821
 2002TIP3   OH2 5969   2.212   3.973   2.357
 2002TIP3    H1 5970   2.264   4.036   2.407
 2002TIP3    H2 5971   2.151   3.936   2.421
 2003TIP3   OH2 5972   4.428   5.846   1.331
 2003TIP3    H1 5973   4.380   5.926   1.357
 2003TIP3    H2 5974   4.383   5.816   1.252
 2004TIP3   OH2 5975   0.957   0.950   2.538
 2004TIP3    H1 5976   0.892   0.950   2.468
 2004TIP3    H2 5977   0.927   1.016   2.600
 2005TIP3   OH2 5978   0.515   0.940   2.916
 2005TIP3    H1 5979   0.585   0.877   2.900
 2005TIP3    H2 5980   0.479   0.960   2.830
 2006TIP3   OH2 5981   0.204   0.286   3.764
 2006TIP3    H1 5982   0.254   0.206   3.780
 2006TIP3    H2 5983   0.267   0.345   3.721
 2007TIP3   OH2 5984   5.503   0.711   4.678
 2007TIP3    H1 5985   5.576   0.773   4.677
 2007TIP3    H2 5986   5.545   0.625   4.685
 2008TIP3   OH2 5987   7.253   1.743   4.368
 2008TIP3    H1 5988   7.207   1.827   4.363
 2008TIP3    H2 5989   7.237   1.702   4.283
 2009TIP3   OH2 5990   2.156   2.235   5.135
 2009TIP3    H1 5991   2.188   2.285   5.059
 2009TIP3    H2 5992   2.184   2.286   5.210
 2010TIP3   OH2 5993   0.826   3.658   3.197
 2010TIP3    H1 5994   0.881   3.714   3.252
 2010TIP3    H2 5995   0.791   3.592   3.256
 2011TIP3   OH2 5996   0.620   6.613   0.295
 2011TIP3    H1 5997   0.564   6.562   0.353
 2011TIP3    H2 5998   0.686   6.551   0.265
 2012TIP3   OH2 5999   1.848   1.345   0.970
 2012TIP3    H1 6000   1.869   1.264   1.017
 2012TIP3    H2 6001   1.752   1.348   0.969
 2013TIP3   OH2 6002   1.954   3.979   1.095
 2013TIP3    H1 6003   2.040   3.979   1.138
 2013TIP3    H2 6004   1.935   3.886   1.079
 2014TIP3   OH2 6005   2.027   0.662   1.899
 2014TIP3    H1 6006   1.962   0.705   1.844
 2014TIP3    H2 6007   2.026   0.571   1.871
 2015TIP3   OH2 6008   6.519   1.601   0.084
 2015TIP3    H1 6009   6.497   1.592  -0.009
 2015TIP3    H2 6010   6.469   1.677   0.113
 2016TIP3   OH2 6011   2.225   6.067   1.354
 2016TIP3    H1 6012   2.287   6.135   1.329
 2016TIP3    H2 6013   2.144   6.114   1.373
 2017TIP3   OH2 6014   7.111   4.004   4.468
 2017TIP3    H1 6015   7.080   3.964   4.549
 2017TIP3    H2 6016   7.042   4.067   4.445
 2018TIP3   OH2 6017   4.138   3.190   4.849
 2018TIP3    H1 6018   4.062   3.222   4.801
 2018TIP3    H2 6019   4.114   3.196   4.941
 2019TIP3   OH2 6020   5.129   2.268   4.276
 2019TIP3    H1 6021   5.161   2.309   4.195
 2019TIP3    H2 6022   5.095   2.342   4.328
 2020TIP3   OH2 6023   3.311   0.455   2.114
 2020TIP3    H1 6024   3.283   0.380   2.166
 2020TIP3    H2 6025   3.361   0.509   2.175
 2021TIP3   OH2 6026   4.907   1.783   0.464
 2021TIP3    H1 6027   4.833   1.841   0.480
 2021TIP3    H2 6028   4.967   1.835   0.410
 2022TIP3   OH2 6029   6.270   1.635   1.439
 2022TIP3    H1 6030   6.282   1.566   1.504
 2022TIP3    H2 6031   6.244   1.588   1.359
 2023TIP3   OH2 6032   6.482   0.347   4.350
 2023TIP3    H1 6033   6.505   0.324   4.260
 2023TIP3    H2 6034   6.565   0.374   4.390
 2024TIP3   OH2 6035   0.740   2.344   5.759
 2024TIP3    H1 6036   0.776   2.310   5.677
 2024TIP3    H2 6037   0.691   2.271   5.796
 2025TIP3   OH2 6038   2.762   1.081   4.994
 2025TIP3    H1 6039   2.691   1.027   4.960
 2025TIP3    H2 6040   2.815   1.022   5.046
 2026TIP3   OH2 6041   1.656   6.384   4.615
 2026TIP3    H1 6042   1.647   6.476   4.590
 2026TIP3    H2 6043   1.693   6.342   4.538
 2027TIP3   OH2 6044   4.703   1.529   4.405
 2027TIP3    H1 6045   4.708   1.473   4.483
 2027TIP3    H2 6046   4.628   1.586   4.422
 2028TIP3   OH2 6047   3.961   4.044   3.859
 2028TIP3    H1 6048   4.035   4.013   3.911
 2028TIP3    H2 6049   3.999   4.065   3.774
 2029TIP3   OH2 6050   2.313   4.883   0.487
 2029TIP3    H1 6051   2.329   4.831   0.565
 2029TIP3    H2 6052   2.314   4.974   0.517
 2030TIP3   OH2 6053   6.831   1.473   0.834
 2030TIP3    H1 6054   6.812   1.550   0.781
 2030TIP3    H2 6055   6.786   1.401   0.789
 2031TIP3   OH2 6056   6.070   4.668   5.461
 2031TIP3    H1 6057   5.987   4.622   5.472
 2031TIP3    H2 6058   6.129   4.629   5.525
 2032TIP3   OH2 6059   2.285   6.334   5.067
 2032TIP3    H1 6060   2.267   6.424   5.038
 2032TIP3    H2 6061   2.368   6.341   5.115
 2033TIP3   OH2 6062   6.454   4.347   1.619
 2033TIP3    H1 6063   6.424   4.340   1.710
 2033TIP3    H2 6064   6.510   4.271   1.607
 2034TIP3   OH2 6065   5.415   3.512   0.213
 2034TIP3    H1 6066   5.456   3.561   0.142
 2034TIP3    H2 6067   5.364   3.577   0.261
 2035TIP3   OH2 6068   4.363   0.420   5.864
 2035TIP3    H1 6069   4.403   0.417   5.777
 2035TIP3    H2 6070   4.371   0.330   5.897
 2036TIP3   OH2 6071   4.963   6.527   5.008
 2036TIP3    H1 6072   4.951   6.442   5.051
 2036TIP3    H2 6073   5.029   6.511   4.941
 2037TIP3   OH2 6074   2.611   6.021   5.487
 2037TIP3    H1 6075   2.619   5.939   5.534
 2037TIP3    H2 6076   2.536   6.065   5.527
 2038TIP3   OH2 6077   0.313   4.956   1.659
 2038TIP3    H1 6078   0.270   4.971   1.743
 2038TIP3    H2 6079   0.350   5.042   1.636
 2039TIP3   OH2 6080   5.026   0.402   3.385
 2039TIP3    H1 6081   4.969   0.331   3.355
 2039TIP3    H2 6082   4.966   0.473   3.409
 2040TIP3   OH2 6083   1.204   5.215   1.207
 2040TIP3    H1 6084   1.190   5.310   1.212
 2040TIP3    H2 6085   1.236   5.191   1.294
 2041TIP3   OH2 6086   3.738   2.791   4.753
 2041TIP3    H1 6087   3.650   2.757   4.742
 2041TIP3    H2 6088   3.793   2.714   4.767
 2042TIP3   OH2 6089   3.930   5.632   5.268
 2042TIP3    H1 6090   3.835   5.640   5.268
 2042TIP3    H2 6091   3.951   5.597   5.181
 2043TIP3   OH2 6092   0.793   5.553   0.438
 2043TIP3    H1 6093   0.803   5.607   0.516
 2043TIP3    H2 6094   0.706   5.513   0.446
 2044TIP3   OH2 6095   6.428   5.622   2.893
 2044TIP3    H1 6096   6.467   5.701   2.932
 2044TIP3    H2 6097   6.382   5.655   2.815
 2045TIP3   OH2 6098   2.919   0.947   1.096
 2045TIP3    H1 6099   3.006   0.907   1.104
 2045TIP3    H2 6100   2.911   0.969   1.004
 2046TIP3   OH2 6101   3.102   2.147   5.030
 2046TIP3    H1 6102   3.044   2.224   5.027
 2046TIP3    H2 6103   3.072   2.092   4.958
 2047TIP3   OH2 6104   7.087   3.332   2.333
 2047TIP3    H1 6105   7.080   3.237   2.331
 2047TIP3    H2 6106   7.047   3.360   2.250
 2048TIP3   OH2 6107   3.158   4.736   1.942
 2048TIP3    H1 6108   3.134   4.695   1.859
 2048TIP3    H2 6109   3.252   4.719   1.952
 2049TIP3   OH2 6110   6.399   6.676   3.004
 2049TIP3    H1 6111   6.450   6.599   2.981
 2049TIP3    H2 6112   6.308   6.645   3.007
 2050TIP3   OH2 6113   6.611   2.133   3.268
 2050TIP3    H1 6114   6.602   2.077   3.345
 2050TIP3    H2 6115   6.562   2.088   3.199
 2051TIP3   OH2 6116   4.681   5.590   4.061
 2051TIP3    H1 6117   4.757   5.617   4.009
 2051TIP3    H2 6118   4.709   5.601   4.152
 2052TIP3   OH2 6119   6.194   3.648   4.631
 2052TIP3    H1 6120   6.150   3.646   4.546
 2052TIP3    H2 6121   6.185   3.559   4.665
 2053TIP3   OH2 6122   6.290   4.554   1.294
 2053TIP3    H1 6123   6.280   4.649   1.287
 2053TIP3    H2 6124   6.363   4.542   1.356
 2054TIP3   OH2 6125   3.797   3.274   1.789
 2054TIP3    H1 6126   3.754   3.347   1.833
 2054TIP3    H2 6127   3.740   3.198   1.805
 2055TIP3   OH2 6128   3.004   6.177   0.075
 2055TIP3    H1 6129   3.087   6.132   0.090
 2055TIP3    H2 6130   3.020   6.234   0.000
 2056TIP3   OH2 6131   4.126   4.986   2.427
 2056TIP3    H1 6132   4.063   4.956   2.362
 2056TIP3    H2 6133   4.210   4.984   2.381
 2057TIP3   OH2 6134   6.044   5.606   1.557
 2057TIP3    H1 6135   5.949   5.603   1.573
 2057TIP3    H2 6136   6.052   5.614   1.462
 2058TIP3   OH2 6137   3.566   6.532   4.224
 2058TIP3    H1 6138   3.642   6.588   4.242
 2058TIP3    H2 6139   3.591   6.484   4.145
 2059TIP3   OH2 6140   0.208   2.756   0.630
 2059TIP3    H1 6141   0.182   2.666   0.648
 2059TIP3    H2 6142   0.304   2.753   0.627
 2060TIP3   OH2 6143   6.214   1.354   3.640
 2060TIP3    H1 6144   6.309   1.349   3.645
 2060TIP3    H2 6145   6.188   1.277   3.590
 2061TIP3   OH2 6146   6.038   1.759   4.592
 2061TIP3    H1 6147   6.086   1.706   4.656
 2061TIP3    H2 6148   6.072   1.730   4.507
 2062TIP3   OH2 6149   6.934   1.855   4.715
 2062TIP3    H1 6150   6.942   1.819   4.803
 2062TIP3    H2 6151   6.928   1.779   4.657
 2063TIP3   OH2 6152   6.311   0.652   0.645
 2063TIP3    H1 6153   6.301   0.679   0.554
 2063TIP3    H2 6154   6.373   0.579   0.642
 2064TIP3   OH2 6155   3.782   3.929   0.040
 2064TIP3    H1 6156   3.805   3.847  -0.003
 2064TIP3    H2 6157   3.688   3.924   0.053
 2065TIP3   OH2 6158   6.154   6.392   2.666
 2065TIP3    H1 6159   6.196   6.466   2.623
 2065TIP3    H2 6160   6.147   6.418   2.758
 2066TIP3   OH2 6161   4.735   5.600   2.817
 2066TIP3    H1 6162   4.660   5.587   2.876
 2066TIP3    H2 6163   4.703   5.659   2.750
 2067TIP3   OH2 6164   6.087   2.174   5.716
 2067TIP3    H1 6165   6.162   2.118   5.696
 2067TIP3    H2 6166   6.067   2.156   5.808
 2068TIP3   OH2 6167   2.408   6.870   2.718
 2068TIP3    H1 6168   2.454   6.815   2.654
 2068TIP3    H2 6169   2.335   6.816   2.748
 2069TIP3   OH2 6170   0.677   2.133   4.037
 2069TIP3    H1 6171   0.641   2.080   3.965
 2069TIP3    H2 6172   0.611   2.201   4.051
 2070TIP3   OH2 6173   1.631   1.666   1.571
 2070TIP3    H1 6174   1.618   1.742   1.515
 2070TIP3    H2 6175   1.599   1.693   1.657
 2071TIP3   OH2 6176   6.467   1.304   2.929
 2071TIP3    H1 6177   6.476   1.339   3.018
 2071TIP3    H2 6178   6.511   1.219   2.933
 2072TIP3   OH2 6179   5.305   6.398   3.602
 2072TIP3    H1 6180   5.218   6.364   3.583
 2072TIP3    H2 6181   5.346   6.330   3.657
 2073TIP3   OH2 6182   1.139   1.323   0.579
 2073TIP3    H1 6183   1.113   1.416   0.581
 2073TIP3    H2 6184   1.108   1.291   0.494
 2074TIP3   OH2 6185   0.529   0.930   3.449
 2074TIP3    H1 6186   0.551   1.016   3.485
 2074TIP3    H2 6187   0.535   0.941   3.355
 2075TIP3   OH2 6188   1.944   0.443   1.136
 2075TIP3    H1 6189   1.930   0.398   1.053
 2075TIP3    H2 6190   1.868   0.500   1.146
 2076TIP3   OH2 6191   5.573   1.660   3.778
 2076TIP3    H1 6192   5.519   1.635   3.853
 2076TIP3    H2 6193   5.556   1.593   3.712
 2077TIP3   OH2 6194   6.729   2.446   0.054
 2077TIP3    H1 6195   6.720   2.404   0.139
 2077TIP3    H2 6196   6.709   2.377  -0.009
 2078TIP3   OH2 6197   2.302   5.893   4.808
 2078TIP3    H1 6198   2.317   5.983   4.839
 2078TIP3    H2 6199   2.379   5.875   4.753
 2079TIP3   OH2 6200   4.915   5.127   3.385
 2079TIP3    H1 6201   4.864   5.208   3.382
 2079TIP3    H2 6202   4.973   5.139   3.460
 2080TIP3   OH2 6203   7.159   0.217   2.925
 2080TIP3    H1 6204   7.216   0.221   3.002
 2080TIP3    H2 6205   7.114   0.301   2.924
 2081TIP3   OH2 6206   2.342   4.867   3.120
 2081TIP3    H1 6207   2.348   4.778   3.155
 2081TIP3    H2 6208   2.370   4.858   3.028
 2082TIP3   OH2 6209   2.171   4.144   4.841
 2082TIP3    H1 6210   2.220   4.217   4.804
 2082TIP3    H2 6211   2.155   4.169   4.932
 2083TIP3   OH2 6212   5.810   1.281   1.775
 2083TIP3    H1 6213   5.839   1.219   1.842
 2083TIP3    H2 6214   5.730   1.242   1.739
 2084TIP3   OH2 6215   0.298   5.934   0.159
 2084TIP3    H1 6216   0.359   6.006   0.143
 2084TIP3    H2 6217   0.297   5.924   0.254
 2085TIP3   OH2 6218   6.821   5.934   1.687
 2085TIP3    H1 6219   6.836   6.016   1.641
 2085TIP3    H2 6220   6.729   5.938   1.714
 2086TIP3   OH2 6221   2.380   0.475   5.656
 2086TIP3    H1 6222   2.307   0.473   5.595
 2086TIP3    H2 6223   2.340   0.481   5.743
 2087TIP3   OH2 6224   5.998   4.513   1.263
 2087TIP3    H1 6225   6.092   4.528   1.254
 2087TIP3    H2 6226   5.971   4.575   1.331
 2088TIP3   OH2 6227   3.253   2.249   3.484
 2088TIP3    H1 6228   3.300   2.316   3.533
 2088TIP3    H2 6229   3.300   2.168   3.503
 2089TIP3   OH2 6230   0.652   0.300   0.583
 2089TIP3    H1 6231   0.622   0.218   0.542
 2089TIP3    H2 6232   0.705   0.342   0.516
 2090TIP3   OH2 6233   3.944   4.974   1.116
 2090TIP3    H1 6234   4.036   4.970   1.092
 2090TIP3    H2 6235   3.900   4.915   1.054
 2091TIP3   OH2 6236   4.447   4.487   3.020
 2091TIP3    H1 6237   4.504   4.475   2.944
 2091TIP3    H2 6238   4.391   4.561   2.998
 2092TIP3   OH2 6239   4.820   2.276   0.315
 2092TIP3    H1 6240   4.792   2.205   0.257
 2092TIP3    H2 6241   4.741   2.328   0.328
 2093TIP3   OH2 6242   2.429   4.593   1.427
 2093TIP3    H1 6243   2.421   4.558   1.516
 2093TIP3    H2 6244   2.347   4.641   1.413
 2094TIP3   OH2 6245   1.700   4.242   2.977
 2094TIP3    H1 6246   1.650   4.160   2.979
 2094TIP3    H2 6247   1.727   4.251   2.885
 2095TIP3   OH2 6248   5.316   6.578   5.759
 2095TIP3    H1 6249   5.386   6.614   5.813
 2095TIP3    H2 6250   5.348   6.588   5.669
 2096TIP3   OH2 6251   5.103   2.378   0.231
 2096TIP3    H1 6252   5.016   2.338   0.224
 2096TIP3    H2 6253   5.114   2.424   0.148
 2097TIP3   OH2 6254   4.217   6.611   4.331
 2097TIP3    H1 6255   4.190   6.690   4.378
 2097TIP3    H2 6256   4.308   6.597   4.357
 2098TIP3   OH2 6257   2.569   5.268   1.733
 2098TIP3    H1 6258   2.647   5.245   1.683
 2098TIP3    H2 6259   2.524   5.333   1.680
 2099TIP3   OH2 6260   1.496   6.246   0.250
 2099TIP3    H1 6261   1.514   6.271   0.341
 2099TIP3    H2 6262   1.541   6.163   0.238
 2100TIP3   OH2 6263   4.416   0.686   1.126
 2100TIP3    H1 6264   4.409   0.739   1.205
 2100TIP3    H2 6265   4.477   0.735   1.070
 2101TIP3   OH2 6266   2.512   5.037   1.281
 2101TIP3    H1 6267   2.559   4.964   1.323
 2101TIP3    H2 6268   2.470   4.998   1.204
 2102TIP3   OH2 6269   2.692   2.594   1.461
 2102TIP3    H1 6270   2.674   2.522   1.399
 2102TIP3    H2 6271   2.786   2.609   1.453
 2103TIP3   OH2 6272   5.158   1.281   0.762
 2103TIP3    H1 6273   5.077   1.332   0.752
 2103TIP3    H2 6274   5.136   1.214   0.827
 2104TIP3   OH2 6275   4.948   2.635   0.166
 2104TIP3    H1 6276   5.018   2.603   0.110
 2104TIP3    H2 6277   4.992   2.686   0.233
 2105TIP3   OH2 6278   0.087   6.268   1.790
 2105TIP3    H1 6279  -0.006   6.290   1.798
 2105TIP3    H2 6280   0.098   6.191   1.845
 2106TIP3   OH2 6281   0.781   1.104   3.712
 2106TIP3    H1 6282   0.792   1.064   3.798
 2106TIP3    H2 6283   0.793   1.197   3.727
 2107TIP3   OH2 6284   0.568   4.404   3.717
 2107TIP3    H1 6285   0.505   4.422   3.786
 2107TIP3    H2 6286   0.650   4.443   3.748
 2108TIP3   OH2 6287   2.855   3.729   1.210
 2108TIP3    H1 6288   2.928   3.773   1.167
 2108TIP3    H2 6289   2.781   3.744   1.152
 2109TIP3   OH2 6290   3.016   2.930   5.803
 2109TIP3    H1 6291   2.944   2.870   5.782
 2109TIP3    H2 6292   3.082   2.873   5.843
 2110TIP3   OH2 6293   3.824   2.491   5.422
 2110TIP3    H1 6294   3.773   2.421   5.381
 2110TIP3    H2 6295   3.766   2.567   5.421
 2111TIP3   OH2 6296   3.416   2.794   0.768
 2111TIP3    H1 6297   3.410   2.723   0.832
 2111TIP3    H2 6298   3.507   2.824   0.774
 2112TIP3   OH2 6299   1.954   3.480   5.627
 2112TIP3    H1 6300   1.900   3.485   5.548
 2112TIP3    H2 6301   1.931   3.558   5.677
 2113TIP3   OH2 6302   1.103   4.732   1.073
 2113TIP3    H1 6303   1.022   4.782   1.068
 2113TIP3    H2 6304   1.104   4.697   1.162
 2114TIP3   OH2 6305   4.517   4.314   1.565
 2114TIP3    H1 6306   4.424   4.322   1.586
 2114TIP3    H2 6307   4.518   4.284   1.474
 2115TIP3   OH2 6308   1.232   2.180   0.892
 2115TIP3    H1 6309   1.216   2.253   0.952
 2115TIP3    H2 6310   1.189   2.105   0.933
 2116TIP3   OH2 6311   2.734   1.431   2.862
 2116TIP3    H1 6312   2.743   1.476   2.778
 2116TIP3    H2 6313   2.702   1.499   2.922
 2117TIP3   OH2 6314   3.875   5.214   5.784
 2117TIP3    H1 6315   3.798   5.261   5.753
 2117TIP3    H2 6316   3.908   5.268   5.856
 2118TIP3   OH2 6317   4.912   3.599   2.091
 2118TIP3    H1 6318   4.840   3.538   2.075
 2118TIP3    H2 6319   4.881   3.683   2.060
 2119TIP3   OH2 6320   2.757   2.037   2.879
 2119TIP3    H1 6321   2.772   2.130   2.898
 2119TIP3    H2 6322   2.678   2.015   2.928
 2120TIP3   OH2 6323   0.791   3.613   3.854
 2120TIP3    H1 6324   0.873   3.615   3.805
 2120TIP3    H2 6325   0.762   3.704   3.855
 2121TIP3   OH2 6326   2.121   2.313   0.926
 2121TIP3    H1 6327   2.160   2.360   1.000
 2121TIP3    H2 6328   2.031   2.346   0.921
 2122TIP3   OH2 6329   2.481   2.168   5.490
 2122TIP3    H1 6330   2.481   2.243   5.430
 2122TIP3    H2 6331   2.533   2.197   5.565
 2123TIP3   OH2 6332   6.843   1.403   5.745
 2123TIP3    H1 6333   6.804   1.388   5.831
 2123TIP3    H2 6334   6.810   1.488   5.718
 2124TIP3   OH2 6335   5.501   1.450   3.581
 2124TIP3    H1 6336   5.431   1.393   3.613
 2124TIP3    H2 6337   5.464   1.492   3.503
 2125TIP3   OH2 6338   4.319   0.870   3.763
 2125TIP3    H1 6339   4.391   0.808   3.773
 2125TIP3    H2 6340   4.272   0.866   3.847
 2126TIP3   OH2 6341   2.433   5.557   0.704
 2126TIP3    H1 6342   2.387   5.536   0.623
 2126TIP3    H2 6343   2.526   5.549   0.682
 2127TIP3   OH2 6344   3.581   3.526   1.164
 2127TIP3    H1 6345   3.626   3.610   1.165
 2127TIP3    H2 6346   3.631   3.471   1.225
 2128TIP3   OH2 6347   6.904   0.858   4.623
 2128TIP3    H1 6348   6.816   0.893   4.636
 2128TIP3    H2 6349   6.920   0.865   4.529
 2129TIP3   OH2 6350   2.438   5.798   3.957
 2129TIP3    H1 6351   2.528   5.781   3.928
 2129TIP3    H2 6352   2.448   5.830   4.046
 2130TIP3   OH2 6353   4.956   0.436   0.917
 2130TIP3    H1 6354   5.045   0.403   0.905
 2130TIP3    H2 6355   4.902   0.382   0.860
 2131TIP3   OH2 6356   2.946   0.361   2.321
 2131TIP3    H1 6357   2.946   0.432   2.258
 2131TIP3    H2 6358   2.924   0.403   2.404
 2132TIP3   OH2 6359   5.611   3.028   4.979
 2132TIP3    H1 6360   5.573   3.095   4.922
 2132TIP3    H2 6361   5.694   3.066   5.009
 2133TIP3   OH2 6362   2.995   1.781   5.492
 2133TIP3    H1 6363   3.023   1.857   5.542
 2133TIP3    H2 6364   3.022   1.800   5.402
 2134TIP3   OH2 6365   5.944   1.291   2.249
 2134TIP3    H1 6366   5.905   1.242   2.176
 2134TIP3    H2 6367   5.976   1.371   2.209
 2135TIP3   OH2 6368   0.283   3.241   0.888
 2135TIP3    H1 6369   0.344   3.302   0.928
 2135TIP3    H2 6370   0.332   3.159   0.882
 2136TIP3   OH2 6371   1.225   0.748   4.180
 2136TIP3    H1 6372   1.212   0.687   4.108
 2136TIP3    H2 6373   1.216   0.694   4.259
 2137TIP3   OH2 6374   1.000   6.180   5.032
 2137TIP3    H1 6375   0.970   6.137   5.112
 2137TIP3    H2 6376   0.962   6.268   5.037
 2138TIP3   OH2 6377   7.106   5.440   0.979
 2138TIP3    H1 6378   7.096   5.373   1.047
 2138TIP3    H2 6379   7.081   5.521   1.023
 2139TIP3   OH2 6380   5.694   3.916   1.095
 2139TIP3    H1 6381   5.707   3.867   1.014
 2139TIP3    H2 6382   5.699   4.008   1.069
 2140TIP3   OH2 6383   3.021   2.412   4.905
 2140TIP3    H1 6384   2.982   2.492   4.939
 2140TIP3    H2 6385   3.075   2.441   4.832
 2141TIP3   OH2 6386   6.098   6.615   0.988
 2141TIP3    H1 6387   6.149   6.683   0.944
 2141TIP3    H2 6388   6.160   6.544   1.002
 2142TIP3   OH2 6389   4.288   5.937   2.766
 2142TIP3    H1 6390   4.362   5.998   2.770
 2142TIP3    H2 6391   4.297   5.884   2.845
 2143TIP3   OH2 6392   2.192   3.601   0.355
 2143TIP3    H1 6393   2.165   3.689   0.380
 2143TIP3    H2 6394   2.285   3.609   0.336
 2144TIP3   OH2 6395   0.641   0.630   3.919
 2144TIP3    H1 6396   0.642   0.624   4.015
 2144TIP3    H2 6397   0.557   0.671   3.898
 2145TIP3   OH2 6398   3.080   6.706   5.653
 2145TIP3    H1 6399   3.140   6.721   5.580
 2145TIP3    H2 6400   3.132   6.658   5.717
 2146TIP3   OH2 6401   6.976   2.956   1.070
 2146TIP3    H1 6402   6.987   2.874   1.118
 2146TIP3    H2 6403   6.982   2.931   0.978
 2147TIP3   OH2 6404   3.427   0.658   4.161
 2147TIP3    H1 6405   3.362   0.591   4.139
 2147TIP3    H2 6406   3.493   0.611   4.211
 2148TIP3   OH2 6407   3.937   5.908   4.030
 2148TIP3    H1 6408   3.908   5.817   4.035
 2148TIP3    H2 6409   4.030   5.905   4.054
 2149TIP3   OH2 6410   1.140   6.524   5.786
 2149TIP3    H1 6411   1.092   6.447   5.818
 2149TIP3    H2 6412   1.164   6.501   5.696
 2150TIP3   OH2 6413   1.562   0.146   4.493
 2150TIP3    H1 6414   1.550   0.061   4.452
 2150TIP3    H2 6415   1.645   0.178   4.456
 2151TIP3   OH2 6416   4.779   3.321   5.774
 2151TIP3    H1 6417   4.827   3.247   5.738
 2151TIP3    H2 6418   4.798   3.393   5.714
 2152TIP3   OH2 6419   6.908   2.825   1.728
 2152TIP3    H1 6420   6.861   2.907   1.710
 2152TIP3    H2 6421   6.994   2.838   1.688
 2153TIP3   OH2 6422   3.386   4.317   3.254
 2153TIP3    H1 6423   3.366   4.400   3.298
 2153TIP3    H2 6424   3.376   4.337   3.160
 2154TIP3   OH2 6425   1.133   3.628   3.290
 2154TIP3    H1 6426   1.167   3.700   3.342
 2154TIP3    H2 6427   1.210   3.576   3.267
 2155TIP3   OH2 6428   4.303   5.229   0.174
 2155TIP3    H1 6429   4.340   5.311   0.142
 2155TIP3    H2 6430   4.365   5.162   0.147
 2156TIP3   OH2 6431   2.696   0.265   4.882
 2156TIP3    H1 6432   2.700   0.195   4.947
 2156TIP3    H2 6433   2.761   0.240   4.817
 2157TIP3   OH2 6434   2.549   1.253   4.487
 2157TIP3    H1 6435   2.469   1.212   4.454
 2157TIP3    H2 6436   2.616   1.186   4.475
 2158TIP3   OH2 6437   5.271   5.510   3.058
 2158TIP3    H1 6438   5.289   5.596   3.096
 2158TIP3    H2 6439   5.224   5.463   3.126
 2159TIP3   OH2 6440   0.842   5.526   1.781
 2159TIP3    H1 6441   0.793   5.542   1.862
 2159TIP3    H2 6442   0.776   5.535   1.712
 2160TIP3   OH2 6443   3.135   1.984   3.183
 2160TIP3    H1 6444   3.151   1.934   3.264
 2160TIP3    H2 6445   3.208   2.046   3.179
 2161TIP3   OH2 6446   1.573   0.409   2.411
 2161TIP3    H1 6447   1.619   0.442   2.488
 2161TIP3    H2 6448   1.637   0.352   2.368
 2162TIP3   OH2 6449   2.443   3.214   0.057
 2162TIP3    H1 6450   2.442   3.247  -0.033
 2162TIP3    H2 6451   2.447   3.119   0.047
 2163TIP3   OH2 6452   5.949   2.759   4.475
 2163TIP3    H1 6453   5.917   2.819   4.542
 2163TIP3    H2 6454   6.022   2.805   4.434
 2164TIP3   OH2 6455   5.853   5.386   0.845
 2164TIP3    H1 6456   5.826   5.368   0.935
 2164TIP3    H2 6457   5.842   5.303   0.799
 2165TIP3   OH2 6458   1.299   5.524   5.544
 2165TIP3    H1 6459   1.288   5.555   5.634
 2165TIP3    H2 6460   1.376   5.571   5.511
 2166TIP3   OH2 6461   2.013   3.506   0.717
 2166TIP3    H1 6462   2.006   3.555   0.636
 2166TIP3    H2 6463   2.059   3.565   0.777
 2167TIP3   OH2 6464   5.450   5.575   1.119
 2167TIP3    H1 6465   5.479   5.648   1.064
 2167TIP3    H2 6466   5.489   5.592   1.205
 2168TIP3   OH2 6467   5.850   6.116   1.335
 2168TIP3    H1 6468   5.835   6.160   1.419
 2168TIP3    H2 6469   5.865   6.025   1.358
 2169TIP3   OH2 6470   3.817   4.409   5.703
 2169TIP3    H1 6471   3.807   4.465   5.780
 2169TIP3    H2 6472   3.731   4.368   5.692
 2170TIP3   OH2 6473   2.112   5.396   3.481
 2170TIP3    H1 6474   2.188   5.367   3.430
 2170TIP3    H2 6475   2.048   5.326   3.471
 2171TIP3   OH2 6476   3.697   4.283   2.925
 2171TIP3    H1 6477   3.764   4.246   2.867
 2171TIP3    H2 6478   3.616   4.277   2.873
 2172TIP3   OH2 6479   6.599   2.152   0.991
 2172TIP3    H1 6480   6.693   2.173   0.996
 2172TIP3    H2 6481   6.570   2.193   0.910
 2173TIP3   OH2 6482   6.764   0.251   4.521
 2173TIP3    H1 6483   6.847   0.226   4.564
 2173TIP3    H2 6484   6.724   0.312   4.582
 2174TIP3   OH2 6485   5.394   3.173   2.325
 2174TIP3    H1 6486   5.467   3.225   2.291
 2174TIP3    H2 6487   5.377   3.210   2.412
 2175TIP3   OH2 6488   3.826   1.217   2.313
 2175TIP3    H1 6489   3.801   1.220   2.221
 2175TIP3    H2 6490   3.825   1.124   2.336
 2176TIP3   OH2 6491   4.483   5.495   2.496
 2176TIP3    H1 6492   4.489   5.556   2.568
 2176TIP3    H2 6493   4.414   5.433   2.522
 2177TIP3   OH2 6494   2.236   1.009   2.398
 2177TIP3    H1 6495   2.250   0.968   2.483
 2177TIP3    H2 6496   2.202   0.938   2.343
 2178TIP3   OH2 6497   4.043   5.078   1.987
 2178TIP3    H1 6498   3.985   5.003   1.969
 2178TIP3    H2 6499   4.009   5.116   2.068
 2179TIP3   OH2 6500   5.572   3.810   4.869
 2179TIP3    H1 6501   5.497   3.752   4.883
 2179TIP3    H2 6502   5.564   3.877   4.936
 2180TIP3   OH2 6503   5.880   1.025   2.320
 2180TIP3    H1 6504   5.955   1.079   2.292
 2180TIP3    H2 6505   5.915   0.936   2.320
 2181TIP3   OH2 6506   2.691   3.431   2.735
 2181TIP3    H1 6507   2.690   3.514   2.687
 2181TIP3    H2 6508   2.774   3.432   2.782
 2182TIP3   OH2 6509   5.601   3.350   0.383
 2182TIP3    H1 6510   5.542   3.386   0.317
 2182TIP3    H2 6511   5.673   3.312   0.333
 2183TIP3   OH2 6512   5.049   3.208   2.259
 2183TIP3    H1 6513   4.961   3.183   2.230
 2183TIP3    H2 6514   5.103   3.130   2.242
 2184TIP3   OH2 6515   6.943   2.856   4.115
 2184TIP3    H1 6516   6.847   2.850   4.115
 2184TIP3    H2 6517   6.966   2.866   4.023
 2185TIP3   OH2 6518   2.921   3.926   2.518
 2185TIP3    H1 6519   2.965   3.853   2.476
 2185TIP3    H2 6520   2.857   3.956   2.453
 2186TIP3   OH2 6521   3.076   0.199   1.904
 2186TIP3    H1 6522   3.083   0.288   1.870
 2186TIP3    H2 6523   3.034   0.150   1.834
 2187TIP3   OH2 6524   4.013   5.741   2.932
 2187TIP3    H1 6525   4.093   5.764   2.979
 2187TIP3    H2 6526   4.042   5.727   2.842
 2188TIP3   OH2 6527   1.497   1.606   0.372
 2188TIP3    H1 6528   1.424   1.572   0.320
 2188TIP3    H2 6529   1.576   1.574   0.329
 2189TIP3   OH2 6530   4.345   3.544   2.970
 2189TIP3    H1 6531   4.356   3.466   2.915
 2189TIP3    H2 6532   4.251   3.562   2.968
 2190TIP3   OH2 6533   1.113   6.085   3.841
 2190TIP3    H1 6534   1.021   6.091   3.865
 2190TIP3    H2 6535   1.160   6.097   3.923
 2191TIP3   OH2 6536   2.071   1.688   5.902
 2191TIP3    H1 6537   2.145   1.695   5.963
 2191TIP3    H2 6538   2.099   1.736   5.824
 2192TIP3   OH2 6539   5.190   5.038   2.669
 2192TIP3    H1 6540   5.237   4.962   2.702
 2192TIP3    H2 6541   5.184   5.025   2.575
 2193TIP3   OH2 6542   1.170   0.093   0.053
 2193TIP3    H1 6543   1.097   0.152   0.034
 2193TIP3    H2 6544   1.158   0.020  -0.007
 2194TIP3   OH2 6545   6.844   6.771   2.266
 2194TIP3    H1 6546   6.888   6.818   2.195
 2194TIP3    H2 6547   6.864   6.679   2.250
 2195TIP3   OH2 6548   6.778   6.241   3.974
 2195TIP3    H1 6549   6.740   6.239   4.062
 2195TIP3    H2 6550   6.871   6.222   3.988
 2196TIP3   OH2 6551   0.295   5.068   4.374
 2196TIP3    H1 6552   0.252   5.109   4.449
 2196TIP3    H2 6553   0.308   5.140   4.312
 2197TIP3   OH2 6554   1.166   4.129   1.864
 2197TIP3    H1 6555   1.215   4.131   1.946
 2197TIP3    H2 6556   1.076   4.111   1.892
 2198TIP3   OH2 6557   2.473   3.914   3.716
 2198TIP3    H1 6558   2.437   4.003   3.717
 2198TIP3    H2 6559   2.411   3.864   3.663
 2199TIP3   OH2 6560   4.452   6.391   2.285
 2199TIP3    H1 6561   4.425   6.350   2.203
 2199TIP3    H2 6562   4.515   6.329   2.323
 2200TIP3   OH2 6563   0.349   2.724   3.443
 2200TIP3    H1 6564   0.293   2.768   3.507
 2200TIP3    H2 6565   0.350   2.783   3.368
 2201TIP3   OH2 6566   7.110   0.716   2.760
 2201TIP3    H1 6567   7.178   0.727   2.827
 2201TIP3    H2 6568   7.105   0.621   2.746
 2202TIP3   OH2 6569   6.382   2.523   5.396
 2202TIP3    H1 6570   6.438   2.539   5.320
 2202TIP3    H2 6571   6.443   2.495   5.465
 2203TIP3   OH2 6572   6.343   3.996   0.071
 2203TIP3    H1 6573   6.328   3.942  -0.006
 2203TIP3    H2 6574   6.403   3.945   0.125
 2204TIP3   OH2 6575   7.093   2.053   1.052
 2204TIP3    H1 6576   7.042   2.051   1.133
 2204TIP3    H2 6577   7.116   1.961   1.036
 2205TIP3   OH2 6578   1.118   6.168   2.079
 2205TIP3    H1 6579   1.024   6.151   2.080
 2205TIP3    H2 6580   1.125   6.263   2.088
 2206TIP3   OH2 6581   1.176   5.297   0.479
 2206TIP3    H1 6582   1.141   5.379   0.445
 2206TIP3    H2 6583   1.142   5.230   0.420
 2207TIP3   OH2 6584   2.387   3.239   3.647
 2207TIP3    H1 6585   2.474   3.277   3.637
 2207TIP3    H2 6586   2.404   3.147   3.671
 2208TIP3   OH2 6587   7.060   0.735   1.328
 2208TIP3    H1 6588   6.966   0.723   1.319
 2208TIP3    H2 6589   7.081   0.812   1.275
 2209TIP3   OH2 6590   5.143   2.421   3.003
 2209TIP3    H1 6591   5.107   2.333   2.993
 2209TIP3    H2 6592   5.136   2.439   3.097
 2210TIP3   OH2 6593   2.841   2.861   4.991
 2210TIP3    H1 6594   2.859   2.900   5.077
 2210TIP3    H2 6595   2.747   2.875   4.978
 2211TIP3   OH2 6596   3.730   6.157   3.373
 2211TIP3    H1 6597   3.793   6.196   3.433
 2211TIP3    H2 6598   3.669   6.227   3.353
 2212TIP3   OH2 6599   0.242   2.587   4.609
 2212TIP3    H1 6600   0.327   2.600   4.652
 2212TIP3    H2 6601   0.184   2.561   4.681
 2213TIP3   OH2 6602   1.089   0.532   1.990
 2213TIP3    H1 6603   1.124   0.610   2.033
 2213TIP3    H2 6604   1.010   0.512   2.040
 2214TIP3   OH2 6605   2.038   5.481   1.549
 2214TIP3    H1 6606   2.100   5.441   1.610
 2214TIP3    H2 6607   1.966   5.418   1.543
 2215TIP3   OH2 6608   3.716   3.715   5.141
 2215TIP3    H1 6609   3.726   3.794   5.193
 2215TIP3    H2 6610   3.726   3.643   5.203
 2216TIP3   OH2 6611   6.214   3.456   2.232
 2216TIP3    H1 6612   6.142   3.436   2.172
 2216TIP3    H2 6613   6.172   3.501   2.306
 2217TIP3   OH2 6614   6.454   0.056   0.151
 2217TIP3    H1 6615   6.385  -0.008   0.137
 2217TIP3    H2 6616   6.532   0.004   0.171
 2218TIP3   OH2 6617   6.743   3.376   5.135
 2218TIP3    H1 6618   6.723   3.469   5.143
 2218TIP3    H2 6619   6.835   3.369   5.161
 2219TIP3   OH2 6620   4.004   2.555   1.631
 2219TIP3    H1 6621   4.002   2.649   1.614
 2219TIP3    H2 6622   3.941   2.541   1.701
 2220TIP3   OH2 6623   0.294   0.445   0.461
 2220TIP3    H1 6624   0.323   0.365   0.418
 2220TIP3    H2 6625   0.202   0.455   0.433
 2221TIP3   OH2 6626   5.728   5.265   5.276
 2221TIP3    H1 6627   5.798   5.201   5.278
 2221TIP3    H2 6628   5.733   5.304   5.189
 2222TIP3   OH2 6629   5.269   2.800   4.741
 2222TIP3    H1 6630   5.299   2.710   4.726
 2222TIP3    H2 6631   5.307   2.824   4.825
 2223TIP3   OH2 6632   1.186   2.194   3.078
 2223TIP3    H1 6633   1.226   2.276   3.050
 2223TIP3    H2 6634   1.140   2.162   3.000
 2224TIP3   OH2 6635   6.847   6.591   2.873
 2224TIP3    H1 6636   6.895   6.631   2.801
 2224TIP3    H2 6637   6.898   6.610   2.951
 2225TIP3   OH2 6638   1.949   4.587   2.594
 2225TIP3    H1 6639   2.002   4.629   2.662
 2225TIP3    H2 6640   1.994   4.505   2.575
 2226TIP3   OH2 6641   5.999   5.009   0.362
 2226TIP3    H1 6642   5.970   5.044   0.446
 2226TIP3    H2 6643   6.081   5.054   0.344
 2227TIP3   OH2 6644   6.727   3.760   4.376
 2227TIP3    H1 6645   6.717   3.708   4.456
 2227TIP3    H2 6646   6.754   3.847   4.406
 2228TIP3   OH2 6647   0.200   6.434   4.638
 2228TIP3    H1 6648   0.217   6.525   4.616
 2228TIP3    H2 6649   0.126   6.410   4.582
 2229TIP3   OH2 6650   2.770   0.665   1.020
 2229TIP3    H1 6651   2.855   0.647   1.062
 2229TIP3    H2 6652   2.705   0.640   1.085
 2230TIP3   OH2 6653   2.858   2.731   0.888
 2230TIP3    H1 6654   2.877   2.825   0.900
 2230TIP3    H2 6655   2.846   2.698   0.977
 2231TIP3   OH2 6656   4.148   2.158   0.739
 2231TIP3    H1 6657   4.191   2.134   0.657
 2231TIP3    H2 6658   4.168   2.251   0.751
 2232TIP3   OH2 6659   1.043   1.382   3.078
 2232TIP3    H1 6660   1.134   1.354   3.064
 2232TIP3    H2 6661   0.996   1.302   3.098
 2233TIP3   OH2 6662   2.320   3.556   4.510
 2233TIP3    H1 6663   2.404   3.578   4.468
 2233TIP3    H2 6664   2.336   3.565   4.603
 2234TIP3   OH2 6665   0.251   3.320   0.332
 2234TIP3    H1 6666   0.200   3.274   0.398
 2234TIP3    H2 6667   0.330   3.266   0.321
 2235TIP3   OH2 6668   6.729   5.390   2.384
 2235TIP3    H1 6669   6.709   5.298   2.366
 2235TIP3    H2 6670   6.657   5.439   2.342
 2236TIP3   OH2 6671   1.191   1.030   2.953
 2236TIP3    H1 6672   1.136   1.008   3.028
 2236TIP3    H2 6673   1.142   1.098   2.907
 2237TIP3   OH2 6674   4.877   3.359   0.707
 2237TIP3    H1 6675   4.880   3.392   0.617
 2237TIP3    H2 6676   4.792   3.389   0.740
 2238TIP3   OH2 6677   2.709   0.905   2.956
 2238TIP3    H1 6678   2.796   0.919   2.994
 2238TIP3    H2 6679   2.655   0.974   2.995
 2239TIP3   OH2 6680   3.077   5.986   0.583
 2239TIP3    H1 6681   3.149   6.009   0.524
 2239TIP3    H2 6682   3.018   6.061   0.580
 2240TIP3   OH2 6683   1.874   5.723   4.283
 2240TIP3    H1 6684   1.871   5.672   4.364
 2240TIP3    H2 6685   1.964   5.712   4.251
 2241TIP3   OH2 6686   0.283   1.066   0.187
 2241TIP3    H1 6687   0.357   1.109   0.231
 2241TIP3    H2 6688   0.298   1.082   0.094
 2242TIP3   OH2 6689   4.801   0.701   3.909
 2242TIP3    H1 6690   4.782   0.607   3.906
 2242TIP3    H2 6691   4.719   0.742   3.882
 2243TIP3   OH2 6692   1.535   2.118   3.187
 2243TIP3    H1 6693   1.568   2.071   3.264
 2243TIP3    H2 6694   1.442   2.096   3.184
 2244TIP3   OH2 6695   2.546   5.339   2.698
 2244TIP3    H1 6696   2.572   5.402   2.765
 2244TIP3    H2 6697   2.624   5.287   2.683
 2245TIP3   OH2 6698   1.511   6.802   3.366
 2245TIP3    H1 6699   1.444   6.733   3.367
 2245TIP3    H2 6700   1.483   6.864   3.434
 2246TIP3   OH2 6701   1.826   2.876   0.119
 2246TIP3    H1 6702   1.791   2.788   0.104
 2246TIP3    H2 6703   1.754   2.923   0.162
 2247TIP3   OH2 6704   5.471   0.552   5.391
 2247TIP3    H1 6705   5.410   0.512   5.330
 2247TIP3    H2 6706   5.485   0.641   5.357
 2248TIP3   OH2 6707   6.640   3.272   2.340
 2248TIP3    H1 6708   6.634   3.183   2.307
 2248TIP3    H2 6709   6.585   3.324   2.281
 2249TIP3   OH2 6710   3.014   4.222   2.846
 2249TIP3    H1 6711   2.940   4.162   2.836
 2249TIP3    H2 6712   3.020   4.268   2.763
 2250TIP3   OH2 6713   1.678   5.313   3.320
 2250TIP3    H1 6714   1.718   5.253   3.257
 2250TIP3    H2 6715   1.673   5.263   3.401
 2251TIP3   OH2 6716   4.959   5.575   3.431
 2251TIP3    H1 6717   5.010   5.532   3.363
 2251TIP3    H2 6718   4.894   5.509   3.457
 2252TIP3   OH2 6719   6.057   5.397   3.996
 2252TIP3    H1 6720   5.973   5.355   3.978
 2252TIP3    H2 6721   6.051   5.425   4.087
 2253TIP3   OH2 6722   3.213   6.628   2.739
 2253TIP3    H1 6723   3.160   6.555   2.706
 2253TIP3    H2 6724   3.157   6.670   2.805
 2254TIP3   OH2 6725   3.579   1.858   5.251
 2254TIP3    H1 6726   3.621   1.780   5.289
 2254TIP3    H2 6727   3.583   1.845   5.157
 2255TIP3   OH2 6728   1.001   3.454   5.301
 2255TIP3    H1 6729   1.010   3.545   5.328
 2255TIP3    H2 6730   0.979   3.406   5.381
 2256TIP3   OH2 6731   3.156   6.022   3.164
 2256TIP3    H1 6732   3.091   6.010   3.233
 2256TIP3    H2 6733   3.135   6.107   3.126
 2257TIP3   OH2 6734   4.763   4.086   0.769
 2257TIP3    H1 6735   4.822   4.045   0.832
 2257TIP3    H2 6736   4.690   4.118   0.822
 2258TIP3   OH2 6737   4.688   6.281   3.592
 2258TIP3    H1 6738   4.598   6.248   3.595
 2258TIP3    H2 6739   4.679   6.375   3.601
 2259TIP3   OH2 6740   7.174   3.401   3.250
 2259TIP3    H1 6741   7.084   3.398   3.282
 2259TIP3    H2 6742   7.228   3.397   3.329
 2260TIP3   OH2 6743   0.760   5.912   0.428
 2260TIP3    H1 6744   0.817   5.840   0.455
 2260TIP3    H2 6745   0.774   5.920   0.334
 2261TIP3   OH2 6746   5.118   0.118   2.434
 2261TIP3    H1 6747   5.123   0.030   2.474
 2261TIP3    H2 6748   5.157   0.176   2.500
 2262TIP3   OH2 6749   5.292   4.491   2.857
 2262TIP3    H1 6750   5.343   4.565   2.889
 2262TIP3    H2 6751   5.209   4.529   2.829
 2263TIP3   OH2 6752   5.766   4.902   5.527
 2263TIP3    H1 6753   5.810   4.930   5.607
 2263TIP3    H2 6754   5.836   4.881   5.466
 2264TIP3   OH2 6755   1.624   4.934   1.934
 2264TIP3    H1 6756   1.642   4.986   1.855
 2264TIP3    H2 6757   1.687   4.965   1.998
 2265TIP3   OH2 6758   7.128   3.551   5.600
 2265TIP3    H1 6759   7.190   3.617   5.569
 2265TIP3    H2 6760   7.183   3.489   5.648
 2266TIP3   OH2 6761   4.364   5.577   2.770
 2266TIP3    H1 6762   4.275   5.566   2.737
 2266TIP3    H2 6763   4.409   5.628   2.703
 2267TIP3   OH2 6764   4.849   3.603   3.426
 2267TIP3    H1 6765   4.801   3.618   3.507
 2267TIP3    H2 6766   4.800   3.534   3.381
 2268TIP3   OH2 6767   0.908   5.539   1.206
 2268TIP3    H1 6768   0.934   5.554   1.297
 2268TIP3    H2 6769   0.989   5.514   1.162
 2269TIP3   OH2 6770   6.829   5.236   1.800
 2269TIP3    H1 6771   6.759   5.292   1.765
 2269TIP3    H2 6772   6.910   5.281   1.775
 2270TIP3   OH2 6773   5.215   2.886   0.653
 2270TIP3    H1 6774   5.187   2.895   0.562
 2270TIP3    H2 6775   5.290   2.945   0.661
 2271TIP3   OH2 6776   5.552   3.567   1.583
 2271TIP3    H1 6777   5.471   3.537   1.624
 2271TIP3    H2 6778   5.584   3.636   1.641
 2272TIP3   OH2 6779   4.285   0.918   5.116
 2272TIP3    H1 6780   4.253   0.914   5.026
 2272TIP3    H2 6781   4.305   1.010   5.131
 2273TIP3   OH2 6782   3.651   1.403   4.150
 2273TIP3    H1 6783   3.673   1.369   4.237
 2273TIP3    H2 6784   3.669   1.330   4.090
 2274TIP3   OH2 6785   0.187   4.546   4.519
 2274TIP3    H1 6786   0.186   4.635   4.483
 2274TIP3    H2 6787   0.125   4.498   4.465
 2275TIP3   OH2 6788   3.719   3.872   3.139
 2275TIP3    H1 6789   3.805   3.850   3.175
 2275TIP3    H2 6790   3.704   3.962   3.165
 2276TIP3   OH2 6791   0.245   3.850   5.647
 2276TIP3    H1 6792   0.299   3.772   5.655
 2276TIP3    H2 6793   0.306   3.921   5.631
 2277TIP3   OH2 6794   0.884   3.442   0.550
 2277TIP3    H1 6795   0.949   3.377   0.525
 2277TIP3    H2 6796   0.833   3.457   0.470
 2278TIP3   OH2 6797   3.308   4.527   2.499
 2278TIP3    H1 6798   3.369   4.522   2.573
 2278TIP3    H2 6799   3.364   4.539   2.423
 2279TIP3   OH2 6800   2.962   6.616   0.303
 2279TIP3    H1 6801   2.983   6.595   0.394
 2279TIP3    H2 6802   2.894   6.554   0.279
 2280TIP3   OH2 6803   6.244   6.731   3.792
 2280TIP3    H1 6804   6.340   6.725   3.793
 2280TIP3    H2 6805   6.223   6.743   3.699
 2281TIP3   OH2 6806   2.721   3.560   1.536
 2281TIP3    H1 6807   2.694   3.532   1.623
 2281TIP3    H2 6808   2.715   3.481   1.482
 2282TIP3   OH2 6809   5.019   2.966   1.473
 2282TIP3    H1 6810   4.972   3.009   1.545
 2282TIP3    H2 6811   5.035   2.877   1.505
 2283TIP3   OH2 6812   4.059   5.028   5.021
 2283TIP3    H1 6813   4.117   4.961   4.985
 2283TIP3    H2 6814   4.070   5.104   4.963
 2284TIP3   OH2 6815   4.482   1.141   1.415
 2284TIP3    H1 6816   4.492   1.065   1.473
 2284TIP3    H2 6817   4.560   1.194   1.433
 2285TIP3   OH2 6818   1.913   3.429   2.544
 2285TIP3    H1 6819   1.897   3.338   2.571
 2285TIP3    H2 6820   1.832   3.475   2.565
 2286TIP3   OH2 6821   1.462   1.726   3.997
 2286TIP3    H1 6822   1.548   1.766   4.000
 2286TIP3    H2 6823   1.407   1.789   3.951
 2287TIP3   OH2 6824   7.039   5.161   5.672
 2287TIP3    H1 6825   7.058   5.203   5.588
 2287TIP3    H2 6826   7.027   5.234   5.733
 2288TIP3   OH2 6827   4.932   3.922   5.665
 2288TIP3    H1 6828   4.888   3.999   5.699
 2288TIP3    H2 6829   4.912   3.922   5.571
 2289TIP3   OH2 6830   5.210   5.403   3.630
 2289TIP3    H1 6831   5.272   5.415   3.701
 2289TIP3    H2 6832   5.226   5.477   3.571
 2290TIP3   OH2 6833   6.249   4.568   1.912
 2290TIP3    H1 6834   6.263   4.619   1.993
 2290TIP3    H2 6835   6.155   4.549   1.912
 2291TIP3   OH2 6836   6.034   5.930   5.172
 2291TIP3    H1 6837   6.064   6.021   5.173
 2291TIP3    H2 6838   6.095   5.885   5.114
 2292TIP3   OH2 6839   2.529   1.603   3.406
 2292TIP3    H1 6840   2.524   1.509   3.423
 2292TIP3    H2 6841   2.592   1.635   3.471
 2293TIP3   OH2 6842   3.556   5.791   4.296
 2293TIP3    H1 6843   3.582   5.858   4.359
 2293TIP3    H2 6844   3.472   5.758   4.328
 2294TIP3   OH2 6845   4.832   3.812   1.068
 2294TIP3    H1 6846   4.861   3.861   0.991
 2294TIP3    H2 6847   4.914   3.784   1.111
 2295TIP3   OH2 6848   3.899   6.529   4.485
 2295TIP3    H1 6849   3.887   6.617   4.448
 2295TIP3    H2 6850   3.887   6.470   4.411
 2296TIP3   OH2 6851   2.132   1.743   0.816
 2296TIP3    H1 6852   2.047   1.703   0.796
 2296TIP3    H2 6853   2.194   1.670   0.812
 2297TIP3   OH2 6854   2.455   3.832   5.638
 2297TIP3    H1 6855   2.508   3.891   5.692
 2297TIP3    H2 6856   2.465   3.747   5.679
 2298TIP3   OH2 6857   3.380   0.294   2.470
 2298TIP3    H1 6858   3.309   0.285   2.406
 2298TIP3    H2 6859   3.358   0.232   2.539
 2299TIP3   OH2 6860   3.981   4.385   2.449
 2299TIP3    H1 6861   3.979   4.386   2.545
 2299TIP3    H2 6862   4.048   4.449   2.426
 2300TIP3   OH2 6863   3.699   4.987   4.318
 2300TIP3    H1 6864   3.703   5.051   4.389
 2300TIP3    H2 6865   3.638   5.026   4.255
 2301TIP3   OH2 6866   2.890   4.655   0.323
 2301TIP3    H1 6867   2.978   4.620   0.340
 2301TIP3    H2 6868   2.833   4.606   0.381
 2302TIP3   OH2 6869   3.846   5.008   3.941
 2302TIP3    H1 6870   3.854   4.920   3.976
 2302TIP3    H2 6871   3.882   5.065   4.008
 2303TIP3   OH2 6872   1.369   5.418   0.246
 2303TIP3    H1 6873   1.317   5.452   0.174
 2303TIP3    H2 6874   1.377   5.324   0.227
 2304TIP3   OH2 6875   2.065   4.705   0.949
 2304TIP3    H1 6876   2.046   4.762   1.023
 2304TIP3    H2 6877   2.003   4.633   0.957
 2305TIP3   OH2 6878   1.395   3.059   5.771
 2305TIP3    H1 6879   1.313   3.094   5.734
 2305TIP3    H2 6880   1.435   3.013   5.697
 2306TIP3   OH2 6881   2.803   0.510   3.191
 2306TIP3    H1 6882   2.749   0.432   3.202
 2306TIP3    H2 6883   2.741   0.583   3.194
 2307TIP3   OH2 6884   4.858   2.501   5.309
 2307TIP3    H1 6885   4.927   2.468   5.366
 2307TIP3    H2 6886   4.777   2.490   5.360
 2308TIP3   OH2 6887   4.326   6.000   2.440
 2308TIP3    H1 6888   4.285   6.085   2.458
 2308TIP3    H2 6889   4.408   6.021   2.397
 2309TIP3   OH2 6890   5.708   5.780   0.678
 2309TIP3    H1 6891   5.657   5.728   0.741
 2309TIP3    H2 6892   5.799   5.756   0.697
 2310TIP3   OH2 6893   7.090   3.455   0.543
 2310TIP3    H1 6894   7.040   3.517   0.595
 2310TIP3    H2 6895   7.180   3.465   0.572
 2311TIP3   OH2 6896   1.065   0.395   0.996
 2311TIP3    H1 6897   1.135   0.380   1.059
 2311TIP3    H2 6898   1.010   0.462   1.037
 2312TIP3   OH2 6899   1.609   1.725   5.153
 2312TIP3    H1 6900   1.672   1.710   5.082
 2312TIP3    H2 6901   1.573   1.811   5.135
 2313TIP3   OH2 6902   6.980   3.362   3.696
 2313TIP3    H1 6903   6.917   3.369   3.768
 2313TIP3    H2 6904   6.927   3.333   3.621
 2314TIP3   OH2 6905   6.953   3.888   0.369
 2314TIP3    H1 6906   6.902   3.894   0.450
 2314TIP3    H2 6907   6.934   3.801   0.336
 2315TIP3   OH2 6908   7.036   5.502   1.764
 2315TIP3    H1 6909   7.117   5.541   1.730
 2315TIP3    H2 6910   6.966   5.550   1.720
 2316TIP3   OH2 6911   3.331   5.458   1.372
 2316TIP3    H1 6912   3.312   5.400   1.299
 2316TIP3    H2 6913   3.252   5.510   1.383
 2317TIP3   OH2 6914   5.584   3.661   2.823
 2317TIP3    H1 6915   5.618   3.710   2.748
 2317TIP3    H2 6916   5.495   3.694   2.835
 2318TIP3   OH2 6917   3.278   0.774   3.776
 2318TIP3    H1 6918   3.228   0.721   3.713
 2318TIP3    H2 6919   3.365   0.781   3.737
 2319TIP3   OH2 6920   6.639   1.834   2.103
 2319TIP3    H1 6921   6.721   1.817   2.057
 2319TIP3    H2 6922   6.652   1.919   2.144
 2320TIP3   OH2 6923   1.209   1.088   0.812
 2320TIP3    H1 6924   1.270   1.122   0.747
 2320TIP3    H2 6925   1.126   1.131   0.792
 2321TIP3   OH2 6926   6.218   6.385   4.004
 2321TIP3    H1 6927   6.169   6.309   3.972
 2321TIP3    H2 6928   6.171   6.461   3.969
 2322TIP3   OH2 6929   0.379   1.475   3.919
 2322TIP3    H1 6930   0.407   1.567   3.918
 2322TIP3    H2 6931   0.295   1.476   3.873
 2323TIP3   OH2 6932   1.986   5.379   3.760
 2323TIP3    H1 6933   2.028   5.402   3.678
 2323TIP3    H2 6934   1.954   5.290   3.747
 2324TIP3   OH2 6935   0.657   2.138   2.032
 2324TIP3    H1 6936   0.667   2.233   2.040
 2324TIP3    H2 6937   0.568   2.121   2.063
 2325TIP3   OH2 6938   5.696   0.045   1.141
 2325TIP3    H1 6939   5.778   0.069   1.098
 2325TIP3    H2 6940   5.659  -0.023   1.084
 2326TIP3   OH2 6941   1.598   6.582   3.046
 2326TIP3    H1 6942   1.577   6.623   2.962
 2326TIP3    H2 6943   1.682   6.621   3.071
 2327TIP3   OH2 6944   0.156   3.537   0.831
 2327TIP3    H1 6945   0.109   3.532   0.915
 2327TIP3    H2 6946   0.121   3.465   0.779
 2328TIP3   OH2 6947   0.548   0.973   4.516
 2328TIP3    H1 6948   0.466   0.924   4.516
 2328TIP3    H2 6949   0.601   0.932   4.583
 2329TIP3   OH2 6950   1.902   2.462   0.842
 2329TIP3    H1 6951   1.869   2.510   0.918
 2329TIP3    H2 6952   1.889   2.521   0.768
 2330TIP3   OH2 6953   5.371   5.958   2.480
 2330TIP3    H1 6954   5.385   5.990   2.569
 2330TIP3    H2 6955   5.367   6.037   2.426
 2331TIP3   OH2 6956   4.718   0.492   5.092
 2331TIP3    H1 6957   4.667   0.426   5.139
 2331TIP3    H2 6958   4.660   0.523   5.023
 2332TIP3   OH2 6959   3.394   5.738   1.935
 2332TIP3    H1 6960   3.445   5.804   1.887
 2332TIP3    H2 6961   3.311   5.781   1.953
 2333TIP3   OH2 6962   1.724   2.135   2.976
 2333TIP3    H1 6963   1.682   2.126   3.061
 2333TIP3    H2 6964   1.817   2.123   2.994
 2334TIP3   OH2 6965   2.211   6.476   0.190
 2334TIP3    H1 6966   2.265   6.419   0.245
 2334TIP3    H2 6967   2.123   6.467   0.224
 2335TIP3   OH2 6968   1.073   2.269   5.668
 2335TIP3    H1 6969   0.985   2.241   5.644
 2335TIP3    H2 6970   1.126   2.189   5.663
 2336TIP3   OH2 6971   2.094   5.141   1.425
 2336TIP3    H1 6972   2.024   5.083   1.455
 2336TIP3    H2 6973   2.081   5.148   1.331
 2337TIP3   OH2 6974   0.190   4.172   3.934
 2337TIP3    H1 6975   0.201   4.159   3.839
 2337TIP3    H2 6976   0.102   4.210   3.942
 2338TIP3   OH2 6977   0.516   5.492   2.270
 2338TIP3    H1 6978   0.575   5.419   2.253
 2338TIP3    H2 6979   0.436   5.470   2.221
 2339TIP3   OH2 6980   1.252   1.317   2.543
 2339TIP3    H1 6981   1.163   1.345   2.567
 2339TIP3    H2 6982   1.287   1.391   2.493
 2340TIP3   OH2 6983   3.701   2.821   2.639
 2340TIP3    H1 6984   3.678   2.826   2.732
 2340TIP3    H2 6985   3.704   2.727   2.620
 2341TIP3   OH2 6986   2.598   5.592   5.910
 2341TIP3    H1 6987   2.677   5.555   5.870
 2341TIP3    H2 6988   2.576   5.532   5.981
 2342TIP3   OH2 6989   7.182   6.794   3.212
 2342TIP3    H1 6990   7.245   6.762   3.147
 2342TIP3    H2 6991   7.137   6.866   3.169
 2343TIP3   OH2 6992   4.399   1.914   1.430
 2343TIP3    H1 6993   4.473   1.876   1.383
 2343TIP3    H2 6994   4.394   2.004   1.398
 2344TIP3   OH2 6995   1.550   4.403   2.393
 2344TIP3    H1 6996   1.607   4.337   2.431
 2344TIP3    H2 6997   1.509   4.359   2.319
 2345TIP3   OH2 6998   4.728   6.711   0.797
 2345TIP3    H1 6999   4.796   6.776   0.813
 2345TIP3    H2 7000   4.647   6.752   0.827
 2346TIP3   OH2 7001   4.217   5.132   2.852
 2346TIP3    H1 7002   4.121   5.140   2.852
 2346TIP3    H2 7003   4.233   5.048   2.808
 2347TIP3   OH2 7004   4.290   5.774   2.990
 2347TIP3    H1 7005   4.354   5.704   2.974
 2347TIP3    H2 7006   4.252   5.752   3.075
 2348TIP3   OH2 7007   5.633   0.117   2.362
 2348TIP3    H1 7008   5.556   0.063   2.376
 2348TIP3    H2 7009   5.689   0.099   2.437
 2349TIP3   OH2 7010   7.037   4.195   3.007
 2349TIP3    H1 7011   6.945   4.166   3.004
 2349TIP3    H2 7012   7.056   4.207   3.100
 2350TIP3   OH2 7013   6.827   5.019   1.070
 2350TIP3    H1 7014   6.859   5.041   1.158
 2350TIP3    H2 7015   6.855   4.928   1.057
 2351TIP3   OH2 7016   5.595   4.693   5.855
 2351TIP3    H1 7017   5.524   4.631   5.873
 2351TIP3    H2 7018   5.669   4.638   5.829
 2352TIP3   OH2 7019   6.543   3.117   0.524
 2352TIP3    H1 7020   6.450   3.139   0.526
 2352TIP3    H2 7021   6.562   3.086   0.613
 2353TIP3   OH2 7022   6.109   4.582   4.017
 2353TIP3    H1 7023   6.039   4.529   3.978
 2353TIP3    H2 7024   6.082   4.672   4.002
 2354TIP3   OH2 7025   7.113   4.897   2.535
 2354TIP3    H1 7026   7.147   4.926   2.620
 2354TIP3    H2 7027   7.191   4.875   2.485
 2355TIP3   OH2 7028   6.331   3.729   3.852
 2355TIP3    H1 7029   6.412   3.744   3.902
 2355TIP3    H2 7030   6.313   3.636   3.863
 2356TIP3   OH2 7031   5.111   4.330   0.800
 2356TIP3    H1 7032   5.199   4.310   0.768
 2356TIP3    H2 7033   5.112   4.302   0.891
 2357TIP3   OH2 7034   2.992   6.468   1.831
 2357TIP3    H1 7035   2.937   6.393   1.806
 2357TIP3    H2 7036   3.081   6.439   1.813
 2358TIP3   OH2 7037   6.300   1.098   4.144
 2358TIP3    H1 7038   6.324   1.112   4.236
 2358TIP3    H2 7039   6.383   1.094   4.098
 2359TIP3   OH2 7040   4.731   1.643   2.140
 2359TIP3    H1 7041   4.678   1.586   2.196
 2359TIP3    H2 7042   4.731   1.727   2.184
 2360TIP3   OH2 7043   3.611   5.940   2.802
 2360TIP3    H1 7044   3.528   5.896   2.784
 2360TIP3    H2 7045   3.678   5.879   2.771
 2361TIP3   OH2 7046   6.622   3.067   2.139
 2361TIP3    H1 7047   6.614   3.136   2.073
 2361TIP3    H2 7048   6.701   3.020   2.116
 2362TIP3   OH2 7049   2.645   6.079   1.708
 2362TIP3    H1 7050   2.577   6.066   1.642
 2362TIP3    H2 7051   2.696   5.998   1.706
 2363TIP3   OH2 7052   2.040   3.435   1.536
 2363TIP3    H1 7053   2.094   3.513   1.548
 2363TIP3    H2 7054   1.950   3.466   1.543
 2364TIP3   OH2 7055   3.267   1.826   0.017
 2364TIP3    H1 7056   3.178   1.796   0.037
 2364TIP3    H2 7057   3.259   1.921   0.010
 2365TIP3   OH2 7058   0.152   4.536   5.724
 2365TIP3    H1 7059   0.071   4.486   5.728
 2365TIP3    H2 7060   0.178   4.547   5.816
 2366TIP3   OH2 7061   4.865   1.343   2.193
 2366TIP3    H1 7062   4.856   1.302   2.107
 2366TIP3    H2 7063   4.775   1.362   2.220
 2367TIP3   OH2 7064   3.356   5.862   5.410
 2367TIP3    H1 7065   3.277   5.903   5.445
 2367TIP3    H2 7066   3.406   5.835   5.487
 2368TIP3   OH2 7067   4.149   2.247   2.799
 2368TIP3    H1 7068   4.158   2.164   2.844
 2368TIP3    H2 7069   4.222   2.249   2.737
 2369TIP3   OH2 7070   2.112   4.306   0.719
 2369TIP3    H1 7071   2.038   4.366   0.731
 2369TIP3    H2 7072   2.091   4.258   0.639
 2370TIP3   OH2 7073   0.147   1.552   0.600
 2370TIP3    H1 7074   0.191   1.540   0.684
 2370TIP3    H2 7075   0.145   1.646   0.587
 2371TIP3   OH2 7076   0.720   3.331   4.740
 2371TIP3    H1 7077   0.690   3.352   4.652
 2371TIP3    H2 7078   0.703   3.410   4.791
 2372TIP3   OH2 7079   0.297   6.062   2.386
 2372TIP3    H1 7080   0.331   5.974   2.394
 2372TIP3    H2 7081   0.231   6.070   2.455
 2373TIP3   OH2 7082   2.738   2.357   2.387
 2373TIP3    H1 7083   2.790   2.406   2.451
 2373TIP3    H2 7084   2.771   2.268   2.392
 2374TIP3   OH2 7085   3.689   2.464   3.712
 2374TIP3    H1 7086   3.612   2.515   3.739
 2374TIP3    H2 7087   3.762   2.525   3.722
 2375TIP3   OH2 7088   2.433   3.406   4.214
 2375TIP3    H1 7089   2.400   3.372   4.297
 2375TIP3    H2 7090   2.467   3.493   4.236
 2376TIP3   OH2 7091   1.755   2.760   0.765
 2376TIP3    H1 7092   1.772   2.784   0.674
 2376TIP3    H2 7093   1.826   2.801   0.814
 2377TIP3   OH2 7094   6.854   5.041   0.655
 2377TIP3    H1 7095   6.872   5.133   0.636
 2377TIP3    H2 7096   6.917   5.017   0.723
 2378TIP3   OH2 7097   5.008   4.517   2.446
 2378TIP3    H1 7098   4.955   4.560   2.379
 2378TIP3    H2 7099   4.987   4.424   2.436
 2379TIP3   OH2 7100   2.548   1.066   5.867
 2379TIP3    H1 7101   2.539   1.113   5.784
 2379TIP3    H2 7102   2.579   1.132   5.929
 2380TIP3   OH2 7103   0.249   0.238   1.022
 2380TIP3    H1 7104   0.310   0.166   1.034
 2380TIP3    H2 7105   0.266   0.270   0.933
 2381TIP3   OH2 7106   0.705   3.508   5.580
 2381TIP3    H1 7107   0.700   3.413   5.566
 2381TIP3    H2 7108   0.788   3.521   5.625
 2382TIP3   OH2 7109   7.041   3.942   3.267
 2382TIP3    H1 7110   7.002   3.876   3.210
 2382TIP3    H2 7111   7.123   3.966   3.223
 2383TIP3   OH2 7112   5.594   2.280   3.225
 2383TIP3    H1 7113   5.525   2.232   3.180
 2383TIP3    H2 7114   5.594   2.367   3.184
 2384TIP3   OH2 7115   2.284   0.536   0.656
 2384TIP3    H1 7116   2.371   0.529   0.618
 2384TIP3    H2 7117   2.231   0.578   0.587
 2385TIP3   OH2 7118   3.654   1.391   2.037
 2385TIP3    H1 7119   3.564   1.409   2.062
 2385TIP3    H2 7120   3.703   1.468   2.067
 2386TIP3   OH2 7121   1.855   0.955   0.117
 2386TIP3    H1 7122   1.858   0.874   0.168
 2386TIP3    H2 7123   1.801   0.933   0.041
 2387TIP3   OH2 7124   5.925   1.423   5.682
 2387TIP3    H1 7125   5.901   1.514   5.665
 2387TIP3    H2 7126   5.937   1.385   5.595
 2388TIP3   OH2 7127   1.755   5.395  -0.011
 2388TIP3    H1 7128   1.668   5.370  -0.043
 2388TIP3    H2 7129   1.763   5.351   0.073
 2389TIP3   OH2 7130   3.119   6.230   2.862
 2389TIP3    H1 7131   3.213   6.227   2.847
 2389TIP3    H2 7132   3.084   6.153   2.818
 2390TIP3   OH2 7133   0.954   6.140   4.381
 2390TIP3    H1 7134   0.929   6.056   4.344
 2390TIP3    H2 7135   1.044   6.128   4.411
 2391TIP3   OH2 7136   3.961   6.415   4.955
 2391TIP3    H1 7137   4.015   6.443   4.881
 2391TIP3    H2 7138   3.938   6.496   5.000
 2392TIP3   OH2 7139   1.645   4.525   0.454
 2392TIP3    H1 7140   1.648   4.462   0.526
 2392TIP3    H2 7141   1.608   4.477   0.380
 2393TIP3   OH2 7142   6.119   5.229   2.645
 2393TIP3    H1 7143   6.206   5.190   2.655
 2393TIP3    H2 7144   6.092   5.206   2.556
 2394TIP3   OH2 7145   5.293   1.644   0.161
 2394TIP3    H1 7146   5.367   1.657   0.220
 2394TIP3    H2 7147   5.258   1.558   0.183
 2395TIP3   OH2 7148   4.856   5.190   5.168
 2395TIP3    H1 7149   4.773   5.148   5.191
 2395TIP3    H2 7150   4.923   5.126   5.190
 2396TIP3   OH2 7151   1.815   3.000   3.965
 2396TIP3    H1 7152   1.742   3.026   3.909
 2396TIP3    H2 7153   1.778   2.934   4.023
 2397TIP3   OH2 7154   4.776   3.829   2.413
 2397TIP3    H1 7155   4.804   3.849   2.502
 2397TIP3    H2 7156   4.842   3.869   2.357
 2398TIP3   OH2 7157   3.112   3.730   1.794
 2398TIP3    H1 7158   3.100   3.670   1.721
 2398TIP3    H2 7159   3.153   3.678   1.862
 2399TIP3   OH2 7160   6.896   4.788   1.683
 2399TIP3    H1 7161   6.948   4.727   1.735
 2399TIP3    H2 7162   6.807   4.755   1.688
 2400TIP3   OH2 7163   2.240   5.954   5.566
 2400TIP3    H1 7164   2.293   6.029   5.540
 2400TIP3    H2 7165   2.237   5.899   5.487
 2401TIP3   OH2 7166   4.671   6.401   2.924
 2401TIP3    H1 7167   4.617   6.477   2.903
 2401TIP3    H2 7168   4.667   6.346   2.846
 2402TIP3   OH2 7169   0.983   4.372   1.212
 2402TIP3    H1 7170   1.045   4.304   1.236
 2402TIP3    H2 7171   1.028   4.454   1.231
 2403TIP3   OH2 7172   5.892   6.456   3.121
 2403TIP3    H1 7173   5.803   6.423   3.108
 2403TIP3    H2 7174   5.884   6.520   3.191
 2404TIP3   OH2 7175   3.698   4.781   3.715
 2404TIP3    H1 7176   3.675   4.847   3.781
 2404TIP3    H2 7177   3.696   4.698   3.763
 2405TIP3   OH2 7178   6.081   4.433   4.609
 2405TIP3    H1 7179   6.062   4.345   4.576
 2405TIP3    H2 7180   6.083   4.487   4.530
 2406TIP3   OH2 7181   0.519   0.372   1.109
 2406TIP3    H1 7182   0.475   0.298   1.067
 2406TIP3    H2 7183   0.550   0.337   1.192
 2407TIP3   OH2 7184   0.278   3.772   5.921
 2407TIP3    H1 7185   0.217   3.823   5.866
 2407TIP3    H2 7186   0.364   3.795   5.886
 2408TIP3   OH2 7187   5.794   6.514   3.744
 2408TIP3    H1 7188   5.761   6.597   3.710
 2408TIP3    H2 7189   5.767   6.512   3.836
 2409TIP3   OH2 7190   0.956   5.464   3.664
 2409TIP3    H1 7191   0.879   5.425   3.706
 2409TIP3    H2 7192   0.962   5.419   3.580
 2410TIP3   OH2 7193   0.929   0.372   5.663
 2410TIP3    H1 7194   0.943   0.359   5.569
 2410TIP3    H2 7195   0.939   0.285   5.701
 2411TIP3   OH2 7196   6.584   0.398   0.370
 2411TIP3    H1 7197   6.659   0.393   0.311
 2411TIP3    H2 7198   6.508   0.399   0.312
 2412TIP3   OH2 7199   4.223   3.236   0.183
 2412TIP3    H1 7200   4.137   3.269   0.208
 2412TIP3    H2 7201   4.243   3.170   0.249
 2413TIP3   OH2 7202   6.018   3.922   1.818
 2413TIP3    H1 7203   5.974   3.898   1.900
 2413TIP3    H2 7204   6.109   3.899   1.832
 2414TIP3   OH2 7205   2.903   2.120   4.079
 2414TIP3    H1 7206   2.985   2.121   4.029
 2414TIP3    H2 7207   2.928   2.087   4.165
 2415TIP3   OH2 7208   0.495   2.864   2.975
 2415TIP3    H1 7209   0.547   2.795   2.934
 2415TIP3    H2 7210   0.559   2.916   3.024
 2416TIP3   OH2 7211   0.068   6.333   1.278
 2416TIP3    H1 7212   0.040   6.320   1.187
 2416TIP3    H2 7213   0.160   6.304   1.279
 2417TIP3   OH2 7214   3.429   6.598   1.281
 2417TIP3    H1 7215   3.340   6.613   1.249
 2417TIP3    H2 7216   3.444   6.505   1.265
 2418TIP3   OH2 7217   5.035   5.261   3.092
 2418TIP3    H1 7218   4.942   5.240   3.085
 2418TIP3    H2 7219   5.066   5.266   3.002
 2419TIP3   OH2 7220   5.955   5.593   4.812
 2419TIP3    H1 7221   5.932   5.534   4.740
 2419TIP3    H2 7222   5.879   5.650   4.822
 2420TIP3   OH2 7223   5.439   1.594   5.388
 2420TIP3    H1 7224   5.486   1.533   5.331
 2420TIP3    H2 7225   5.503   1.619   5.455
 2421TIP3   OH2 7226   4.157   3.626   5.003
 2421TIP3    H1 7227   4.180   3.707   5.047
 2421TIP3    H2 7228   4.175   3.557   5.067
 2422TIP3   OH2 7229   4.371   0.449   4.506
 2422TIP3    H1 7230   4.396   0.361   4.534
 2422TIP3    H2 7231   4.280   0.459   4.535
 2423TIP3   OH2 7232   1.161   1.839   0.201
 2423TIP3    H1 7233   1.181   1.899   0.273
 2423TIP3    H2 7234   1.092   1.782   0.237
 2424TIP3   OH2 7235   4.956   2.535   1.725
 2424TIP3    H1 7236   4.947   2.548   1.820
 2424TIP3    H2 7237   5.038   2.486   1.716
 2425TIP3   OH2 7238   4.677   2.923   1.919
 2425TIP3    H1 7239   4.741   2.907   1.989
 2425TIP3    H2 7240   4.642   2.836   1.899
 2426TIP3   OH2 7241   2.848   0.585   1.874
 2426TIP3    H1 7242   2.760   0.553   1.893
 2426TIP3    H2 7243   2.885   0.519   1.815
 2427TIP3   OH2 7244   4.056   6.464   4.707
 2427TIP3    H1 7245   4.136   6.506   4.675
 2427TIP3    H2 7246   3.989   6.487   4.643
 2428TIP3   OH2 7247   0.885   1.996   0.249
 2428TIP3    H1 7248   0.961   1.988   0.306
 2428TIP3    H2 7249   0.833   1.917   0.265
 2429TIP3   OH2 7250   3.511   0.800   3.611
 2429TIP3    H1 7251   3.462   0.825   3.532
 2429TIP3    H2 7252   3.544   0.712   3.592
 2430TIP3   OH2 7253   5.026   3.886   3.792
 2430TIP3    H1 7254   4.952   3.944   3.808
 2430TIP3    H2 7255   5.079   3.892   3.872
 2431TIP3   OH2 7256   3.950   5.258   1.083
 2431TIP3    H1 7257   3.945   5.165   1.105
 2431TIP3    H2 7258   3.914   5.264   0.994
 2432TIP3   OH2 7259   0.167   3.372   3.878
 2432TIP3    H1 7260   0.199   3.308   3.815
 2432TIP3    H2 7261   0.161   3.454   3.828
 2433TIP3   OH2 7262   3.955   4.862   4.220
 2433TIP3    H1 7263   3.876   4.907   4.251
 2433TIP3    H2 7264   3.922   4.792   4.164
 2434TIP3   OH2 7265   1.655   6.065   3.646
 2434TIP3    H1 7266   1.674   6.154   3.675
 2434TIP3    H2 7267   1.561   6.054   3.661
 2435TIP3   OH2 7268   4.412   1.684   0.536
 2435TIP3    H1 7269   4.493   1.725   0.567
 2435TIP3    H2 7270   4.438   1.636   0.457
 2436TIP3   OH2 7271   1.338   3.935   5.851
 2436TIP3    H1 7272   1.349   3.946   5.757
 2436TIP3    H2 7273   1.404   3.869   5.875
 2437TIP3   OH2 7274   1.591   4.825   4.548
 2437TIP3    H1 7275   1.663   4.850   4.606
 2437TIP3    H2 7276   1.540   4.906   4.538
 2438TIP3   OH2 7277   3.317   5.867   3.325
 2438TIP3    H1 7278   3.333   5.933   3.393
 2438TIP3    H2 7279   3.299   5.917   3.246
 2439TIP3   OH2 7280   6.494   0.449   0.640
 2439TIP3    H1 7281   6.573   0.448   0.692
 2439TIP3    H2 7282   6.518   0.404   0.559
 2440TIP3   OH2 7283   2.449   1.257   0.275
 2440TIP3    H1 7284   2.501   1.305   0.210
 2440TIP3    H2 7285   2.363   1.299   0.272
 2441TIP3   OH2 7286   3.580   5.525   0.440
 2441TIP3    H1 7287   3.625   5.508   0.523
 2441TIP3    H2 7288   3.566   5.438   0.403
 2442TIP3   OH2 7289   0.570   0.059   0.475
 2442TIP3    H1 7290   0.475   0.067   0.461
 2442TIP3    H2 7291   0.597  -0.008   0.412
 2443TIP3   OH2 7292   6.779   1.196   3.652
 2443TIP3    H1 7293   6.760   1.110   3.616
 2443TIP3    H2 7294   6.817   1.179   3.739
 2444TIP3   OH2 7295   5.211   6.636   4.872
 2444TIP3    H1 7296   5.186   6.714   4.920
 2444TIP3    H2 7297   5.205   6.661   4.780
 2445TIP3   OH2 7298   6.694   5.986   4.979
 2445TIP3    H1 7299   6.766   6.005   4.918
 2445TIP3    H2 7300   6.664   5.899   4.954
 2446TIP3   OH2 7301   1.455   5.922   5.411
 2446TIP3    H1 7302   1.546   5.927   5.382
 2446TIP3    H2 7303   1.410   5.989   5.359
 2447TIP3   OH2 7304   4.926   4.183   1.364
 2447TIP3    H1 7305   4.942   4.276   1.350
 2447TIP3    H2 7306   4.980   4.139   1.299
 2448TIP3   OH2 7307   2.730   6.079   4.017
 2448TIP3    H1 7308   2.723   5.991   4.055
 2448TIP3    H2 7309   2.703   6.137   4.088
 2449TIP3   OH2 7310   0.553   4.118   3.906
 2449TIP3    H1 7311   0.537   4.140   3.998
 2449TIP3    H2 7312   0.526   4.196   3.857
 2450TIP3   OH2 7313   3.220   5.911   5.076
 2450TIP3    H1 7314   3.289   5.964   5.115
 2450TIP3    H2 7315   3.235   5.823   5.112
 2451TIP3   OH2 7316   3.458   4.559   4.612
 2451TIP3    H1 7317   3.522   4.607   4.560
 2451TIP3    H2 7318   3.471   4.590   4.702
 2452TIP3   OH2 7319   5.138   5.242   2.841
 2452TIP3    H1 7320   5.107   5.322   2.798
 2452TIP3    H2 7321   5.201   5.205   2.778
 2453TIP3   OH2 7322   0.721   2.404   2.028
 2453TIP3    H1 7323   0.646   2.445   1.985
 2453TIP3    H2 7324   0.765   2.476   2.073
 2454TIP3   OH2 7325   6.774   4.711   3.884
 2454TIP3    H1 7326   6.819   4.775   3.940
 2454TIP3    H2 7327   6.681   4.725   3.900
 2455TIP3   OH2 7328   2.410   2.629   4.006
 2455TIP3    H1 7329   2.338   2.600   4.061
 2455TIP3    H2 7330   2.404   2.724   4.005
 2456TIP3   OH2 7331   5.479   4.386   3.504
 2456TIP3    H1 7332   5.395   4.418   3.537
 2456TIP3    H2 7333   5.460   4.297   3.473
 2457TIP3   OH2 7334   1.322   1.928   4.625
 2457TIP3    H1 7335   1.262   1.895   4.692
 2457TIP3    H2 7336   1.381   1.986   4.672
 2458TIP3   OH2 7337   0.723   4.954   0.814
 2458TIP3    H1 7338   0.742   4.865   0.787
 2458TIP3    H2 7339   0.742   5.007   0.737
 2459TIP3   OH2 7340   2.131   2.754   3.780
 2459TIP3    H1 7341   2.094   2.841   3.767
 2459TIP3    H2 7342   2.147   2.721   3.691
 2460TIP3   OH2 7343   3.880   0.423   0.097
 2460TIP3    H1 7344   3.892   0.328   0.087
 2460TIP3    H2 7345   3.947   0.449   0.159
 2461TIP3   OH2 7346   6.242   4.323   4.019
 2461TIP3    H1 7347   6.212   4.412   3.999
 2461TIP3    H2 7348   6.270   4.288   3.935
 2462TIP3   OH2 7349   5.571   1.191   1.256
 2462TIP3    H1 7350   5.522   1.237   1.324
 2462TIP3    H2 7351   5.636   1.139   1.303
 2463TIP3   OH2 7352   2.031   0.708   3.459
 2463TIP3    H1 7353   2.014   0.700   3.553
 2463TIP3    H2 7354   1.960   0.763   3.426
 2464TIP3   OH2 7355   3.805   4.802   1.297
 2464TIP3    H1 7356   3.816   4.708   1.309
 2464TIP3    H2 7357   3.871   4.826   1.233
 2465TIP3   OH2 7358   6.818   2.602   5.394
 2465TIP3    H1 7359   6.908   2.620   5.367
 2465TIP3    H2 7360   6.767   2.671   5.353
 2466TIP3   OH2 7361   2.712   6.669   4.733
 2466TIP3    H1 7362   2.789   6.620   4.703
 2466TIP3    H2 7363   2.739   6.761   4.729
 2467TIP3   OH2 7364   3.014   3.237   5.646
 2467TIP3    H1 7365   2.926   3.207   5.626
 2467TIP3    H2 7366   3.069   3.159   5.638
 2468TIP3   OH2 7367   1.796   5.677   1.867
 2468TIP3    H1 7368   1.882   5.703   1.901
 2468TIP3    H2 7369   1.737   5.748   1.894
 2469TIP3   OH2 7370   1.881   6.015   1.457
 2469TIP3    H1 7371   1.879   6.084   1.391
 2469TIP3    H2 7372   1.969   5.978   1.450
 2470TIP3   OH2 7373   1.098   6.033   3.172
 2470TIP3    H1 7374   1.155   5.961   3.198
 2470TIP3    H2 7375   1.157   6.097   3.132
 2471TIP3   OH2 7376   7.015   4.574   4.416
 2471TIP3    H1 7377   6.936   4.556   4.468
 2471TIP3    H2 7378   7.064   4.637   4.469
 2472TIP3   OH2 7379   3.291   2.170   0.750
 2472TIP3    H1 7380   3.257   2.257   0.730
 2472TIP3    H2 7381   3.376   2.166   0.707
 2473TIP3   OH2 7382   4.402   5.582   5.759
 2473TIP3    H1 7383   4.465   5.515   5.787
 2473TIP3    H2 7384   4.382   5.631   5.839
 2474TIP3   OH2 7385   6.235   1.680   2.545
 2474TIP3    H1 7386   6.144   1.694   2.571
 2474TIP3    H2 7387   6.267   1.610   2.602
 2475TIP3   OH2 7388   4.304   2.195   2.566
 2475TIP3    H1 7389   4.249   2.156   2.497
 2475TIP3    H2 7390   4.353   2.120   2.601
 2476TIP3   OH2 7391   4.165   3.950   4.709
 2476TIP3    H1 7392   4.089   3.895   4.692
 2476TIP3    H2 7393   4.159   4.021   4.645
 2477TIP3   OH2 7394   0.470   0.073   1.051
 2477TIP3    H1 7395   0.441  -0.011   1.088
 2477TIP3    H2 7396   0.554   0.053   1.011
 2478TIP3   OH2 7397   5.787   2.124   4.739
 2478TIP3    H1 7398   5.813   2.097   4.651
 2478TIP3    H2 7399   5.799   2.219   4.739
 2479TIP3   OH2 7400   1.567   2.456   1.861
 2479TIP3    H1 7401   1.609   2.468   1.776
 2479TIP3    H2 7402   1.539   2.544   1.887
 2480TIP3   OH2 7403   0.787   1.950   1.285
 2480TIP3    H1 7404   0.697   1.963   1.255
 2480TIP3    H2 7405   0.799   2.017   1.353
 2481TIP3   OH2 7406   6.918   1.847   5.039
 2481TIP3    H1 7407   6.899   1.763   4.997
 2481TIP3    H2 7408   6.979   1.890   4.979
 2482TIP3   OH2 7409   0.242   0.661   2.846
 2482TIP3    H1 7410   0.191   0.704   2.914
 2482TIP3    H2 7411   0.299   0.730   2.811
 2483TIP3   OH2 7412   1.741   2.610   1.042
 2483TIP3    H1 7413   1.800   2.644   1.110
 2483TIP3    H2 7414   1.716   2.687   0.992
 2484TIP3   OH2 7415   3.155   0.970   0.900
 2484TIP3    H1 7416   3.142   0.894   0.957
 2484TIP3    H2 7417   3.075   0.975   0.848
 2485TIP3   OH2 7418   3.729   5.046   1.740
 2485TIP3    H1 7419   3.748   4.973   1.681
 2485TIP3    H2 7420   3.639   5.031   1.768
 2486TIP3   OH2 7421   0.011   2.441   2.015
 2486TIP3    H1 7422   0.009   2.389   2.095
 2486TIP3    H2 7423  -0.020   2.381   1.947
 2487TIP3   OH2 7424   1.217   1.921   4.180
 2487TIP3    H1 7425   1.250   1.934   4.091
 2487TIP3    H2 7426   1.133   1.967   4.182
 2488TIP3   OH2 7427   5.496   6.668   2.707
 2488TIP3    H1 7428   5.484   6.576   2.728
 2488TIP3    H2 7429   5.590   6.684   2.721
 2489TIP3   OH2 7430   1.855   0.046   4.302
 2489TIP3    H1 7431   1.850   0.127   4.251
 2489TIP3    H2 7432   1.769   0.005   4.290
 2490TIP3   OH2 7433   6.604   2.005   3.928
 2490TIP3    H1 7434   6.547   2.016   3.852
 2490TIP3    H2 7435   6.557   1.944   3.984
 2491TIP3   OH2 7436   0.819   2.166   5.563
 2491TIP3    H1 7437   0.813   2.145   5.470
 2491TIP3    H2 7438   0.753   2.110   5.605
 2492TIP3   OH2 7439   5.055   2.379   5.821
 2492TIP3    H1 7440   5.059   2.287   5.846
 2492TIP3    H2 7441   5.049   2.426   5.904
 2493TIP3   OH2 7442   1.543   3.081   0.149
 2493TIP3    H1 7443   1.513   3.060   0.060
 2493TIP3    H2 7444   1.485   3.031   0.206
 2494TIP3   OH2 7445   1.687   3.560   0.041
 2494TIP3    H1 7446   1.712   3.469   0.022
 2494TIP3    H2 7447   1.770   3.605   0.055
 2495TIP3   OH2 7448   3.339   1.970   1.645
 2495TIP3    H1 7449   3.403   1.966   1.574
 2495TIP3    H2 7450   3.254   1.979   1.601
 2496TIP3   OH2 7451   6.153   4.159   3.195
 2496TIP3    H1 7452   6.247   4.164   3.209
 2496TIP3    H2 7453   6.144   4.107   3.115
 2497TIP3   OH2 7454   5.465   0.387   4.344
 2497TIP3    H1 7455   5.473   0.326   4.271
 2497TIP3    H2 7456   5.398   0.449   4.316
 2498TIP3   OH2 7457   0.761   4.608   4.457
 2498TIP3    H1 7458   0.801   4.522   4.447
 2498TIP3    H2 7459   0.673   4.590   4.490
 2499TIP3   OH2 7460   0.411   2.266   2.558
 2499TIP3    H1 7461   0.412   2.183   2.511
 2499TIP3    H2 7462   0.388   2.242   2.648
 2500TIP3   OH2 7463   0.361   0.631   1.058
 2500TIP3    H1 7464   0.417   0.558   1.083
 2500TIP3    H2 7465   0.319   0.603   0.977
 2501TIP3   OH2 7466   4.827   2.312   5.671
 2501TIP3    H1 7467   4.846   2.246   5.604
 2501TIP3    H2 7468   4.911   2.329   5.712
 2502TIP3   OH2 7469   5.057   2.599   0.549
 2502TIP3    H1 7470   5.004   2.629   0.622
 2502TIP3    H2 7471   5.005   2.528   0.510
 2503TIP3   OH2 7472   4.443   0.537   3.739
 2503TIP3    H1 7473   4.427   0.527   3.833
 2503TIP3    H2 7474   4.356   0.528   3.699
 2504TIP3   OH2 7475   3.107   5.139   0.166
 2504TIP3    H1 7476   3.170   5.099   0.106
 2504TIP3    H2 7477   3.108   5.232   0.143
 2505TIP3   OH2 7478   6.977   3.320   2.085
 2505TIP3    H1 7479   6.890   3.305   2.048
 2505TIP3    H2 7480   7.036   3.315   2.010
 2506TIP3   OH2 7481   5.358   5.360   2.522
 2506TIP3    H1 7482   5.380   5.411   2.599
 2506TIP3    H2 7483   5.431   5.298   2.512
 2507TIP3   OH2 7484   5.825   2.745   1.322
 2507TIP3    H1 7485   5.887   2.696   1.376
 2507TIP3    H2 7486   5.747   2.754   1.376
 2508TIP3   OH2 7487   2.211   1.622   1.360
 2508TIP3    H1 7488   2.191   1.545   1.307
 2508TIP3    H2 7489   2.125   1.654   1.389
 2509TIP3   OH2 7490   0.707   1.836   4.381
 2509TIP3    H1 7491   0.779   1.793   4.427
 2509TIP3    H2 7492   0.741   1.850   4.292
 2510TIP3   OH2 7493   5.370   5.968   4.998
 2510TIP3    H1 7494   5.460   5.993   5.016
 2510TIP3    H2 7495   5.350   6.007   4.913
 2511TIP3   OH2 7496   1.894   6.237   1.298
 2511TIP3    H1 7497   1.836   6.313   1.294
 2511TIP3    H2 7498   1.981   6.274   1.315
 2512TIP3   OH2 7499   0.881   2.635   5.537
 2512TIP3    H1 7500   0.891   2.565   5.473
 2512TIP3    H2 7501   0.910   2.714   5.491
 2513TIP3   OH2 7502   1.591   5.385   0.430
 2513TIP3    H1 7503   1.577   5.317   0.496
 2513TIP3    H2 7504   1.513   5.381   0.374
 2514TIP3   OH2 7505   4.580   2.795   5.189
 2514TIP3    H1 7506   4.551   2.862   5.252
 2514TIP3    H2 7507   4.498   2.755   5.158
 2515TIP3   OH2 7508   4.806   4.198   1.101
 2515TIP3    H1 7509   4.762   4.113   1.103
 2515TIP3    H2 7510   4.815   4.222   1.193
 2516TIP3   OH2 7511  -0.007   6.251   5.186
 2516TIP3    H1 7512  -0.086   6.229   5.234
 2516TIP3    H2 7513   0.065   6.232   5.247
 2517TIP3   OH2 7514   3.077   5.515   1.108
 2517TIP3    H1 7515   3.108   5.425   1.098
 2517TIP3    H2 7516   3.133   5.566   1.050
 2518TIP3   OH2 7517   5.677   5.531   5.885
 2518TIP3    H1 7518   5.756   5.586   5.884
 2518TIP3    H2 7519   5.675   5.491   5.798
 2519TIP3   OH2 7520   1.079   4.942   3.820
 2519TIP3    H1 7521   1.027   4.992   3.757
 2519TIP3    H2 7522   1.170   4.960   3.796
 2520TIP3   OH2 7523   3.185   3.825   5.247
 2520TIP3    H1 7524   3.272   3.856   5.270
 2520TIP3    H2 7525   3.127   3.899   5.268
 2521TIP3   OH2 7526   0.812   4.813   3.252
 2521TIP3    H1 7527   0.796   4.799   3.346
 2521TIP3    H2 7528   0.899   4.775   3.237
 2522TIP3   OH2 7529   0.574   1.452   2.080
 2522TIP3    H1 7530   0.576   1.496   1.995
 2522TIP3    H2 7531   0.645   1.493   2.130
 2523TIP3   OH2 7532  -0.042   1.589   4.599
 2523TIP3    H1 7533  -0.023   1.645   4.523
 2523TIP3    H2 7534  -0.075   1.508   4.561
 2524TIP3   OH2 7535   3.773   3.690   1.356
 2524TIP3    H1 7536   3.851   3.649   1.393
 2524TIP3    H2 7537   3.806   3.766   1.308
 2525TIP3   OH2 7538   4.666   0.524   2.323
 2525TIP3    H1 7539   4.741   0.504   2.267
 2525TIP3    H2 7540   4.669   0.458   2.392
 2526TIP3   OH2 7541   2.602   3.617   3.548
 2526TIP3    H1 7542   2.637   3.681   3.610
 2526TIP3    H2 7543   2.665   3.546   3.548
 2527TIP3   OH2 7544   3.650   5.269   0.291
 2527TIP3    H1 7545   3.657   5.237   0.201
 2527TIP3    H2 7546   3.740   5.289   0.317
 2528TIP3   OH2 7547   3.714   1.099   3.378
 2528TIP3    H1 7548   3.623   1.128   3.371
 2528TIP3    H2 7549   3.710   1.018   3.429
 2529TIP3   OH2 7550   3.112   6.308   3.215
 2529TIP3    H1 7551   3.041   6.330   3.155
 2529TIP3    H2 7552   3.071   6.300   3.301
 2530TIP3   OH2 7553   6.970   2.589   5.732
 2530TIP3    H1 7554   6.942   2.663   5.679
 2530TIP3    H2 7555   6.956   2.617   5.823
 2531TIP3   OH2 7556   2.458   1.279   1.846
 2531TIP3    H1 7557   2.489   1.326   1.768
 2531TIP3    H2 7558   2.400   1.211   1.811
 2532TIP3   OH2 7559   4.607   5.797   4.304
 2532TIP3    H1 7560   4.582   5.794   4.396
 2532TIP3    H2 7561   4.581   5.884   4.274
 2533TIP3   OH2 7562   6.071   5.332   5.281
 2533TIP3    H1 7563   6.105   5.420   5.297
 2533TIP3    H2 7564   6.062   5.326   5.186
 2534TIP3   OH2 7565   0.295   1.941   3.340
 2534TIP3    H1 7566   0.228   1.872   3.348
 2534TIP3    H2 7567   0.378   1.895   3.353
 2535TIP3   OH2 7568   2.559   5.436   4.408
 2535TIP3    H1 7569   2.555   5.370   4.339
 2535TIP3    H2 7570   2.546   5.519   4.363
 2536TIP3   OH2 7571   6.813   4.607   1.428
 2536TIP3    H1 7572   6.888   4.666   1.426
 2536TIP3    H2 7573   6.804   4.575   1.339
 2537TIP3   OH2 7574   3.906   2.398   0.523
 2537TIP3    H1 7575   3.816   2.425   0.537
 2537TIP3    H2 7576   3.948   2.474   0.483
 2538TIP3   OH2 7577   0.858   6.160   5.276
 2538TIP3    H1 7578   0.783   6.115   5.313
 2538TIP3    H2 7579   0.866   6.240   5.328
 2539TIP3   OH2 7580   2.990   4.510   4.109
 2539TIP3    H1 7581   2.975   4.450   4.182
 2539TIP3    H2 7582   2.926   4.485   4.043
 2540TIP3   OH2 7583   6.479   3.108   2.784
 2540TIP3    H1 7584   6.548   3.047   2.758
 2540TIP3    H2 7585   6.398   3.058   2.775
 2541TIP3   OH2 7586   1.805   3.834   5.240
 2541TIP3    H1 7587   1.849   3.918   5.226
 2541TIP3    H2 7588   1.870   3.769   5.215
 2542TIP3   OH2 7589   2.451   2.612   3.635
 2542TIP3    H1 7590   2.370   2.641   3.593
 2542TIP3    H2 7591   2.449   2.652   3.722
 2543TIP3   OH2 7592   3.041   4.513   4.968
 2543TIP3    H1 7593   2.996   4.591   4.935
 2543TIP3    H2 7594   3.079   4.541   5.051
 2544TIP3   OH2 7595   4.459   2.865   2.744
 2544TIP3    H1 7596   4.511   2.869   2.824
 2544TIP3    H2 7597   4.389   2.802   2.764
 2545TIP3   OH2 7598   0.398   2.114   3.897
 2545TIP3    H1 7599   0.448   2.076   3.824
 2545TIP3    H2 7600   0.426   2.206   3.900
 2546TIP3   OH2 7601   1.216   5.756   4.949
 2546TIP3    H1 7602   1.169   5.782   5.028
 2546TIP3    H2 7603   1.270   5.682   4.977
 2547TIP3   OH2 7604   1.991   5.757   2.028
 2547TIP3    H1 7605   2.009   5.823   2.095
 2547TIP3    H2 7606   2.077   5.731   1.996
 2548TIP3   OH2 7607   0.249   6.691   4.890
 2548TIP3    H1 7608   0.320   6.669   4.829
 2548TIP3    H2 7609   0.291   6.744   4.957
 2549TIP3   OH2 7610   7.093   3.162   1.224
 2549TIP3    H1 7611   7.179   3.152   1.183
 2549TIP3    H2 7612   7.039   3.096   1.182
 2550TIP3   OH2 7613   1.264   5.161   2.679
 2550TIP3    H1 7614   1.302   5.180   2.765
 2550TIP3    H2 7615   1.197   5.094   2.697
 2551TIP3   OH2 7616   5.518   5.759   2.397
 2551TIP3    H1 7617   5.587   5.743   2.461
 2551TIP3    H2 7618   5.458   5.819   2.442
 2552TIP3   OH2 7619   0.509   1.197   3.569
 2552TIP3    H1 7620   0.525   1.282   3.528
 2552TIP3    H2 7621   0.543   1.207   3.658
 2553TIP3   OH2 7622   0.027   3.681   2.322
 2553TIP3    H1 7623  -0.043   3.713   2.265
 2553TIP3    H2 7624  -0.013   3.673   2.408
 2554TIP3   OH2 7625   0.009   3.587   5.268
 2554TIP3    H1 7626   0.065   3.521   5.308
 2554TIP3    H2 7627   0.027   3.668   5.317
 2555TIP3   OH2 7628   7.113   5.274   1.899
 2555TIP3    H1 7629   7.074   5.355   1.866
 2555TIP3    H2 7630   7.085   5.269   1.990
 2556TIP3   OH2 7631   1.802   2.078   5.058
 2556TIP3    H1 7632   1.729   2.108   5.112
 2556TIP3    H2 7633   1.820   2.153   5.001
 2557TIP3   OH2 7634   6.826   0.346   3.580
 2557TIP3    H1 7635   6.920   0.363   3.586
 2557TIP3    H2 7636   6.793   0.410   3.516
 2558TIP3   OH2 7637   0.979   4.108   2.807
 2558TIP3    H1 7638   0.964   4.016   2.829
 2558TIP3    H2 7639   0.912   4.128   2.742
 2559TIP3   OH2 7640   6.342   6.069   2.553
 2559TIP3    H1 7641   6.285   6.066   2.630
 2559TIP3    H2 7642   6.282   6.087   2.480
 2560TIP3   OH2 7643   1.021   4.536   0.028
 2560TIP3    H1 7644   0.971   4.541  -0.053
 2560TIP3    H2 7645   1.042   4.443   0.038
 2561TIP3   OH2 7646   1.331   0.305   5.576
 2561TIP3    H1 7647   1.350   0.393   5.544
 2561TIP3    H2 7648   1.315   0.253   5.497
 2562TIP3   OH2 7649   5.979   2.341   5.165
 2562TIP3    H1 7650   6.031   2.322   5.244
 2562TIP3    H2 7651   5.935   2.423   5.184
 2563TIP3   OH2 7652   2.611   4.452   5.064
 2563TIP3    H1 7653   2.560   4.510   5.007
 2563TIP3    H2 7654   2.632   4.506   5.140
 2564TIP3   OH2 7655   3.873   6.536   2.037
 2564TIP3    H1 7656   3.932   6.492   1.975
 2564TIP3    H2 7657   3.917   6.528   2.121
 2565TIP3   OH2 7658   2.994   6.217   0.451
 2565TIP3    H1 7659   2.908   6.241   0.416
 2565TIP3    H2 7660   3.056   6.244   0.384
 2566TIP3   OH2 7661   0.082   0.115   0.767
 2566TIP3    H1 7662   0.007   0.171   0.748
 2566TIP3    H2 7663   0.156   0.159   0.725
 2567TIP3   OH2 7664   7.188   0.406   4.865
 2567TIP3    H1 7665   7.116   0.390   4.926
 2567TIP3    H2 7666   7.165   0.490   4.824
 2568TIP3   OH2 7667   6.788   2.694   0.261
 2568TIP3    H1 7668   6.776   2.734   0.175
 2568TIP3    H2 7669   6.870   2.645   0.253
 2569TIP3   OH2 7670   6.295   2.885   1.332
 2569TIP3    H1 7671   6.335   2.963   1.294
 2569TIP3    H2 7672   6.290   2.822   1.260
 2570TIP3   OH2 7673   4.287   6.005   0.794
 2570TIP3    H1 7674   4.354   6.073   0.803
 2570TIP3    H2 7675   4.209   6.044   0.834
 2571TIP3   OH2 7676   4.086   0.780   4.861
 2571TIP3    H1 7677   4.031   0.852   4.831
 2571TIP3    H2 7678   4.032   0.733   4.925
 2572TIP3   OH2 7679   3.398   3.969   5.364
 2572TIP3    H1 7680   3.377   4.058   5.392
 2572TIP3    H2 7681   3.439   3.929   5.441
 2573TIP3   OH2 7682   5.643   0.019   4.954
 2573TIP3    H1 7683   5.576   0.079   4.921
 2573TIP3    H2 7684   5.607  -0.068   4.937
 2574TIP3   OH2 7685   2.891   5.303   2.033
 2574TIP3    H1 7686   2.919   5.250   2.107
 2574TIP3    H2 7687   2.823   5.360   2.068
 2575TIP3   OH2 7688   0.240   4.048   0.795
 2575TIP3    H1 7689   0.264   3.956   0.804
 2575TIP3    H2 7690   0.319   4.091   0.761
 2576TIP3   OH2 7691   5.452   5.659   0.360
 2576TIP3    H1 7692   5.477   5.734   0.414
 2576TIP3    H2 7693   5.373   5.689   0.314
 2577TIP3   OH2 7694   2.102   6.292   4.261
 2577TIP3    H1 7695   2.102   6.381   4.226
 2577TIP3    H2 7696   2.061   6.239   4.194
 2578TIP3   OH2 7697   5.336   0.855   4.938
 2578TIP3    H1 7698   5.319   0.841   4.844
 2578TIP3    H2 7699   5.360   0.947   4.945
 2579TIP3   OH2 7700   4.269   6.689   0.202
 2579TIP3    H1 7701   4.250   6.597   0.221
 2579TIP3    H2 7702   4.311   6.689   0.117
 2580TIP3   OH2 7703   0.265   6.013   1.754
 2580TIP3    H1 7704   0.243   6.019   1.847
 2580TIP3    H2 7705   0.181   6.011   1.710
 2581TIP3   OH2 7706   1.324   2.172   2.117
 2581TIP3    H1 7707   1.410   2.151   2.152
 2581TIP3    H2 7708   1.293   2.246   2.170
 2582TIP3   OH2 7709   7.006   6.486   5.278
 2582TIP3    H1 7710   6.966   6.477   5.365
 2582TIP3    H2 7711   6.977   6.408   5.231
 2583TIP3   OH2 7712   2.056   5.552  -0.015
 2583TIP3    H1 7713   1.986   5.544   0.050
 2583TIP3    H2 7714   2.012   5.584  -0.094
 2584TIP3   OH2 7715   4.823   1.624   4.152
 2584TIP3    H1 7716   4.857   1.713   4.148
 2584TIP3    H2 7717   4.809   1.608   4.245
 2585TIP3   OH2 7718   6.351   5.212   2.230
 2585TIP3    H1 7719   6.262   5.227   2.199
 2585TIP3    H2 7720   6.346   5.130   2.279
 2586TIP3   OH2 7721   3.830   1.232   3.929
 2586TIP3    H1 7722   3.759   1.201   3.984
 2586TIP3    H2 7723   3.844   1.161   3.866
 2587TIP3   OH2 7724   0.804   4.924   4.675
 2587TIP3    H1 7725   0.836   4.834   4.675
 2587TIP3    H2 7726   0.728   4.922   4.617
 2588TIP3   OH2 7727   1.131   0.130   4.959
 2588TIP3    H1 7728   1.078   0.063   5.002
 2588TIP3    H2 7729   1.218   0.122   4.999
 2589TIP3   OH2 7730   6.494   4.887   0.981
 2589TIP3    H1 7731   6.401   4.907   0.966
 2589TIP3    H2 7732   6.518   4.832   0.907
 2590TIP3   OH2 7733   6.298   0.349   3.889
 2590TIP3    H1 7734   6.342   0.428   3.858
 2590TIP3    H2 7735   6.304   0.352   3.984
 2591TIP3   OH2 7736   3.396   1.997   3.564
 2591TIP3    H1 7737   3.478   2.045   3.575
 2591TIP3    H2 7738   3.379   1.958   3.649
 2592TIP3   OH2 7739   0.479   4.399   3.262
 2592TIP3    H1 7740   0.435   4.478   3.230
 2592TIP3    H2 7741   0.431   4.375   3.341
 2593TIP3   OH2 7742   5.065   3.826   0.617
 2593TIP3    H1 7743   5.078   3.763   0.688
 2593TIP3    H2 7744   5.097   3.781   0.539
 2594TIP3   OH2 7745   3.798   0.553   5.495
 2594TIP3    H1 7746   3.731   0.581   5.557
 2594TIP3    H2 7747   3.781   0.605   5.417
 2595TIP3   OH2 7748   4.059   4.420   5.596
 2595TIP3    H1 7749   3.996   4.412   5.667
 2595TIP3    H2 7750   4.110   4.339   5.599
 2596TIP3   OH2 7751   1.109   1.926   0.463
 2596TIP3    H1 7752   1.024   1.932   0.506
 2596TIP3    H2 7753   1.172   1.924   0.535
 2597TIP3   OH2 7754   6.781   0.025   4.773
 2597TIP3    H1 7755   6.855   0.070   4.733
 2597TIP3    H2 7756   6.770   0.068   4.858
 2598TIP3   OH2 7757   4.533   3.036   4.482
 2598TIP3    H1 7758   4.552   2.956   4.532
 2598TIP3    H2 7759   4.616   3.083   4.480
 2599TIP3   OH2 7760   0.602   3.768   1.433
 2599TIP3    H1 7761   0.657   3.827   1.486
 2599TIP3    H2 7762   0.600   3.686   1.482
 2600TIP3   OH2 7763   2.105   6.545   1.299
 2600TIP3    H1 7764   2.159   6.528   1.376
 2600TIP3    H2 7765   2.145   6.621   1.257
 2601TIP3   OH2 7766   0.838   6.649   1.152
 2601TIP3    H1 7767   0.813   6.649   1.060
 2601TIP3    H2 7768   0.931   6.672   1.152
 2602TIP3   OH2 7769   2.013   1.644   3.282
 2602TIP3    H1 7770   1.944   1.701   3.248
 2602TIP3    H2 7771   2.021   1.668   3.374
 2603TIP3   OH2 7772   5.479   4.182   5.884
 2603TIP3    H1 7773   5.410   4.191   5.950
 2603TIP3    H2 7774   5.510   4.092   5.893
 2604TIP3   OH2 7775   6.810   4.401   0.408
 2604TIP3    H1 7776   6.884   4.380   0.351
 2604TIP3    H2 7777   6.778   4.486   0.376
 2605TIP3   OH2 7778   5.310   6.314   3.116
 2605TIP3    H1 7779   5.335   6.241   3.172
 2605TIP3    H2 7780   5.310   6.278   3.027
 2606TIP3   OH2 7781   0.208   0.449   3.993
 2606TIP3    H1 7782   0.184   0.367   4.036
 2606TIP3    H2 7783   0.237   0.423   3.906
 2607TIP3   OH2 7784   2.336   5.744   2.107
 2607TIP3    H1 7785   2.317   5.697   2.026
 2607TIP3    H2 7786   2.377   5.826   2.078
 2608TIP3   OH2 7787   2.167   3.165   0.193
 2608TIP3    H1 7788   2.255   3.126   0.191
 2608TIP3    H2 7789   2.166   3.225   0.118
 2609TIP3   OH2 7790   6.080   2.730   2.077
 2609TIP3    H1 7791   6.139   2.655   2.086
 2609TIP3    H2 7792   6.000   2.704   2.122
 2610TIP3   OH2 7793   3.256   0.331   3.316
 2610TIP3    H1 7794   3.346   0.329   3.349
 2610TIP3    H2 7795   3.232   0.424   3.316
 2611TIP3   OH2 7796   0.825   6.782   5.303
 2611TIP3    H1 7797   0.861   6.746   5.384
 2611TIP3    H2 7798   0.899   6.782   5.242
 2612TIP3   OH2 7799   0.148   3.932   3.492
 2612TIP3    H1 7800   0.105   3.997   3.435
 2612TIP3    H2 7801   0.148   3.852   3.439
 2613TIP3   OH2 7802   1.756   6.467   1.331
 2613TIP3    H1 7803   1.825   6.514   1.377
 2613TIP3    H2 7804   1.748   6.511   1.247
 2614TIP3   OH2 7805   2.261   2.741   1.783
 2614TIP3    H1 7806   2.307   2.658   1.791
 2614TIP3    H2 7807   2.292   2.778   1.700
 2615TIP3   OH2 7808   6.506   4.903   0.363
 2615TIP3    H1 7809   6.556   4.984   0.356
 2615TIP3    H2 7810   6.560   4.838   0.320
 2616TIP3   OH2 7811   6.512   2.692   3.486
 2616TIP3    H1 7812   6.570   2.728   3.553
 2616TIP3    H2 7813   6.569   2.678   3.410
 2617TIP3   OH2 7814   3.059   5.965   2.881
 2617TIP3    H1 7815   3.096   5.883   2.913
 2617TIP3    H2 7816   3.053   6.021   2.958
 2618TIP3   OH2 7817   2.954   2.894   1.996
 2618TIP3    H1 7818   3.000   2.956   1.939
 2618TIP3    H2 7819   2.888   2.947   2.041
 2619TIP3   OH2 7820   2.496   5.992   2.132
 2619TIP3    H1 7821   2.558   6.052   2.090
 2619TIP3    H2 7822   2.498   6.018   2.224
 2620TIP3   OH2 7823   6.969   1.297   1.535
 2620TIP3    H1 7824   6.989   1.244   1.611
 2620TIP3    H2 7825   7.051   1.299   1.485
 2621TIP3   OH2 7826   4.725   2.598   5.089
 2621TIP3    H1 7827   4.670   2.658   5.139
 2621TIP3    H2 7828   4.777   2.551   5.154
 2622TIP3   OH2 7829   0.192   3.548   1.850
 2622TIP3    H1 7830   0.122   3.601   1.889
 2622TIP3    H2 7831   0.213   3.593   1.768
 2623TIP3   OH2 7832   2.335   2.942   2.036
 2623TIP3    H1 7833   2.320   2.875   1.969
 2623TIP3    H2 7834   2.251   2.952   2.079
 2624TIP3   OH2 7835   1.868   1.504   5.318
 2624TIP3    H1 7836   1.963   1.498   5.309
 2624TIP3    H2 7837   1.853   1.592   5.353
 2625TIP3   OH2 7838   5.440   6.610   5.489
 2625TIP3    H1 7839   5.517   6.554   5.484
 2625TIP3    H2 7840   5.380   6.575   5.424
 2626TIP3   OH2 7841   2.882   2.455   3.526
 2626TIP3    H1 7842   2.973   2.424   3.525
 2626TIP3    H2 7843   2.883   2.533   3.581
 2627TIP3   OH2 7844   0.380   6.653   3.255
 2627TIP3    H1 7845   0.316   6.633   3.323
 2627TIP3    H2 7846   0.338   6.719   3.201
 2628TIP3   OH2 7847   0.427   0.748   3.618
 2628TIP3    H1 7848   0.449   0.810   3.549
 2628TIP3    H2 7849   0.474   0.781   3.695
 2629TIP3   OH2 7850   5.100   0.002   0.725
 2629TIP3    H1 7851   5.163   0.050   0.671
 2629TIP3    H2 7852   5.029  -0.020   0.665
 2630TIP3   OH2 7853   4.708   6.576   1.148
 2630TIP3    H1 7854   4.732   6.665   1.170
 2630TIP3    H2 7855   4.633   6.585   1.089
 2631TIP3   OH2 7856   0.102   2.180   3.873
 2631TIP3    H1 7857   0.195   2.177   3.896
 2631TIP3    H2 7858   0.101   2.170   3.778
 2632TIP3   OH2 7859   5.582   4.141   2.158
 2632TIP3    H1 7860   5.547   4.157   2.070
 2632TIP3    H2 7861   5.534   4.063   2.189
 2633TIP3   OH2 7862   6.976   0.242   4.951
 2633TIP3    H1 7863   7.017   0.180   5.011
 2633TIP3    H2 7864   6.885   0.245   4.978
 2634TIP3   OH2 7865   0.918   2.399   0.488
 2634TIP3    H1 7866   0.875   2.360   0.412
 2634TIP3    H2 7867   1.011   2.379   0.476
 2635TIP3   OH2 7868   6.114   6.261   5.716
 2635TIP3    H1 7869   6.096   6.271   5.810
 2635TIP3    H2 7870   6.098   6.348   5.680
 2636TIP3   OH2 7871   6.766   0.798   3.860
 2636TIP3    H1 7872   6.831   0.850   3.908
 2636TIP3    H2 7873   6.684   0.846   3.871
 2637TIP3   OH2 7874   3.569   0.636   3.922
 2637TIP3    H1 7875   3.634   0.705   3.934
 2637TIP3    H2 7876   3.512   0.642   3.999
 2638TIP3   OH2 7877   6.942   2.345   5.338
 2638TIP3    H1 7878   6.847   2.356   5.333
 2638TIP3    H2 7879   6.973   2.421   5.388
 2639TIP3   OH2 7880   3.162   3.247   4.810
 2639TIP3    H1 7881   3.187   3.240   4.718
 2639TIP3    H2 7882   3.108   3.326   4.815
 2640TIP3   OH2 7883   2.266   6.452   4.423
 2640TIP3    H1 7884   2.243   6.378   4.367
 2640TIP3    H2 7885   2.225   6.528   4.382
 2641TIP3   OH2 7886   2.054   2.942   5.115
 2641TIP3    H1 7887   1.996   3.008   5.077
 2641TIP3    H2 7888   2.121   2.927   5.047
 2642TIP3   OH2 7889   4.378   5.036   5.798
 2642TIP3    H1 7890   4.421   4.961   5.837
 2642TIP3    H2 7891   4.303   5.053   5.855
 2643TIP3   OH2 7892   6.144   1.392   3.227
 2643TIP3    H1 7893   6.124   1.448   3.152
 2643TIP3    H2 7894   6.216   1.436   3.272
 2644TIP3   OH2 7895   0.804   6.485   0.707
 2644TIP3    H1 7896   0.884   6.433   0.705
 2644TIP3    H2 7897   0.807   6.536   0.626
 2645TIP3   OH2 7898   4.184   1.261   1.332
 2645TIP3    H1 7899   4.248   1.190   1.320
 2645TIP3    H2 7900   4.199   1.320   1.257
 2646TIP3   OH2 7901   6.607   2.758   0.992
 2646TIP3    H1 7902   6.649   2.672   0.985
 2646TIP3    H2 7903   6.660   2.815   0.937
 2647TIP3   OH2 7904   6.235   5.583   5.331
 2647TIP3    H1 7905   6.292   5.626   5.268
 2647TIP3    H2 7906   6.188   5.654   5.375
 2648TIP3   OH2 7907   4.613   2.452   5.435
 2648TIP3    H1 7908   4.525   2.490   5.433
 2648TIP3    H2 7909   4.614   2.399   5.514
 2649TIP3   OH2 7910   0.045   1.175   1.489
 2649TIP3    H1 7911   0.102   1.212   1.556
 2649TIP3    H2 7912   0.075   1.084   1.480
 2650TIP3   OH2 7913   4.540   4.726   0.090
 2650TIP3    H1 7914   4.517   4.721   0.183
 2650TIP3    H2 7915   4.608   4.659   0.078
 2651TIP3   OH2 7916   4.687   6.538   3.634
 2651TIP3    H1 7917   4.724   6.622   3.661
 2651TIP3    H2 7918   4.600   6.536   3.673
 2652TIP3   OH2 7919   4.433   5.105   3.150
 2652TIP3    H1 7920   4.499   5.083   3.084
 2652TIP3    H2 7921   4.357   5.132   3.099
 2653TIP3   OH2 7922   2.493   0.137   0.773
 2653TIP3    H1 7923   2.424   0.196   0.742
 2653TIP3    H2 7924   2.519   0.089   0.694
 2654TIP3   OH2 7925   4.633   6.337   1.939
 2654TIP3    H1 7926   4.575   6.298   1.873
 2654TIP3    H2 7927   4.721   6.316   1.908
 2655TIP3   OH2 7928   0.337   1.937   4.109
 2655TIP3    H1 7929   0.358   1.990   4.032
 2655TIP3    H2 7930   0.255   1.973   4.142
 2656TIP3   OH2 7931   3.706   6.327   0.623
 2656TIP3    H1 7932   3.650   6.281   0.560
 2656TIP3    H2 7933   3.728   6.409   0.579
 2657TIP3   OH2 7934   5.121   5.915   3.055
 2657TIP3    H1 7935   5.032   5.893   3.027
 2657TIP3    H2 7936   5.109   5.980   3.124
 2658TIP3   OH2 7937   4.764   3.707   0.598
 2658TIP3    H1 7938   4.714   3.785   0.621
 2658TIP3    H2 7939   4.770   3.657   0.679
 2659TIP3   OH2 7940   5.096   5.438   0.856
 2659TIP3    H1 7941   5.086   5.466   0.765
 2659TIP3    H2 7942   5.046   5.356   0.861
 2660TIP3   OH2 7943   5.086   2.911   5.766
 2660TIP3    H1 7944   5.142   2.887   5.693
 2660TIP3    H2 7945   5.052   2.828   5.799
 2661TIP3   OH2 7946   5.604   1.492   5.200
 2661TIP3    H1 7947   5.593   1.539   5.117
 2661TIP3    H2 7948   5.690   1.518   5.231
 2662TIP3   OH2 7949   5.159   3.626   1.961
 2662TIP3    H1 7950   5.081   3.610   2.014
 2662TIP3    H2 7951   5.126   3.628   1.871
 2663TIP3   OH2 7952   0.227   5.249   4.107
 2663TIP3    H1 7953   0.220   5.228   4.014
 2663TIP3    H2 7954   0.157   5.198   4.148
 2664TIP3   OH2 7955   1.343   0.026   5.111
 2664TIP3    H1 7956   1.422   0.066   5.147
 2664TIP3    H2 7957   1.373  -0.059   5.077
 2665TIP3   OH2 7958   6.811   5.413   4.446
 2665TIP3    H1 7959   6.806   5.423   4.541
 2665TIP3    H2 7960   6.842   5.497   4.414
 2666TIP3   OH2 7961   1.934   3.671   0.186
 2666TIP3    H1 7962   2.012   3.640   0.232
 2666TIP3    H2 7963   1.862   3.656   0.248
 2667TIP3   OH2 7964   3.562   0.273   5.796
 2667TIP3    H1 7965   3.475   0.263   5.759
 2667TIP3    H2 7966   3.621   0.264   5.722
 2668TIP3   OH2 7967   2.741   2.040   4.807
 2668TIP3    H1 7968   2.794   1.964   4.784
 2668TIP3    H2 7969   2.664   2.033   4.750
 2669TIP3   OH2 7970   5.716   3.105   5.520
 2669TIP3    H1 7971   5.705   3.027   5.575
 2669TIP3    H2 7972   5.755   3.071   5.439
 2670TIP3   OH2 7973   1.022   0.812   2.773
 2670TIP3    H1 7974   1.008   0.722   2.743
 2670TIP3    H2 7975   1.038   0.862   2.692
 2671TIP3   OH2 7976   2.511   6.628   4.546
 2671TIP3    H1 7977   2.571   6.643   4.619
 2671TIP3    H2 7978   2.452   6.704   4.547
 2672TIP3   OH2 7979   1.596   1.532   1.817
 2672TIP3    H1 7980   1.674   1.528   1.762
 2672TIP3    H2 7981   1.628   1.558   1.903
 2673TIP3   OH2 7982   3.538   2.464   2.547
 2673TIP3    H1 7983   3.561   2.392   2.488
 2673TIP3    H2 7984   3.621   2.505   2.569
 2674TIP3   OH2 7985   4.283   2.023   3.401
 2674TIP3    H1 7986   4.287   1.932   3.371
 2674TIP3    H2 7987   4.251   2.017   3.490
 2675TIP3   OH2 7988   0.504   0.291   4.368
 2675TIP3    H1 7989   0.457   0.360   4.322
 2675TIP3    H2 7990   0.503   0.217   4.308
 2676TIP3   OH2 7991   0.925   0.956   1.519
 2676TIP3    H1 7992   1.018   0.939   1.503
 2676TIP3    H2 7993   0.902   0.895   1.590
 2677TIP3   OH2 7994   5.907   4.390   0.322
 2677TIP3    H1 7995   5.886   4.404   0.229
 2677TIP3    H2 7996   5.977   4.325   0.320
 2678TIP3   OH2 7997   3.683   0.203   3.151
 2678TIP3    H1 7998   3.712   0.261   3.081
 2678TIP3    H2 7999   3.703   0.115   3.119
 2679TIP3   OH2 8000   2.809   6.352   2.609
 2679TIP3    H1 8001   2.776   6.299   2.537
 2679TIP3    H2 8002   2.791   6.299   2.687
 2680TIP3   OH2 8003   5.550   6.350   4.441
 2680TIP3    H1 8004   5.489   6.310   4.503
 2680TIP3    H2 8005   5.510   6.434   4.419
 2681TIP3   OH2 8006   6.239   0.962   0.836
 2681TIP3    H1 8007   6.267   1.043   0.794
 2681TIP3    H2 8008   6.198   0.912   0.766
 2682TIP3   OH2 8009   5.780   5.389   2.601
 2682TIP3    H1 8010   5.852   5.426   2.550
 2682TIP3    H2 8011   5.722   5.464   2.618
 2683TIP3   OH2 8012   7.057   1.236   2.987
 2683TIP3    H1 8013   7.021   1.312   2.942
 2683TIP3    H2 8014   7.126   1.271   3.043
 2684TIP3   OH2 8015   5.791   2.202   5.048
 2684TIP3    H1 8016   5.831   2.271   5.101
 2684TIP3    H2 8017   5.864   2.168   4.995
 2685TIP3   OH2 8018   2.452   2.926   0.071
 2685TIP3    H1 8019   2.531   2.914   0.019
 2685TIP3    H2 8020   2.389   2.864   0.035
 2686TIP3   OH2 8021   1.442   5.009   5.251
 2686TIP3    H1 8022   1.488   4.942   5.301
 2686TIP3    H2 8023   1.389   5.055   5.316
 2687TIP3   OH2 8024   5.097   0.057   3.838
 2687TIP3    H1 8025   5.127  -0.013   3.780
 2687TIP3    H2 8026   5.144   0.041   3.920
 2688TIP3   OH2 8027   6.549   2.620   4.895
 2688TIP3    H1 8028   6.489   2.557   4.855
 2688TIP3    H2 8029   6.630   2.612   4.845
 2689TIP3   OH2 8030   4.513   1.596   3.407
 2689TIP3    H1 8031   4.509   1.500   3.398
 2689TIP3    H2 8032   4.596   1.620   3.366
 2690TIP3   OH2 8033   6.939   4.635   0.123
 2690TIP3    H1 8034   6.916   4.543   0.108
 2690TIP3    H2 8035   7.025   4.645   0.082
 2691TIP3   OH2 8036   3.670   1.071   5.225
 2691TIP3    H1 8037   3.683   1.095   5.133
 2691TIP3    H2 8038   3.575   1.067   5.236
 2692TIP3   OH2 8039   1.526   5.183   2.296
 2692TIP3    H1 8040   1.607   5.133   2.312
 2692TIP3    H2 8041   1.497   5.211   2.383
 2693TIP3   OH2 8042   4.744   1.858   5.378
 2693TIP3    H1 8043   4.837   1.875   5.364
 2693TIP3    H2 8044   4.700   1.902   5.305
 2694TIP3   OH2 8045   4.521   5.399   3.802
 2694TIP3    H1 8046   4.556   5.454   3.872
 2694TIP3    H2 8047   4.545   5.310   3.827
 2695TIP3   OH2 8048   6.462   5.838   4.257
 2695TIP3    H1 8049   6.496   5.815   4.344
 2695TIP3    H2 8050   6.540   5.854   4.204
 2696TIP3   OH2 8051   6.701   4.440   5.491
 2696TIP3    H1 8052   6.739   4.453   5.578
 2696TIP3    H2 8053   6.653   4.358   5.497
 2697TIP3   OH2 8054   7.054   3.916   2.766
 2697TIP3    H1 8055   7.013   4.002   2.770
 2697TIP3    H2 8056   7.146   3.933   2.786
 2698TIP3   OH2 8057   1.582   2.227   5.173
 2698TIP3    H1 8058   1.604   2.319   5.156
 2698TIP3    H2 8059   1.505   2.210   5.118
 2699TIP3   OH2 8060   5.523   4.365   4.079
 2699TIP3    H1 8061   5.577   4.361   4.158
 2699TIP3    H2 8062   5.556   4.295   4.024
 2700TIP3   OH2 8063   0.485   5.488   5.669
 2700TIP3    H1 8064   0.434   5.457   5.744
 2700TIP3    H2 8065   0.472   5.583   5.669
 2701TIP3   OH2 8066   1.657   4.444   4.536
 2701TIP3    H1 8067   1.637   4.513   4.473
 2701TIP3    H2 8068   1.571   4.417   4.569
 2702TIP3   OH2 8069   6.079   2.574   1.710
 2702TIP3    H1 8070   6.044   2.587   1.622
 2702TIP3    H2 8071   6.137   2.498   1.702
 2703TIP3   OH2 8072   2.499   0.542   4.501
 2703TIP3    H1 8073   2.497   0.446   4.498
 2703TIP3    H2 8074   2.434   0.565   4.567
 2704TIP3   OH2 8075   5.511   3.260   0.916
 2704TIP3    H1 8076   5.440   3.315   0.884
 2704TIP3    H2 8077   5.521   3.284   1.008
 2705TIP3   OH2 8078   6.753   2.736   2.994
 2705TIP3    H1 8079   6.773   2.824   2.962
 2705TIP3    H2 8080   6.837   2.690   2.991
 2706TIP3   OH2 8081   0.484   0.965   4.219
 2706TIP3    H1 8082   0.578   0.958   4.203
 2706TIP3    H2 8083   0.478   1.001   4.307
 2707TIP3   OH2 8084   1.727   1.212   0.046
 2707TIP3    H1 8085   1.644   1.164   0.048
 2707TIP3    H2 8086   1.794   1.144   0.052
 2708TIP3   OH2 8087   6.557   3.957   1.233
 2708TIP3    H1 8088   6.494   4.029   1.234
 2708TIP3    H2 8089   6.549   3.917   1.320
 2709TIP3   OH2 8090   3.224   3.813   4.543
 2709TIP3    H1 8091   3.201   3.766   4.463
 2709TIP3    H2 8092   3.250   3.900   4.514
 2710TIP3   OH2 8093   2.785   5.105   0.754
 2710TIP3    H1 8094   2.862   5.063   0.715
 2710TIP3    H2 8095   2.723   5.113   0.682
 2711TIP3   OH2 8096   6.151   0.338   4.637
 2711TIP3    H1 8097   6.125   0.338   4.729
 2711TIP3    H2 8098   6.068   0.347   4.589
 2712TIP3   OH2 8099   3.867   6.650   2.519
 2712TIP3    H1 8100   3.891   6.674   2.429
 2712TIP3    H2 8101   3.936   6.589   2.546
 2713TIP3   OH2 8102   0.753   5.058   3.017
 2713TIP3    H1 8103   0.771   4.984   2.960
 2713TIP3    H2 8104   0.668   5.091   2.988
 2714TIP3   OH2 8105   1.969   2.493   3.307
 2714TIP3    H1 8106   2.032   2.434   3.350
 2714TIP3    H2 8107   1.940   2.444   3.230
 2715TIP3   OH2 8108   5.561   5.199   2.490
 2715TIP3    H1 8109   5.543   5.109   2.464
 2715TIP3    H2 8110   5.625   5.192   2.561
 2716TIP3   OH2 8111   5.411   5.871   5.896
 2716TIP3    H1 8112   5.434   5.786   5.934
 2716TIP3    H2 8113   5.469   5.880   5.820
 2717TIP3   OH2 8114   6.575   4.697   0.633
 2717TIP3    H1 8115   6.594   4.728   0.722
 2717TIP3    H2 8116   6.651   4.725   0.582
 2718TIP3   OH2 8117   6.577   5.217   2.075
 2718TIP3    H1 8118   6.573   5.150   2.007
 2718TIP3    H2 8119   6.502   5.198   2.132
 2719TIP3   OH2 8120   5.545   5.482   3.101
 2719TIP3    H1 8121   5.450   5.475   3.109
 2719TIP3    H2 8122   5.574   5.395   3.076
 2720TIP3   OH2 8123   2.572   5.207   5.686
 2720TIP3    H1 8124   2.626   5.265   5.632
 2720TIP3    H2 8125   2.633   5.138   5.713
 2721TIP3   OH2 8126   4.224   1.539   0.700
 2721TIP3    H1 8127   4.243   1.606   0.634
 2721TIP3    H2 8128   4.308   1.521   0.741
 2722TIP3   OH2 8129   3.383   4.157   3.505
 2722TIP3    H1 8130   3.388   4.067   3.473
 2722TIP3    H2 8131   3.379   4.210   3.426
 2723TIP3   OH2 8132   2.356   1.173   3.873
 2723TIP3    H1 8133   2.267   1.161   3.840
 2723TIP3    H2 8134   2.370   1.268   3.869
 2724TIP3   OH2 8135   4.199   4.545   2.109
 2724TIP3    H1 8136   4.278   4.493   2.095
 2724TIP3    H2 8137   4.230   4.635   2.114
 2725TIP3   OH2 8138   2.667   1.376   0.754
 2725TIP3    H1 8139   2.668   1.280   0.747
 2725TIP3    H2 8140   2.639   1.405   0.667
 2726TIP3   OH2 8141   3.914   2.147   1.764
 2726TIP3    H1 8142   3.939   2.139   1.856
 2726TIP3    H2 8143   3.892   2.240   1.753
 2727TIP3   OH2 8144   2.615   2.210   5.712
 2727TIP3    H1 8145   2.683   2.143   5.704
 2727TIP3    H2 8146   2.649   2.272   5.777
 2728TIP3   OH2 8147   3.255   4.488   4.017
 2728TIP3    H1 8148   3.258   4.392   4.024
 2728TIP3    H2 8149   3.162   4.510   4.028
 2729TIP3   OH2 8150   5.137   2.341   0.707
 2729TIP3    H1 8151   5.128   2.373   0.797
 2729TIP3    H2 8152   5.073   2.271   0.699
 2730TIP3   OH2 8153   3.257   3.023   2.230
 2730TIP3    H1 8154   3.194   2.989   2.165
 2730TIP3    H2 8155   3.274   3.113   2.201
 2731TIP3   OH2 8156   0.567   2.023   5.338
 2731TIP3    H1 8157   0.479   2.009   5.372
 2731TIP3    H2 8158   0.575   1.961   5.265
 2732TIP3   OH2 8159   2.715   5.398   0.700
 2732TIP3    H1 8160   2.794   5.424   0.747
 2732TIP3    H2 8161   2.689   5.316   0.742
 2733TIP3   OH2 8162   1.571   1.560   2.250
 2733TIP3    H1 8163   1.625   1.489   2.216
 2733TIP3    H2 8164   1.484   1.522   2.260
 2734TIP3   OH2 8165   3.713   0.955   3.793
 2734TIP3    H1 8166   3.748   0.926   3.877
 2734TIP3    H2 8167   3.643   0.893   3.773
 2735TIP3   OH2 8168   6.491   1.028   2.943
 2735TIP3    H1 8169   6.547   1.000   3.015
 2735TIP3    H2 8170   6.408   0.983   2.957
 2736TIP3   OH2 8171   4.617   3.372   1.583
 2736TIP3    H1 8172   4.578   3.325   1.656
 2736TIP3    H2 8173   4.572   3.339   1.506
 2737TIP3   OH2 8174   0.220   6.338   2.329
 2737TIP3    H1 8175   0.245   6.246   2.336
 2737TIP3    H2 8176   0.278   6.383   2.391
 2738TIP3   OH2 8177   6.622   5.402   1.716
 2738TIP3    H1 8178   6.541   5.414   1.667
 2738TIP3    H2 8179   6.624   5.474   1.779
 2739TIP3   OH2 8180   4.741   3.683   5.173
 2739TIP3    H1 8181   4.696   3.765   5.190
 2739TIP3    H2 8182   4.671   3.618   5.168
 2740TIP3   OH2 8183   5.070   6.494   1.135
 2740TIP3    H1 8184   5.029   6.578   1.156
 2740TIP3    H2 8185   5.041   6.476   1.045
 2741TIP3   OH2 8186   5.338   5.893   2.882
 2741TIP3    H1 8187   5.271   5.903   2.950
 2741TIP3    H2 8188   5.418   5.869   2.930
 2742TIP3   OH2 8189   5.198   2.875   3.121
 2742TIP3    H1 8190   5.252   2.932   3.066
 2742TIP3    H2 8191   5.254   2.856   3.196
 2743TIP3   OH2 8192   3.548   6.528   3.358
 2743TIP3    H1 8193   3.603   6.512   3.282
 2743TIP3    H2 8194   3.463   6.551   3.321
 2744TIP3   OH2 8195   5.553   2.195   5.581
 2744TIP3    H1 8196   5.569   2.138   5.505
 2744TIP3    H2 8197   5.615   2.164   5.647
 2745TIP3   OH2 8198   4.209   0.897   4.577
 2745TIP3    H1 8199   4.275   0.872   4.511
 2745TIP3    H2 8200   4.149   0.822   4.580
 2746TIP3   OH2 8201   7.008   5.573   5.591
 2746TIP3    H1 8202   6.999   5.532   5.678
 2746TIP3    H2 8203   6.965   5.511   5.532
 2747TIP3   OH2 8204   3.098   4.182   4.339
 2747TIP3    H1 8205   3.017   4.150   4.378
 2747TIP3    H2 8206   3.091   4.278   4.344
 2748TIP3   OH2 8207   0.675   3.896   3.114
 2748TIP3    H1 8208   0.729   3.825   3.150
 2748TIP3    H2 8209   0.636   3.938   3.190
 2749TIP3   OH2 8210   2.710   5.391   5.505
 2749TIP3    H1 8211   2.644   5.460   5.502
 2749TIP3    H2 8212   2.757   5.400   5.422
 2750TIP3   OH2 8213   5.170   5.400   3.292
 2750TIP3    H1 8214   5.128   5.351   3.222
 2750TIP3    H2 8215   5.252   5.353   3.308
 2751TIP3   OH2 8216   0.343   0.058   1.313
 2751TIP3    H1 8217   0.374   0.021   1.396
 2751TIP3    H2 8218   0.400   0.134   1.299
 2752TIP3   OH2 8219   4.541   0.173   0.146
 2752TIP3    H1 8220   4.587   0.089   0.135
 2752TIP3    H2 8221   4.608   0.239   0.128
 2753TIP3   OH2 8222   4.566   6.129   3.162
 2753TIP3    H1 8223   4.639   6.191   3.170
 2753TIP3    H2 8224   4.513   6.165   3.091
 2754TIP3   OH2 8225   4.379   3.022   1.077
 2754TIP3    H1 8226   4.371   3.117   1.065
 2754TIP3    H2 8227   4.472   3.008   1.095
 2755TIP3   OH2 8228   5.962   4.379   0.629
 2755TIP3    H1 8229   6.038   4.351   0.680
 2755TIP3    H2 8230   5.986   4.359   0.538
 2756TIP3   OH2 8231   6.995   5.700   2.049
 2756TIP3    H1 8232   6.975   5.701   2.142
 2756TIP3    H2 8233   7.000   5.608   2.025
 2757TIP3   OH2 8234   5.270   0.596   3.354
 2757TIP3    H1 8235   5.185   0.557   3.376
 2757TIP3    H2 8236   5.333   0.546   3.405
 2758TIP3   OH2 8237   4.695   1.612   2.846
 2758TIP3    H1 8238   4.657   1.645   2.765
 2758TIP3    H2 8239   4.656   1.526   2.858
 2759TIP3   OH2 8240   0.439   1.312   5.794
 2759TIP3    H1 8241   0.510   1.342   5.850
 2759TIP3    H2 8242   0.367   1.292   5.854
 2760TIP3   OH2 8243   0.600   1.282   0.874
 2760TIP3    H1 8244   0.635   1.214   0.931
 2760TIP3    H2 8245   0.655   1.359   0.891
 2761TIP3   OH2 8246   4.399   0.212   3.407
 2761TIP3    H1 8247   4.382   0.130   3.359
 2761TIP3    H2 8248   4.312   0.243   3.433
 2762TIP3   OH2 8249   4.978   0.271   3.725
 2762TIP3    H1 8250   5.060   0.321   3.723
 2762TIP3    H2 8251   5.002   0.186   3.762
 2763TIP3   OH2 8252   2.468   2.740   2.601
 2763TIP3    H1 8253   2.501   2.829   2.603
 2763TIP3    H2 8254   2.471   2.715   2.508
 2764TIP3   OH2 8255   5.515   3.185   5.739
 2764TIP3    H1 8256   5.585   3.153   5.682
 2764TIP3    H2 8257   5.486   3.107   5.787
 2765TIP3   OH2 8258   2.377   2.620   2.352
 2765TIP3    H1 8259   2.304   2.636   2.292
 2765TIP3    H2 8260   2.377   2.525   2.364
 2766TIP3   OH2 8261   0.704   6.789   0.040
 2766TIP3    H1 8262   0.692   6.743  -0.043
 2766TIP3    H2 8263   0.707   6.719   0.106
 2767TIP3   OH2 8264   1.886   5.531   3.378
 2767TIP3    H1 8265   1.962   5.498   3.427
 2767TIP3    H2 8266   1.832   5.453   3.364
 2768TIP3   OH2 8267   1.320   2.412   2.920
 2768TIP3    H1 8268   1.271   2.424   2.839
 2768TIP3    H2 8269   1.338   2.501   2.950
 2769TIP3   OH2 8270   5.248   1.369   5.125
 2769TIP3    H1 8271   5.205   1.359   5.211
 2769TIP3    H2 8272   5.246   1.463   5.108
 2770TIP3   OH2 8273   4.423   6.166   3.564
 2770TIP3    H1 8274   4.391   6.246   3.522
 2770TIP3    H2 8275   4.396   6.096   3.505
 2771TIP3   OH2 8276   0.136   6.145   5.373
 2771TIP3    H1 8277   0.093   6.199   5.440
 2771TIP3    H2 8278   0.230   6.156   5.390
 2772TIP3   OH2 8279  -0.028   6.584   1.135
 2772TIP3    H1 8280  -0.010   6.597   1.228
 2772TIP3    H2 8281   0.034   6.643   1.091
 2773TIP3   OH2 8282   1.965   4.659   2.993
 2773TIP3    H1 8283   1.880   4.615   2.990
 2773TIP3    H2 8284   1.948   4.747   2.960
 2774TIP3   OH2 8285   6.328   6.606   0.610
 2774TIP3    H1 8286   6.319   6.554   0.690
 2774TIP3    H2 8287   6.243   6.600   0.567
 2775TIP3   OH2 8288   3.503   3.434   2.139
 2775TIP3    H1 8289   3.528   3.374   2.210
 2775TIP3    H2 8290   3.579   3.493   2.130
 2776TIP3   OH2 8291   1.685   3.863   0.855
 2776TIP3    H1 8292   1.772   3.830   0.878
 2776TIP3    H2 8293   1.647   3.891   0.939
 2777TIP3   OH2 8294   2.691   5.667   5.046
 2777TIP3    H1 8295   2.748   5.679   5.122
 2777TIP3    H2 8296   2.673   5.573   5.043
 2778TIP3   OH2 8297   4.337   5.205   0.927
 2778TIP3    H1 8298   4.425   5.197   0.964
 2778TIP3    H2 8299   4.315   5.298   0.938
 2779TIP3   OH2 8300   0.945   0.424   5.395
 2779TIP3    H1 8301   0.885   0.369   5.345
 2779TIP3    H2 8302   1.005   0.460   5.330
 2780TIP3   OH2 8303   1.767  -0.007   0.559
 2780TIP3    H1 8304   1.799  -0.023   0.647
 2780TIP3    H2 8305   1.676   0.019   0.571
 2781TIP3   OH2 8306   5.507   2.340   3.943
 2781TIP3    H1 8307   5.492   2.386   4.026
 2781TIP3    H2 8308   5.555   2.261   3.969
 2782TIP3   OH2 8309   2.908   1.801   5.229
 2782TIP3    H1 8310   2.867   1.856   5.162
 2782TIP3    H2 8311   3.002   1.812   5.214
 2783TIP3   OH2 8312   3.233   5.447   3.275
 2783TIP3    H1 8313   3.304   5.383   3.282
 2783TIP3    H2 8314   3.181   5.418   3.201
 2784TIP3   OH2 8315   1.850   0.360   5.301
 2784TIP3    H1 8316   1.847   0.405   5.217
 2784TIP3    H2 8317   1.850   0.431   5.366
 2785TIP3   OH2 8318   2.455   3.327   2.425
 2785TIP3    H1 8319   2.437   3.395   2.491
 2785TIP3    H2 8320   2.515   3.369   2.364
 2786TIP3   OH2 8321   1.072   3.731   0.192
 2786TIP3    H1 8322   1.048   3.814   0.233
 2786TIP3    H2 8323   0.989   3.688   0.173
 2787TIP3   OH2 8324   5.960   5.337   5.756
 2787TIP3    H1 8325   5.866   5.346   5.741
 2787TIP3    H2 8326   5.995   5.306   5.673
 2788TIP3   OH2 8327   6.192   2.028   2.259
 2788TIP3    H1 8328   6.123   2.052   2.321
 2788TIP3    H2 8329   6.221   1.941   2.288
 2789TIP3   OH2 8330   7.095   3.955   2.474
 2789TIP3    H1 8331   7.184   3.945   2.442
 2789TIP3    H2 8332   7.095   3.911   2.559
 2790TIP3   OH2 8333   5.076   1.147   2.228
 2790TIP3    H1 8334   5.030   1.214   2.178
 2790TIP3    H2 8335   5.008   1.106   2.282
 2791TIP3   OH2 8336   6.557   5.506   0.684
 2791TIP3    H1 8337   6.611   5.446   0.736
 2791TIP3    H2 8338   6.551   5.465   0.598
 2792TIP3   OH2 8339   2.236   5.644   1.878
 2792TIP3    H1 8340   2.260   5.571   1.821
 2792TIP3    H2 8341   2.213   5.715   1.818
 2793TIP3   OH2 8342   0.864   3.691   0.694
 2793TIP3    H1 8343   0.814   3.667   0.616
 2793TIP3    H2 8344   0.944   3.639   0.688
 2794TIP3   OH2 8345   5.000   6.115   2.202
 2794TIP3    H1 8346   5.015   6.103   2.296
 2794TIP3    H2 8347   4.929   6.179   2.197
 2795TIP3   OH2 8348   5.195   2.136   2.353
 2795TIP3    H1 8349   5.169   2.093   2.435
 2795TIP3    H2 8350   5.120   2.122   2.294
 2796TIP3   OH2 8351   2.979   2.757   3.309
 2796TIP3    H1 8352   3.017   2.840   3.280
 2796TIP3    H2 8353   2.904   2.744   3.252
 2797TIP3   OH2 8354   6.047   6.638   3.951
 2797TIP3    H1 8355   5.967   6.682   3.921
 2797TIP3    H2 8356   6.118   6.682   3.904
 2798TIP3   OH2 8357   1.865   5.524   2.690
 2798TIP3    H1 8358   1.847   5.512   2.597
 2798TIP3    H2 8359   1.788   5.570   2.724
 2799TIP3   OH2 8360   1.779   5.116   4.866
 2799TIP3    H1 8361   1.700   5.106   4.919
 2799TIP3    H2 8362   1.777   5.041   4.806
 2800TIP3   OH2 8363   0.571   0.365   1.799
 2800TIP3    H1 8364   0.520   0.437   1.762
 2800TIP3    H2 8365   0.514   0.289   1.789
 2801TIP3   OH2 8366   0.807   2.735   1.379
 2801TIP3    H1 8367   0.769   2.780   1.303
 2801TIP3    H2 8368   0.890   2.779   1.395
 2802TIP3   OH2 8369   1.342   2.006   3.950
 2802TIP3    H1 8370   1.368   2.001   3.858
 2802TIP3    H2 8371   1.333   2.100   3.967
 2803TIP3   OH2 8372   1.669   0.383   5.751
 2803TIP3    H1 8373   1.748   0.431   5.776
 2803TIP3    H2 8374   1.661   0.398   5.657
 2804TIP3   OH2 8375   4.555   6.193   0.825
 2804TIP3    H1 8376   4.650   6.181   0.828
 2804TIP3    H2 8377   4.533   6.186   0.732
 2805TIP3   OH2 8378   6.370   2.901   4.821
 2805TIP3    H1 8379   6.290   2.858   4.789
 2805TIP3    H2 8380   6.431   2.894   4.748
 2806TIP3   OH2 8381   3.513   1.549   5.849
 2806TIP3    H1 8382   3.475   1.492   5.782
 2806TIP3    H2 8383   3.591   1.587   5.808
 2807TIP3   OH2 8384   3.634   1.484   1.154
 2807TIP3    H1 8385   3.629   1.411   1.094
 2807TIP3    H2 8386   3.699   1.543   1.116
 2808TIP3   OH2 8387   6.619   0.793   5.347
 2808TIP3    H1 8388   6.532   0.779   5.386
 2808TIP3    H2 8389   6.680   0.757   5.412
 2809TIP3   OH2 8390   6.386   3.428   3.446
 2809TIP3    H1 8391   6.321   3.452   3.380
 2809TIP3    H2 8392   6.421   3.512   3.476
 2810TIP3   OH2 8393   3.751   3.840   1.969
 2810TIP3    H1 8394   3.667   3.800   1.993
 2810TIP3    H2 8395   3.742   3.931   1.999
 2811TIP3   OH2 8396   1.481   5.419   2.766
 2811TIP3    H1 8397   1.550   5.361   2.734
 2811TIP3    H2 8398   1.525   5.502   2.783
 2812TIP3   OH2 8399   4.894   4.730   0.810
 2812TIP3    H1 8400   4.844   4.648   0.814
 2812TIP3    H2 8401   4.976   4.711   0.855
 2813TIP3   OH2 8402   6.534   1.246   5.767
 2813TIP3    H1 8403   6.596   1.183   5.803
 2813TIP3    H2 8404   6.533   1.228   5.673
 2814TIP3   OH2 8405   2.852   0.841   3.684
 2814TIP3    H1 8406   2.873   0.933   3.668
 2814TIP3    H2 8407   2.778   0.822   3.627
 2815TIP3   OH2 8408   0.728   3.895   3.908
 2815TIP3    H1 8409   0.695   3.867   3.993
 2815TIP3    H2 8410   0.660   3.952   3.872
 2816TIP3   OH2 8411   1.192   2.862   3.997
 2816TIP3    H1 8412   1.242   2.780   3.993
 2816TIP3    H2 8413   1.252   2.928   3.963
 2817TIP3   OH2 8414   6.408   2.075   2.609
 2817TIP3    H1 8415   6.495   2.036   2.610
 2817TIP3    H2 8416   6.422   2.166   2.582
 2818TIP3   OH2 8417   0.860   5.489   4.958
 2818TIP3    H1 8418   0.798   5.521   4.892
 2818TIP3    H2 8419   0.929   5.447   4.908
 2819TIP3   OH2 8420   2.998   6.752   2.132
 2819TIP3    H1 8421   2.965   6.829   2.178
 2819TIP3    H2 8422   3.031   6.787   2.049
 2820TIP3   OH2 8423   3.895   3.592   5.443
 2820TIP3    H1 8424   3.875   3.673   5.489
 2820TIP3    H2 8425   3.841   3.526   5.486
 2821TIP3   OH2 8426   2.610   1.667   2.931
 2821TIP3    H1 8427   2.623   1.761   2.914
 2821TIP3    H2 8428   2.580   1.664   3.022
 2822TIP3   OH2 8429   3.692   4.538   3.042
 2822TIP3    H1 8430   3.667   4.454   3.004
 2822TIP3    H2 8431   3.785   4.548   3.019
 2823TIP3   OH2 8432   6.236   5.008   1.057
 2823TIP3    H1 8433   6.152   5.002   1.011
 2823TIP3    H2 8434   6.236   4.933   1.116
 2824TIP3   OH2 8435   5.368   6.230   0.400
 2824TIP3    H1 8436   5.319   6.308   0.425
 2824TIP3    H2 8437   5.385   6.185   0.483
 2825TIP3   OH2 8438   4.464   0.655   0.756
 2825TIP3    H1 8439   4.444   0.747   0.776
 2825TIP3    H2 8440   4.389   0.607   0.790
 2826TIP3   OH2 8441   6.347   0.047   2.709
 2826TIP3    H1 8442   6.302   0.002   2.637
 2826TIP3    H2 8443   6.331   0.140   2.692
 2827TIP3   OH2 8444   5.285   2.798   3.395
 2827TIP3    H1 8445   5.321   2.711   3.412
 2827TIP3    H2 8446   5.216   2.809   3.460
 2828TIP3   OH2 8447   6.394   3.054   4.384
 2828TIP3    H1 8448   6.444   3.052   4.466
 2828TIP3    H2 8449   6.389   2.963   4.356
 2829TIP3   OH2 8450   6.887   6.446   5.519
 2829TIP3    H1 8451   6.810   6.502   5.506
 2829TIP3    H2 8452   6.851   6.357   5.524
 2830TIP3   OH2 8453   2.816   2.113   1.059
 2830TIP3    H1 8454   2.738   2.164   1.038
 2830TIP3    H2 8455   2.787   2.022   1.055
 2831TIP3   OH2 8456   6.961   2.447   0.803
 2831TIP3    H1 8457   6.992   2.498   0.728
 2831TIP3    H2 8458   7.014   2.478   0.876
 2832TIP3   OH2 8459   3.595   3.801   1.097
 2832TIP3    H1 8460   3.591   3.787   1.003
 2832TIP3    H2 8461   3.686   3.822   1.115
 2833TIP3   OH2 8462   4.700   0.607   1.931
 2833TIP3    H1 8463   4.700   0.541   1.862
 2833TIP3    H2 8464   4.759   0.572   1.998
 2834TIP3   OH2 8465   1.855   3.218   3.323
 2834TIP3    H1 8466   1.796   3.167   3.379
 2834TIP3    H2 8467   1.927   3.243   3.381
 2835TIP3   OH2 8468   3.645   0.316   1.481
 2835TIP3    H1 8469   3.586   0.251   1.444
 2835TIP3    H2 8470   3.660   0.378   1.410
 2836TIP3   OH2 8471   4.593   3.898   0.662
 2836TIP3    H1 8472   4.650   3.975   0.666
 2836TIP3    H2 8473   4.541   3.903   0.743
 2837TIP3   OH2 8474   5.268   2.762   5.370
 2837TIP3    H1 8475   5.315   2.679   5.365
 2837TIP3    H2 8476   5.197   2.754   5.307
 2838TIP3   OH2 8477   4.442   3.194   5.139
 2838TIP3    H1 8478   4.387   3.128   5.098
 2838TIP3    H2 8479   4.524   3.191   5.090
 2839TIP3   OH2 8480   3.810   2.136   5.371
 2839TIP3    H1 8481   3.730   2.176   5.336
 2839TIP3    H2 8482   3.803   2.148   5.466
 2840TIP3   OH2 8483   2.348   3.546   1.501
 2840TIP3    H1 8484   2.439   3.574   1.501
 2840TIP3    H2 8485   2.342   3.483   1.573
 2841TIP3   OH2 8486   7.121   1.372   4.055
 2841TIP3    H1 8487   7.172   1.291   4.046
 2841TIP3    H2 8488   7.031   1.343   4.070
 2842TIP3   OH2 8489   1.310   3.234   4.455
 2842TIP3    H1 8490   1.238   3.289   4.485
 2842TIP3    H2 8491   1.346   3.281   4.379
 2843TIP3   OH2 8492   5.700   5.753   5.469
 2843TIP3    H1 8493   5.696   5.658   5.461
 2843TIP3    H2 8494   5.721   5.784   5.381
 2844TIP3   OH2 8495   6.765   0.372   1.791
 2844TIP3    H1 8496   6.826   0.329   1.731
 2844TIP3    H2 8497   6.806   0.455   1.813
 2845TIP3   OH2 8498   2.957   1.402   2.622
 2845TIP3    H1 8499   2.921   1.314   2.636
 2845TIP3    H2 8500   2.881   1.460   2.627
 2846TIP3   OH2 8501   5.311   0.943   3.598
 2846TIP3    H1 8502   5.309   0.915   3.507
 2846TIP3    H2 8503   5.402   0.934   3.624
 2847TIP3   OH2 8504   3.593   0.433   0.163
 2847TIP3    H1 8505   3.540   0.396   0.092
 2847TIP3    H2 8506   3.607   0.361   0.223
 2848TIP3   OH2 8507   0.059   2.757   1.326
 2848TIP3    H1 8508   0.009   2.676   1.331
 2848TIP3    H2 8509   0.035   2.795   1.241
 2849TIP3   OH2 8510   5.874   5.711   5.852
 2849TIP3    H1 8511   5.853   5.768   5.926
 2849TIP3    H2 8512   5.969   5.701   5.856
 2850TIP3   OH2 8513   2.713   4.327   1.423
 2850TIP3    H1 8514   2.739   4.236   1.438
 2850TIP3    H2 8515   2.724   4.369   1.508
 2851TIP3   OH2 8516   4.904   0.463   4.112
 2851TIP3    H1 8517   4.815   0.443   4.083
 2851TIP3    H2 8518   4.960   0.432   4.040
 2852TIP3   OH2 8519   0.856   5.724   0.658
 2852TIP3    H1 8520   0.807   5.790   0.708
 2852TIP3    H2 8521   0.940   5.718   0.702
 2853TIP3   OH2 8522   1.060   2.165   2.832
 2853TIP3    H1 8523   0.977   2.117   2.833
 2853TIP3    H2 8524   1.049   2.231   2.764
 2854TIP3   OH2 8525   2.212   5.439   5.145
 2854TIP3    H1 8526   2.129   5.447   5.098
 2854TIP3    H2 8527   2.187   5.411   5.233
 2855TIP3   OH2 8528   5.600   2.622   1.858
 2855TIP3    H1 8529   5.679   2.648   1.811
 2855TIP3    H2 8530   5.556   2.704   1.879
 2856TIP3   OH2 8531   0.748   4.676   3.487
 2856TIP3    H1 8532   0.656   4.663   3.511
 2856TIP3    H2 8533   0.796   4.663   3.569
 2857TIP3   OH2 8534   0.935   4.403   5.371
 2857TIP3    H1 8535   0.863   4.413   5.310
 2857TIP3    H2 8536   0.912   4.459   5.445
 2858TIP3   OH2 8537   4.644   2.795   2.949
 2858TIP3    H1 8538   4.668   2.738   2.875
 2858TIP3    H2 8539   4.632   2.735   3.022
 2859TIP3   OH2 8540   0.400   2.487   2.000
 2859TIP3    H1 8541   0.416   2.440   1.919
 2859TIP3    H2 8542   0.371   2.419   2.062
 2860TIP3   OH2 8543   1.952   2.779   4.855
 2860TIP3    H1 8544   1.986   2.804   4.770
 2860TIP3    H2 8545   2.027   2.784   4.914
 2861TIP3   OH2 8546   2.896   1.019   4.103
 2861TIP3    H1 8547   2.963   0.982   4.047
 2861TIP3    H2 8548   2.820   0.962   4.091
 2862TIP3   OH2 8549   3.029   0.185   5.769
 2862TIP3    H1 8550   3.047   0.200   5.676
 2862TIP3    H2 8551   2.934   0.190   5.776
 2863TIP3   OH2 8552   3.227   4.287   4.850
 2863TIP3    H1 8553   3.202   4.367   4.896
 2863TIP3    H2 8554   3.301   4.252   4.901
 2864TIP3   OH2 8555   1.669   6.009   0.235
 2864TIP3    H1 8556   1.732   5.957   0.185
 2864TIP3    H2 8557   1.704   6.009   0.325
 2865TIP3   OH2 8558   0.502   1.453   0.591
 2865TIP3    H1 8559   0.466   1.542   0.585
 2865TIP3    H2 8560   0.427   1.399   0.617
 2866TIP3   OH2 8561   6.212   1.152   2.412
 2866TIP3    H1 8562   6.218   1.243   2.381
 2866TIP3    H2 8563   6.142   1.154   2.477
 2867TIP3   OH2 8564   6.338   0.888   3.624
 2867TIP3    H1 8565   6.326   0.977   3.593
 2867TIP3    H2 8566   6.253   0.845   3.609
 2868TIP3   OH2 8567   6.316   6.673   5.655
 2868TIP3    H1 8568   6.394   6.635   5.694
 2868TIP3    H2 8569   6.324   6.767   5.669
 2869TIP3   OH2 8570   5.868   6.239   4.017
 2869TIP3    H1 8571   5.781   6.204   3.998
 2869TIP3    H2 8572   5.880   6.222   4.111
 2870TIP3   OH2 8573   0.257   3.358   2.041
 2870TIP3    H1 8574   0.278   3.363   2.134
 2870TIP3    H2 8575   0.234   3.447   2.016
 2871TIP3   OH2 8576   1.394   3.369   4.223
 2871TIP3    H1 8577   1.445   3.430   4.276
 2871TIP3    H2 8578   1.328   3.424   4.179
 2872TIP3   OH2 8579   0.252   1.689   2.014
 2872TIP3    H1 8580   0.197   1.702   1.936
 2872TIP3    H2 8581   0.340   1.673   1.979
 2873TIP3   OH2 8582   5.574   1.619   1.497
 2873TIP3    H1 8583   5.598   1.592   1.408
 2873TIP3    H2 8584   5.498   1.565   1.518
 2874TIP3   OH2 8585   1.293   5.111   2.163
 2874TIP3    H1 8586   1.219   5.163   2.195
 2874TIP3    H2 8587   1.370   5.165   2.180
 2875TIP3   OH2 8588   0.869   5.174   2.411
 2875TIP3    H1 8589   0.931   5.108   2.382
 2875TIP3    H2 8590   0.874   5.172   2.506
 2876TIP3   OH2 8591   2.254   5.929   2.561
 2876TIP3    H1 8592   2.178   5.879   2.589
 2876TIP3    H2 8593   2.218   6.012   2.529
 2877TIP3   OH2 8594   4.958   6.775   3.913
 2877TIP3    H1 8595   4.966   6.706   3.979
 2877TIP3    H2 8596   5.046   6.813   3.908
 2878TIP3   OH2 8597   3.609   6.496   2.102
 2878TIP3    H1 8598   3.700   6.508   2.077
 2878TIP3    H2 8599   3.569   6.582   2.089
 2879TIP3   OH2 8600   6.126   1.329   0.300
 2879TIP3    H1 8601   6.173   1.349   0.381
 2879TIP3    H2 8602   6.048   1.384   0.303
 2880TIP3   OH2 8603   3.996   2.548   4.657
 2880TIP3    H1 8604   4.042   2.468   4.632
 2880TIP3    H2 8605   3.905   2.522   4.665
 2881TIP3   OH2 8606   7.152   2.449   5.035
 2881TIP3    H1 8607   7.215   2.437   5.106
 2881TIP3    H2 8608   7.143   2.363   4.996
 2882TIP3   OH2 8609   4.346   0.250   3.780
 2882TIP3    H1 8610   4.286   0.267   3.853
 2882TIP3    H2 8611   4.421   0.306   3.799
 2883TIP3   OH2 8612   4.147   3.923   4.016
 2883TIP3    H1 8613   4.120   3.831   4.002
 2883TIP3    H2 8614   4.185   3.924   4.104
 2884TIP3   OH2 8615   4.623   1.327   0.400
 2884TIP3    H1 8616   4.660   1.403   0.445
 2884TIP3    H2 8617   4.542   1.308   0.448
 2885TIP3   OH2 8618   5.171   5.042   5.092
 2885TIP3    H1 8619   5.143   5.098   5.019
 2885TIP3    H2 8620   5.163   4.953   5.058
 2886TIP3   OH2 8621   2.500   5.793   3.017
 2886TIP3    H1 8622   2.551   5.812   3.096
 2886TIP3    H2 8623   2.507   5.699   3.005
 2887TIP3   OH2 8624   1.039   4.109   4.253
 2887TIP3    H1 8625   0.959   4.056   4.248
 2887TIP3    H2 8626   1.050   4.144   4.165
 2888TIP3   OH2 8627   5.871   1.828   0.605
 2888TIP3    H1 8628   5.875   1.923   0.599
 2888TIP3    H2 8629   5.885   1.797   0.516
 2889TIP3   OH2 8630   4.963   3.235   3.190
 2889TIP3    H1 8631   4.930   3.291   3.120
 2889TIP3    H2 8632   5.051   3.268   3.208
 2890TIP3   OH2 8633   5.107   2.169   2.013
 2890TIP3    H1 8634   5.101   2.164   1.917
 2890TIP3    H2 8635   5.164   2.097   2.037
 2891TIP3   OH2 8636   1.481   2.074   3.667
 2891TIP3    H1 8637   1.420   2.001   3.667
 2891TIP3    H2 8638   1.430   2.149   3.637
 2892TIP3   OH2 8639   5.275   1.786   1.362
 2892TIP3    H1 8640   5.235   1.803   1.447
 2892TIP3    H2 8641   5.221   1.835   1.299
 2893TIP3   OH2 8642   6.761   5.945   4.578
 2893TIP3    H1 8643   6.709   6.014   4.618
 2893TIP3    H2 8644   6.849   5.958   4.614
 2894TIP3   OH2 8645   4.277   4.187   4.922
 2894TIP3    H1 8646   4.344   4.243   4.883
 2894TIP3    H2 8647   4.324   4.134   4.986
 2895TIP3   OH2 8648   3.124   5.457   0.137
 2895TIP3    H1 8649   3.214   5.429   0.150
 2895TIP3    H2 8650   3.099   5.495   0.221
 2896TIP3   OH2 8651   3.765   1.441   4.677
 2896TIP3    H1 8652   3.804   1.513   4.727
 2896TIP3    H2 8653   3.690   1.480   4.632
 2897TIP3   OH2 8654   3.774   4.744   2.374
 2897TIP3    H1 8655   3.827   4.697   2.310
 2897TIP3    H2 8656   3.807   4.715   2.459
 2898TIP3   OH2 8657   3.476   0.293   4.903
 2898TIP3    H1 8658   3.542   0.285   4.835
 2898TIP3    H2 8659   3.454   0.202   4.926
 2899TIP3   OH2 8660   5.116   2.526   4.394
 2899TIP3    H1 8661   5.133   2.582   4.319
 2899TIP3    H2 8662   5.122   2.584   4.470
 2900TIP3   OH2 8663   6.457   5.708   5.209
 2900TIP3    H1 8664   6.504   5.714   5.126
 2900TIP3    H2 8665   6.517   5.749   5.272
 2901TIP3   OH2 8666   1.264   0.229   0.839
 2901TIP3    H1 8667   1.182   0.262   0.874
 2901TIP3    H2 8668   1.296   0.300   0.782
 2902TIP3   OH2 8669   5.457   4.864   4.152
 2902TIP3    H1 8670   5.524   4.852   4.086
 2902TIP3    H2 8671   5.465   4.787   4.209
 2903TIP3   OH2 8672   0.745   0.154   4.110
 2903TIP3    H1 8673   0.818   0.215   4.110
 2903TIP3    H2 8674   0.751   0.109   4.194
 2904TIP3   OH2 8675   0.382   3.879   1.763
 2904TIP3    H1 8676   0.408   3.961   1.806
 2904TIP3    H2 8677   0.436   3.812   1.806
 2905TIP3   OH2 8678   3.895   0.208   2.847
 2905TIP3    H1 8679   3.833   0.271   2.884
 2905TIP3    H2 8680   3.881   0.128   2.897
 2906TIP3   OH2 8681   3.906   2.964   3.476
 2906TIP3    H1 8682   3.836   3.018   3.513
 2906TIP3    H2 8683   3.975   2.966   3.543
 2907TIP3   OH2 8684   3.580   2.828   0.423
 2907TIP3    H1 8685   3.486   2.818   0.408
 2907TIP3    H2 8686   3.590   2.920   0.447
 2908TIP3   OH2 8687   3.640   2.824   3.177
 2908TIP3    H1 8688   3.710   2.799   3.236
 2908TIP3    H2 8689   3.582   2.880   3.229
 2909TIP3   OH2 8690   4.136   0.969   0.455
 2909TIP3    H1 8691   4.118   0.890   0.404
 2909TIP3    H2 8692   4.197   0.941   0.524
 2910TIP3   OH2 8693   2.648   4.647   5.269
 2910TIP3    H1 8694   2.738   4.628   5.297
 2910TIP3    H2 8695   2.598   4.653   5.350
 2911TIP3   OH2 8696   0.127   5.230   2.045
 2911TIP3    H1 8697   0.045   5.234   1.997
 2911TIP3    H2 8698   0.102   5.225   2.137
 2912TIP3   OH2 8699   0.134   1.298   1.287
 2912TIP3    H1 8700   0.075   1.257   1.224
 2912TIP3    H2 8701   0.100   1.273   1.372
 2913TIP3   OH2 8702   3.826   3.306   1.343
 2913TIP3    H1 8703   3.834   3.378   1.405
 2913TIP3    H2 8704   3.827   3.227   1.397
 2914TIP3   OH2 8705   3.378   4.994   0.426
 2914TIP3    H1 8706   3.430   4.935   0.480
 2914TIP3    H2 8707   3.430   5.007   0.347
 2915TIP3   OH2 8708   0.334   2.641   1.093
 2915TIP3    H1 8709   0.283   2.568   1.057
 2915TIP3    H2 8710   0.293   2.719   1.054
 2916TIP3   OH2 8711   3.494   0.513   1.611
 2916TIP3    H1 8712   3.571   0.471   1.572
 2916TIP3    H2 8713   3.528   0.595   1.648
 2917TIP3   OH2 8714   0.873   4.651   4.703
 2917TIP3    H1 8715   0.832   4.605   4.777
 2917TIP3    H2 8716   0.831   4.614   4.625
 2918TIP3   OH2 8717   2.631   6.179   4.237
 2918TIP3    H1 8718   2.678   6.157   4.317
 2918TIP3    H2 8719   2.577   6.254   4.261
 2919TIP3   OH2 8720   6.017   5.791   5.454
 2919TIP3    H1 8721   5.931   5.759   5.482
 2919TIP3    H2 8722   6.001   5.830   5.369
 2920TIP3   OH2 8723   1.324   1.976   5.311
 2920TIP3    H1 8724   1.277   2.059   5.302
 2920TIP3    H2 8725   1.378   1.988   5.390
 2921TIP3   OH2 8726   6.180   1.327   4.059
 2921TIP3    H1 8727   6.189   1.241   4.101
 2921TIP3    H2 8728   6.260   1.337   4.007
 2922TIP3   OH2 8729   1.971   4.535   1.967
 2922TIP3    H1 8730   1.952   4.554   1.875
 2922TIP3    H2 8731   1.935   4.447   1.980
 2923TIP3   OH2 8732   1.905   6.651   0.751
 2923TIP3    H1 8733   1.861   6.581   0.702
 2923TIP3    H2 8734   1.836   6.690   0.804
 2924TIP3   OH2 8735   6.652   0.015   1.520
 2924TIP3    H1 8736   6.693   0.010   1.607
 2924TIP3    H2 8737   6.566  -0.024   1.532
 2925TIP3   OH2 8738   3.033   0.147   1.009
 2925TIP3    H1 8739   2.988   0.147   1.094
 2925TIP3    H2 8740   3.038   0.054   0.985
 2926TIP3   OH2 8741   4.122   4.066   0.228
 2926TIP3    H1 8742   4.116   4.161   0.217
 2926TIP3    H2 8743   4.034   4.038   0.251
 2927TIP3   OH2 8744   3.537   4.364   3.957
 2927TIP3    H1 8745   3.575   4.390   4.041
 2927TIP3    H2 8746   3.604   4.310   3.915
 2928TIP3   OH2 8747   4.616   4.981   1.865
 2928TIP3    H1 8748   4.546   4.967   1.802
 2928TIP3    H2 8749   4.668   5.052   1.829
 2929TIP3   OH2 8750   1.401   0.195   2.845
 2929TIP3    H1 8751   1.360   0.281   2.832
 2929TIP3    H2 8752   1.441   0.200   2.932
 2930TIP3   OH2 8753   2.917   0.313   0.278
 2930TIP3    H1 8754   2.859   0.322   0.202
 2930TIP3    H2 8755   2.918   0.219   0.296
 2931TIP3   OH2 8756   1.981   1.933   4.148
 2931TIP3    H1 8757   2.015   1.863   4.092
 2931TIP3    H2 8758   2.057   1.989   4.165
 2932TIP3   OH2 8759   2.469   3.865   2.462
 2932TIP3    H1 8760   2.430   3.795   2.409
 2932TIP3    H2 8761   2.436   3.849   2.550
 2933TIP3   OH2 8762   2.175   6.573   0.775
 2933TIP3    H1 8763   2.085   6.605   0.786
 2933TIP3    H2 8764   2.220   6.645   0.731
 2934TIP3   OH2 8765   5.032   2.175   2.937
 2934TIP3    H1 8766   5.096   2.175   2.866
 2934TIP3    H2 8767   4.996   2.086   2.936
 2935TIP3   OH2 8768   0.796   5.134   0.623
 2935TIP3    H1 8769   0.829   5.153   0.536
 2935TIP3    H2 8770   0.705   5.162   0.622
 2936TIP3   OH2 8771   0.482   6.091   3.294
 2936TIP3    H1 8772   0.511   6.016   3.346
 2936TIP3    H2 8773   0.387   6.085   3.294
 2937TIP3   OH2 8774   0.045   0.528   1.258
 2937TIP3    H1 8775  -0.029   0.589   1.255
 2937TIP3    H2 8776   0.120   0.582   1.285
 2938TIP3   OH2 8777   4.357   3.356   4.842
 2938TIP3    H1 8778   4.357   3.302   4.762
 2938TIP3    H2 8779   4.303   3.306   4.903
 2939TIP3   OH2 8780   2.162   4.839   4.082
 2939TIP3    H1 8781   2.082   4.803   4.041
 2939TIP3    H2 8782   2.202   4.892   4.013
 2940TIP3   OH2 8783   1.852   2.131   2.233
 2940TIP3    H1 8784   1.829   2.193   2.303
 2940TIP3    H2 8785   1.839   2.182   2.153
 2941TIP3   OH2 8786   4.418   2.624   5.049
 2941TIP3    H1 8787   4.485   2.556   5.048
 2941TIP3    H2 8788   4.440   2.680   4.974
 2942TIP3   OH2 8789   6.977   0.789   4.308
 2942TIP3    H1 8790   6.895   0.824   4.274
 2942TIP3    H2 8791   7.036   0.865   4.310
 2943TIP3   OH2 8792   1.782   4.533   3.742
 2943TIP3    H1 8793   1.850   4.469   3.764
 2943TIP3    H2 8794   1.746   4.502   3.659
 2944TIP3   OH2 8795   6.085   4.531   4.326
 2944TIP3    H1 8796   6.080   4.508   4.234
 2944TIP3    H2 8797   6.045   4.618   4.332
 2945TIP3   OH2 8798   0.535   5.215   0.626
 2945TIP3    H1 8799   0.508   5.220   0.717
 2945TIP3    H2 8800   0.481   5.146   0.589
 2946TIP3   OH2 8801   3.981   3.314   2.435
 2946TIP3    H1 8802   3.962   3.407   2.419
 2946TIP3    H2 8803   4.067   3.314   2.477
 2947TIP3   OH2 8804   1.502   3.676   4.967
 2947TIP3    H1 8805   1.558   3.627   5.027
 2947TIP3    H2 8806   1.549   3.676   4.884
 2948TIP3   OH2 8807   2.335   6.108   4.534
 2948TIP3    H1 8808   2.396   6.161   4.585
 2948TIP3    H2 8809   2.380   6.025   4.522
 2949TIP3   OH2 8810   4.124   0.573   3.954
 2949TIP3    H1 8811   4.152   0.665   3.957
 2949TIP3    H2 8812   4.075   0.566   3.872
 2950TIP3   OH2 8813   3.583   2.360   5.715
 2950TIP3    H1 8814   3.532   2.436   5.685
 2950TIP3    H2 8815   3.542   2.335   5.798
 2951TIP3   OH2 8816   1.060   4.650   3.293
 2951TIP3    H1 8817   1.050   4.579   3.230
 2951TIP3    H2 8818   1.144   4.691   3.271
 2952TIP3   OH2 8819   2.199   5.425   4.139
 2952TIP3    H1 8820   2.137   5.436   4.067
 2952TIP3    H2 8821   2.252   5.505   4.137
 2953TIP3   OH2 8822   1.417   0.283   2.222
 2953TIP3    H1 8823   1.441   0.325   2.304
 2953TIP3    H2 8824   1.441   0.346   2.154
 2954TIP3   OH2 8825   7.138   4.925   1.757
 2954TIP3    H1 8826   7.186   5.001   1.725
 2954TIP3    H2 8827   7.057   4.924   1.706
 2955TIP3   OH2 8828   7.024   6.399   0.695
 2955TIP3    H1 8829   7.010   6.342   0.619
 2955TIP3    H2 8830   7.082   6.468   0.664
 2956TIP3   OH2 8831   0.769   4.028   1.359
 2956TIP3    H1 8832   0.844   4.002   1.412
 2956TIP3    H2 8833   0.693   3.996   1.408
 2957TIP3   OH2 8834   2.042   2.449   2.110
 2957TIP3    H1 8835   1.994   2.530   2.126
 2957TIP3    H2 8836   2.091   2.434   2.190
 2958TIP3   OH2 8837   0.432   2.074   0.172
 2958TIP3    H1 8838   0.427   2.170   0.180
 2958TIP3    H2 8839   0.344   2.044   0.193
 2959TIP3   OH2 8840   6.376   1.110   2.672
 2959TIP3    H1 8841   6.281   1.115   2.678
 2959TIP3    H2 8842   6.406   1.127   2.762
 2960TIP3   OH2 8843   4.108   5.780   1.847
 2960TIP3    H1 8844   4.152   5.832   1.780
 2960TIP3    H2 8845   4.020   5.817   1.852
 2961TIP3   OH2 8846   2.324   0.707   2.069
 2961TIP3    H1 8847   2.359   0.618   2.071
 2961TIP3    H2 8848   2.296   0.720   1.978
 2962TIP3   OH2 8849   0.293   2.437   0.516
 2962TIP3    H1 8850   0.276   2.381   0.592
 2962TIP3    H2 8851   0.211   2.437   0.467
 2963TIP3   OH2 8852   3.329   4.164   2.475
 2963TIP3    H1 8853   3.324   4.195   2.565
 2963TIP3    H2 8854   3.265   4.217   2.427
 2964TIP3   OH2 8855   3.460   0.069   5.185
 2964TIP3    H1 8856   3.553   0.074   5.207
 2964TIP3    H2 8857   3.454  -0.002   5.122
 2965TIP3   OH2 8858   3.987   1.271   1.526
 2965TIP3    H1 8859   4.050   1.266   1.454
 2965TIP3    H2 8860   3.985   1.363   1.550
 2966TIP3   OH2 8861   0.802   2.056   1.532
 2966TIP3    H1 8862   0.891   2.087   1.514
 2966TIP3    H2 8863   0.749   2.136   1.527
 2967TIP3   OH2 8864   6.356   0.163   4.531
 2967TIP3    H1 8865   6.361   0.189   4.439
 2967TIP3    H2 8866   6.283   0.214   4.566
 2968TIP3   OH2 8867   2.586   4.233   3.302
 2968TIP3    H1 8868   2.586   4.287   3.381
 2968TIP3    H2 8869   2.665   4.179   3.311
 2969TIP3   OH2 8870   5.334   2.839   4.375
 2969TIP3    H1 8871   5.395   2.877   4.311
 2969TIP3    H2 8872   5.372   2.754   4.398
 2970TIP3   OH2 8873   7.114   3.782   3.594
 2970TIP3    H1 8874   7.126   3.741   3.680
 2970TIP3    H2 8875   7.134   3.713   3.531
 2971TIP3   OH2 8876   1.488   5.807   1.410
 2971TIP3    H1 8877   1.569   5.805   1.461
 2971TIP3    H2 8878   1.459   5.898   1.413
 2972TIP3   OH2 8879   4.847   0.951   1.527
 2972TIP3    H1 8880   4.815   0.958   1.617
 2972TIP3    H2 8881   4.915   0.884   1.532
 2973TIP3   OH2 8882   1.702   2.125   3.831
 2973TIP3    H1 8883   1.630   2.112   3.769
 2973TIP3    H2 8884   1.665   2.184   3.897
 2974TIP3   OH2 8885   4.799   2.259   2.352
 2974TIP3    H1 8886   4.739   2.320   2.395
 2974TIP3    H2 8887   4.783   2.175   2.394
 2975TIP3   OH2 8888   1.239   5.973   0.495
 2975TIP3    H1 8889   1.195   5.912   0.554
 2975TIP3    H2 8890   1.286   5.918   0.433
 2976TIP3   OH2 8891   2.335   4.315   0.421
 2976TIP3    H1 8892   2.249   4.280   0.443
 2976TIP3    H2 8893   2.326   4.410   0.434
 2977TIP3   OH2 8894   3.027   5.811   5.445
 2977TIP3    H1 8895   3.066   5.864   5.514
 2977TIP3    H2 8896   3.081   5.732   5.442
 2978TIP3   OH2 8897   4.079   5.761   0.997
 2978TIP3    H1 8898   4.172   5.764   1.022
 2978TIP3    H2 8899   4.079   5.787   0.905
 2979TIP3   OH2 8900   0.884   4.439   4.111
 2979TIP3    H1 8901   0.893   4.344   4.125
 2979TIP3    H2 8902   0.966   4.476   4.144
 2980TIP3   OH2 8903   4.824   5.993   0.995
 2980TIP3    H1 8904   4.804   5.914   0.945
 2980TIP3    H2 8905   4.821   6.063   0.930
 2981TIP3   OH2 8906   6.433   5.356   4.721
 2981TIP3    H1 8907   6.368   5.370   4.652
 2981TIP3    H2 8908   6.503   5.307   4.678
 2982TIP3   OH2 8909   7.035   6.187   4.002
 2982TIP3    H1 8910   7.042   6.159   3.911
 2982TIP3    H2 8911   7.121   6.225   4.022
 2983TIP3   OH2 8912   6.647   0.232   1.978
 2983TIP3    H1 8913   6.679   0.281   1.902
 2983TIP3    H2 8914   6.552   0.244   1.976
 2984TIP3   OH2 8915   5.091   3.849   2.749
 2984TIP3    H1 8916   5.039   3.800   2.686
 2984TIP3    H2 8917   5.117   3.928   2.703
 2985TIP3   OH2 8918   2.389   6.504   1.833
 2985TIP3    H1 8919   2.424   6.422   1.800
 2985TIP3    H2 8920   2.458   6.568   1.816
 2986TIP3   OH2 8921   4.125   4.746   3.138
 2986TIP3    H1 8922   4.125   4.809   3.210
 2986TIP3    H2 8923   4.191   4.779   3.077
 2987TIP3   OH2 8924   6.664   0.337   3.275
 2987TIP3    H1 8925   6.679   0.425   3.308
 2987TIP3    H2 8926   6.573   0.318   3.298
 2988TIP3   OH2 8927   0.394   0.154   1.707
 2988TIP3    H1 8928   0.419   0.079   1.654
 2988TIP3    H2 8929   0.305   0.175   1.679
 2989TIP3   OH2 8930   4.511   1.306   1.818
 2989TIP3    H1 8931   4.546   1.379   1.767
 2989TIP3    H2 8932   4.416   1.313   1.808
 2990TIP3   OH2 8933   1.746   1.457   2.513
 2990TIP3    H1 8934   1.656   1.453   2.544
 2990TIP3    H2 8935   1.776   1.366   2.512
 2991TIP3   OH2 8936   5.911   1.097   0.336
 2991TIP3    H1 8937   5.966   1.129   0.265
 2991TIP3    H2 8938   5.853   1.171   0.357
 2992TIP3   OH2 8939   4.442   1.530   0.302
 2992TIP3    H1 8940   4.400   1.521   0.217
 2992TIP3    H2 8941   4.429   1.445   0.344
 2993TIP3   OH2 8942   4.813   3.992   1.513
 2993TIP3    H1 8943   4.838   4.073   1.469
 2993TIP3    H2 8944   4.823   3.924   1.446
 2994TIP3   OH2 8945   5.083   6.643   3.617
 2994TIP3    H1 8946   5.129   6.602   3.690
 2994TIP3    H2 8947   4.992   6.650   3.647
 2995TIP3   OH2 8948   2.566   1.723   4.315
 2995TIP3    H1 8949   2.481   1.708   4.357
 2995TIP3    H2 8950   2.630   1.705   4.383
 2996TIP3   OH2 8951   6.394   6.358   2.047
 2996TIP3    H1 8952   6.446   6.278   2.055
 2996TIP3    H2 8953   6.408   6.404   2.130
 2997TIP3   OH2 8954   4.227   3.424   5.169
 2997TIP3    H1 8955   4.145   3.402   5.212
 2997TIP3    H2 8956   4.274   3.341   5.162
 2998TIP3   OH2 8957   0.349   6.366   2.077
 2998TIP3    H1 8958   0.297   6.374   2.157
 2998TIP3    H2 8959   0.402   6.445   2.074
 2999TIP3   OH2 8960   2.891   1.717   2.292
 2999TIP3    H1 8961   2.965   1.657   2.279
 2999TIP3    H2 8962   2.905   1.786   2.228
 3000TIP3   OH2 8963   5.978   4.732   5.197
 3000TIP3    H1 8964   5.994   4.740   5.291
 3000TIP3    H2 8965   6.060   4.700   5.161
 3001TIP3   OH2 8966   6.683   1.585   2.358
 3001TIP3    H1 8967   6.757   1.636   2.392
 3001TIP3    H2 8968   6.657   1.632   2.279
 3002TIP3   OH2 8969   4.557   2.338   2.407
 3002TIP3    H1 8970   4.506   2.284   2.348
 3002TIP3    H2 8971   4.535   2.306   2.494
 3003TIP3   OH2 8972   6.347   3.342   5.231
 3003TIP3    H1 8973   6.405   3.270   5.206
 3003TIP3    H2 8974   6.407   3.413   5.254
 3004TIP3   OH2 8975   0.934   2.745   3.373
 3004TIP3    H1 8976   0.935   2.735   3.468
 3004TIP3    H2 8977   0.918   2.839   3.359
 3005TIP3   OH2 8978   7.008   2.295   4.782
 3005TIP3    H1 8979   6.935   2.350   4.809
 3005TIP3    H2 8980   7.011   2.225   4.848
 3006TIP3   OH2 8981   1.026   4.837   0.646
 3006TIP3    H1 8982   1.013   4.927   0.678
 3006TIP3    H2 8983   1.025   4.784   0.725
 3007TIP3   OH2 8984   0.992   0.040   0.465
 3007TIP3    H1 8985   0.935  -0.016   0.518
 3007TIP3    H2 8986   0.953   0.127   0.472
 3008TIP3   OH2 8987   0.777   1.761   1.932
 3008TIP3    H1 8988   0.780   1.828   1.864
 3008TIP3    H2 8989   0.784   1.809   2.014
 3009TIP3   OH2 8990   2.867   0.034   0.563
 3009TIP3    H1 8991   2.845   0.010   0.473
 3009TIP3    H2 8992   2.826  -0.034   0.616
 3010TIP3   OH2 8993   6.153   6.571   5.297
 3010TIP3    H1 8994   6.066   6.608   5.280
 3010TIP3    H2 8995   6.190   6.556   5.211
 3011TIP3   OH2 8996   4.404   5.419   0.015
 3011TIP3    H1 8997   4.491   5.427   0.054
 3011TIP3    H2 8998   4.413   5.458  -0.072
 3012TIP3   OH2 8999   5.164   4.841   1.273
 3012TIP3    H1 9000   5.203   4.760   1.239
 3012TIP3    H2 9001   5.070   4.827   1.268
 3013TIP3   OH2 9002   0.074   3.789   0.262
 3013TIP3    H1 9003   0.094   3.877   0.294
 3013TIP3    H2 9004   0.099   3.731   0.334
 3014TIP3   OH2 9005   5.453   1.991   3.784
 3014TIP3    H1 9006   5.440   1.926   3.715
 3014TIP3    H2 9007   5.481   2.070   3.738
 3015TIP3   OH2 9008   5.121   0.046   5.028
 3015TIP3    H1 9009   5.122  -0.049   5.022
 3015TIP3    H2 9010   5.187   0.066   5.095
 3016TIP3   OH2 9011   7.201   6.296   2.509
 3016TIP3    H1 9012   7.251   6.364   2.463
 3016TIP3    H2 9013   7.266   6.231   2.534
 3017TIP3   OH2 9014   5.602   2.429   4.552
 3017TIP3    H1 9015   5.690   2.446   4.520
 3017TIP3    H2 9016   5.612   2.423   4.647
 3018TIP3   OH2 9017   4.827   6.196   0.805
 3018TIP3    H1 9018   4.904   6.160   0.762
 3018TIP3    H2 9019   4.860   6.273   0.853
 3019TIP3   OH2 9020   4.464   4.891   3.335
 3019TIP3    H1 9021   4.450   4.977   3.294
 3019TIP3    H2 9022   4.557   4.890   3.357
 3020TIP3   OH2 9023   7.063   5.148   2.155
 3020TIP3    H1 9024   7.025   5.084   2.215
 3020TIP3    H2 9025   7.120   5.201   2.210
 3021TIP3   OH2 9026   4.076   1.015   4.337
 3021TIP3    H1 9027   4.131   1.070   4.393
 3021TIP3    H2 9028   4.131   0.941   4.314
 3022TIP3   OH2 9029   5.342   5.742   5.353
 3022TIP3    H1 9030   5.355   5.648   5.355
 3022TIP3    H2 9031   5.391   5.775   5.428
 3023TIP3   OH2 9032   1.351   6.743   5.062
 3023TIP3    H1 9033   1.357   6.803   5.137
 3023TIP3    H2 9034   1.439   6.709   5.051
 3024TIP3   OH2 9035   0.675   3.619   4.782
 3024TIP3    H1 9036   0.621   3.676   4.837
 3024TIP3    H2 9037   0.643   3.633   4.693
 3025TIP3   OH2 9038   2.923   6.817   5.250
 3025TIP3    H1 9039   2.934   6.883   5.318
 3025TIP3    H2 9040   2.909   6.735   5.298
 3026TIP3   OH2 9041   2.848   5.999   1.314
 3026TIP3    H1 9042   2.870   5.998   1.407
 3026TIP3    H2 9043   2.778   6.065   1.307
 3027TIP3   OH2 9044   6.799   2.561   1.044
 3027TIP3    H1 9045   6.807   2.507   0.965
 3027TIP3    H2 9046   6.810   2.499   1.116
 3028TIP3   OH2 9047   5.073   5.681   1.329
 3028TIP3    H1 9048   5.112   5.764   1.355
 3028TIP3    H2 9049   5.096   5.671   1.237
 3029TIP3   OH2 9050   6.254   3.601   2.943
 3029TIP3    H1 9051   6.162   3.618   2.962
 3029TIP3    H2 9052   6.259   3.601   2.848
 3030TIP3   OH2 9053   7.156   1.728   3.645
 3030TIP3    H1 9054   7.136   1.696   3.733
 3030TIP3    H2 9055   7.116   1.664   3.587
 3031TIP3   OH2 9056   1.819   1.065   3.072
 3031TIP3    H1 9057   1.748   1.021   3.026
 3031TIP3    H2 9058   1.882   1.088   3.004
 3032TIP3   OH2 9059   3.990   5.834   3.596
 3032TIP3    H1 9060   3.966   5.910   3.648
 3032TIP3    H2 9061   3.980   5.862   3.505
 3033TIP3   OH2 9062   0.931   5.958   3.598
 3033TIP3    H1 9063   0.843   5.921   3.609
 3033TIP3    H2 9064   0.985   5.882   3.575
 3034TIP3   OH2 9065   5.543   1.862   1.650
 3034TIP3    H1 9066   5.555   1.804   1.575
 3034TIP3    H2 9067   5.456   1.841   1.684
 3035TIP3   OH2 9068   3.394   5.450   4.671
 3035TIP3    H1 9069   3.479   5.466   4.630
 3035TIP3    H2 9070   3.387   5.355   4.676
 3036TIP3   OH2 9071   6.694   2.352   1.781
 3036TIP3    H1 9072   6.711   2.357   1.876
 3036TIP3    H2 9073   6.698   2.442   1.751
 3037TIP3   OH2 9074   3.550   5.787   4.020
 3037TIP3    H1 9075   3.628   5.732   4.006
 3037TIP3    H2 9076   3.559   5.818   4.110
 3038TIP3   OH2 9077   5.636   0.003   1.894
 3038TIP3    H1 9078   5.585  -0.033   1.822
 3038TIP3    H2 9079   5.724   0.014   1.858
 3039TIP3   OH2 9080   6.814   0.403   0.218
 3039TIP3    H1 9081   6.867   0.478   0.245
 3039TIP3    H2 9082   6.877   0.340   0.182
 3040TIP3   OH2 9083   3.950   2.211   5.060
 3040TIP3    H1 9084   3.890   2.195   5.133
 3040TIP3    H2 9085   4.013   2.274   5.095
 3041TIP3   OH2 9086   3.083   0.231   5.011
 3041TIP3    H1 9087   3.084   0.135   5.015
 3041TIP3    H2 9088   3.005   0.252   4.960
 3042TIP3   OH2 9089   6.872   3.256   4.918
 3042TIP3    H1 9090   6.931   3.318   4.877
 3042TIP3    H2 9091   6.810   3.310   4.966
 3043TIP3   OH2 9092   6.851   5.330   3.240
 3043TIP3    H1 9093   6.864   5.424   3.249
 3043TIP3    H2 9094   6.849   5.316   3.145
 3044TIP3   OH2 9095   3.248   4.159   0.805
 3044TIP3    H1 9096   3.207   4.242   0.780
 3044TIP3    H2 9097   3.299   4.133   0.728
 3045TIP3   OH2 9098   7.213   2.700   2.183
 3045TIP3    H1 9099   7.136   2.753   2.203
 3045TIP3    H2 9100   7.270   2.712   2.259
 3046TIP3   OH2 9101   2.161   4.271   2.158
 3046TIP3    H1 9102   2.191   4.315   2.078
 3046TIP3    H2 9103   2.229   4.206   2.176
 3047TIP3   OH2 9104   1.205   6.391   0.940
 3047TIP3    H1 9105   1.176   6.479   0.963
 3047TIP3    H2 9106   1.186   6.382   0.847
 3048TIP3   OH2 9107   2.653   3.572   0.614
 3048TIP3    H1 9108   2.651   3.477   0.616
 3048TIP3    H2 9109   2.596   3.599   0.686
 3049TIP3   OH2 9110   2.214   2.656   3.516
 3049TIP3    H1 9111   2.183   2.684   3.430
 3049TIP3    H2 9112   2.190   2.563   3.521
 3050TIP3   OH2 9113   1.135   5.895   1.475
 3050TIP3    H1 9114   1.171   5.903   1.563
 3050TIP3    H2 9115   1.196   5.944   1.420
 3051TIP3   OH2 9116   1.464   4.211   2.687
 3051TIP3    H1 9117   1.559   4.220   2.678
 3051TIP3    H2 9118   1.454   4.144   2.756
 3052TIP3   OH2 9119   4.683   5.121   1.295
 3052TIP3    H1 9120   4.744   5.077   1.353
 3052TIP3    H2 9121   4.606   5.139   1.349
 3053TIP3   OH2 9122   5.579   4.541   1.035
 3053TIP3    H1 9123   5.640   4.480   1.078
 3053TIP3    H2 9124   5.508   4.485   1.003
 3054TIP3   OH2 9125   2.241   4.350   4.048
 3054TIP3    H1 9126   2.278   4.421   3.997
 3054TIP3    H2 9127   2.160   4.386   4.084
 3055TIP3   OH2 9128   4.074   5.912   0.580
 3055TIP3    H1 9129   4.124   5.989   0.608
 3055TIP3    H2 9130   3.982   5.939   0.586
 3056TIP3   OH2 9131   1.148   0.163   1.974
 3056TIP3    H1 9132   1.192   0.249   1.973
 3056TIP3    H2 9133   1.124   0.148   1.883
 3057TIP3   OH2 9134   3.136   3.259   0.017
 3057TIP3    H1 9135   3.100   3.343   0.045
 3057TIP3    H2 9136   3.185   3.227   0.092
 3058TIP3   OH2 9137   6.424   3.474   0.517
 3058TIP3    H1 9138   6.448   3.488   0.426
 3058TIP3    H2 9139   6.379   3.389   0.518
 3059TIP3   OH2 9140   2.053   6.215   5.165
 3059TIP3    H1 9141   2.062   6.140   5.224
 3059TIP3    H2 9142   2.142   6.245   5.151
 3060TIP3   OH2 9143   1.375   6.121   0.697
 3060TIP3    H1 9144   1.332   6.068   0.629
 3060TIP3    H2 9145   1.303   6.149   0.754
 3061TIP3   OH2 9146   6.839   3.130   1.650
 3061TIP3    H1 9147   6.777   3.200   1.666
 3061TIP3    H2 9148   6.808   3.088   1.569
 3062TIP3   OH2 9149   3.281   4.088   2.017
 3062TIP3    H1 9150   3.193   4.094   2.056
 3062TIP3    H2 9151   3.299   4.177   1.987
 3063TIP3   OH2 9152   4.070   1.612   5.330
 3063TIP3    H1 9153   4.106   1.691   5.289
 3063TIP3    H2 9154   4.022   1.644   5.406
 3064TIP3   OH2 9155   6.214   4.799   4.789
 3064TIP3    H1 9156   6.292   4.851   4.769
 3064TIP3    H2 9157   6.247   4.723   4.836
 3065TIP3   OH2 9158   0.658   2.982   3.661
 3065TIP3    H1 9159   0.660   2.964   3.755
 3065TIP3    H2 9160   0.642   2.896   3.621
 3066TIP3   OH2 9161   5.379   6.710   5.150
 3066TIP3    H1 9162   5.347   6.635   5.098
 3066TIP3    H2 9163   5.333   6.785   5.113
 3067TIP3   OH2 9164   6.907   2.099   4.620
 3067TIP3    H1 9165   6.933   2.015   4.659
 3067TIP3    H2 9166   6.939   2.165   4.682
 3068TIP3   OH2 9167   2.159   0.700   5.235
 3068TIP3    H1 9168   2.117   0.677   5.318
 3068TIP3    H2 9169   2.141   0.793   5.223
 3069TIP3   OH2 9170   2.003   2.499   5.793
 3069TIP3    H1 9171   2.093   2.472   5.813
 3069TIP3    H2 9172   1.954   2.479   5.873
 3070TIP3   OH2 9173   0.444   6.593   5.205
 3070TIP3    H1 9174   0.381   6.521   5.200
 3070TIP3    H2 9175   0.401   6.660   5.257
 3071TIP3   OH2 9176   2.746   3.644   3.246
 3071TIP3    H1 9177   2.783   3.556   3.245
 3071TIP3    H2 9178   2.785   3.686   3.323
 3072TIP3   OH2 9179   4.314   6.084   1.271
 3072TIP3    H1 9180   4.322   6.177   1.249
 3072TIP3    H2 9181   4.351   6.039   1.195
 3073TIP3   OH2 9182   5.081   0.848   5.783
 3073TIP3    H1 9183   5.053   0.773   5.836
 3073TIP3    H2 9184   5.000   0.880   5.743
 3074TIP3   OH2 9185   0.313   5.669   1.938
 3074TIP3    H1 9186   0.233   5.711   1.907
 3074TIP3    H2 9187   0.367   5.741   1.972
 3075TIP3   OH2 9188   2.103   2.512   2.904
 3075TIP3    H1 9189   2.082   2.576   2.972
 3075TIP3    H2 9190   2.040   2.529   2.834
 3076TIP3   OH2 9191   3.035   4.313   0.610
 3076TIP3    H1 9192   3.060   4.391   0.659
 3076TIP3    H2 9193   3.005   4.345   0.525
 3077TIP3   OH2 9194   4.616   0.335   4.366
 3077TIP3    H1 9195   4.537   0.283   4.355
 3077TIP3    H2 9196   4.607   0.375   4.452
 3078TIP3   OH2 9197   2.435   3.808   0.582
 3078TIP3    H1 9198   2.464   3.760   0.504
 3078TIP3    H2 9199   2.387   3.883   0.548
 3079TIP3   OH2 9200   0.296   2.870   3.157
 3079TIP3    H1 9201   0.343   2.933   3.212
 3079TIP3    H2 9202   0.355   2.854   3.083
 3080TIP3   OH2 9203   6.948   2.813   2.687
 3080TIP3    H1 9204   6.999   2.785   2.763
 3080TIP3    H2 9205   6.997   2.886   2.651
 3081TIP3   OH2 9206   0.748   2.694   1.770
 3081TIP3    H1 9207   0.843   2.698   1.784
 3081TIP3    H2 9208   0.722   2.785   1.755
 3082TIP3   OH2 9209   2.890   4.548   2.596
 3082TIP3    H1 9210   2.851   4.587   2.518
 3082TIP3    H2 9211   2.819   4.501   2.639
 3083TIP3   OH2 9212   0.427   2.722   5.517
 3083TIP3    H1 9213   0.488   2.650   5.529
 3083TIP3    H2 9214   0.469   2.779   5.453
 3084TIP3   OH2 9215   5.335   6.511   2.250
 3084TIP3    H1 9216   5.245   6.544   2.252
 3084TIP3    H2 9217   5.345   6.467   2.334
 3085TIP3   OH2 9218   5.240   0.456   0.907
 3085TIP3    H1 9219   5.230   0.432   0.814
 3085TIP3    H2 9220   5.323   0.417   0.933
 3086TIP3   OH2 9221   1.839   4.791   3.839
 3086TIP3    H1 9222   1.919   4.793   3.786
 3086TIP3    H2 9223   1.793   4.712   3.811
 3087TIP3   OH2 9224   0.402   1.353   3.237
 3087TIP3    H1 9225   0.344   1.288   3.278
 3087TIP3    H2 9226   0.411   1.323   3.147
 3088TIP3   OH2 9227   5.316   0.926   3.917
 3088TIP3    H1 9228   5.263   0.951   3.842
 3088TIP3    H2 9229   5.313   1.002   3.976
 3089TIP3   OH2 9230   4.193   1.166   3.863
 3089TIP3    H1 9231   4.153   1.079   3.868
 3089TIP3    H2 9232   4.240   1.166   3.779
 3090TIP3   OH2 9233   2.586   0.477   1.921
 3090TIP3    H1 9234   2.622   0.469   2.010
 3090TIP3    H2 9235   2.517   0.411   1.917
 3091TIP3   OH2 9236   3.984   0.628   2.675
 3091TIP3    H1 9237   4.006   0.545   2.635
 3091TIP3    H2 9238   4.064   0.656   2.719
 3092TIP3   OH2 9239   7.076   6.703   0.792
 3092TIP3    H1 9240   7.050   6.645   0.864
 3092TIP3    H2 9241   7.080   6.790   0.831
 3093TIP3   OH2 9242   1.846   5.266   1.573
 3093TIP3    H1 9243   1.819   5.226   1.490
 3093TIP3    H2 9244   1.907   5.202   1.611
 3094TIP3   OH2 9245   0.978   6.222   3.495
 3094TIP3    H1 9246   0.884   6.237   3.507
 3094TIP3    H2 9247   0.993   6.134   3.531
 3095TIP3   OH2 9248   3.106   5.058   0.926
 3095TIP3    H1 9249   3.047   5.075   0.853
 3095TIP3    H2 9250   3.177   5.006   0.888
 3096TIP3   OH2 9251   4.583   6.464   0.917
 3096TIP3    H1 9252   4.649   6.466   0.848
 3096TIP3    H2 9253   4.552   6.373   0.919
 3097TIP3   OH2 9254   3.145   5.290   5.507
 3097TIP3    H1 9255   3.072   5.302   5.568
 3097TIP3    H2 9256   3.105   5.250   5.430
 3098TIP3   OH2 9257   0.417   1.364   4.949
 3098TIP3    H1 9258   0.500   1.405   4.923
 3098TIP3    H2 9259   0.352   1.410   4.896
 3099TIP3   OH2 9260   2.375   1.531   2.810
 3099TIP3    H1 9261   2.452   1.586   2.827
 3099TIP3    H2 9262   2.312   1.589   2.768
 3100TIP3   OH2 9263   7.162   3.467   4.463
 3100TIP3    H1 9264   7.122   3.553   4.446
 3100TIP3    H2 9265   7.089   3.406   4.462
 3101TIP3   OH2 9266   1.415   4.415   3.976
 3101TIP3    H1 9267   1.342   4.451   3.925
 3101TIP3    H2 9268   1.374   4.380   4.055
 3102TIP3   OH2 9269   4.177   3.921   2.915
 3102TIP3    H1 9270   4.156   3.847   2.859
 3102TIP3    H2 9271   4.202   3.991   2.854
 3103TIP3   OH2 9272   2.907   3.531   2.507
 3103TIP3    H1 9273   2.821   3.554   2.541
 3103TIP3    H2 9274   2.941   3.614   2.472
 3104TIP3   OH2 9275   0.950   0.559   4.158
 3104TIP3    H1 9276   0.917   0.622   4.222
 3104TIP3    H2 9277   1.028   0.523   4.199
 3105TIP3   OH2 9278   0.343   2.179   1.575
 3105TIP3    H1 9279   0.430   2.189   1.612
 3105TIP3    H2 9280   0.306   2.103   1.619
 3106TIP3   OH2 9281   1.373   2.667   5.153
 3106TIP3    H1 9282   1.434   2.599   5.181
 3106TIP3    H2 9283   1.417   2.708   5.078
 3107TIP3   OH2 9284   0.430   4.813   1.073
 3107TIP3    H1 9285   0.459   4.753   1.003
 3107TIP3    H2 9286   0.337   4.792   1.085
 3108TIP3   OH2 9287   3.238   4.307   0.226
 3108TIP3    H1 9288   3.197   4.233   0.182
 3108TIP3    H2 9289   3.322   4.318   0.181
 3109TIP3   OH2 9290   6.959   6.635   1.703
 3109TIP3    H1 9291   6.995   6.571   1.640
 3109TIP3    H2 9292   6.871   6.652   1.671
 3110TIP3   OH2 9293   4.388   3.895   4.892
 3110TIP3    H1 9294   4.461   3.843   4.860
 3110TIP3    H2 9295   4.336   3.913   4.814
 3111TIP3   OH2 9296   3.428   5.755   4.747
 3111TIP3    H1 9297   3.371   5.829   4.727
 3111TIP3    H2 9298   3.371   5.679   4.741
 3112TIP3   OH2 9299   0.461   3.088   0.620
 3112TIP3    H1 9300   0.393   3.137   0.575
 3112TIP3    H2 9301   0.520   3.155   0.655
 3113TIP3   OH2 9302   0.895   2.487   1.269
 3113TIP3    H1 9303   0.857   2.564   1.309
 3113TIP3    H2 9304   0.984   2.482   1.305
 3114TIP3   OH2 9305   0.721   4.575   0.280
 3114TIP3    H1 9306   0.775   4.512   0.233
 3114TIP3    H2 9307   0.782   4.615   0.343
 3115TIP3   OH2 9308   1.595   4.624   5.619
 3115TIP3    H1 9309   1.536   4.589   5.553
 3115TIP3    H2 9310   1.551   4.607   5.703
 3116TIP3   OH2 9311   0.593   3.167   2.665
 3116TIP3    H1 9312   0.551   3.252   2.676
 3116TIP3    H2 9313   0.686   3.187   2.652
 3117TIP3   OH2 9314   5.931   1.033   1.627
 3117TIP3    H1 9315   5.995   1.104   1.614
 3117TIP3    H2 9316   5.974   0.973   1.688
 3118TIP3   OH2 9317   3.448   0.951   0.279
 3118TIP3    H1 9318   3.413   0.918   0.361
 3118TIP3    H2 9319   3.371   0.967   0.225
 3119TIP3   OH2 9320   5.757   1.922   4.241
 3119TIP3    H1 9321   5.755   1.828   4.219
 3119TIP3    H2 9322   5.679   1.958   4.199
 3120TIP3   OH2 9323   5.767   0.033   2.591
 3120TIP3    H1 9324   5.707  -0.030   2.630
 3120TIP3    H2 9325   5.764   0.109   2.649
 3121TIP3   OH2 9326   6.994   3.235   4.046
 3121TIP3    H1 9327   6.985   3.228   4.141
 3121TIP3    H2 9328   6.920   3.289   4.018
 3122TIP3   OH2 9329   3.631   3.495   1.567
 3122TIP3    H1 9330   3.694   3.538   1.508
 3122TIP3    H2 9331   3.550   3.490   1.516
 3123TIP3   OH2 9332   6.024   1.899   3.179
 3123TIP3    H1 9333   5.959   1.967   3.195
 3123TIP3    H2 9334   5.988   1.821   3.221
 3124TIP3   OH2 9335   6.889   1.772   2.470
 3124TIP3    H1 9336   6.897   1.867   2.469
 3124TIP3    H2 9337   6.949   1.742   2.401
 3125TIP3   OH2 9338   5.258   1.506   1.317
 3125TIP3    H1 9339   5.262   1.598   1.342
 3125TIP3    H2 9340   5.209   1.506   1.235
 3126TIP3   OH2 9341   3.241   6.008   3.905
 3126TIP3    H1 9342   3.277   5.947   3.841
 3126TIP3    H2 9343   3.261   5.969   3.990
 3127TIP3   OH2 9344   0.258   0.631   0.782
 3127TIP3    H1 9345   0.341   0.623   0.735
 3127TIP3    H2 9346   0.234   0.723   0.773
 3128TIP3   OH2 9347   1.308   3.124   4.093
 3128TIP3    H1 9348   1.219   3.156   4.078
 3128TIP3    H2 9349   1.346   3.186   4.155
 3129TIP3   OH2 9350   2.050   5.441   0.600
 3129TIP3    H1 9351   1.996   5.403   0.670
 3129TIP3    H2 9352   2.098   5.512   0.644
 3130TIP3   OH2 9353   5.658   1.316   4.415
 3130TIP3    H1 9354   5.657   1.400   4.461
 3130TIP3    H2 9355   5.750   1.299   4.398
 3131TIP3   OH2 9356   3.268   4.675   1.473
 3131TIP3    H1 9357   3.349   4.721   1.496
 3131TIP3    H2 9358   3.247   4.706   1.385
 3132TIP3   OH2 9359   3.181   2.402   1.841
 3132TIP3    H1 9360   3.231   2.371   1.766
 3132TIP3    H2 9361   3.191   2.497   1.839
 3133TIP3   OH2 9362   6.017   2.518   5.873
 3133TIP3    H1 9363   6.017   2.553   5.784
 3133TIP3    H2 9364   6.109   2.497   5.890
 3134TIP3   OH2 9365   6.686   5.090   3.029
 3134TIP3    H1 9366   6.659   5.181   3.019
 3134TIP3    H2 9367   6.614   5.040   2.991
 3135TIP3   OH2 9368   1.405   4.250   2.223
 3135TIP3    H1 9369   1.315   4.253   2.192
 3135TIP3    H2 9370   1.457   4.230   2.144
 3136TIP3   OH2 9371   4.112   2.160   3.868
 3136TIP3    H1 9372   4.183   2.222   3.852
 3136TIP3    H2 9373   4.033   2.213   3.867
 3137TIP3   OH2 9374   3.229   0.631   0.863
 3137TIP3    H1 9375   3.174   0.552   0.857
 3137TIP3    H2 9376   3.192   0.680   0.936
 3138TIP3   OH2 9377   0.245   5.262   1.762
 3138TIP3    H1 9378   0.284   5.349   1.756
 3138TIP3    H2 9379   0.279   5.226   1.844
 3139TIP3   OH2 9380   7.157   4.328   3.954
 3139TIP3    H1 9381   7.065   4.320   3.928
 3139TIP3    H2 9382   7.158   4.401   4.016
 3140TIP3   OH2 9383   4.318   4.978   1.980
 3140TIP3    H1 9384   4.233   5.020   1.966
 3140TIP3    H2 9385   4.382   5.046   1.959
 3141TIP3   OH2 9386   0.729   2.388   2.697
 3141TIP3    H1 9387   0.752   2.296   2.689
 3141TIP3    H2 9388   0.737   2.423   2.608
 3142TIP3   OH2 9389   1.504   2.507   0.338
 3142TIP3    H1 9390   1.421   2.528   0.381
 3142TIP3    H2 9391   1.484   2.436   0.278
 3143TIP3   OH2 9392   6.322   1.614   3.267
 3143TIP3    H1 9393   6.341   1.708   3.268
 3143TIP3    H2 9394   6.331   1.590   3.175
 3144TIP3   OH2 9395   1.402   0.411   5.312
 3144TIP3    H1 9396   1.440   0.332   5.273
 3144TIP3    H2 9397   1.453   0.483   5.274
 3145TIP3   OH2 9398   6.753   1.386   2.942
 3145TIP3    H1 9399   6.683   1.435   2.899
 3145TIP3    H2 9400   6.774   1.316   2.880
 3146TIP3   OH2 9401   4.258   0.080   1.776
 3146TIP3    H1 9402   4.269   0.164   1.821
 3146TIP3    H2 9403   4.186   0.037   1.824
 3147TIP3   OH2 9404   7.042   2.595   0.581
 3147TIP3    H1 9405   7.040   2.690   0.566
 3147TIP3    H2 9406   7.015   2.558   0.497
 3148TIP3   OH2 9407   1.973   2.542   3.968
 3148TIP3    H1 9408   1.964   2.572   3.877
 3148TIP3    H2 9409   1.959   2.620   4.021
 3149TIP3   OH2 9410   1.178   1.803   4.824
 3149TIP3    H1 9411   1.145   1.743   4.891
 3149TIP3    H2 9412   1.101   1.831   4.776
 3150TIP3   OH2 9413   5.518   3.121   2.727
 3150TIP3    H1 9414   5.449   3.077   2.776
 3150TIP3    H2 9415   5.514   3.212   2.757
 3151TIP3   OH2 9416   2.266   0.077   3.946
 3151TIP3    H1 9417   2.351   0.036   3.959
 3151TIP3    H2 9418   2.286   0.162   3.907
 3152TIP3   OH2 9419   3.745   5.695   1.164
 3152TIP3    H1 9420   3.777   5.608   1.190
 3152TIP3    H2 9421   3.662   5.704   1.211
 3153TIP3   OH2 9422   2.199   1.194   1.036
 3153TIP3    H1 9423   2.286   1.160   1.058
 3153TIP3    H2 9424   2.207   1.224   0.945
 3154TIP3   OH2 9425   1.496   2.892   2.481
 3154TIP3    H1 9426   1.554   2.848   2.418
 3154TIP3    H2 9427   1.435   2.824   2.509
 3155TIP3   OH2 9428   5.081   0.817   5.134
 3155TIP3    H1 9429   5.164   0.823   5.087
 3155TIP3    H2 9430   5.045   0.731   5.109
 3156TIP3   OH2 9431   6.954   5.077   2.399
 3156TIP3    H1 9432   6.863   5.048   2.406
 3156TIP3    H2 9433   7.005   5.001   2.425
 3157TIP3   OH2 9434   3.156   1.600   0.354
 3157TIP3    H1 9435   3.200   1.548   0.286
 3157TIP3    H2 9436   3.218   1.670   0.375
 3158TIP3   OH2 9437   0.553   4.025   1.582
 3158TIP3    H1 9438   0.501   3.973   1.644
 3158TIP3    H2 9439   0.502   4.105   1.571
 3159TIP3   OH2 9440   0.925   4.270   3.455
 3159TIP3    H1 9441   0.883   4.307   3.378
 3159TIP3    H2 9442   0.903   4.177   3.452
 3160TIP3   OH2 9443   1.494   5.896   0.833
 3160TIP3    H1 9444   1.484   5.965   0.768
 3160TIP3    H2 9445   1.541   5.826   0.787
 3161TIP3   OH2 9446   5.091   3.323   1.713
 3161TIP3    H1 9447   5.026   3.273   1.762
 3161TIP3    H2 9448   5.170   3.317   1.767
 3162TIP3   OH2 9449   1.354   3.721   5.392
 3162TIP3    H1 9450   1.348   3.639   5.441
 3162TIP3    H2 9451   1.440   3.719   5.351
 3163TIP3   OH2 9452   0.030   2.829   5.219
 3163TIP3    H1 9453   0.004   2.819   5.311
 3163TIP3    H2 9454   0.072   2.914   5.214
 3164TIP3   OH2 9455   0.763   2.351   4.346
 3164TIP3    H1 9456   0.691   2.290   4.363
 3164TIP3    H2 9457   0.785   2.386   4.432
 3165TIP3   OH2 9458   0.263   4.099   3.661
 3165TIP3    H1 9459   0.224   4.068   3.579
 3165TIP3    H2 9460   0.355   4.114   3.640
 3166TIP3   OH2 9461   3.772   1.245   1.289
 3166TIP3    H1 9462   3.860   1.256   1.325
 3166TIP3    H2 9463   3.753   1.328   1.246
 3167TIP3   OH2 9464   2.349   4.182   3.156
 3167TIP3    H1 9465   2.383   4.092   3.152
 3167TIP3    H2 9466   2.416   4.230   3.205
 3168TIP3   OH2 9467   6.055   0.019   2.924
 3168TIP3    H1 9468   6.066   0.113   2.936
 3168TIP3    H2 9469   6.068  -0.018   3.011
 3169TIP3   OH2 9470   1.435   6.334   3.491
 3169TIP3    H1 9471   1.469   6.367   3.408
 3169TIP3    H2 9472   1.426   6.239   3.477
 3170TIP3   OH2 9473   0.051   6.580   1.402
 3170TIP3    H1 9474   0.073   6.537   1.485
 3170TIP3    H2 9475   0.080   6.518   1.335
 3171TIP3   OH2 9476   6.356   2.751   1.751
 3171TIP3    H1 9477   6.337   2.665   1.787
 3171TIP3    H2 9478   6.346   2.741   1.657
 3172TIP3   OH2 9479   4.840   4.464   4.441
 3172TIP3    H1 9480   4.838   4.560   4.448
 3172TIP3    H2 9481   4.804   4.434   4.524
 3173TIP3   OH2 9482   3.698   4.936   0.392
 3173TIP3    H1 9483   3.644   4.966   0.319
 3173TIP3    H2 9484   3.678   4.842   0.398
 3174TIP3   OH2 9485   0.957   5.126   4.543
 3174TIP3    H1 9486   0.922   5.213   4.526
 3174TIP3    H2 9487   0.886   5.079   4.586
 3175TIP3   OH2 9488   6.277   5.452   0.639
 3175TIP3    H1 9489   6.323   5.512   0.698
 3175TIP3    H2 9490   6.270   5.370   0.689
 3176TIP3   OH2 9491   1.420   3.615   2.444
 3176TIP3    H1 9492   1.459   3.586   2.526
 3176TIP3    H2 9493   1.494   3.632   2.386
 3177TIP3   OH2 9494   7.167   5.978   3.550
 3177TIP3    H1 9495   7.104   5.910   3.574
 3177TIP3    H2 9496   7.209   5.945   3.471
 3178TIP3   OH2 9497   0.186   0.523   1.507
 3178TIP3    H1 9498   0.122   0.583   1.547
 3178TIP3    H2 9499   0.158   0.436   1.534
 3179TIP3   OH2 9500   6.722   5.783   3.531
 3179TIP3    H1 9501   6.647   5.734   3.564
 3179TIP3    H2 9502   6.694   5.816   3.446
 3180TIP3   OH2 9503   6.469   1.099   1.951
 3180TIP3    H1 9504   6.505   1.125   2.035
 3180TIP3    H2 9505   6.440   1.180   1.910
 3181TIP3   OH2 9506   1.701   6.306   5.279
 3181TIP3    H1 9507   1.725   6.248   5.351
 3181TIP3    H2 9508   1.715   6.394   5.313
 3182TIP3   OH2 9509   1.633   0.776   2.956
 3182TIP3    H1 9510   1.556   0.720   2.965
 3182TIP3    H2 9511   1.688   0.731   2.891
 3183TIP3   OH2 9512   5.421   6.002   4.279
 3183TIP3    H1 9513   5.501   5.960   4.246
 3183TIP3    H2 9514   5.400   5.952   4.358
 3184TIP3   OH2 9515   5.159   5.766   2.442
 3184TIP3    H1 9516   5.162   5.731   2.353
 3184TIP3    H2 9517   5.234   5.825   2.447
 3185TIP3   OH2 9518   0.658   1.029   4.962
 3185TIP3    H1 9519   0.586   1.088   4.937
 3185TIP3    H2 9520   0.713   1.025   4.885
 3186TIP3   OH2 9521   0.209   1.589   2.706
 3186TIP3    H1 9522   0.155   1.579   2.783
 3186TIP3    H2 9523   0.153   1.634   2.642
 3187TIP3   OH2 9524   2.459   5.099   2.837
 3187TIP3    H1 9525   2.490   5.124   2.750
 3187TIP3    H2 9526   2.468   5.004   2.839
 3188TIP3   OH2 9527   4.857   1.913   1.535
 3188TIP3    H1 9528   4.820   1.982   1.481
 3188TIP3    H2 9529   4.950   1.910   1.510
 3189TIP3   OH2 9530   4.763   5.719   3.337
 3189TIP3    H1 9531   4.818   5.675   3.272
 3189TIP3    H2 9532   4.822   5.743   3.408
 3190TIP3   OH2 9533   4.580   5.311   1.539
 3190TIP3    H1 9534   4.505   5.346   1.588
 3190TIP3    H2 9535   4.573   5.351   1.453
 3191TIP3   OH2 9536   2.880   1.747   5.806
 3191TIP3    H1 9537   2.855   1.709   5.723
 3191TIP3    H2 9538   2.972   1.722   5.818
 3192TIP3   OH2 9539   0.287   3.844   3.798
 3192TIP3    H1 9540   0.279   3.854   3.893
 3192TIP3    H2 9541   0.298   3.933   3.765
 3193TIP3   OH2 9542   4.867   3.456   5.567
 3193TIP3    H1 9543   4.906   3.531   5.521
 3193TIP3    H2 9544   4.894   3.380   5.515
 3194TIP3   OH2 9545   5.231   4.005   3.574
 3194TIP3    H1 9546   5.172   3.930   3.564
 3194TIP3    H2 9547   5.228   4.026   3.667
 3195TIP3   OH2 9548   4.343   4.083   2.119
 3195TIP3    H1 9549   4.279   4.062   2.050
 3195TIP3    H2 9550   4.399   4.005   2.124
 3196TIP3   OH2 9551   7.145   1.287   4.513
 3196TIP3    H1 9552   7.239   1.281   4.494
 3196TIP3    H2 9553   7.125   1.207   4.561
 3197TIP3   OH2 9554   5.380   4.367   1.386
 3197TIP3    H1 9555   5.402   4.317   1.307
 3197TIP3    H2 9556   5.456   4.356   1.443
 3198TIP3   OH2 9557   6.902   1.383   4.992
 3198TIP3    H1 9558   6.894   1.288   4.994
 3198TIP3    H2 9559   6.924   1.404   4.901
 3199TIP3   OH2 9560   0.296   4.738   0.408
 3199TIP3    H1 9561   0.216   4.743   0.459
 3199TIP3    H2 9562   0.299   4.648   0.375
 3200TIP3   OH2 9563   5.126   6.409   4.578
 3200TIP3    H1 9564   5.099   6.388   4.488
 3200TIP3    H2 9565   5.056   6.374   4.632
 3201TIP3   OH2 9566   6.786   2.686   5.098
 3201TIP3    H1 9567   6.832   2.763   5.132
 3201TIP3    H2 9568   6.707   2.680   5.152
 3202TIP3   OH2 9569   5.872   5.689   4.046
 3202TIP3    H1 9570   5.951   5.742   4.049
 3202TIP3    H2 9571   5.848   5.686   3.953
 3203TIP3   OH2 9572   5.975   1.313   5.409
 3203TIP3    H1 9573   5.929   1.234   5.382
 3203TIP3    H2 9574   6.067   1.297   5.388
 3204TIP3   OH2 9575   5.819   0.847   1.869
 3204TIP3    H1 9576   5.834   0.809   1.783
 3204TIP3    H2 9577   5.893   0.818   1.922
 3205TIP3   OH2 9578   0.983   1.542   0.595
 3205TIP3    H1 9579   0.977   1.627   0.640
 3205TIP3    H2 9580   0.917   1.488   0.637
 3206TIP3   OH2 9581   3.370   6.320   3.774
 3206TIP3    H1 9582   3.418   6.245   3.808
 3206TIP3    H2 9583   3.427   6.358   3.707
 3207TIP3   OH2 9584   2.511   0.753   5.705
 3207TIP3    H1 9585   2.445   0.752   5.774
 3207TIP3    H2 9586   2.529   0.846   5.692
 3208TIP3   OH2 9587   3.359   2.373   1.633
 3208TIP3    H1 9588   3.336   2.378   1.540
 3208TIP3    H2 9589   3.437   2.317   1.635
 3209TIP3   OH2 9590   3.668   2.586   0.105
 3209TIP3    H1 9591   3.684   2.537   0.024
 3209TIP3    H2 9592   3.573   2.583   0.116
 3210TIP3   OH2 9593   2.731   3.063   0.026
 3210TIP3    H1 9594   2.807   3.108  -0.010
 3210TIP3    H2 9595   2.769   2.992   0.080
 3211TIP3   OH2 9596   4.811   1.193   5.589
 3211TIP3    H1 9597   4.796   1.221   5.499
 3211TIP3    H2 9598   4.723   1.169   5.621
 3212TIP3   OH2 9599   1.791   4.263   1.959
 3212TIP3    H1 9600   1.808   4.181   2.007
 3212TIP3    H2 9601   1.763   4.325   2.027
 3213TIP3   OH2 9602   5.989   4.634   2.882
 3213TIP3    H1 9603   6.016   4.711   2.933
 3213TIP3    H2 9604   5.912   4.600   2.928
 3214TIP3   OH2 9605   6.337   0.399   1.075
 3214TIP3    H1 9606   6.374   0.414   1.162
 3214TIP3    H2 9607   6.386   0.323   1.041
 3215TIP3   OH2 9608   0.629   5.452   1.262
 3215TIP3    H1 9609   0.722   5.441   1.282
 3215TIP3    H2 9610   0.616   5.402   1.181
 3216TIP3   OH2 9611   1.771   3.205   1.446
 3216TIP3    H1 9612   1.822   3.243   1.374
 3216TIP3    H2 9613   1.747   3.118   1.414
 3217TIP3   OH2 9614   3.029   3.139   0.403
 3217TIP3    H1 9615   2.989   3.218   0.367
 3217TIP3    H2 9616   2.956   3.082   0.423
 3218TIP3   OH2 9617   1.037   3.327   3.250
 3218TIP3    H1 9618   0.981   3.402   3.270
 3218TIP3    H2 9619   1.080   3.352   3.168
 3219TIP3   OH2 9620   1.746   5.898   3.923
 3219TIP3    H1 9621   1.727   5.844   3.999
 3219TIP3    H2 9622   1.673   5.961   3.919
 3220TIP3   OH2 9623   3.374   5.437   3.967
 3220TIP3    H1 9624   3.335   5.517   3.932
 3220TIP3    H2 9625   3.404   5.389   3.890
 3221TIP3   OH2 9626   4.200   0.688   2.842
 3221TIP3    H1 9627   4.144   0.698   2.919
 3221TIP3    H2 9628   4.257   0.764   2.844
 3222TIP3   OH2 9629   3.551   1.633   0.853
 3222TIP3    H1 9630   3.514   1.559   0.805
 3222TIP3    H2 9631   3.492   1.706   0.835
 3223TIP3   OH2 9632   0.896   6.361   4.535
 3223TIP3    H1 9633   0.917   6.278   4.493
 3223TIP3    H2 9634   0.901   6.425   4.464
 3224TIP3   OH2 9635   3.674   4.873   5.252
 3224TIP3    H1 9636   3.696   4.963   5.277
 3224TIP3    H2 9637   3.754   4.838   5.213
 3225TIP3   OH2 9638   0.787   2.709   3.102
 3225TIP3    H1 9639   0.758   2.798   3.084
 3225TIP3    H2 9640   0.731   2.679   3.174
 3226TIP3   OH2 9641   3.139   3.381   2.495
 3226TIP3    H1 9642   3.054   3.425   2.493
 3226TIP3    H2 9643   3.179   3.409   2.577
 3227TIP3   OH2 9644   3.469   3.904   2.071
 3227TIP3    H1 9645   3.400   3.954   2.026
 3227TIP3    H2 9646   3.496   3.961   2.143
 3228TIP3   OH2 9647   2.898   5.908   4.495
 3228TIP3    H1 9648   2.920   5.967   4.423
 3228TIP3    H2 9649   2.831   5.955   4.545
 3229TIP3   OH2 9650   1.021   2.692   4.990
 3229TIP3    H1 9651   1.004   2.598   4.989
 3229TIP3    H2 9652   0.934   2.733   4.986
 3230TIP3   OH2 9653   0.138   5.455   5.211
 3230TIP3    H1 9654   0.229   5.450   5.181
 3230TIP3    H2 9655   0.109   5.543   5.185
 3231TIP3   OH2 9656   7.111   4.463   4.772
 3231TIP3    H1 9657   7.132   4.529   4.838
 3231TIP3    H2 9658   7.195   4.419   4.754
 3232TIP3   OH2 9659   6.015   0.893   5.175
 3232TIP3    H1 9660   6.094   0.883   5.228
 3232TIP3    H2 9661   6.006   0.988   5.163
 3233TIP3   OH2 9662   3.785   5.700   2.777
 3233TIP3    H1 9663   3.859   5.708   2.837
 3233TIP3    H2 9664   3.825   5.695   2.690
 3234TIP3   OH2 9665   4.411   3.132   3.029
 3234TIP3    H1 9666   4.384   3.176   2.949
 3234TIP3    H2 9667   4.366   3.047   3.026
 3235TIP3   OH2 9668   1.902   5.120   3.697
 3235TIP3    H1 9669   1.888   5.043   3.752
 3235TIP3    H2 9670   1.946   5.086   3.619
 3236TIP3   OH2 9671   2.085   3.051   2.181
 3236TIP3    H1 9672   2.040   3.113   2.124
 3236TIP3    H2 9673   2.138   3.106   2.238
 3237TIP3   OH2 9674   6.189   5.399   3.197
 3237TIP3    H1 9675   6.229   5.335   3.255
 3237TIP3    H2 9676   6.096   5.395   3.216
 3238TIP3   OH2 9677   0.861   6.225   1.407
 3238TIP3    H1 9678   0.858   6.194   1.498
 3238TIP3    H2 9679   0.845   6.147   1.354
 3239TIP3   OH2 9680   6.201   4.576   5.681
 3239TIP3    H1 9681   6.294   4.553   5.689
 3239TIP3    H2 9682   6.189   4.647   5.744
 3240TIP3   OH2 9683   0.795   2.573   3.865
 3240TIP3    H1 9684   0.889   2.579   3.882
 3240TIP3    H2 9685   0.758   2.539   3.946
 3241TIP3   OH2 9686   2.670   3.033   4.578
 3241TIP3    H1 9687   2.694   3.069   4.664
 3241TIP3    H2 9688   2.640   3.108   4.528
 3242TIP3   OH2 9689   6.056   6.007   0.997
 3242TIP3    H1 9690   6.097   5.921   0.996
 3242TIP3    H2 9691   6.039   6.025   1.089
 3243TIP3   OH2 9692   0.086   3.053   4.718
 3243TIP3    H1 9693   0.123   3.140   4.708
 3243TIP3    H2 9694   0.138   2.997   4.660
 3244TIP3   OH2 9695   4.777   0.174   5.525
 3244TIP3    H1 9696   4.751   0.190   5.616
 3244TIP3    H2 9697   4.695   0.166   5.477
 3245TIP3   OH2 9698   4.131   1.921   4.759
 3245TIP3    H1 9699   4.184   1.998   4.739
 3245TIP3    H2 9700   4.041   1.954   4.762
 3246TIP3   OH2 9701   5.922   4.313   4.216
 3246TIP3    H1 9702   5.979   4.355   4.281
 3246TIP3    H2 9703   5.895   4.231   4.258
 3247TIP3   OH2 9704   4.878   0.685   0.828
 3247TIP3    H1 9705   4.929   0.612   0.862
 3247TIP3    H2 9706   4.937   0.760   0.834
 3248TIP3   OH2 9707   0.781   5.288   3.780
 3248TIP3    H1 9708   0.759   5.289   3.873
 3248TIP3    H2 9709   0.697   5.276   3.736
 3249TIP3   OH2 9710   5.165   4.643   2.010
 3249TIP3    H1 9711   5.224   4.702   2.056
 3249TIP3    H2 9712   5.221   4.600   1.944
 3250TIP3   OH2 9713   2.327   3.240   2.052
 3250TIP3    H1 9714   2.395   3.201   2.107
 3250TIP3    H2 9715   2.294   3.168   1.999
 3251TIP3   OH2 9716   3.030   6.627   5.048
 3251TIP3    H1 9717   2.962   6.607   4.985
 3251TIP3    H2 9718   2.994   6.696   5.103
 3252TIP3   OH2 9719   2.552   5.088   3.506
 3252TIP3    H1 9720   2.465   5.067   3.538
 3252TIP3    H2 9721   2.540   5.106   3.413
 3253TIP3   OH2 9722   2.924   0.389   1.698
 3253TIP3    H1 9723   2.843   0.338   1.701
 3253TIP3    H2 9724   2.966   0.364   1.616
 3254TIP3   OH2 9725   2.656   3.538   5.619
 3254TIP3    H1 9726   2.616   3.605   5.675
 3254TIP3    H2 9727   2.745   3.530   5.651
 3255TIP3   OH2 9728   6.286   4.814   2.945
 3255TIP3    H1 9729   6.192   4.830   2.935
 3255TIP3    H2 9730   6.296   4.721   2.924
 3256TIP3   OH2 9731   1.154   1.386   4.797
 3256TIP3    H1 9732   1.237   1.408   4.755
 3256TIP3    H2 9733   1.158   1.431   4.882
 3257TIP3   OH2 9734   2.238   3.465   5.515
 3257TIP3    H1 9735   2.159   3.461   5.569
 3257TIP3    H2 9736   2.294   3.396   5.550
 3258TIP3   OH2 9737   5.292   5.655   4.652
 3258TIP3    H1 9738   5.356   5.670   4.722
 3258TIP3    H2 9739   5.319   5.571   4.614
 3259TIP3   OH2 9740   5.459   4.151   1.228
 3259TIP3    H1 9741   5.390   4.086   1.236
 3259TIP3    H2 9742   5.538   4.106   1.256
 3260TIP3   OH2 9743   7.174   1.559   1.630
 3260TIP3    H1 9744   7.089   1.518   1.616
 3260TIP3    H2 9745   7.219   1.552   1.546
 3261TIP3   OH2 9746   1.379   0.886   0.313
 3261TIP3    H1 9747   1.413   0.798   0.330
 3261TIP3    H2 9748   1.392   0.933   0.395
 3262TIP3   OH2 9749   2.797   2.759   5.743
 3262TIP3    H1 9750   2.731   2.787   5.680
 3262TIP3    H2 9751   2.826   2.673   5.711
 3263TIP3   OH2 9752   5.978   4.774   4.320
 3263TIP3    H1 9753   6.025   4.838   4.267
 3263TIP3    H2 9754   5.972   4.814   4.407
 3264TIP3   OH2 9755   2.131   4.318   5.078
 3264TIP3    H1 9756   2.046   4.334   5.119
 3264TIP3    H2 9757   2.194   4.360   5.137
 3265TIP3   OH2 9758   4.614   3.376   1.101
 3265TIP3    H1 9759   4.647   3.466   1.093
 3265TIP3    H2 9760   4.692   3.322   1.103
 3266TIP3   OH2 9761   4.783   6.512   1.747
 3266TIP3    H1 9762   4.819   6.532   1.833
 3266TIP3    H2 9763   4.693   6.486   1.765
 3267TIP3   OH2 9764   0.651   5.179   5.693
 3267TIP3    H1 9765   0.708   5.144   5.624
 3267TIP3    H2 9766   0.682   5.269   5.705
 3268TIP3   OH2 9767   5.888   3.451   3.403
 3268TIP3    H1 9768   5.840   3.368   3.400
 3268TIP3    H2 9769   5.866   3.488   3.489
 3269TIP3   OH2 9770   6.745   0.378   5.185
 3269TIP3    H1 9771   6.724   0.386   5.092
 3269TIP3    H2 9772   6.790   0.460   5.206
 3270TIP3   OH2 9773   3.830   6.616   2.840
 3270TIP3    H1 9774   3.770   6.665   2.896
 3270TIP3    H2 9775   3.886   6.683   2.801
 3271TIP3   OH2 9776   6.486   4.040   2.824
 3271TIP3    H1 9777   6.560   4.097   2.805
 3271TIP3    H2 9778   6.526   3.960   2.860
 3272TIP3   OH2 9779   3.521   3.089   4.825
 3272TIP3    H1 9780   3.586   3.118   4.761
 3272TIP3    H2 9781   3.454   3.045   4.772
 3273TIP3   OH2 9782   4.389   6.334   5.166
 3273TIP3    H1 9783   4.383   6.421   5.127
 3273TIP3    H2 9784   4.384   6.350   5.261
 3274TIP3   OH2 9785   1.293   6.636   3.390
 3274TIP3    H1 9786   1.266   6.668   3.476
 3274TIP3    H2 9787   1.259   6.547   3.386
 3275TIP3   OH2 9788   1.533   6.402   3.234
 3275TIP3    H1 9789   1.548   6.470   3.168
 3275TIP3    H2 9790   1.490   6.332   3.186
 3276TIP3   OH2 9791   4.700   4.840   0.615
 3276TIP3    H1 9792   4.648   4.762   0.599
 3276TIP3    H2 9793   4.791   4.810   0.612
 3277TIP3   OH2 9794   5.116   4.593   5.875
 3277TIP3    H1 9795   5.106   4.687   5.856
 3277TIP3    H2 9796   5.040   4.571   5.929
 3278TIP3   OH2 9797   6.975   1.892   0.716
 3278TIP3    H1 9798   7.022   1.924   0.793
 3278TIP3    H2 9799   6.926   1.816   0.748
 3279TIP3   OH2 9800   4.095   1.045   0.104
 3279TIP3    H1 9801   4.145   1.109   0.155
 3279TIP3    H2 9802   4.080   1.088   0.020
 3280TIP3   OH2 9803   1.515   0.754   5.842
 3280TIP3    H1 9804   1.465   0.689   5.892
 3280TIP3    H2 9805   1.524   0.716   5.755
 3281TIP3   OH2 9806   5.757   5.849   5.225
 3281TIP3    H1 9807   5.743   5.936   5.264
 3281TIP3    H2 9808   5.849   5.849   5.198
 3282TIP3   OH2 9809   6.551   3.145   1.869
 3282TIP3    H1 9810   6.457   3.156   1.880
 3282TIP3    H2 9811   6.572   3.194   1.790
 3283TIP3   OH2 9812   7.179   5.458   4.037
 3283TIP3    H1 9813   7.144   5.444   4.125
 3283TIP3    H2 9814   7.124   5.404   3.980
 3284TIP3   OH2 9815   2.216   4.957   3.437
 3284TIP3    H1 9816   2.195   4.871   3.401
 3284TIP3    H2 9817   2.211   5.017   3.363
 3285TIP3   OH2 9818   5.858   6.566   5.301
 3285TIP3    H1 9819   5.808   6.532   5.375
 3285TIP3    H2 9820   5.865   6.492   5.241
 3286TIP3   OH2 9821   1.086   3.244   0.527
 3286TIP3    H1 9822   1.163   3.297   0.551
 3286TIP3    H2 9823   1.122   3.172   0.475
 3287TIP3   OH2 9824   1.228   3.478   2.684
 3287TIP3    H1 9825   1.312   3.475   2.730
 3287TIP3    H2 9826   1.222   3.394   2.640
 3288TIP3   OH2 9827   1.149   3.868   3.420
 3288TIP3    H1 9828   1.154   3.890   3.513
 3288TIP3    H2 9829   1.172   3.949   3.375
 3289TIP3   OH2 9830   5.271   3.266   0.243
 3289TIP3    H1 9831   5.330   3.201   0.204
 3289TIP3    H2 9832   5.316   3.349   0.231
 3290TIP3   OH2 9833   1.493   2.916   4.194
 3290TIP3    H1 9834   1.490   2.931   4.099
 3290TIP3    H2 9835   1.402   2.922   4.222
 3291TIP3   OH2 9836   2.459   0.772   2.814
 3291TIP3    H1 9837   2.504   0.688   2.799
 3291TIP3    H2 9838   2.500   0.832   2.752
 3292TIP3   OH2 9839   3.079   3.865   1.091
 3292TIP3    H1 9840   3.080   3.895   1.000
 3292TIP3    H2 9841   3.136   3.927   1.138
 3293TIP3   OH2 9842   0.162   2.025   5.259
 3293TIP3    H1 9843   0.094   2.092   5.256
 3293TIP3    H2 9844   0.117   1.945   5.230
 3294TIP3   OH2 9845   2.767   3.691   1.834
 3294TIP3    H1 9846   2.832   3.626   1.858
 3294TIP3    H2 9847   2.716   3.705   1.914
 3295TIP3   OH2 9848   4.763   5.860   3.630
 3295TIP3    H1 9849   4.735   5.769   3.624
 3295TIP3    H2 9850   4.686   5.907   3.661
 3296TIP3   OH2 9851   0.055   4.457   1.595
 3296TIP3    H1 9852   0.148   4.471   1.581
 3296TIP3    H2 9853   0.012   4.522   1.539
 3297TIP3   OH2 9854   0.403   4.626   5.303
 3297TIP3    H1 9855   0.378   4.711   5.339
 3297TIP3    H2 9856   0.336   4.608   5.236
 3298TIP3   OH2 9857   6.987   6.202   0.478
 3298TIP3    H1 9858   6.991   6.148   0.399
 3298TIP3    H2 9859   6.896   6.231   0.483
 3299TIP3   OH2 9860   7.128   2.821   4.300
 3299TIP3    H1 9861   7.201   2.880   4.282
 3299TIP3    H2 9862   7.071   2.830   4.224
 3300TIP3   OH2 9863   2.765   1.263   3.368
 3300TIP3    H1 9864   2.699   1.254   3.299
 3300TIP3    H2 9865   2.816   1.340   3.343
 3301TIP3   OH2 9866   0.018   4.868   2.022
 3301TIP3    H1 9867  -0.019   4.780   2.013
 3301TIP3    H2 9868  -0.021   4.918   1.950
 3302TIP3   OH2 9869   4.927   3.161   4.236
 3302TIP3    H1 9870   4.866   3.189   4.304
 3302TIP3    H2 9871   4.890   3.078   4.204
 3303TIP3   OH2 9872   2.172   0.270   4.949
 3303TIP3    H1 9873   2.193   0.308   5.034
 3303TIP3    H2 9874   2.255   0.271   4.901
 3304TIP3   OH2 9875   6.500   1.763   2.564
 3304TIP3    H1 9876   6.505   1.737   2.472
 3304TIP3    H2 9877   6.407   1.783   2.578
 3305TIP3   OH2 9878   6.256   1.627   2.011
 3305TIP3    H1 9879   6.312   1.704   2.018
 3305TIP3    H2 9880   6.200   1.644   1.935
 3306TIP3   OH2 9881   6.923   5.922   3.921
 3306TIP3    H1 9882   6.988   5.964   3.865
 3306TIP3    H2 9883   6.972   5.901   4.001
 3307TIP3   OH2 9884   2.262   1.097   3.009
 3307TIP3    H1 9885   2.269   1.121   3.101
 3307TIP3    H2 9886   2.330   1.149   2.965
 3308TIP3   OH2 9887   3.939   4.345   5.211
 3308TIP3    H1 9888   3.881   4.372   5.283
 3308TIP3    H2 9889   4.027   4.350   5.247
 3309TIP3   OH2 9890   2.715   1.121   0.631
 3309TIP3    H1 9891   2.640   1.108   0.572
 3309TIP3    H2 9892   2.696   1.066   0.707
 3310TIP3   OH2 9893   0.525   5.351   3.368
 3310TIP3    H1 9894   0.583   5.329   3.295
 3310TIP3    H2 9895   0.437   5.348   3.331
 3311TIP3   OH2 9896   5.530   3.253   3.790
 3311TIP3    H1 9897   5.524   3.346   3.767
 3311TIP3    H2 9898   5.574   3.252   3.875
 3312TIP3   OH2 9899   4.537   2.254   0.027
 3312TIP3    H1 9900   4.549   2.340   0.068
 3312TIP3    H2 9901   4.451   2.258  -0.013
 3313TIP3   OH2 9902   6.453   5.749   4.709
 3313TIP3    H1 9903   6.405   5.827   4.683
 3313TIP3    H2 9904   6.511   5.731   4.634
 3314TIP3   OH2 9905   4.680   2.519   1.701
 3314TIP3    H1 9906   4.637   2.493   1.782
 3314TIP3    H2 9907   4.751   2.576   1.729
 3315TIP3   OH2 9908   4.572   4.111   4.852
 3315TIP3    H1 9909   4.587   4.016   4.848
 3315TIP3    H2 9910   4.657   4.149   4.830
 3316TIP3   OH2 9911   4.196   4.817   2.159
 3316TIP3    H1 9912   4.104   4.820   2.133
 3316TIP3    H2 9913   4.237   4.889   2.112
 3317TIP3   OH2 9914   0.712   4.971   5.842
 3317TIP3    H1 9915   0.685   5.030   5.771
 3317TIP3    H2 9916   0.645   4.903   5.844
 3318TIP3   OH2 9917   2.083   6.684   2.516
 3318TIP3    H1 9918   2.045   6.751   2.574
 3318TIP3    H2 9919   2.151   6.730   2.467
 3319TIP3   OH2 9920   2.219   4.556   2.108
 3319TIP3    H1 9921   2.144   4.580   2.053
 3319TIP3    H2 9922   2.241   4.636   2.156
 3320TIP3   OH2 9923   3.835   3.016   2.506
 3320TIP3    H1 9924   3.793   2.952   2.563
 3320TIP3    H2 9925   3.843   3.095   2.560
 3321TIP3   OH2 9926   3.874   4.179   4.147
 3321TIP3    H1 9927   3.779   4.166   4.150
 3321TIP3    H2 9928   3.906   4.109   4.091
 3322TIP3   OH2 9929   4.209   6.171   3.201
 3322TIP3    H1 9930   4.250   6.202   3.120
 3322TIP3    H2 9931   4.119   6.149   3.176
 3323TIP3   OH2 9932   7.129   1.995   3.640
 3323TIP3    H1 9933   7.140   1.901   3.646
 3323TIP3    H2 9934   7.035   2.008   3.626
 3324TIP3   OH2 9935   5.520   3.139   3.277
 3324TIP3    H1 9936   5.452   3.194   3.317
 3324TIP3    H2 9937   5.579   3.118   3.349
 3325TIP3   OH2 9938   0.103   6.524   5.314
 3325TIP3    H1 9939   0.015   6.486   5.309
 3325TIP3    H2 9940   0.116   6.540   5.408
 3326TIP3   OH2 9941   6.535   6.061   0.639
 3326TIP3    H1 9942   6.529   6.154   0.619
 3326TIP3    H2 9943   6.463   6.021   0.591
 3327TIP3   OH2 9944   2.856   1.440   3.141
 3327TIP3    H1 9945   2.911   1.364   3.120
 3327TIP3    H2 9946   2.849   1.487   3.058
 3328TIP3   OH2 9947   6.829   2.356   5.667
 3328TIP3    H1 9948   6.880   2.431   5.697
 3328TIP3    H2 9949   6.885   2.313   5.603
 3329TIP3   OH2 9950   5.075   1.935   0.319
 3329TIP3    H1 9951   5.032   2.013   0.284
 3329TIP3    H2 9952   5.169   1.956   0.317
 3330TIP3   OH2 9953   0.081   4.158   1.799
 3330TIP3    H1 9954   0.121   4.098   1.736
 3330TIP3    H2 9955   0.003   4.191   1.756
 3331TIP3   OH2 9956   6.897   3.593   3.890
 3331TIP3    H1 9957   6.877   3.500   3.895
 3331TIP3    H2 9958   6.891   3.624   3.981
 3332TIP3   OH2 9959   3.518   0.267   3.359
 3332TIP3    H1 9960   3.612   0.271   3.341
 3332TIP3    H2 9961   3.510   0.203   3.430
 3333TIP3   OH2 9962   6.666   4.635   2.840
 3333TIP3    H1 9963   6.661   4.540   2.831
 3333TIP3    H2 9964   6.599   4.668   2.781
 3334TIP3   OH2 9965   5.190   4.123   4.423
 3334TIP3    H1 9966   5.206   4.041   4.470
 3334TIP3    H2 9967   5.248   4.186   4.465
 3335TIP3   OH2 9968   5.044   6.349   2.852
 3335TIP3    H1 9969   5.007   6.260   2.853
 3335TIP3    H2 9970   5.012   6.388   2.933
 3336TIP3   OH2 9971   1.005   6.372   2.305
 3336TIP3    H1 9972   1.068   6.395   2.237
 3336TIP3    H2 9973   1.059   6.343   2.379
 3337TIP3   OH2 9974   0.006   1.121   0.702
 3337TIP3    H1 9975   0.033   1.206   0.737
 3337TIP3    H2 9976  -0.073   1.099   0.752
 3338TIP3   OH2 9977   4.695   2.042   2.519
 3338TIP3    H1 9978   4.672   1.956   2.554
 3338TIP3    H2 9979   4.644   2.104   2.572
 3339TIP3   OH2 9980   6.005   5.960   4.746
 3339TIP3    H1 9981   5.981   5.895   4.812
 3339TIP3    H2 9982   6.060   5.912   4.683
 3340TIP3   OH2 9983   0.671   5.603   4.799
 3340TIP3    H1 9984   0.678   5.681   4.855
 3340TIP3    H2 9985   0.644   5.637   4.714
 3341TIP3   OH2 9986   3.926   1.897   0.203
 3341TIP3    H1 9987   3.937   1.822   0.145
 3341TIP3    H2 9988   3.837   1.928   0.185
 3342TIP3   OH2 9989   5.734   4.617   2.209
 3342TIP3    H1 9990   5.706   4.526   2.204
 3342TIP3    H2 9991   5.782   4.623   2.292
 3343TIP3   OH2 9992   6.859   5.053   5.869
 3343TIP3    H1 9993   6.945   5.082   5.838
 3343TIP3    H2 9994   6.806   5.045   5.789
 3344TIP3   OH2 9995   4.377   4.609   4.389
 3344TIP3    H1 9996   4.459   4.655   4.371
 3344TIP3    H2 9997   4.309   4.675   4.374
 3345TIP3   OH2 9998   1.166   0.639   1.269
 3345TIP3    H1 9999   1.219   0.568   1.232
 3345TIP3    H210000   1.156   0.616   1.361
 3346TIP3   OH210001   7.219   5.168   1.665
 3346TIP3    H110002   7.171   5.214   1.733
 3346TIP3    H210003   7.304   5.212   1.661
 3347TIP3   OH210004   2.022   5.792   3.348
 3347TIP3    H110005   2.064   5.736   3.284
 3347TIP3    H210006   1.961   5.735   3.395
 3348TIP3   OH210007   6.691   3.344   4.195
 3348TIP3    H110008   6.620   3.402   4.221
 3348TIP3    H210009   6.647   3.276   4.143
 3349TIP3   OH210010   3.734   1.381   5.001
 3349TIP3    H110011   3.675   1.417   4.934
 3349TIP3    H210012   3.718   1.287   4.999
 3350TIP3   OH210013   3.248   0.344   5.207
 3350TIP3    H110014   3.318   0.300   5.256
 3350TIP3    H210015   3.238   0.292   5.128
 3351TIP3   OH210016   0.437   2.386   4.778
 3351TIP3    H110017   0.426   2.365   4.685
 3351TIP3    H210018   0.526   2.418   4.785
 3352TIP3   OH210019   4.510   1.312   3.352
 3352TIP3    H110020   4.542   1.263   3.428
 3352TIP3    H210021   4.579   1.301   3.286
 3353TIP3   OH210022   3.954   4.576   3.002
 3353TIP3    H110023   3.978   4.633   3.074
 3353TIP3    H210024   4.013   4.500   3.010
 3354TIP3   OH210025   6.263   1.392   5.580
 3354TIP3    H110026   6.319   1.316   5.567
 3354TIP3    H210027   6.254   1.400   5.675
 3355TIP3   OH210028   2.818   2.591   5.013
 3355TIP3    H110029   2.733   2.564   4.978
 3355TIP3    H210030   2.827   2.682   4.986
 3356TIP3   OH210031   5.138   1.056   0.065
 3356TIP3    H110032   5.209   1.022   0.010
 3356TIP3    H210033   5.126   0.990   0.133
 3357TIP3   OH210034   0.407   0.103   5.024
 3357TIP3    H110035   0.440   0.129   4.938
 3357TIP3    H210036   0.332   0.161   5.039
 3358TIP3   OH210037   4.095   3.316   0.607
 3358TIP3    H110038   4.028   3.252   0.581
 3358TIP3    H210039   4.178   3.277   0.577
 3359TIP3   OH210040   5.172   3.382   5.693
 3359TIP3    H110041   5.210   3.302   5.657
 3359TIP3    H210042   5.160   3.439   5.617
 3360TIP3   OH210043   0.518   2.702   0.127
 3360TIP3    H110044   0.583   2.711   0.057
 3360TIP3    H210045   0.503   2.608   0.133
 3361TIP3   OH210046   3.083   4.034   3.873
 3361TIP3    H110047   3.127   4.082   3.803
 3361TIP3    H210048   3.085   4.094   3.948
 3362TIP3   OH210049   7.125   3.375   0.884
 3362TIP3    H110050   7.173   3.309   0.934
 3362TIP3    H210051   7.079   3.426   0.951
 3363TIP3   OH210052   6.332   2.484   1.909
 3363TIP3    H110053   6.416   2.437   1.906
 3363TIP3    H210054   6.341   2.544   1.983
 3364TIP3   OH210055   7.084   1.187   5.713
 3364TIP3    H110056   7.151   1.210   5.650
 3364TIP3    H210057   7.053   1.101   5.685
 3365TIP3   OH210058   2.287   4.363   5.350
 3365TIP3    H110059   2.373   4.387   5.384
 3365TIP3    H210060   2.245   4.317   5.423
 3366TIP3   OH210061   4.091   4.317   0.140
 3366TIP3    H110062   4.118   4.256   0.071
 3366TIP3    H210063   4.153   4.389   0.134
 3367TIP3   OH210064   4.077   5.412   3.656
 3367TIP3    H110065   4.147   5.364   3.700
 3367TIP3    H210066   4.070   5.370   3.570
 3368TIP3   OH210067   2.839   3.978   3.747
 3368TIP3    H110068   2.929   3.995   3.771
 3368TIP3    H210069   2.831   4.014   3.658
 3369TIP3   OH210070   0.468   1.525   2.413
 3369TIP3    H110071   0.408   1.450   2.414
 3369TIP3    H210072   0.422   1.592   2.463
 3370TIP3   OH210073   4.332   2.001   5.705
 3370TIP3    H110074   4.273   1.967   5.772
 3370TIP3    H210075   4.309   2.094   5.698
 3371TIP3   OH210076   5.961   3.996   0.657
 3371TIP3    H110077   6.024   3.924   0.649
 3371TIP3    H210078   5.921   4.002   0.570
 3372TIP3   OH210079   3.166   0.365   0.411
 3372TIP3    H110080   3.141   0.407   0.494
 3372TIP3    H210081   3.083   0.343   0.369
 3373TIP3   OH210082   7.192   0.213   3.240
 3373TIP3    H110083   7.100   0.196   3.222
 3373TIP3    H210084   7.236   0.130   3.224
 3374TIP3   OH210085   4.636   0.762   0.436
 3374TIP3    H110086   4.698   0.713   0.381
 3374TIP3    H210087   4.692   0.809   0.498
 3375TIP3   OH210088   3.951   3.018   2.257
 3375TIP3    H110089   3.925   3.075   2.185
 3375TIP3    H210090   3.898   3.047   2.331
 3376TIP3   OH210091   0.042   2.491   2.524
 3376TIP3    H110092   0.130   2.522   2.544
 3376TIP3    H210093   0.048   2.456   2.435
 3377TIP3   OH210094   2.923   4.418   1.177
 3377TIP3    H110095   2.849   4.391   1.232
 3377TIP3    H210096   2.912   4.513   1.167
 3378TIP3   OH210097   5.572   5.622   1.380
 3378TIP3    H110098   5.543   5.611   1.471
 3378TIP3    H210099   5.568   5.717   1.365
 3379TIP3   OH210100   1.637   0.904  -0.014
 3379TIP3    H110101   1.546   0.931  -0.024
 3379TIP3    H210102   1.633   0.826   0.041
 3380TIP3   OH210103   2.412   0.646   3.385
 3380TIP3    H110104   2.390   0.577   3.323
 3380TIP3    H210105   2.363   0.723   3.355
 3381TIP3   OH210106   5.885   3.574   2.142
 3381TIP3    H110107   5.829   3.524   2.202
 3381TIP3    H210108   5.957   3.514   2.121
 3382TIP3   OH210109   0.732   1.153   2.383
 3382TIP3    H110110   0.811   1.110   2.351
 3382TIP3    H210111   0.664   1.127   2.321
 3383TIP3   OH210112   2.977   6.420   1.086
 3383TIP3    H110113   2.905   6.409   1.023
 3383TIP3    H210114   3.019   6.334   1.088
 3384TIP3   OH210115   6.017   5.637   3.083
 3384TIP3    H110116   5.960   5.577   3.132
 3384TIP3    H210117   6.077   5.579   3.035
 3385TIP3   OH210118   1.662   5.668   5.707
 3385TIP3    H110119   1.744   5.654   5.755
 3385TIP3    H210120   1.616   5.584   5.715
 3386TIP3   OH210121   6.006   1.980   0.973
 3386TIP3    H110122   6.089   1.989   1.019
 3386TIP3    H210123   5.996   2.062   0.924
 3387TIP3   OH210124   1.208   0.616   3.932
 3387TIP3    H110125   1.122   0.613   3.891
 3387TIP3    H210126   1.235   0.524   3.938
 3388TIP3   OH210127   6.188   1.721   4.906
 3388TIP3    H110128   6.208   1.799   4.853
 3388TIP3    H210129   6.142   1.755   4.982
 3389TIP3   OH210130   6.951   0.125   5.567
 3389TIP3    H110131   7.045   0.124   5.549
 3389TIP3    H210132   6.940   0.196   5.630
 3390TIP3   OH210133   5.213   3.332   4.585
 3390TIP3    H110134   5.221   3.340   4.680
 3390TIP3    H210135   5.190   3.420   4.555
 3391TIP3   OH210136   6.182   4.592   3.271
 3391TIP3    H110137   6.239   4.531   3.224
 3391TIP3    H210138   6.105   4.540   3.294
 3392TIP3   OH210139   2.720   4.384   5.673
 3392TIP3    H110140   2.743   4.430   5.593
 3392TIP3    H210141   2.677   4.304   5.644
 3393TIP3   OH210142   1.742   3.614   0.370
 3393TIP3    H110143   1.730   3.519   0.366
 3393TIP3    H210144   1.664   3.649   0.325
 3394TIP3   OH210145   7.133   2.575   0.985
 3394TIP3    H110146   7.119   2.537   1.071
 3394TIP3    H210147   7.157   2.666   1.003
 3395TIP3   OH210148   1.135   3.612   0.663
 3395TIP3    H110149   1.211   3.557   0.642
 3395TIP3    H210150   1.169   3.701   0.659
 3396TIP3   OH210151   0.029   4.177   3.409
 3396TIP3    H110152  -0.059   4.213   3.401
 3396TIP3    H210153   0.062   4.212   3.492
 3397TIP3   OH210154   0.329   0.923   1.273
 3397TIP3    H110155   0.321   0.982   1.198
 3397TIP3    H210156   0.389   0.855   1.243
 3398TIP3   OH210157   3.221   1.686   4.509
 3398TIP3    H110158   3.177   1.705   4.592
 3398TIP3    H210159   3.260   1.600   4.521
 3399TIP3   OH210160   4.092   2.280   3.464
 3399TIP3    H110161   4.115   2.359   3.513
 3399TIP3    H210162   4.176   2.240   3.441
 3400TIP3   OH210163   3.926   2.087   3.123
 3400TIP3    H110164   3.929   2.037   3.204
 3400TIP3    H210165   3.944   2.177   3.150
 3401TIP3   OH210166   4.690   4.834   5.230
 3401TIP3    H110167   4.664   4.913   5.277
 3401TIP3    H210168   4.641   4.837   5.148
 3402TIP3   OH210169   2.138   5.613   3.185
 3402TIP3    H110170   2.119   5.619   3.091
 3402TIP3    H210171   2.120   5.522   3.207
 3403TIP3   OH210172   3.177   5.970   5.602
 3403TIP3    H110173   3.172   5.986   5.696
 3403TIP3    H210174   3.172   6.056   5.562
 3404TIP3   OH210175   3.515   5.416   1.620
 3404TIP3    H110176   3.465   5.429   1.539
 3404TIP3    H210177   3.604   5.442   1.597
 3405TIP3   OH210178   2.981   4.833   3.835
 3405TIP3    H110179   2.925   4.876   3.771
 3405TIP3    H210180   3.068   4.832   3.795
 3406TIP3   OH210181   5.816   0.043   5.161
 3406TIP3    H110182   5.828  -0.032   5.219
 3406TIP3    H210183   5.752   0.013   5.096
 3407TIP3   OH210184   0.721   4.998   3.504
 3407TIP3    H110185   0.811   5.012   3.533
 3407TIP3    H210186   0.711   4.903   3.502
 3408TIP3   OH210187   4.423   4.216   2.359
 3408TIP3    H110188   4.346   4.272   2.374
 3408TIP3    H210189   4.406   4.175   2.275
 3409TIP3   OH210190   4.428   0.543   5.595
 3409TIP3    H110191   4.420   0.597   5.516
 3409TIP3    H210192   4.450   0.604   5.665
 3410TIP3   OH210193   4.975   3.560   3.912
 3410TIP3    H110194   4.988   3.468   3.937
 3410TIP3    H210195   4.898   3.588   3.961
 3411TIP3   OH210196   1.632   6.235   1.856
 3411TIP3    H110197   1.686   6.190   1.791
 3411TIP3    H210198   1.544   6.202   1.841
 3412TIP3   OH210199   4.591   1.463   2.262
 3412TIP3    H110200   4.549   1.431   2.342
 3412TIP3    H210201   4.533   1.433   2.192
 3413TIP3   OH210202   0.198   2.037   1.120
 3413TIP3    H110203   0.273   1.993   1.082
 3413TIP3    H210204   0.123   1.982   1.098
 3414TIP3   OH210205   6.777   4.256   1.450
 3414TIP3    H110206   6.723   4.291   1.379
 3414TIP3    H210207   6.865   4.250   1.412
 3415TIP3   OH210208   6.318   0.353   5.417
 3415TIP3    H110209   6.223   0.358   5.406
 3415TIP3    H210210   6.331   0.294   5.491
 3416TIP3   OH210211   6.097   1.205   5.836
 3416TIP3    H110212   6.016   1.184   5.884
 3416TIP3    H210213   6.069   1.265   5.767
 3417TIP3   OH210214   5.321   6.079   0.881
 3417TIP3    H110215   5.382   6.023   0.929
 3417TIP3    H210216   5.346   6.168   0.906
 3418TIP3   OH210217   2.438   4.324   1.378
 3418TIP3    H110218   2.414   4.395   1.318
 3418TIP3    H210219   2.521   4.353   1.416
 3419TIP3   OH210220   6.536   2.443   2.239
 3419TIP3    H110221   6.448   2.477   2.255
 3419TIP3    H210222   6.522   2.350   2.220
 3420TIP3   OH210223   0.885   6.725   1.729
 3420TIP3    H110224   0.935   6.666   1.672
 3420TIP3    H210225   0.904   6.812   1.695
 3421TIP3   OH210226   0.088   0.196   4.082
 3421TIP3    H110227   0.094   0.111   4.038
 3421TIP3    H210228  -0.005   0.219   4.075
 3422TIP3   OH210229   6.078   3.881   4.200
 3422TIP3    H110230   6.167   3.909   4.218
 3422TIP3    H210231   6.081   3.846   4.111
 3423TIP3   OH210232   0.194   6.626   2.709
 3423TIP3    H110233   0.177   6.658   2.798
 3423TIP3    H210234   0.283   6.656   2.690
 3424TIP3   OH210235   6.520   4.788   2.663
 3424TIP3    H110236   6.541   4.805   2.571
 3424TIP3    H210237   6.552   4.866   2.710
 3425TIP3   OH210238   1.460   1.471   3.826
 3425TIP3    H110239   1.420   1.553   3.856
 3425TIP3    H210240   1.510   1.496   3.748
 3426TIP3   OH210241   4.176   1.217   4.543
 3426TIP3    H110242   4.110   1.277   4.508
 3426TIP3    H210243   4.260   1.255   4.518
 3427TIP3   OH210244   4.073   5.874   1.523
 3427TIP3    H110245   3.985   5.883   1.486
 3427TIP3    H210246   4.100   5.786   1.498
 3428TIP3   OH210247   4.725   4.925   3.423
 3428TIP3    H110248   4.783   4.997   3.399
 3428TIP3    H210249   4.783   4.849   3.431
 3429TIP3   OH210250   2.289   1.467   5.650
 3429TIP3    H110251   2.260   1.556   5.670
 3429TIP3    H210252   2.227   1.411   5.696
 3430TIP3   OH210253   2.808   5.718   0.791
 3430TIP3    H110254   2.833   5.683   0.876
 3430TIP3    H210255   2.775   5.806   0.811
 3431TIP3   OH210256   1.358   0.271   5.845
 3431TIP3    H110257   1.357   0.289   5.750
 3431TIP3    H210258   1.427   0.206   5.856
 3432TIP3   OH210259   4.160   2.763   4.793
 3432TIP3    H110260   4.126   2.813   4.719
 3432TIP3    H210261   4.134   2.673   4.775
 3433TIP3   OH210262   2.671   6.338   0.944
 3433TIP3    H110263   2.707   6.260   0.902
 3433TIP3    H210264   2.707   6.411   0.894
 3434TIP3   OH210265   5.494   1.566   4.030
 3434TIP3    H110266   5.402   1.560   4.002
 3434TIP3    H210267   5.497   1.518   4.112
 3435TIP3   OH210268   1.152   5.477   0.046
 3435TIP3    H110269   1.144   5.384   0.023
 3435TIP3    H210270   1.077   5.493   0.104
 3436TIP3   OH210271   5.693   4.797   1.960
 3436TIP3    H110272   5.666   4.754   1.879
 3436TIP3    H210273   5.676   4.732   2.028
 3437TIP3   OH210274   3.857   5.813   4.448
 3437TIP3    H110275   3.917   5.747   4.485
 3437TIP3    H210276   3.771   5.789   4.482
 3438TIP3   OH210277   6.703   0.213   2.394
 3438TIP3    H110278   6.689   0.200   2.300
 3438TIP3    H210279   6.640   0.280   2.419
 3439TIP3   OH210280   1.461   1.038   3.124
 3439TIP3    H110281   1.539   1.092   3.114
 3439TIP3    H210282   1.413   1.050   3.042
 3440TIP3   OH210283   3.327   1.401   4.028
 3440TIP3    H110284   3.360   1.389   4.117
 3440TIP3    H210285   3.256   1.337   4.020
 3441TIP3   OH210286   0.329   5.072   0.134
 3441TIP3    H110287   0.243   5.064   0.176
 3441TIP3    H210288   0.310   5.100   0.045
 3442TIP3   OH210289   4.640   5.383   1.993
 3442TIP3    H110290   4.653   5.477   1.997
 3442TIP3    H210291   4.707   5.347   2.052
 3443TIP3   OH210292   4.119   2.897   4.568
 3443TIP3    H110293   4.042   2.901   4.511
 3443TIP3    H210294   4.185   2.852   4.516
 3444TIP3   OH210295   2.041   1.210   3.315
 3444TIP3    H110296   1.947   1.218   3.305
 3444TIP3    H210297   2.078   1.280   3.260
 3445TIP3   OH210298   2.391   5.041   1.899
 3445TIP3    H110299   2.341   5.098   1.958
 3445TIP3    H210300   2.413   5.096   1.824
 3446TIP3   OH210301   4.438   4.382   2.114
 3446TIP3    H110302   4.468   4.391   2.024
 3446TIP3    H210303   4.468   4.295   2.141
 3447TIP3   OH210304   0.570   6.458   0.848
 3447TIP3    H110305   0.642   6.459   0.786
 3447TIP3    H210306   0.535   6.369   0.844
 3448TIP3   OH210307   3.365   6.720   4.332
 3448TIP3    H110308   3.443   6.666   4.321
 3448TIP3    H210309   3.345   6.751   4.243
 3449TIP3   OH210310   6.409   4.053   1.882
 3449TIP3    H110311   6.385   4.146   1.881
 3449TIP3    H210312   6.381   4.022   1.968
 3450TIP3   OH210313   5.054   3.187   0.599
 3450TIP3    H110314   5.116   3.256   0.574
 3450TIP3    H210315   5.001   3.226   0.668
 3451TIP3   OH210316   3.422   6.347   1.161
 3451TIP3    H110317   3.371   6.321   1.085
 3451TIP3    H210318   3.403   6.280   1.227
 3452TIP3   OH210319   5.863   1.436   0.958
 3452TIP3    H110320   5.886   1.527   0.975
 3452TIP3    H210321   5.775   1.426   0.995
 3453TIP3   OH210322   6.907   1.800   0.314
 3453TIP3    H110323   6.830   1.827   0.365
 3453TIP3    H210324   6.873   1.787   0.225
 3454TIP3   OH210325   6.663   1.324   3.183
 3454TIP3    H110326   6.655   1.229   3.180
 3454TIP3    H210327   6.704   1.347   3.099
 3455TIP3   OH210328   5.564   3.856   2.632
 3455TIP3    H110329   5.560   3.945   2.666
 3455TIP3    H210330   5.544   3.866   2.538
 3456TIP3   OH210331   6.355   3.917   3.670
 3456TIP3    H110332   6.317   3.876   3.592
 3456TIP3    H210333   6.363   3.845   3.733
 3457TIP3   OH210334   2.908   5.312   3.498
 3457TIP3    H110335   2.909   5.399   3.458
 3457TIP3    H210336   2.979   5.315   3.563
 3458TIP3   OH210337   5.671   3.020   2.036
 3458TIP3    H110338   5.599   2.963   2.009
 3458TIP3    H210339   5.750   2.969   2.018
 3459TIP3   OH210340   4.104   5.572   4.978
 3459TIP3    H110341   4.035   5.509   4.958
 3459TIP3    H210342   4.102   5.633   4.904
 3460TIP3   OH210343   6.178   4.906   1.924
 3460TIP3    H110344   6.238   4.963   1.877
 3460TIP3    H210345   6.100   4.903   1.868
 3461TIP3   OH210346   5.136   5.035   1.514
 3461TIP3    H110347   5.157   5.002   1.427
 3461TIP3    H210348   5.192   5.112   1.525
 3462TIP3   OH210349   5.002   4.814   4.347
 3462TIP3    H110350   4.990   4.776   4.434
 3462TIP3    H210351   5.095   4.801   4.329
 3463TIP3   OH210352   2.738  -0.010   5.385
 3463TIP3    H110353   2.718  -0.046   5.472
 3463TIP3    H210354   2.825   0.028   5.395
 3464TIP3   OH210355   5.414   2.564   3.376
 3464TIP3    H110356   5.445   2.533   3.291
 3464TIP3    H210357   5.477   2.528   3.439
 3465TIP3   OH210358   1.186   3.326   3.509
 3465TIP3    H110359   1.263   3.368   3.472
 3465TIP3    H210360   1.129   3.309   3.434
 3466TIP3   OH210361   5.506   3.890   0.297
 3466TIP3    H110362   5.421   3.851   0.278
 3466TIP3    H210363   5.493   3.937   0.379
 3467TIP3   OH210364   6.385   1.773   3.761
 3467TIP3    H110365   6.290   1.775   3.772
 3467TIP3    H210366   6.419   1.762   3.850
 3468TIP3   OH210367   0.289   0.243   2.806
 3468TIP3    H110368   0.243   0.160   2.800
 3468TIP3    H210369   0.250   0.296   2.736
 3469TIP3   OH210370   5.705   1.518   1.297
 3469TIP3    H110371   5.664   1.450   1.243
 3469TIP3    H210372   5.760   1.470   1.358
 3470TIP3   OH210373   0.149   5.893   4.830
 3470TIP3    H110374   0.152   5.969   4.888
 3470TIP3    H210375   0.241   5.866   4.821
 3471TIP3   OH210376   1.271   0.857   5.526
 3471TIP3    H110377   1.209   0.808   5.579
 3471TIP3    H210378   1.298   0.795   5.458
 3472TIP3   OH210379   5.657   2.835   5.167
 3472TIP3    H110380   5.642   2.899   5.097
 3472TIP3    H210381   5.569   2.804   5.189
 3473TIP3   OH210382   0.833   1.826   5.276
 3473TIP3    H110383   0.783   1.890   5.224
 3473TIP3    H210384   0.816   1.742   5.233
 3474TIP3   OH210385   0.269   0.521   0.128
 3474TIP3    H110386   0.294   0.595   0.184
 3474TIP3    H210387   0.350   0.470   0.120
 3475TIP3   OH210388   6.478   2.082   0.162
 3475TIP3    H110389   6.474   2.084   0.257
 3475TIP3    H210390   6.440   1.997   0.138
 3476TIP3   OH210391   2.939   3.397   2.881
 3476TIP3    H110392   2.980   3.484   2.887
 3476TIP3    H210393   3.008   3.341   2.844
 3477TIP3   OH210394   7.014   0.651   0.410
 3477TIP3    H110395   7.072   0.684   0.479
 3477TIP3    H210396   6.932   0.631   0.455
 3478TIP3   OH210397   2.569   2.067   2.358
 3478TIP3    H110398   2.531   2.154   2.344
 3478TIP3    H210399   2.609   2.071   2.444
 3479TIP3   OH210400   2.219   6.029   1.059
 3479TIP3    H110401   2.216   5.934   1.061
 3479TIP3    H210402   2.234   6.055   1.150
 3480TIP3   OH210403   3.466   2.886   3.899
 3480TIP3    H110404   3.556   2.902   3.927
 3480TIP3    H210405   3.413   2.922   3.970
 3481TIP3   OH210406   0.111   6.059   2.000
 3481TIP3    H110407   0.068   5.974   2.004
 3481TIP3    H210408   0.106   6.094   2.089
 3482TIP3   OH210409   4.782   4.976   3.795
 3482TIP3    H110410   4.806   5.055   3.844
 3482TIP3    H210411   4.797   4.904   3.857
 3483TIP3   OH210412   0.729   3.333   1.405
 3483TIP3    H110413   0.793   3.281   1.455
 3483TIP3    H210414   0.655   3.342   1.464
 3484TIP3   OH210415   4.483   4.361   3.449
 3484TIP3    H110416   4.488   4.315   3.365
 3484TIP3    H210417   4.476   4.453   3.426
 3485TIP3   OH210418   6.491   3.585   5.168
 3485TIP3    H110419   6.556   3.654   5.178
 3485TIP3    H210420   6.505   3.551   5.080
 3486TIP3   OH210421   6.845   2.913   2.016
 3486TIP3    H110422   6.914   2.962   1.969
 3486TIP3    H210423   6.777   2.900   1.951
 3487TIP3   OH210424   1.416   0.251   0.026
 3487TIP3    H110425   1.419   0.251  -0.070
 3487TIP3    H210426   1.333   0.208   0.047
 3488TIP3   OH210427   0.339   3.733   3.071
 3488TIP3    H110428   0.372   3.645   3.054
 3488TIP3    H210429   0.372   3.786   2.999
 3489TIP3   OH210430   4.050   2.632   0.442
 3489TIP3    H110431   3.999   2.698   0.488
 3489TIP3    H210432   4.140   2.646   0.473
 3490TIP3   OH210433   5.961   4.772   4.854
 3490TIP3    H110434   5.951   4.681   4.881
 3490TIP3    H210435   6.054   4.780   4.831
 3491TIP3   OH210436   5.482   5.608   1.656
 3491TIP3    H110437   5.390   5.627   1.674
 3491TIP3    H210438   5.527   5.625   1.738
 3492TIP3   OH210439   6.263   0.780   1.411
 3492TIP3    H110440   6.272   0.860   1.463
 3492TIP3    H210441   6.323   0.794   1.337
 3493TIP3   OH210442   6.360   0.134   3.729
 3493TIP3    H110443   6.453   0.151   3.742
 3493TIP3    H210444   6.316   0.206   3.775
 3494TIP3   OH210445   1.824   5.338   1.123
 3494TIP3    H110446   1.782   5.325   1.038
 3494TIP3    H210447   1.838   5.433   1.128
 3495TIP3   OH210448   3.677   2.881   2.906
 3495TIP3    H110449   3.646   2.967   2.880
 3495TIP3    H210450   3.674   2.881   3.001
 3496TIP3   OH210451   4.736   1.213   2.525
 3496TIP3    H110452   4.646   1.242   2.510
 3496TIP3    H210453   4.777   1.286   2.571
 3497TIP3   OH210454   0.437   1.264   1.200
 3497TIP3    H110455   0.349   1.245   1.168
 3497TIP3    H210456   0.490   1.190   1.171
 3498TIP3   OH210457   2.758   0.080   4.157
 3498TIP3    H110458   2.733   0.146   4.221
 3498TIP3    H210459   2.714   0.107   4.076
 3499TIP3   OH210460   5.801   5.069   0.150
 3499TIP3    H110461   5.877   5.073   0.208
 3499TIP3    H210462   5.833   5.023   0.072
 3500TIP3   OH210463   4.545   5.163   3.924
 3500TIP3    H110464   4.580   5.157   4.012
 3500TIP3    H210465   4.565   5.078   3.884
 3501TIP3   OH210466   3.541   3.120   2.948
 3501TIP3    H110467   3.510   3.099   2.860
 3501TIP3    H210468   3.592   3.201   2.936
 3502TIP3   OH210469   1.202   0.099   2.248
 3502TIP3    H110470   1.269   0.167   2.254
 3502TIP3    H210471   1.181   0.095   2.154
 3503TIP3   OH210472   4.597   4.269   4.167
 3503TIP3    H110473   4.672   4.210   4.164
 3503TIP3    H210474   4.636   4.357   4.168
 3504TIP3   OH210475   3.086   2.541   0.924
 3504TIP3    H110476   3.016   2.476   0.924
 3504TIP3    H210477   3.128   2.531   0.838
 3505TIP3   OH210478   1.090   6.178   5.441
 3505TIP3    H110479   1.041   6.128   5.375
 3505TIP3    H210480   1.058   6.145   5.525
 3506TIP3   OH210481   7.235   5.478   0.631
 3506TIP3    H110482   7.159   5.470   0.689
 3506TIP3    H210483   7.231   5.567   0.598
 3507TIP3   OH210484   0.781   3.807   0.432
 3507TIP3    H110485   0.857   3.847   0.391
 3507TIP3    H210486   0.751   3.872   0.495
 3508TIP3   OH210487   0.336   1.524   5.423
 3508TIP3    H110488   0.360   1.457   5.359
 3508TIP3    H210489   0.378   1.604   5.391
 3509TIP3   OH210490   0.434   1.517   4.258
 3509TIP3    H110491   0.512   1.526   4.203
 3509TIP3    H210492   0.416   1.606   4.289
 3510TIP3   OH210493   3.683   4.733   4.513
 3510TIP3    H110494   3.644   4.816   4.485
 3510TIP3    H210495   3.773   4.755   4.534
 3511TIP3   OH210496   6.951   5.417   0.773
 3511TIP3    H110497   6.870   5.374   0.802
 3511TIP3    H210498   6.993   5.446   0.854
 3512TIP3   OH210499   0.137   5.540   2.364
 3512TIP3    H110500   0.104   5.622   2.328
 3512TIP3    H210501   0.158   5.561   2.455
 3513TIP3   OH210502   5.894   6.722   4.699
 3513TIP3    H110503   5.966   6.670   4.662
 3513TIP3    H210504   5.935   6.775   4.767
 3514TIP3   OH210505   1.648   3.269   4.634
 3514TIP3    H110506   1.672   3.215   4.559
 3514TIP3    H210507   1.568   3.228   4.668
 3515TIP3   OH210508   3.027   6.606   3.856
 3515TIP3    H110509   3.024   6.583   3.763
 3515TIP3    H210510   3.076   6.689   3.858
 3516TIP3   OH210511   1.236   6.757   0.254
 3516TIP3    H110512   1.278   6.685   0.207
 3516TIP3    H210513   1.145   6.729   0.264
 3517TIP3   OH210514   0.114   2.333   1.113
 3517TIP3    H110515   0.081   2.351   1.025
 3517TIP3    H210516   0.080   2.404   1.167
 3518TIP3   OH210517   4.417   6.347   5.438
 3518TIP3    H110518   4.391   6.320   5.526
 3518TIP3    H210519   4.493   6.293   5.418
 3519TIP3   OH210520   2.186   5.145   5.090
 3519TIP3    H110521   2.093   5.145   5.067
 3519TIP3    H210522   2.197   5.221   5.146
 3520TIP3   OH210523   3.031   6.069   3.419
 3520TIP3    H110524   3.096   6.121   3.466
 3520TIP3    H210525   3.017   5.992   3.474
 3521TIP3   OH210526   5.778   0.369   0.256
 3521TIP3    H110527   5.786   0.350   0.162
 3521TIP3    H210528   5.757   0.285   0.296
 3522TIP3   OH210529   2.413   4.880   3.759
 3522TIP3    H110530   2.396   4.827   3.681
 3522TIP3    H210531   2.367   4.962   3.744
 3523TIP3   OH210532   6.357   3.145   1.262
 3523TIP3    H110533   6.429   3.112   1.209
 3523TIP3    H210534   6.295   3.182   1.199
 3524TIP3   OH210535   6.690   2.677   2.274
 3524TIP3    H110536   6.696   2.708   2.364
 3524TIP3    H210537   6.627   2.605   2.278
 3525TIP3   OH210538   6.874   3.543   5.469
 3525TIP3    H110539   6.965   3.573   5.475
 3525TIP3    H210540   6.879   3.448   5.486
 3526TIP3   OH210541   5.956   2.963   3.985
 3526TIP3    H110542   5.926   3.020   4.056
 3526TIP3    H210543   5.880   2.907   3.966
 3527TIP3   OH210544   1.370   0.845   3.860
 3527TIP3    H110545   1.327   0.765   3.891
 3527TIP3    H210546   1.354   0.845   3.766
 3528TIP3   OH210547   1.293   1.892   3.641
 3528TIP3    H110548   1.258   1.812   3.602
 3528TIP3    H210549   1.217   1.938   3.675
 3529TIP3   OH210550   3.384   1.160   2.300
 3529TIP3    H110551   3.455   1.208   2.341
 3529TIP3    H210552   3.310   1.221   2.300
 3530TIP3   OH210553   0.902   2.972   0.394
 3530TIP3    H110554   0.931   3.036   0.329
 3530TIP3    H210555   0.807   2.970   0.386
 3531TIP3   OH210556   4.050   4.769   2.807
 3531TIP3    H110557   4.064   4.688   2.856
 3531TIP3    H210558   3.984   4.816   2.857
 3532TIP3   OH210559   2.363   6.657   4.990
 3532TIP3    H110560   2.395   6.706   5.066
 3532TIP3    H210561   2.342   6.724   4.925
 3533TIP3   OH210562   5.160   5.751   5.686
 3533TIP3    H110563   5.087   5.764   5.747
 3533TIP3    H210564   5.184   5.659   5.695
 3534TIP3   OH210565   1.522   0.382   0.409
 3534TIP3    H110566   1.435   0.343   0.412
 3534TIP3    H210567   1.565   0.341   0.334
 3535TIP3   OH210568   3.463   0.170   1.944
 3535TIP3    H110569   3.424   0.097   1.895
 3535TIP3    H210570   3.414   0.174   2.025
 3536TIP3   OH210571   7.171   0.347   0.755
 3536TIP3    H110572   7.139   0.375   0.841
 3536TIP3    H210573   7.203   0.427   0.715
 3537TIP3   OH210574   3.262   4.770   3.731
 3537TIP3    H110575   3.312   4.690   3.748
 3537TIP3    H210576   3.272   4.784   3.636
 3538TIP3   OH210577   5.157   4.725   3.475
 3538TIP3    H110578   5.116   4.794   3.527
 3538TIP3    H210579   5.145   4.645   3.526
 3539TIP3   OH210580   1.946   4.620   0.515
 3539TIP3    H110581   1.943   4.569   0.596
 3539TIP3    H210582   1.960   4.710   0.544
 3540TIP3   OH210583   3.253   0.538   5.645
 3540TIP3    H110584   3.313   0.564   5.576
 3540TIP3    H210585   3.304   0.541   5.725
 3541TIP3   OH210586   2.216   2.510   1.101
 3541TIP3    H110587   2.243   2.475   1.186
 3541TIP3    H210588   2.298   2.535   1.059
 3542TIP3   OH210589   6.563   2.224   4.753
 3542TIP3    H110590   6.526   2.275   4.681
 3542TIP3    H210591   6.625   2.164   4.711
 3543TIP3   OH210592   2.610   0.877   5.270
 3543TIP3    H110593   2.572   0.816   5.333
 3543TIP3    H210594   2.625   0.957   5.321
 3544TIP3   OH210595   4.540   2.504   3.884
 3544TIP3    H110596   4.605   2.470   3.946
 3544TIP3    H210597   4.591   2.528   3.807
 3545TIP3   OH210598   2.820   4.136   4.441
 3545TIP3    H110599   2.780   4.054   4.412
 3545TIP3    H210600   2.833   4.125   4.535
 3546TIP3   OH210601   0.340   5.909   5.882
 3546TIP3    H110602   0.376   5.852   5.814
 3546TIP3    H210603   0.405   5.978   5.892
 3547TIP3   OH210604   5.253   4.412   0.520
 3547TIP3    H110605   5.262   4.317   0.514
 3547TIP3    H210606   5.340   4.444   0.541
 3548TIP3   OH210607   1.562   0.884   3.523
 3548TIP3    H110608   1.509   0.850   3.451
 3548TIP3    H210609   1.504   0.943   3.571
 3549TIP3   OH210610   4.952   1.879   4.189
 3549TIP3    H110611   4.974   1.959   4.141
 3549TIP3    H210612   4.977   1.898   4.280
 3550TIP3   OH210613   6.335   1.343   1.610
 3550TIP3    H110614   6.260   1.340   1.670
 3550TIP3    H210615   6.400   1.395   1.657
 3551TIP3   OH210616   4.528   0.516   4.879
 3551TIP3    H110617   4.440   0.542   4.907
 3551TIP3    H210618   4.540   0.562   4.796
 3552TIP3   OH210619   2.891   1.186   4.716
 3552TIP3    H110620   2.985   1.181   4.730
 3552TIP3    H210621   2.863   1.095   4.706
 3553TIP3   OH210622   4.938   5.872   0.080
 3553TIP3    H110623   4.938   5.862   0.175
 3553TIP3    H210624   5.031   5.874   0.056
 3554TIP3   OH210625   6.772   1.988   5.665
 3554TIP3    H110626   6.755   1.994   5.759
 3554TIP3    H210627   6.697   1.941   5.629
 3555TIP3   OH210628   0.717   2.060   4.704
 3555TIP3    H110629   0.622   2.053   4.716
 3555TIP3    H210630   0.727   2.126   4.635
 3556TIP3   OH210631   3.223   1.844   3.382
 3556TIP3    H110632   3.207   1.758   3.421
 3556TIP3    H210633   3.294   1.881   3.434
 3557TIP3   OH210634   3.208   1.582   3.519
 3557TIP3    H110635   3.213   1.533   3.601
 3557TIP3    H210636   3.152   1.657   3.540
 3558TIP3   OH210637   7.204   4.400   0.040
 3558TIP3    H110638   7.114   4.396   0.072
 3558TIP3    H210639   7.230   4.309   0.028
 3559TIP3   OH210640   3.058   3.230   1.639
 3559TIP3    H110641   3.094   3.163   1.698
 3559TIP3    H210642   3.056   3.188   1.553
 3560TIP3   OH210643   6.172   2.771   5.842
 3560TIP3    H110644   6.219   2.694   5.874
 3560TIP3    H210645   6.170   2.759   5.747
 3561TIP3   OH210646   3.420   3.982   3.915
 3561TIP3    H110647   3.397   4.012   3.827
 3561TIP3    H210648   3.414   4.060   3.969
 3562TIP3   OH210649   5.114   1.134   3.580
 3562TIP3    H110650   5.152   1.161   3.497
 3562TIP3    H210651   5.173   1.066   3.613
 3563TIP3   OH210652   6.743   3.363   1.982
 3563TIP3    H110653   6.707   3.367   1.893
 3563TIP3    H210654   6.672   3.394   2.038
 3564TIP3   OH210655   2.876   1.663   1.225
 3564TIP3    H110656   2.964   1.638   1.197
 3564TIP3    H210657   2.830   1.580   1.234
 3565TIP3   OH210658   5.336   4.319   4.535
 3565TIP3    H110659   5.323   4.400   4.585
 3565TIP3    H210660   5.431   4.310   4.530
 3566TIP3   OH210661   0.404   6.471   0.391
 3566TIP3    H110662   0.446   6.388   0.416
 3566TIP3    H210663   0.357   6.450   0.310
 3567TIP3   OH210664   2.404   4.624   3.198
 3567TIP3    H110665   2.441   4.553   3.146
 3567TIP3    H210666   2.457   4.626   3.278
 3568TIP3   OH210667   4.214   5.921   4.833
 3568TIP3    H110668   4.222   5.971   4.915
 3568TIP3    H210669   4.201   5.987   4.766
 3569TIP3   OH210670   3.366   4.593   2.762
 3569TIP3    H110671   3.294   4.632   2.713
 3569TIP3    H210672   3.349   4.616   2.853
 3570TIP3   OH210673   5.603   2.139   4.260
 3570TIP3    H110674   5.547   2.217   4.256
 3570TIP3    H210675   5.644   2.135   4.173
 3571TIP3   OH210676   4.123   0.246   3.617
 3571TIP3    H110677   4.207   0.262   3.659
 3571TIP3    H210678   4.107   0.152   3.630
 3572TIP3   OH210679   6.426   0.030   2.336
 3572TIP3    H110680   6.515   0.026   2.300
 3572TIP3    H210681   6.419   0.119   2.372
 3573TIP3   OH210682   6.349   3.421   3.122
 3573TIP3    H110683   6.282   3.355   3.138
 3573TIP3    H210684   6.316   3.472   3.049
 3574TIP3   OH210685   4.304   4.919   5.437
 3574TIP3    H110686   4.298   5.014   5.444
 3574TIP3    H210687   4.253   4.897   5.359
 3575TIP3   OH210688   6.175   3.999   2.930
 3575TIP3    H110689   6.084   3.971   2.921
 3575TIP3    H210690   6.227   3.925   2.899
 3576TIP3   OH210691   4.869   1.567   1.912
 3576TIP3    H110692   4.887   1.481   1.951
 3576TIP3    H210693   4.832   1.618   1.984
 3577TIP3   OH210694   3.036   3.798   2.062
 3577TIP3    H110695   3.059   3.875   2.114
 3577TIP3    H210696   3.051   3.824   1.971
 3578TIP3   OH210697   1.575   6.386   2.217
 3578TIP3    H110698   1.510   6.316   2.216
 3578TIP3    H210699   1.657   6.343   2.193
 3579TIP3   OH210700   3.931   0.472   5.714
 3579TIP3    H110701   3.908   0.500   5.625
 3579TIP3    H210702   3.989   0.397   5.701
 3580TIP3   OH210703   1.310   2.464   2.027
 3580TIP3    H110704   1.239   2.465   1.962
 3580TIP3    H210705   1.374   2.403   1.991
 3581TIP3   OH210706   5.804   3.514   3.648
 3581TIP3    H110707   5.812   3.609   3.655
 3581TIP3    H210708   5.717   3.494   3.683
 3582TIP3   OH210709   0.085   1.541   1.374
 3582TIP3    H110710   0.147   1.482   1.331
 3582TIP3    H210711   0.008   1.539   1.318
 3583TIP3   OH210712   0.106   6.514   1.663
 3583TIP3    H110713   0.191   6.533   1.704
 3583TIP3    H210714   0.091   6.422   1.682
 3584TIP3   OH210715   4.689   0.426   0.165
 3584TIP3    H110716   4.747   0.490   0.208
 3584TIP3    H210717   4.614   0.478   0.136
 3585TIP3   OH210718   6.333   5.035  -0.020
 3585TIP3    H110719   6.352   4.949   0.018
 3585TIP3    H210720   6.309   5.090   0.055
 3586TIP3   OH210721   0.055   2.214   1.798
 3586TIP3    H110722   0.114   2.143   1.773
 3586TIP3    H210723   0.054   2.273   1.722
 3587TIP3   OH210724   2.377   1.018   4.675
 3587TIP3    H110725   2.429   0.943   4.647
 3587TIP3    H210726   2.386   1.082   4.604
 3588TIP3   OH210727   4.055   0.392   2.535
 3588TIP3    H110728   4.124   0.360   2.476
 3588TIP3    H210729   3.978   0.340   2.513
 3589TIP3   OH210730   1.804   1.790   0.355
 3589TIP3    H110731   1.815   1.727   0.425
 3589TIP3    H210732   1.792   1.737   0.276
 3590TIP3   OH210733   5.545   2.368   0.315
 3590TIP3    H110734   5.551   2.288   0.263
 3590TIP3    H210735   5.465   2.358   0.366
 3591TIP3   OH210736   6.170   4.417   0.936
 3591TIP3    H110737   6.261   4.394   0.951
 3591TIP3    H210738   6.137   4.350   0.877
 3592TIP3   OH210739   5.499   3.560   5.042
 3592TIP3    H110740   5.576   3.607   5.075
 3592TIP3    H210741   5.490   3.485   5.100
 3593TIP3   OH210742   6.472   1.843   0.685
 3593TIP3    H110743   6.562   1.838   0.654
 3593TIP3    H210744   6.479   1.834   0.780
 3594TIP3   OH210745   0.740   5.781   1.996
 3594TIP3    H110746   0.696   5.716   2.050
 3594TIP3    H210747   0.825   5.794   2.039
 3595TIP3   OH210748   2.608   5.218   1.005
 3595TIP3    H110749   2.642   5.138   0.963
 3595TIP3    H210750   2.675   5.284   0.988
 3596TIP3   OH210751   1.776   6.778   3.673
 3596TIP3    H110752   1.854   6.767   3.618
 3596TIP3    H210753   1.747   6.689   3.691
 3597TIP3   OH210754   6.495   6.591   0.289
 3597TIP3    H110755   6.453   6.506   0.272
 3597TIP3    H210756   6.423   6.649   0.314
 3598TIP3   OH210757   1.909   3.964   0.335
 3598TIP3    H110758   1.877   4.046   0.297
 3598TIP3    H210759   1.843   3.940   0.400
 3599TIP3   OH210760   3.812   5.092   0.086
 3599TIP3    H110761   3.770   5.134   0.011
 3599TIP3    H210762   3.750   5.025   0.114
 3600TIP3   OH210763   3.540   1.149   3.666
 3600TIP3    H110764   3.589   1.228   3.689
 3600TIP3    H210765   3.603   1.078   3.675
 3601TIP3   OH210766   4.956   3.984   2.237
 3601TIP3    H110767   4.948   3.936   2.154
 3601TIP3    H210768   4.964   4.076   2.210
 3602TIP3   OH210769   6.569   1.038   0.656
 3602TIP3    H110770   6.550   0.949   0.687
 3602TIP3    H210771   6.484   1.083   0.660
 3603TIP3   OH210772   3.955   2.141   2.388
 3603TIP3    H110773   4.029   2.096   2.347
 3603TIP3    H210774   3.878   2.111   2.339
 3604TIP3   OH210775   7.135   6.102   0.772
 3604TIP3    H110776   7.169   6.084   0.684
 3604TIP3    H210777   7.212   6.116   0.826
 3605TIP3   OH210778   0.776   0.339   2.392
 3605TIP3    H110779   0.871   0.339   2.374
 3605TIP3    H210780   0.750   0.248   2.379
 3606TIP3   OH210781   4.050   1.254   4.186
 3606TIP3    H110782   4.058   1.176   4.240
 3606TIP3    H210783   3.977   1.236   4.127
 3607TIP3   OH210784   0.457   0.920   5.255
 3607TIP3    H110785   0.450   0.831   5.221
 3607TIP3    H210786   0.517   0.965   5.195
 3608TIP3   OH210787   1.506   3.324   1.350
 3608TIP3    H110788   1.595   3.311   1.383
 3608TIP3    H210789   1.480   3.410   1.384
 3609TIP3   OH210790   6.498   0.882   3.865
 3609TIP3    H110791   6.452   0.919   3.790
 3609TIP3    H210792   6.446   0.804   3.889
 3610TIP3   OH210793   1.768   1.801   5.787
 3610TIP3    H110794   1.818   1.795   5.868
 3610TIP3    H210795   1.784   1.889   5.754
 3611TIP3   OH210796   3.396   0.568   2.363
 3611TIP3    H110797   3.365   0.502   2.425
 3611TIP3    H210798   3.329   0.637   2.365
 3612TIP3   OH210799   0.023   3.180   5.521
 3612TIP3    H110800  -0.069   3.155   5.520
 3612TIP3    H210801   0.047   3.180   5.614
 3613TIP3   OH210802   1.872   2.404   5.051
 3613TIP3    H110803   1.963   2.417   5.025
 3613TIP3    H210804   1.877   2.381   5.144
 3614TIP3   OH210805   4.989   4.967   1.074
 3614TIP3    H110806   5.067   4.962   1.018
 3614TIP3    H210807   4.971   4.877   1.098
 3615TIP3   OH210808   3.890   2.966   0.676
 3615TIP3    H110809   3.985   2.977   0.681
 3615TIP3    H210810   3.878   2.875   0.648
 3616TIP3   OH210811   0.750   1.052   3.974
 3616TIP3    H110812   0.724   1.093   4.057
 3616TIP3    H210813   0.818   0.989   3.998
 3617TIP3   OH210814   6.854   1.825   2.964
 3617TIP3    H110815   6.837   1.817   2.870
 3617TIP3    H210816   6.797   1.759   3.005
 3618TIP3   OH210817   1.792   6.454   4.056
 3618TIP3    H110818   1.800   6.362   4.031
 3618TIP3    H210819   1.716   6.455   4.116
 3619TIP3   OH210820   0.744   2.972   1.856
 3619TIP3    H110821   0.741   2.992   1.949
 3619TIP3    H210822   0.828   3.007   1.826
 3620TIP3   OH210823   4.430   5.672   0.199
 3620TIP3    H110824   4.347   5.629   0.175
 3620TIP3    H210825   4.497   5.613   0.165
 3621TIP3   OH210826   2.466   4.088   2.703
 3621TIP3    H110827   2.394   4.030   2.726
 3621TIP3    H210828   2.506   4.112   2.787
 3622TIP3   OH210829   5.639   1.411   2.239
 3622TIP3    H110830   5.578   1.389   2.169
 3622TIP3    H210831   5.716   1.357   2.222
 3623TIP3   OH210832   6.216   3.250   5.668
 3623TIP3    H110833   6.146   3.196   5.632
 3623TIP3    H210834   6.194   3.339   5.642
 3624TIP3   OH210835   6.272   5.732   1.608
 3624TIP3    H110836   6.246   5.824   1.605
 3624TIP3    H210837   6.190   5.685   1.623
 3625TIP3   OH210838   4.840   4.184   4.096
 3625TIP3    H110839   4.841   4.168   4.002
 3625TIP3    H210840   4.870   4.274   4.106
 3626TIP3   OH210841   0.463   6.305   4.594
 3626TIP3    H110842   0.368   6.303   4.590
 3626TIP3    H210843   0.490   6.214   4.583
 3627TIP3   OH210844   1.589   1.248   4.420
 3627TIP3    H110845   1.647   1.178   4.387
 3627TIP3    H210846   1.644   1.298   4.480
 3628TIP3   OH210847   4.541   0.306   5.202
 3628TIP3    H110848   4.537   0.319   5.297
 3628TIP3    H210849   4.490   0.226   5.187
 3629TIP3   OH210850   0.168   4.848   4.155
 3629TIP3    H110851   0.112   4.822   4.081
 3629TIP3    H210852   0.246   4.793   4.146
 3630TIP3   OH210853   4.435   5.125   0.430
 3630TIP3    H110854   4.427   5.107   0.524
 3630TIP3    H210855   4.380   5.202   0.415
 3631TIP3   OH210856  -0.009   6.340   2.191
 3631TIP3    H110857  -0.037   6.249   2.196
 3631TIP3    H210858   0.081   6.339   2.223
 3632TIP3   OH210859   0.081   0.681   3.616
 3632TIP3    H110860   0.091   0.744   3.687
 3632TIP3    H210861  -0.010   0.690   3.588
 3633TIP3   OH210862   2.432   5.352   3.739
 3633TIP3    H110863   2.400   5.394   3.819
 3633TIP3    H210864   2.409   5.414   3.669
 3634TIP3   OH210865   0.485   3.041   0.926
 3634TIP3    H110866   0.515   3.073   1.011
 3634TIP3    H210867   0.566   3.021   0.879
 3635TIP3   OH210868   0.170   2.071   2.556
 3635TIP3    H110869   0.122   2.131   2.498
 3635TIP3    H210870   0.240   2.036   2.501
 3636TIP3   OH210871   0.393   5.448   5.107
 3636TIP3    H110872   0.447   5.513   5.152
 3636TIP3    H210873   0.444   5.424   5.030
 3637TIP3   OH210874   2.576   3.702   5.837
 3637TIP3    H110875   2.519   3.646   5.890
 3637TIP3    H210876   2.608   3.768   5.898
 3638TIP3   OH210877   4.728   6.697   5.327
 3638TIP3    H110878   4.769   6.779   5.353
 3638TIP3    H210879   4.740   6.639   5.402
 3639TIP3   OH210880   6.008   3.665   3.087
 3639TIP3    H110881   5.987   3.748   3.045
 3639TIP3    H210882   5.937   3.606   3.060
 3640TIP3   OH210883   5.663   2.380   2.858
 3640TIP3    H110884   5.656   2.428   2.776
 3640TIP3    H210885   5.575   2.384   2.896
 3641TIP3   OH210886   6.684   1.020   5.213
 3641TIP3    H110887   6.648   0.943   5.258
 3641TIP3    H210888   6.635   1.094   5.251
 3642TIP3   OH210889   2.563   0.864   2.040
 3642TIP3    H110890   2.485   0.812   2.063
 3642TIP3    H210891   2.566   0.860   1.944
 3643TIP3   OH210892   6.804   3.030   0.145
 3643TIP3    H110893   6.879   2.979   0.174
 3643TIP3    H210894   6.840   3.118   0.130
 3644TIP3   OH210895   4.191   1.348   0.319
 3644TIP3    H110896   4.259   1.281   0.310
 3644TIP3    H210897   4.117   1.301   0.359
 3645TIP3   OH210898   3.087   4.691   2.709
 3645TIP3    H110899   3.017   4.644   2.662
 3645TIP3    H210900   3.078   4.782   2.679
 3646TIP3   OH210901   4.060   2.118   0.262
 3646TIP3    H110902   4.015   2.034   0.251
 3646TIP3    H210903   3.990   2.181   0.279
 3647TIP3   OH210904   0.451   4.722   2.167
 3647TIP3    H110905   0.505   4.643   2.156
 3647TIP3    H210906   0.472   4.776   2.090
 3648TIP3   OH210907   3.962   4.132   2.455
 3648TIP3    H110908   3.945   4.223   2.431
 3648TIP3    H210909   4.057   4.127   2.464
 3649TIP3   OH210910   4.320   2.076   4.612
 3649TIP3    H110911   4.311   2.171   4.603
 3649TIP3    H210912   4.391   2.064   4.674
 3650TIP3   OH210913   3.509   6.641   5.346
 3650TIP3    H110914   3.597   6.677   5.339
 3650TIP3    H210915   3.501   6.585   5.269
 3651TIP3   OH210916   4.110   3.704   2.753
 3651TIP3    H110917   4.044   3.706   2.683
 3651TIP3    H210918   4.178   3.646   2.720
 3652TIP3   OH210919   2.413   1.725   1.215
 3652TIP3    H110920   2.379   1.692   1.298
 3652TIP3    H210921   2.386   1.817   1.213
 3653TIP3   OH210922   0.372   4.704   0.696
 3653TIP3    H110923   0.340   4.782   0.743
 3653TIP3    H210924   0.427   4.739   0.627
 3654TIP3   OH210925   0.827   5.875   0.163
 3654TIP3    H110926   0.745   5.849   0.121
 3654TIP3    H210927   0.861   5.947   0.109
 3655TIP3   OH210928   3.167   4.690   4.726
 3655TIP3    H110929   3.136   4.614   4.677
 3655TIP3    H210930   3.261   4.675   4.737
 3656TIP3   OH210931   4.516   6.031   1.066
 3656TIP3    H110932   4.521   5.947   1.020
 3656TIP3    H210933   4.548   6.095   1.002
 3657TIP3   OH210934   0.068   1.224   4.871
 3657TIP3    H110935   0.104   1.292   4.814
 3657TIP3    H210936   0.122   1.227   4.950
 3658TIP3   OH210937   1.769   3.378   0.971
 3658TIP3    H110938   1.707   3.448   0.950
 3658TIP3    H210939   1.855   3.416   0.951
 3659TIP3   OH210940   2.859   1.220   1.321
 3659TIP3    H110941   2.952   1.216   1.299
 3659TIP3    H210942   2.838   1.133   1.354
 3660TIP3   OH210943   6.778   0.740   1.258
 3660TIP3    H110944   6.752   0.661   1.210
 3660TIP3    H210945   6.696   0.776   1.291
 3661TIP3   OH210946   6.632   4.391   0.637
 3661TIP3    H110947   6.702   4.380   0.572
 3661TIP3    H210948   6.581   4.465   0.606
 3662TIP3   OH210949   4.400   4.757   2.963
 3662TIP3    H110950   4.422   4.792   2.876
 3662TIP3    H210951   4.442   4.818   3.024
 3663TIP3   OH210952   0.537   6.569   3.631
 3663TIP3    H110953   0.593   6.514   3.686
 3663TIP3    H210954   0.454   6.574   3.679
 3664TIP3   OH210955   1.628   0.770   4.217
 3664TIP3    H110956   1.693   0.740   4.281
 3664TIP3    H210957   1.557   0.706   4.223
 3665TIP3   OH210958   5.381   6.671   2.006
 3665TIP3    H110959   5.398   6.600   1.944
 3665TIP3    H210960   5.445   6.656   2.077
 3666TIP3   OH210961   0.269   4.021   0.292
 3666TIP3    H110962   0.278   3.939   0.341
 3666TIP3    H210963   0.277   4.090   0.357
 3667TIP3   OH210964   0.938   1.530   0.082
 3667TIP3    H110965   0.994   1.576   0.020
 3667TIP3    H210966   0.980   1.542   0.167
 3668TIP3   OH210967   4.845   0.203   1.381
 3668TIP3    H110968   4.782   0.274   1.392
 3668TIP3    H210969   4.861   0.200   1.286
 3669TIP3   OH210970   4.147   3.698   1.859
 3669TIP3    H110971   4.130   3.659   1.945
 3669TIP3    H210972   4.227   3.656   1.829
 3670TIP3   OH210973   4.199   2.890   4.125
 3670TIP3    H110974   4.255   2.867   4.051
 3670TIP3    H210975   4.253   2.948   4.179
 3671TIP3   OH210976   2.290   4.961   2.488
 3671TIP3    H110977   2.220   5.001   2.437
 3671TIP3    H210978   2.260   4.871   2.503
 3672TIP3   OH210979   7.133   1.076   4.689
 3672TIP3    H110980   7.197   1.014   4.654
 3672TIP3    H210981   7.182   1.129   4.751
 3673TIP3   OH210982   5.656   1.057   1.685
 3673TIP3    H110983   5.741   1.018   1.703
 3673TIP3    H210984   5.645   1.049   1.590
 3674TIP3   OH210985   5.834   1.554   5.360
 3674TIP3    H110986   5.905   1.617   5.349
 3674TIP3    H210987   5.876   1.469   5.356
 3675TIP3   OH210988   3.503   0.418   4.575
 3675TIP3    H110989   3.468   0.329   4.569
 3675TIP3    H210990   3.549   0.420   4.659
 3676TIP3   OH210991   5.608   3.251   2.194
 3676TIP3    H110992   5.679   3.302   2.232
 3676TIP3    H210993   5.651   3.185   2.140
 3677TIP3   OH210994   6.709   1.651   4.934
 3677TIP3    H110995   6.643   1.611   4.990
 3677TIP3    H210996   6.734   1.583   4.872
 3678TIP3   OH210997   6.707   5.308   0.868
 3678TIP3    H110998   6.664   5.298   0.952
 3678TIP3    H210999   6.655   5.256   0.807
 3679TIP3   OH211000   0.994   3.178   5.457
 3679TIP3    H111001   0.965   3.108   5.399
 3679TIP3    H211002   0.944   3.164   5.538
 3680TIP3   OH211003   2.494   5.961   2.675
 3680TIP3    H111004   2.490   6.009   2.757
 3680TIP3    H211005   2.402   5.939   2.656
 3681TIP3   OH211006   6.214   5.259   5.570
 3681TIP3    H111007   6.195   5.172   5.604
 3681TIP3    H211008   6.138   5.280   5.516
 3682TIP3   OH211009   5.549   0.047   0.102
 3682TIP3    H111010   5.591   0.025   0.185
 3682TIP3    H211011   5.620   0.045   0.038
 3683TIP3   OH211012   2.281   1.546   0.653
 3683TIP3    H111013   2.233   1.499   0.585
 3683TIP3    H211014   2.336   1.608   0.605
 3684TIP3   OH211015   2.494   0.694   0.944
 3684TIP3    H111016   2.439   0.689   1.022
 3684TIP3    H211017   2.453   0.762   0.890
 3685TIP3   OH211018   3.645   2.955   4.186
 3685TIP3    H111019   3.633   3.005   4.266
 3685TIP3    H211020   3.585   2.882   4.194
 3686TIP3   OH211021   3.714   3.163   0.943
 3686TIP3    H111022   3.797   3.207   0.925
 3686TIP3    H211023   3.649   3.216   0.899
 3687TIP3   OH211024   4.327   5.946   2.126
 3687TIP3    H111025   4.288   5.899   2.199
 3687TIP3    H211026   4.258   6.004   2.094
 3688TIP3   OH211027   5.130   1.146   1.621
 3688TIP3    H111028   5.205   1.122   1.675
 3688TIP3    H211029   5.153   1.233   1.587
 3689TIP3   OH211030   4.804   2.940   4.165
 3689TIP3    H111031   4.730   2.928   4.106
 3689TIP3    H211032   4.814   2.856   4.209
 3690TIP3   OH211033   0.793   3.956   4.253
 3690TIP3    H111034   0.753   3.956   4.340
 3690TIP3    H211035   0.790   3.864   4.226
 3691TIP3   OH211036   2.864   4.479   3.856
 3691TIP3    H111037   2.813   4.400   3.838
 3691TIP3    H211038   2.802   4.551   3.844
 3692TIP3   OH211039   1.138   3.483   2.062
 3692TIP3    H111040   1.082   3.561   2.061
 3692TIP3    H211041   1.154   3.466   2.155
 3693TIP3   OH211042   7.129   6.211   0.139
 3693TIP3    H111043   7.086   6.129   0.164
 3693TIP3    H211044   7.214   6.208   0.183
 3694TIP3   OH211045   5.431   2.851   1.189
 3694TIP3    H111046   5.424   2.780   1.253
 3694TIP3    H211047   5.473   2.922   1.237
 3695TIP3   OH211048   4.271   5.114   4.577
 3695TIP3    H111049   4.290   5.032   4.623
 3695TIP3    H211050   4.201   5.092   4.516
 3696TIP3   OH211051   3.531   1.613   4.286
 3696TIP3    H111052   3.534   1.538   4.226
 3696TIP3    H211053   3.528   1.690   4.229
 3697TIP3   OH211054   3.619   5.576   2.051
 3697TIP3    H111055   3.617   5.636   2.125
 3697TIP3    H211056   3.568   5.619   1.983
 3698TIP3   OH211057   4.835   1.298   4.892
 3698TIP3    H111058   4.787   1.236   4.837
 3698TIP3    H211059   4.913   1.320   4.842
 3699TIP3   OH211060   5.225   4.693   2.494
 3699TIP3    H111061   5.143   4.644   2.490
 3699TIP3    H211062   5.267   4.677   2.410
 3700TIP3   OH211063   2.422   4.211   5.187
 3700TIP3    H111064   2.357   4.264   5.235
 3700TIP3    H211065   2.476   4.276   5.141
 3701TIP3   OH211066   1.533   3.085   4.982
 3701TIP3    H111067   1.604   3.042   4.935
 3701TIP3    H211068   1.563   3.175   4.994
 3702TIP3   OH211069   0.493   6.473   4.383
 3702TIP3    H111070   0.463   6.438   4.467
 3702TIP3    H211071   0.523   6.395   4.335
 3703TIP3   OH211072   6.761   3.703   2.238
 3703TIP3    H111073   6.709   3.679   2.162
 3703TIP3    H211074   6.712   3.670   2.313
 3704TIP3   OH211075   5.276   6.772   2.896
 3704TIP3    H111076   5.215   6.714   2.850
 3704TIP3    H211077   5.362   6.734   2.880
 3705TIP3   OH211078   0.983   0.539   2.631
 3705TIP3    H111079   0.918   0.485   2.587
 3705TIP3    H211080   1.049   0.556   2.564
 3706TIP3   OH211081   1.235   3.659   3.904
 3706TIP3    H111082   1.232   3.577   3.953
 3706TIP3    H211083   1.254   3.726   3.970
 3707TIP3   OH211084   4.515   0.286   5.478
 3707TIP3    H111085   4.514   0.367   5.528
 3707TIP3    H211086   4.428   0.281   5.438
 3708TIP3   OH211087   1.404   2.173   4.986
 3708TIP3    H111088   1.455   2.158   4.906
 3708TIP3    H211089   1.326   2.220   4.956
 3709TIP3   OH211090   2.239   0.478   0.248
 3709TIP3    H111091   2.162   0.432   0.213
 3709TIP3    H211092   2.203   0.551   0.298
 3710TIP3   OH211093   4.639   2.952   1.504
 3710TIP3    H111094   4.690   2.953   1.423
 3710TIP3    H211095   4.705   2.947   1.574
 3711TIP3   OH211096   4.860   1.449   2.585
 3711TIP3    H111097   4.901   1.450   2.499
 3711TIP3    H211098   4.909   1.514   2.635
 3712TIP3   OH211099   6.136   5.735   4.956
 3712TIP3    H111100   6.070   5.692   4.903
 3712TIP3    H211101   6.214   5.680   4.947
 3713TIP3   OH211102   3.482   5.707   2.618
 3713TIP3    H111103   3.486   5.731   2.711
 3713TIP3    H211104   3.475   5.612   2.618
 3714TIP3   OH211105   2.446   3.387   0.915
 3714TIP3    H111106   2.441   3.300   0.953
 3714TIP3    H211107   2.446   3.373   0.820
 3715TIP3   OH211108   6.273   5.167   1.340
 3715TIP3    H111109   6.227   5.122   1.269
 3715TIP3    H211110   6.321   5.238   1.296
 3716TIP3   OH211111   2.166   3.744   5.395
 3716TIP3    H111112   2.202   3.663   5.430
 3716TIP3    H211113   2.242   3.796   5.368
 3717TIP3   OH211114   1.766   1.048   3.628
 3717TIP3    H111115   1.857   1.021   3.637
 3717TIP3    H211116   1.720   0.969   3.599
 3718TIP3   OH211117   4.249   3.357   1.634
 3718TIP3    H111118   4.213   3.324   1.552
 3718TIP3    H211119   4.171   3.381   1.686
 3719TIP3   OH211120   1.365   6.008   1.969
 3719TIP3    H111121   1.371   5.916   1.997
 3719TIP3    H211122   1.296   6.045   2.024
 3720TIP3   OH211123   1.493  -0.012   0.322
 3720TIP3    H111124   1.399  -0.001   0.309
 3720TIP3    H211125   1.504  -0.012   0.418
 3721TIP3   OH211126   4.288   3.105   4.650
 3721TIP3    H111127   4.218   3.120   4.715
 3721TIP3    H211128   4.250   3.043   4.588
 3722TIP3   OH211129   2.757   4.259   0.234
 3722TIP3    H111130   2.695   4.279   0.303
 3722TIP3    H211131   2.784   4.168   0.251
 3723TIP3   OH211132   3.015   3.342   2.232
 3723TIP3    H111133   2.999   3.250   2.255
 3723TIP3    H211134   3.052   3.380   2.311
 3724TIP3   OH211135   2.645   2.036   1.318
 3724TIP3    H111136   2.568   2.076   1.278
 3724TIP3    H211137   2.609   1.982   1.388
 3725TIP3   OH211138   5.932   6.524   0.246
 3725TIP3    H111139   5.991   6.554   0.176
 3725TIP3    H211140   5.979   6.545   0.327
 3726TIP3   OH211141   5.461   4.587   0.233
 3726TIP3    H111142   5.487   4.495   0.227
 3726TIP3    H211143   5.542   4.634   0.252
 3727TIP3   OH211144   2.368   1.654   4.505
 3727TIP3    H111145   2.332   1.568   4.527
 3727TIP3    H211146   2.383   1.696   4.590
 3728TIP3   OH211147   0.264   2.616   2.633
 3728TIP3    H111148   0.273   2.688   2.695
 3728TIP3    H211149   0.352   2.604   2.597
 3729TIP3   OH211150   4.536   4.892   5.021
 3729TIP3    H111151   4.502   4.969   5.067
 3729TIP3    H211152   4.567   4.926   4.937
 3730TIP3   OH211153   5.089   3.592   4.669
 3730TIP3    H111154   5.069   3.672   4.620
 3730TIP3    H211155   5.145   3.621   4.741
 3731TIP3   OH211156   2.829   3.358   1.738
 3731TIP3    H111157   2.900   3.307   1.699
 3731TIP3    H211158   2.872   3.412   1.805
 3732TIP3   OH211159   1.913   3.219   5.090
 3732TIP3    H111160   1.862   3.256   5.018
 3732TIP3    H211161   1.952   3.294   5.134
 3733TIP3   OH211162   3.622   3.966   0.474
 3733TIP3    H111163   3.708   3.996   0.503
 3733TIP3    H211164   3.635   3.873   0.453
 3734TIP3   OH211165   4.072   6.125   0.075
 3734TIP3    H111166   4.088   6.171  -0.008
 3734TIP3    H211167   4.159   6.114   0.113
 3735TIP3   OH211168   2.527   3.394   3.308
 3735TIP3    H111169   2.479   3.469   3.343
 3735TIP3    H211170   2.461   3.342   3.262
 3736TIP3   OH211171   4.799   3.116   2.435
 3736TIP3    H111172   4.707   3.094   2.455
 3736TIP3    H211173   4.840   3.128   2.521
 3737TIP3   OH211174   0.880   2.405   4.597
 3737TIP3    H111175   0.954   2.465   4.585
 3737TIP3    H211176   0.920   2.318   4.604
 3738TIP3   OH211177   3.375   0.579   0.376
 3738TIP3    H111178   3.330   0.494   0.376
 3738TIP3    H211179   3.320   0.636   0.428
 3739TIP3   OH211180   6.893   5.905   1.121
 3739TIP3    H111181   6.805   5.899   1.159
 3739TIP3    H211182   6.916   5.815   1.099
 3740TIP3   OH211183   3.464   0.690   2.988
 3740TIP3    H111184   3.508   0.606   3.000
 3740TIP3    H211185   3.385   0.683   3.041
 3741TIP3   OH211186   0.474   3.586   4.603
 3741TIP3    H111187   0.385   3.620   4.613
 3741TIP3    H211188   0.472   3.538   4.520
 3742TIP3   OH211189   1.091   4.055   2.502
 3742TIP3    H111190   0.997   4.047   2.484
 3742TIP3    H211191   1.121   3.965   2.512
 3743TIP3   OH211192   0.923   0.861   5.709
 3743TIP3    H111193   0.927   0.785   5.651
 3743TIP3    H211194   0.835   0.896   5.697
 3744TIP3   OH211195   3.697   3.517   2.680
 3744TIP3    H111196   3.615   3.497   2.636
 3744TIP3    H211197   3.764   3.508   2.612
 3745TIP3   OH211198   5.752   0.790   0.495
 3745TIP3    H111199   5.746   0.696   0.473
 3745TIP3    H211200   5.782   0.791   0.586
 3746TIP3   OH211201   1.510   0.639   5.190
 3746TIP3    H111202   1.561   0.714   5.217
 3746TIP3    H211203   1.519   0.636   5.095
 3747TIP3   OH211204   6.816   2.835   5.661
 3747TIP3    H111205   6.813   2.841   5.757
 3747TIP3    H211206   6.782   2.919   5.631
 3748TIP3   OH211207   1.220   6.153   4.087
 3748TIP3    H111208   1.249   6.237   4.051
 3748TIP3    H211209   1.279   6.137   4.160
 3749TIP3   OH211210   4.790   4.120   0.202
 3749TIP3    H111211   4.771   4.073   0.121
 3749TIP3    H211212   4.873   4.085   0.232
 3750TIP3   OH211213   3.524   4.754   1.391
 3750TIP3    H111214   3.573   4.815   1.337
 3750TIP3    H211215   3.518   4.674   1.338
 3751TIP3   OH211216   3.907   5.376   4.911
 3751TIP3    H111217   3.963   5.313   4.866
 3751TIP3    H211218   3.833   5.390   4.851
 3752TIP3   OH211219   5.386   1.232   0.891
 3752TIP3    H111220   5.315   1.245   0.828
 3752TIP3    H211221   5.390   1.315   0.939
 3753TIP3   OH211222   0.475   3.155   3.571
 3753TIP3    H111223   0.447   3.201   3.650
 3753TIP3    H211224   0.555   3.109   3.597
 3754TIP3   OH211225   2.128   2.162   2.001
 3754TIP3    H111226   2.055   2.223   2.009
 3754TIP3    H211227   2.169   2.162   2.087
 3755TIP3   OH211228   5.099   1.405   1.534
 3755TIP3    H111229   5.140   1.416   1.448
 3755TIP3    H211230   5.071   1.493   1.559
 3756TIP3   OH211231   0.404   6.456   5.673
 3756TIP3    H111232   0.449   6.448   5.757
 3756TIP3    H211233   0.409   6.549   5.652
 3757TIP3   OH211234   4.640   2.999   1.137
 3757TIP3    H111235   4.660   2.975   1.047
 3757TIP3    H211236   4.705   3.065   1.159
 3758TIP3   OH211237   5.050   1.019   4.336
 3758TIP3    H111238   5.117   0.957   4.308
 3758TIP3    H211239   5.037   1.002   4.429
 3759TIP3   OH211240   3.205   4.719   4.304
 3759TIP3    H111241   3.290   4.713   4.261
 3759TIP3    H211242   3.144   4.743   4.234
 3760TIP3   OH211243   6.449   5.021   2.889
 3760TIP3    H111244   6.400   5.047   2.811
 3760TIP3    H211245   6.398   4.950   2.928
 3761TIP3   OH211246   6.427   0.733   2.847
 3761TIP3    H111247   6.342   0.765   2.815
 3761TIP3    H211248   6.489   0.802   2.824
 3762TIP3   OH211249   0.241   6.335   3.487
 3762TIP3    H111250   0.228   6.301   3.398
 3762TIP3    H211251   0.153   6.350   3.520
 3763TIP3   OH211252   2.582   4.203   0.023
 3763TIP3    H111253   2.642   4.228   0.094
 3763TIP3    H211254   2.614   4.118  -0.006
 3764TIP3   OH211255   6.950   2.243   4.182
 3764TIP3    H111256   6.952   2.338   4.175
 3764TIP3    H211257   6.961   2.212   4.092
 3765TIP3   OH211258   6.602   0.811   4.627
 3765TIP3    H111259   6.589   0.871   4.700
 3765TIP3    H211260   6.539   0.839   4.561
 3766TIP3   OH211261   1.673   5.353   0.909
 3766TIP3    H111262   1.615   5.409   0.858
 3766TIP3    H211263   1.639   5.264   0.897
 3767TIP3   OH211264   0.417   4.488   0.010
 3767TIP3    H111265   0.406   4.570  -0.037
 3767TIP3    H211266   0.368   4.424  -0.041
 3768TIP3   OH211267   5.756   3.009   2.357
 3768TIP3    H111268   5.672   3.037   2.319
 3768TIP3    H211269   5.757   2.914   2.346
 3769TIP3   OH211270   0.381   2.062   2.047
 3769TIP3    H111271   0.352   2.126   2.112
 3769TIP3    H211272   0.357   1.977   2.084
 3770TIP3   OH211273   4.251   3.027   2.008
 3770TIP3    H111274   4.270   2.961   1.941
 3770TIP3    H211275   4.232   2.976   2.087
 3771TIP3   OH211276   3.265   0.467   4.859
 3771TIP3    H111277   3.322   0.393   4.877
 3771TIP3    H211278   3.192   0.456   4.921
 3772TIP3   OH211279   4.912   2.513   3.428
 3772TIP3    H111280   4.926   2.606   3.446
 3772TIP3    H211281   4.959   2.497   3.347
 3773TIP3   OH211282   3.055   0.865   3.954
 3773TIP3    H111283   3.046   0.787   4.010
 3773TIP3    H211284   3.136   0.850   3.906
 3774TIP3   OH211285   1.287  -0.013   3.555
 3774TIP3    H111286   1.297   0.079   3.579
 3774TIP3    H211287   1.315  -0.017   3.463
 3775TIP3   OH211288   5.532   4.780   5.477
 3775TIP3    H111289   5.614   4.828   5.489
 3775TIP3    H211290   5.487   4.788   5.562
 3776TIP3   OH211291   0.496   4.205   0.175
 3776TIP3    H111292   0.516   4.169   0.261
 3776TIP3    H211293   0.480   4.129   0.120
 3777TIP3   OH211294   0.391   5.819   0.404
 3777TIP3    H111295   0.414   5.769   0.483
 3777TIP3    H211296   0.332   5.761   0.355
 3778TIP3   OH211297   2.778   4.570   3.517
 3778TIP3    H111298   2.775   4.643   3.579
 3778TIP3    H211299   2.842   4.599   3.450
 3779TIP3   OH211300   3.767   3.084   5.694
 3779TIP3    H111301   3.859   3.090   5.720
 3779TIP3    H211302   3.767   3.109   5.601
 3780TIP3   OH211303   5.526   4.196   2.922
 3780TIP3    H111304   5.439   4.164   2.900
 3780TIP3    H211305   5.509   4.275   2.974
 3781TIP3   OH211306   0.273   1.257   0.523
 3781TIP3    H111307   0.237   1.177   0.484
 3781TIP3    H211308   0.196   1.313   0.536
 3782TIP3   OH211309   6.286   2.227   3.323
 3782TIP3    H111310   6.323   2.249   3.408
 3782TIP3    H211311   6.267   2.134   3.328
 3783TIP3   OH211312   6.674   5.970   3.770
 3783TIP3    H111313   6.761   5.942   3.799
 3783TIP3    H211314   6.656   5.916   3.693
 3784TIP3   OH211315   1.865   5.991   4.349
 3784TIP3    H111316   1.850   5.899   4.329
 3784TIP3    H211317   1.858   5.997   4.444
 3785TIP3   OH211318   4.574   5.662   5.022
 3785TIP3    H111319   4.653   5.638   4.974
 3785TIP3    H211320   4.502   5.647   4.960
 3786TIP3   OH211321   4.424   6.787   2.393
 3786TIP3    H111322   4.410   6.878   2.418
 3786TIP3    H211323   4.343   6.761   2.350
 3787TIP3   OH211324   3.984   6.493   3.034
 3787TIP3    H111325   3.945   6.534   2.957
 3787TIP3    H211326   4.078   6.513   3.026
 3788TIP3   OH211327   1.710   1.896   0.586
 3788TIP3    H111328   1.734   1.861   0.501
 3788TIP3    H211329   1.737   1.988   0.583
 3789TIP3   OH211330   6.117   2.673   4.795
 3789TIP3    H111331   6.057   2.732   4.840
 3789TIP3    H211332   6.136   2.604   4.858
 3790TIP3   OH211333   1.649   3.303   2.101
 3790TIP3    H111334   1.623   3.280   2.191
 3790TIP3    H211335   1.644   3.398   2.098
 3791TIP3   OH211336   2.940   6.533   4.675
 3791TIP3    H111337   3.023   6.578   4.659
 3791TIP3    H211338   2.963   6.440   4.678
 3792TIP3   OH211339   0.216   0.917   3.478
 3792TIP3    H111340   0.304   0.952   3.462
 3792TIP3    H211341   0.220   0.827   3.447
 3793TIP3   OH211342   2.440   5.805   5.866
 3793TIP3    H111343   2.481   5.719   5.873
 3793TIP3    H211344   2.349   5.787   5.844
 3794TIP3   OH211345   1.637   2.390   0.084
 3794TIP3    H111346   1.709   2.344   0.127
 3794TIP3    H211347   1.593   2.323   0.032
 3795TIP3   OH211348   3.907   4.633   5.400
 3795TIP3    H111349   3.822   4.588   5.394
 3795TIP3    H211350   3.924   4.665   5.312
 3796TIP3   OH211351   0.099   3.002   4.256
 3796TIP3    H111352   0.077   3.059   4.183
 3796TIP3    H211353   0.143   3.059   4.319
 3797TIP3   OH211354   6.332   2.241   4.897
 3797TIP3    H111355   6.401   2.214   4.836
 3797TIP3    H211356   6.379   2.270   4.975
 3798TIP3   OH211357   5.032   5.045   5.379
 3798TIP3    H111358   5.076   5.107   5.321
 3798TIP3    H211359   5.101   5.011   5.436
 3799TIP3   OH211360   7.064   2.933   5.806
 3799TIP3    H111361   7.086   2.984   5.884
 3799TIP3    H211362   7.141   2.878   5.790
 3800TIP3   OH211363   1.466   2.942   5.556
 3800TIP3    H111364   1.504   2.937   5.469
 3800TIP3    H211365   1.382   2.897   5.548
 3801TIP3   OH211366   3.871   4.161   2.763
 3801TIP3    H111367   3.884   4.155   2.669
 3801TIP3    H211368   3.853   4.071   2.791
 3802TIP3   OH211369   6.426   6.309   0.599
 3802TIP3    H111370   6.477   6.389   0.613
 3802TIP3    H211371   6.350   6.318   0.657
 3803TIP3   OH211372   5.060   0.606   4.945
 3803TIP3    H111373   4.982   0.621   4.892
 3803TIP3    H211374   5.047   0.520   4.984
 3804TIP3   OH211375   0.297   3.721   2.791
 3804TIP3    H111376   0.288   3.667   2.712
 3804TIP3    H211377   0.391   3.735   2.799
 3805TIP3   OH211378   1.536   5.546   0.763
 3805TIP3    H111379   1.446   5.537   0.732
 3805TIP3    H211380   1.564   5.631   0.729
 3806TIP3   OH211381   6.860   4.062   5.130
 3806TIP3    H111382   6.858   4.105   5.215
 3806TIP3    H211383   6.903   4.126   5.072
 3807TIP3   OH211384   3.223   3.304   0.505
 3807TIP3    H111385   3.140   3.257   0.493
 3807TIP3    H211386   3.284   3.261   0.446
 3808TIP3   OH211387   2.792   6.009   0.126
 3808TIP3    H111388   2.782   6.010   0.222
 3808TIP3    H211389   2.871   6.061   0.111
 3809TIP3   OH211390   5.345   6.372   4.937
 3809TIP3    H111391   5.316   6.450   4.891
 3809TIP3    H211392   5.264   6.324   4.957
 3810TIP3   OH211393   6.319   6.357   0.225
 3810TIP3    H111394   6.243   6.342   0.280
 3810TIP3    H211395   6.308   6.297   0.151
 3811TIP3   OH211396   3.670   1.101   4.111
 3811TIP3    H111397   3.605   1.105   4.181
 3811TIP3    H211398   3.678   1.008   4.091
 3812TIP3   OH211399   6.643   5.101   2.561
 3812TIP3    H111400   6.711   5.052   2.607
 3812TIP3    H211401   6.673   5.106   2.471
 3813TIP3   OH211402   4.454   6.703   3.270
 3813TIP3    H111403   4.504   6.784   3.282
 3813TIP3    H211404   4.516   6.633   3.292
 3814TIP3   OH211405   3.611   1.105   0.449
 3814TIP3    H111406   3.520   1.078   0.441
 3814TIP3    H211407   3.608   1.200   0.454
 3815TIP3   OH211408   4.177   4.140   3.106
 3815TIP3    H111409   4.269   4.113   3.110
 3815TIP3    H211410   4.130   4.060   3.083
 3816TIP3   OH211411   1.518   1.912   0.335
 3816TIP3    H111412   1.550   1.898   0.246
 3816TIP3    H211413   1.500   1.824   0.369
 3817TIP3   OH211414   4.585   1.737   4.532
 3817TIP3    H111415   4.647   1.794   4.577
 3817TIP3    H211416   4.579   1.774   4.444
 3818TIP3   OH211417   4.775   4.734   3.941
 3818TIP3    H111418   4.724   4.659   3.911
 3818TIP3    H211419   4.747   4.747   4.032
 3819TIP3   OH211420   3.224   3.598   5.091
 3819TIP3    H111421   3.197   3.677   5.139
 3819TIP3    H211422   3.310   3.620   5.056
 3820TIP3   OH211423   5.787   2.319   1.658
 3820TIP3    H111424   5.836   2.356   1.732
 3820TIP3    H211425   5.835   2.239   1.636
 3821TIP3   OH211426   3.720   1.504   3.345
 3821TIP3    H111427   3.742   1.528   3.435
 3821TIP3    H211428   3.751   1.414   3.335
 3822TIP3   OH211429   3.159   0.765   1.469
 3822TIP3    H111430   3.158   0.715   1.551
 3822TIP3    H211431   3.232   0.727   1.419
 3823TIP3   OH211432   2.460   1.450   1.643
 3823TIP3    H111433   2.472   1.419   1.553
 3823TIP3    H211434   2.538   1.502   1.661
 3824TIP3   OH211435   2.735   1.164   1.078
 3824TIP3    H111436   2.766   1.234   1.135
 3824TIP3    H211437   2.749   1.084   1.128
 3825TIP3   OH211438   3.530   0.640   0.847
 3825TIP3    H111439   3.548   0.694   0.770
 3825TIP3    H211440   3.436   0.647   0.861
 3826TIP3   OH211441   4.940   1.702   2.922
 3826TIP3    H111442   4.861   1.681   2.871
 3826TIP3    H211443   4.955   1.625   2.976
 3827TIP3   OH211444   5.563   3.525   3.764
 3827TIP3    H111445   5.567   3.574   3.846
 3827TIP3    H211446   5.505   3.576   3.708
 3828TIP3   OH211447   3.364   3.243   5.224
 3828TIP3    H111448   3.270   3.258   5.229
 3828TIP3    H211449   3.376   3.187   5.148
 3829TIP3   OH211450   1.252   6.715   4.384
 3829TIP3    H111451   1.218   6.695   4.471
 3829TIP3    H211452   1.315   6.785   4.398
 3830TIP3   OH211453   3.182   5.177   0.425
 3830TIP3    H111454   3.256   5.118   0.435
 3830TIP3    H211455   3.150   5.162   0.336
 3831TIP3   OH211456   5.701   0.726   5.540
 3831TIP3    H111457   5.758   0.745   5.466
 3831TIP3    H211458   5.612   0.734   5.505
 3832TIP3   OH211459   1.788   6.788   4.875
 3832TIP3    H111460   1.712   6.740   4.841
 3832TIP3    H211461   1.853   6.720   4.893
 3833TIP3   OH211462   1.775   0.470   5.052
 3833TIP3    H111463   1.833   0.462   4.976
 3833TIP3    H211464   1.689   0.489   5.014
 3834TIP3   OH211465   4.498   1.582   1.173
 3834TIP3    H111466   4.562   1.514   1.156
 3834TIP3    H211467   4.469   1.566   1.263
 3835TIP3   OH211468   0.517   6.494   4.957
 3835TIP3    H111469   0.477   6.414   4.924
 3835TIP3    H211470   0.474   6.511   5.040
 3836TIP3   OH211471   6.253   5.880   5.565
 3836TIP3    H111472   6.264   5.969   5.532
 3836TIP3    H211473   6.168   5.852   5.533
 3837TIP3   OH211474   5.494   6.812   0.892
 3837TIP3    H111475   5.520   6.903   0.880
 3837TIP3    H211476   5.559   6.775   0.951
 3838TIP3   OH211477   2.065   1.122   0.130
 3838TIP3    H111478   2.125   1.087   0.065
 3838TIP3    H211479   1.993   1.059   0.134
 3839TIP3   OH211480   6.569   4.047   3.550
 3839TIP3    H111481   6.625   3.976   3.519
 3839TIP3    H211482   6.498   4.002   3.598
 3840TIP3   OH211483   4.708   1.658   3.650
 3840TIP3    H111484   4.615   1.647   3.666
 3840TIP3    H211485   4.715   1.678   3.557
 3841TIP3   OH211486   0.618   5.144   4.324
 3841TIP3    H111487   0.601   5.075   4.389
 3841TIP3    H211488   0.583   5.108   4.242
 3842TIP3   OH211489   5.088   2.400   5.429
 3842TIP3    H111490   5.090   2.444   5.514
 3842TIP3    H211491   5.179   2.395   5.402
 3843TIP3   OH211492   5.145   3.676   0.863
 3843TIP3    H111493   5.147   3.580   0.861
 3843TIP3    H211494   5.235   3.701   0.883
 3844TIP3   OH211495   7.064   1.533   3.807
 3844TIP3    H111496   6.974   1.508   3.786
 3844TIP3    H211497   7.091   1.470   3.875
 3845TIP3   OH211498   2.280   3.303   1.315
 3845TIP3    H111499   2.243   3.367   1.377
 3845TIP3    H211500   2.352   3.263   1.363
 3846TIP3   OH211501   2.108   2.746   3.255
 3846TIP3    H111502   2.065   2.780   3.177
 3846TIP3    H211503   2.055   2.669   3.279
 3847TIP3   OH211504   6.715   5.113   0.093
 3847TIP3    H111505   6.680   5.114   0.182
 3847TIP3    H211506   6.658   5.172   0.043
 3848TIP3   OH211507   1.688   1.994   2.438
 3848TIP3    H111508   1.699   2.027   2.527
 3848TIP3    H211509   1.655   1.905   2.450
 3849TIP3   OH211510   1.780   4.209   0.261
 3849TIP3    H111511   1.801   4.302   0.249
 3849TIP3    H211512   1.713   4.208   0.328
 3850TIP3   OH211513   0.989   0.759   4.368
 3850TIP3    H111514   1.044   0.704   4.424
 3850TIP3    H211515   0.951   0.824   4.428
 3851TIP3   OH211516   1.439   0.620   4.370
 3851TIP3    H111517   1.444   0.685   4.440
 3851TIP3    H211518   1.388   0.548   4.408
 3852TIP3   OH211519   2.140   4.290   1.009
 3852TIP3    H111520   2.157   4.281   0.916
 3852TIP3    H211521   2.118   4.202   1.038
 3853TIP3   OH211522   1.170   4.541   2.647
 3853TIP3    H111523   1.135   4.546   2.736
 3853TIP3    H211524   1.180   4.447   2.630
 3854TIP3   OH211525   2.712   3.985   2.359
 3854TIP3    H111526   2.677   4.049   2.297
 3854TIP3    H211527   2.639   3.925   2.375
 3855TIP3   OH211528   4.037   1.853   1.591
 3855TIP3    H111529   4.042   1.947   1.576
 3855TIP3    H211530   4.008   1.816   1.508
 3856TIP3   OH211531   0.085   3.629   3.040
 3856TIP3    H111532   0.125   3.710   3.009
 3856TIP3    H211533   0.133   3.560   2.995
 3857TIP3   OH211534   5.594   3.311   1.188
 3857TIP3    H111535   5.649   3.241   1.153
 3857TIP3    H211536   5.653   3.359   1.247
 3858TIP3   OH211537   1.219   3.805   1.736
 3858TIP3    H111538   1.206   3.842   1.824
 3858TIP3    H211539   1.231   3.882   1.680
 3859TIP3   OH211540   2.008   3.879   5.569
 3859TIP3    H111541   2.047   3.841   5.490
 3859TIP3    H211542   2.071   3.945   5.598
 3860TIP3   OH211543   4.464   6.538   4.451
 3860TIP3    H111544   4.525   6.505   4.517
 3860TIP3    H211545   4.497   6.503   4.369
 3861TIP3   OH211546   3.765   6.709   4.266
 3861TIP3    H111547   3.849   6.705   4.221
 3861TIP3    H211548   3.749   6.802   4.280
 3862TIP3   OH211549   6.807   3.960   1.157
 3862TIP3    H111550   6.868   3.929   1.224
 3862TIP3    H211551   6.722   3.960   1.200
 3863TIP3   OH211552   3.889   1.223   3.206
 3863TIP3    H111553   3.833   1.169   3.262
 3863TIP3    H211554   3.978   1.192   3.223
 3864TIP3   OH211555   3.093   0.844   2.704
 3864TIP3    H111556   3.012   0.846   2.653
 3864TIP3    H211557   3.077   0.780   2.773
 3865TIP3   OH211558   0.912   2.182   5.222
 3865TIP3    H111559   0.871   2.103   5.186
 3865TIP3    H211560   1.005   2.168   5.208
 3866TIP3   OH211561   0.369   6.001   4.036
 3866TIP3    H111562   0.302   6.067   4.016
 3866TIP3    H211563   0.334   5.920   3.999
 3867TIP3   OH211564   5.927   3.602   1.756
 3867TIP3    H111565   5.969   3.523   1.722
 3867TIP3    H211566   5.928   3.590   1.851
 3868TIP3   OH211567   0.868   5.932   1.406
 3868TIP3    H111568   0.893   5.907   1.317
 3868TIP3    H211569   0.943   5.906   1.460
 3869TIP3   OH211570   3.398   2.903   5.226
 3869TIP3    H111571   3.473   2.934   5.175
 3869TIP3    H211572   3.325   2.902   5.163
 3870TIP3   OH211573   1.183   2.380   0.438
 3870TIP3    H111574   1.257   2.347   0.491
 3870TIP3    H211575   1.218   2.383   0.349
 3871TIP3   OH211576   4.729   6.496   0.641
 3871TIP3    H111577   4.821   6.472   0.639
 3871TIP3    H211578   4.728   6.585   0.676
 3872TIP3   OH211579   3.238   3.106   2.499
 3872TIP3    H111580   3.229   3.052   2.421
 3872TIP3    H211581   3.219   3.195   2.470
 3873TIP3   OH211582   3.255   3.498   3.692
 3873TIP3    H111583   3.294   3.566   3.748
 3873TIP3    H211584   3.276   3.525   3.603
 3874TIP3   OH211585   5.131   4.680   0.919
 3874TIP3    H111586   5.155   4.624   0.993
 3874TIP3    H211587   5.197   4.662   0.852
 3875TIP3   OH211588   6.311   2.798   0.517
 3875TIP3    H111589   6.353   2.852   0.450
 3875TIP3    H211590   6.218   2.807   0.500
 3876TIP3   OH211591   3.494   0.639   4.910
 3876TIP3    H111592   3.432   0.569   4.889
 3876TIP3    H211593   3.455   0.684   4.984
 3877TIP3   OH211594   5.977   1.851   5.436
 3877TIP3    H111595   5.911   1.886   5.376
 3877TIP3    H211596   6.058   1.893   5.410
 3878TIP3   OH211597   1.513   5.217   5.102
 3878TIP3    H111598   1.495   5.289   5.162
 3878TIP3    H211599   1.481   5.139   5.147
 3879TIP3   OH211600   5.924   3.577   1.180
 3879TIP3    H111601   5.864   3.546   1.247
 3879TIP3    H211602   5.938   3.670   1.201
 3880TIP3   OH211603   4.249   2.847   1.795
 3880TIP3    H111604   4.310   2.844   1.721
 3880TIP3    H211605   4.282   2.782   1.857
 3881TIP3   OH211606   6.332   1.186   0.727
 3881TIP3    H111607   6.257   1.219   0.677
 3881TIP3    H211608   6.375   1.265   0.761
 3882TIP3   OH211609   4.083   3.857   5.713
 3882TIP3    H111610   4.103   3.858   5.806
 3882TIP3    H211611   4.155   3.808   5.673
 3883TIP3   OH211612   5.101   5.701   4.187
 3883TIP3    H111613   5.161   5.695   4.261
 3883TIP3    H211614   5.020   5.662   4.218
 3884TIP3   OH211615   0.453   1.272   0.319
 3884TIP3    H111616   0.537   1.310   0.341
 3884TIP3    H211617   0.401   1.281   0.399
 3885TIP3   OH211618   4.079   4.072   4.499
 3885TIP3    H111619   4.003   4.028   4.461
 3885TIP3    H211620   4.071   4.163   4.469
 3886TIP3   OH211621   1.947   1.812   4.677
 3886TIP3    H111622   1.952   1.819   4.582
 3886TIP3    H211623   1.859   1.845   4.699
 3887TIP3   OH211624   1.689   0.998   5.628
 3887TIP3    H111625   1.651   1.034   5.708
 3887TIP3    H211626   1.667   1.061   5.560
 3888TIP3   OH211627   6.883   1.634   3.247
 3888TIP3    H111628   6.940   1.592   3.183
 3888TIP3    H211629   6.798   1.641   3.204
 3889TIP3   OH211630   4.918   6.258   0.406
 3889TIP3    H111631   4.974   6.335   0.407
 3889TIP3    H211632   4.849   6.277   0.470
 3890TIP3   OH211633   2.329   1.836   4.722
 3890TIP3    H111634   2.270   1.782   4.774
 3890TIP3    H211635   2.273   1.905   4.686
 3891TIP3   OH211636   3.122   6.153   1.769
 3891TIP3    H111637   3.045   6.197   1.734
 3891TIP3    H211638   3.195   6.212   1.748
 3892TIP3   OH211639   6.618   1.133   4.779
 3892TIP3    H111640   6.644   1.185   4.703
 3892TIP3    H211641   6.693   1.140   4.839
 3893TIP3   OH211642   2.861   3.226   3.069
 3893TIP3    H111643   2.904   3.289   3.011
 3893TIP3    H211644   2.913   3.146   3.061
 3894TIP3   OH211645   6.911   4.757   2.940
 3894TIP3    H111646   6.944   4.689   2.999
 3894TIP3    H211647   6.820   4.734   2.925
 3895TIP3   OH211648   5.056   5.006   4.625
 3895TIP3    H111649   4.988   4.940   4.614
 3895TIP3    H211650   5.133   4.956   4.655
 3896TIP3   OH211651   0.673   4.770   0.614
 3896TIP3    H111652   0.722   4.742   0.537
 3896TIP3    H211653   0.680   4.696   0.675
 3897TIP3   OH211654   3.801   4.225   0.580
 3897TIP3    H111655   3.875   4.281   0.606
 3897TIP3    H211656   3.795   4.160   0.650
 3898TIP3   OH211657   6.227   2.866   3.616
 3898TIP3    H111658   6.214   2.915   3.535
 3898TIP3    H211659   6.307   2.903   3.654
 3899TIP3   OH211660   5.861   5.426   1.772
 3899TIP3    H111661   5.819   5.398   1.690
 3899TIP3    H211662   5.809   5.383   1.841
 3900TIP3   OH211663   1.344   2.671   2.564
 3900TIP3    H111664   1.433   2.650   2.590
 3900TIP3    H211665   1.296   2.589   2.571
 3901TIP3   OH211666   1.978   6.591   3.475
 3901TIP3    H111667   1.926   6.661   3.436
 3901TIP3    H211668   1.940   6.511   3.440
 3902TIP3   OH211669   6.627   1.541   2.042
 3902TIP3    H111670   6.591   1.629   2.029
 3902TIP3    H211671   6.722   1.555   2.051
 3903TIP3   OH211672   6.266   5.670   2.666
 3903TIP3    H111673   6.268   5.718   2.584
 3903TIP3    H211674   6.181   5.691   2.704
 3904TIP3   OH211675   1.449   3.193   2.680
 3904TIP3    H111676   1.460   3.261   2.746
 3904TIP3    H211677   1.355   3.195   2.660
 3905TIP3   OH211678   3.849   4.723   0.682
 3905TIP3    H111679   3.827   4.807   0.641
 3905TIP3    H211680   3.851   4.660   0.611
 3906TIP3   OH211681   5.702   4.710   0.406
 3906TIP3    H111682   5.798   4.713   0.399
 3906TIP3    H211683   5.673   4.796   0.378
 3907TIP3   OH211684   4.919   2.787   3.570
 3907TIP3    H111685   4.989   2.813   3.629
 3907TIP3    H211686   4.925   2.849   3.497
 3908TIP3   OH211687   6.375   5.677   0.190
 3908TIP3    H111688   6.322   5.703   0.266
 3908TIP3    H211689   6.347   5.735   0.120
 3909TIP3   OH211690   0.975   1.914   4.671
 3909TIP3    H111691   0.951   1.855   4.600
 3909TIP3    H211692   0.902   1.975   4.678
 3910TIP3   OH211693   2.560   0.297   1.384
 3910TIP3    H111694   2.574   0.219   1.437
 3910TIP3    H211695   2.619   0.286   1.309
 3911TIP3   OH211696   1.261   2.057   0.084
 3911TIP3    H111697   1.217   1.973   0.101
 3911TIP3    H211698   1.215   2.092   0.008
 3912TIP3   OH211699   4.365   0.739   5.415
 3912TIP3    H111700   4.274   0.768   5.424
 3912TIP3    H211701   4.416   0.819   5.426
 3913TIP3   OH211702   4.017   5.528   3.251
 3913TIP3    H111703   4.063   5.577   3.183
 3913TIP3    H211704   4.087   5.488   3.303
 3914TIP3   OH211705   4.747   5.412   5.025
 3914TIP3    H111706   4.671   5.411   5.083
 3914TIP3    H211707   4.798   5.335   5.051
 3915TIP3   OH211708   3.449   6.018   5.214
 3915TIP3    H111709   3.427   5.971   5.295
 3915TIP3    H211710   3.401   6.100   5.220
 3916TIP3   OH211711   3.703   3.362   2.921
 3916TIP3    H111712   3.654   3.407   2.990
 3916TIP3    H211713   3.714   3.427   2.852
 3917TIP3   OH211714   5.679   1.639   3.099
 3917TIP3    H111715   5.608   1.661   3.040
 3917TIP3    H211716   5.692   1.545   3.089
 3918TIP3   OH211717   6.472   3.639   5.512
 3918TIP3    H111718   6.541   3.694   5.474
 3918TIP3    H211719   6.513   3.554   5.524
 3919TIP3   OH211720   1.300   0.532   0.719
 3919TIP3    H111721   1.259   0.605   0.765
 3919TIP3    H211722   1.274   0.544   0.628
 3920TIP3   OH211723   4.866   6.075   3.505
 3920TIP3    H111724   4.834   6.003   3.560
 3920TIP3    H211725   4.800   6.144   3.516
 3921TIP3   OH211726   4.115   2.193   2.051
 3921TIP3    H111727   4.034   2.232   2.084
 3921TIP3    H211728   4.151   2.144   2.125
 3922TIP3   OH211729   2.238   2.955   0.913
 3922TIP3    H111730   2.208   2.897   0.983
 3922TIP3    H211731   2.237   3.043   0.952
 3923TIP3   OH211732   3.837   1.632   5.128
 3923TIP3    H111733   3.804   1.552   5.087
 3923TIP3    H211734   3.884   1.601   5.206
 3924TIP3   OH211735   4.705   0.897   0.924
 3924TIP3    H111736   4.772   0.901   0.992
 3924TIP3    H211737   4.731   0.822   0.869
 3925TIP3   OH211738   3.290   5.489   2.104
 3925TIP3    H111739   3.332   5.554   2.161
 3925TIP3    H211740   3.255   5.424   2.164
 3926TIP3   OH211741   3.497   1.320   5.205
 3926TIP3    H111742   3.463   1.312   5.294
 3926TIP3    H211743   3.469   1.407   5.176
 3927TIP3   OH211744   3.058   4.576   5.423
 3927TIP3    H111745   3.088   4.608   5.508
 3927TIP3    H211746   3.068   4.651   5.365
 3928TIP3   OH211747   2.771   3.127   3.465
 3928TIP3    H111748   2.708   3.057   3.444
 3928TIP3    H211749   2.766   3.186   3.390
 3929TIP3   OH211750   4.750   1.172   4.391
 3929TIP3    H111751   4.788   1.219   4.465
 3929TIP3    H211752   4.761   1.079   4.414
 3930TIP3   OH211753   5.251   3.331   3.113
 3930TIP3    H111754   5.326   3.389   3.129
 3930TIP3    H211755   5.189   3.384   3.063
 3931TIP3   OH211756   5.048   0.845   1.960
 3931TIP3    H111757   5.105   0.784   2.006
 3931TIP3    H211758   4.970   0.851   2.015
 3932TIP3   OH211759   2.690   1.515   2.586
 3932TIP3    H111760   2.595   1.526   2.576
 3932TIP3    H211761   2.725   1.603   2.578
 3933TIP3   OH211762   5.856   2.085   0.534
 3933TIP3    H111763   5.766   2.099   0.562
 3933TIP3    H211764   5.870   2.151   0.466
 3934TIP3   OH211765   3.767   1.968   1.623
 3934TIP3    H111766   3.824   1.942   1.551
 3934TIP3    H211767   3.816   2.037   1.668
 3935TIP3   OH211768   0.940   2.426   5.046
 3935TIP3    H111769   0.939   2.344   4.998
 3935TIP3    H211770   0.857   2.426   5.095
 3936TIP3   OH211771   3.853   1.817   4.253
 3936TIP3    H111772   3.930   1.818   4.310
 3936TIP3    H211773   3.778   1.817   4.313
 3937TIP3   OH211774   4.809   4.340   2.289
 3937TIP3    H111775   4.733   4.360   2.343
 3937TIP3    H211776   4.778   4.276   2.226
 3938TIP3   OH211777   2.042   1.762   5.114
 3938TIP3    H111778   2.033   1.772   5.209
 3938TIP3    H211779   1.954   1.775   5.079
 3939TIP3   OH211780   3.107   0.307   5.513
 3939TIP3    H111781   3.141   0.376   5.569
 3939TIP3    H211782   3.071   0.353   5.437
 3940TIP3   OH211783   2.691   5.928   3.713
 3940TIP3    H111784   2.779   5.925   3.675
 3940TIP3    H211785   2.701   5.982   3.792
 3941TIP3   OH211786   0.280   3.461   1.451
 3941TIP3    H111787   0.242   3.529   1.507
 3941TIP3    H211788   0.210   3.440   1.388
 3942TIP3   OH211789   0.577   6.733   3.423
 3942TIP3    H111790   0.583   6.663   3.488
 3942TIP3    H211791   0.504   6.706   3.366
 3943TIP3   OH211792   6.334   1.130   3.485
 3943TIP3    H111793   6.346   1.057   3.425
 3943TIP3    H211794   6.363   1.207   3.435
 3944TIP3   OH211795   2.706   1.427   5.729
 3944TIP3    H111796   2.706   1.499   5.666
 3944TIP3    H211797   2.659   1.461   5.805
 3945TIP3   OH211798   0.775   5.255   0.082
 3945TIP3    H111799   0.700   5.216   0.126
 3945TIP3    H211800   0.798   5.191   0.014
 3946TIP3   OH211801   1.787   6.452   2.480
 3946TIP3    H111802   1.804   6.437   2.387
 3946TIP3    H211803   1.712   6.511   2.482
 3947TIP3   OH211804   1.750   0.960   2.405
 3947TIP3    H111805   1.820   0.901   2.432
 3947TIP3    H211806   1.783   1.047   2.424
 3948TIP3   OH211807   5.216   5.423   1.139
 3948TIP3    H111808   5.288   5.482   1.118
 3948TIP3    H211809   5.235   5.343   1.089
 3949TIP3   OH211810   3.358   3.129   5.625
 3949TIP3    H111811   3.276   3.080   5.615
 3949TIP3    H211812   3.360   3.188   5.550
 3950TIP3   OH211813   6.006   4.112   3.838
 3950TIP3    H111814   5.946   4.080   3.905
 3950TIP3    H211815   6.086   4.133   3.886
 3951TIP3   OH211816   7.108   4.174   2.198
 3951TIP3    H111817   7.157   4.237   2.145
 3951TIP3    H211818   7.102   4.214   2.284
 3952TIP3   OH211819   0.708   6.392   4.759
 3952TIP3    H111820   0.700   6.350   4.674
 3952TIP3    H211821   0.619   6.393   4.794
 3953TIP3   OH211822   6.871   5.537   0.305
 3953TIP3    H111823   6.933   5.470   0.275
 3953TIP3    H211824   6.912   5.574   0.383
 3954TIP3   OH211825   3.772   5.793   1.714
 3954TIP3    H111826   3.788   5.878   1.754
 3954TIP3    H211827   3.783   5.731   1.786
 3955TIP3   OH211828   0.575   0.470   4.953
 3955TIP3    H111829   0.662   0.510   4.960
 3955TIP3    H211830   0.578   0.419   4.872
 3956TIP3   OH211831   6.351   4.352   5.541
 3956TIP3    H111832   6.376   4.371   5.450
 3956TIP3    H211833   6.258   4.373   5.545
 3957TIP3   OH211834   4.668   2.159   5.011
 3957TIP3    H111835   4.703   2.071   5.022
 3957TIP3    H211836   4.613   2.173   5.088
 3958TIP3   OH211837   4.971   2.950   3.335
 3958TIP3    H111838   5.014   3.008   3.273
 3958TIP3    H211839   4.973   2.864   3.293
 3959TIP3   OH211840   7.140   5.443   2.763
 3959TIP3    H111841   7.115   5.378   2.697
 3959TIP3    H211842   7.228   5.416   2.790
 3960TIP3   OH211843   1.493   0.533   1.353
 3960TIP3    H111844   1.446   0.496   1.428
 3960TIP3    H211845   1.460   0.623   1.346
 3961TIP3   OH211846   3.421   0.187   2.954
 3961TIP3    H111847   3.441   0.267   3.004
 3961TIP3    H211848   3.334   0.161   2.986
 3962TIP3   OH211849   3.488   6.459   4.731
 3962TIP3    H111850   3.448   6.400   4.795
 3962TIP3    H211851   3.577   6.426   4.721
 3963TIP3   OH211852   6.763   0.651   1.576
 3963TIP3    H111853   6.817   0.628   1.652
 3963TIP3    H211854   6.719   0.732   1.601
 3964TIP3   OH211855   6.653   5.786   4.015
 3964TIP3    H111856   6.639   5.749   3.928
 3964TIP3    H211857   6.697   5.869   3.999
 3965TIP3   OH211858   1.689   5.688   4.091
 3965TIP3    H111859   1.703   5.603   4.049
 3965TIP3    H211860   1.726   5.678   4.179
 3966TIP3   OH211861   4.509   4.177   0.261
 3966TIP3    H111862   4.592   4.129   0.264
 3966TIP3    H211863   4.476   4.162   0.173
 3967TIP3   OH211864   3.494   3.678   1.940
 3967TIP3    H111865   3.477   3.724   1.858
 3967TIP3    H211866   3.493   3.747   2.006
 3968TIP3   OH211867   4.118   4.701   4.379
 3968TIP3    H111868   4.073   4.766   4.325
 3968TIP3    H211869   4.063   4.622   4.372
 3969TIP3   OH211870   1.796   0.729   4.409
 3969TIP3    H111871   1.892   0.731   4.415
 3969TIP3    H211872   1.768   0.675   4.483
 3970TIP3   OH211873   6.843   3.563   0.105
 3970TIP3    H111874   6.848   3.468   0.113
 3970TIP3    H211875   6.919   3.595   0.154
 3971TIP3   OH211876   6.997   0.155   4.674
 3971TIP3    H111877   7.000   0.206   4.755
 3971TIP3    H211878   7.084   0.167   4.635
 3972TIP3   OH211879   3.151   6.600   3.292
 3972TIP3    H111880   3.215   6.667   3.270
 3972TIP3    H211881   3.163   6.532   3.226
 3973TIP3   OH211882   6.849   5.432   2.111
 3973TIP3    H111883   6.784   5.365   2.090
 3973TIP3    H211884   6.814   5.476   2.188
 3974TIP3   OH211885   3.391   2.247   1.951
 3974TIP3    H111886   3.370   2.164   1.994
 3974TIP3    H211887   3.308   2.295   1.947
 3975TIP3   OH211888   0.063   2.315   2.724
 3975TIP3    H111889   0.059   2.373   2.648
 3975TIP3    H211890  -0.009   2.345   2.780
 3976TIP3   OH211891   6.568   3.292   5.537
 3976TIP3    H111892   6.638   3.266   5.478
 3976TIP3    H211893   6.528   3.210   5.565
 3977TIP3   OH211894   0.614   4.434   4.200
 3977TIP3    H111895   0.605   4.341   4.180
 3977TIP3    H211896   0.708   4.451   4.194
 3978TIP3   OH211897   0.168   2.129   5.520
 3978TIP3    H111898   0.164   2.082   5.437
 3978TIP3    H211899   0.213   2.069   5.580
 3979TIP3   OH211900   5.462   2.922   2.441
 3979TIP3    H111901   5.454   3.015   2.416
 3979TIP3    H211902   5.421   2.875   2.368
 3980TIP3   OH211903   4.256   4.828   4.939
 3980TIP3    H111904   4.266   4.733   4.937
 3980TIP3    H211905   4.317   4.858   5.006
 3981TIP3   OH211906   4.105   4.757   0.050
 3981TIP3    H111907   4.157   4.836   0.062
 3981TIP3    H211908   4.040   4.760   0.120
 3982TIP3   OH211909   1.716   0.194   1.702
 3982TIP3    H111910   1.654   0.161   1.636
 3982TIP3    H211911   1.661   0.222   1.775
 3983TIP3   OH211912   0.511   3.346   1.557
 3983TIP3    H111913   0.440   3.402   1.527
 3983TIP3    H211914   0.512   3.357   1.652
 3984TIP3   OH211915   4.836   4.229   5.503
 3984TIP3    H111916   4.900   4.277   5.556
 3984TIP3    H211917   4.869   4.237   5.414
 3985TIP3   OH211918   4.677   3.237   3.945
 3985TIP3    H111919   4.649   3.260   4.033
 3985TIP3    H211920   4.608   3.270   3.888
 3986TIP3   OH211921   2.720   1.674   5.584
 3986TIP3    H111922   2.792   1.684   5.522
 3986TIP3    H211923   2.654   1.737   5.555
 3987TIP3   OH211924   5.613   2.062   2.212
 3987TIP3    H111925   5.650   2.145   2.181
 3987TIP3    H211926   5.676   1.996   2.185
 3988TIP3   OH211927   4.750   0.095   3.222
 3988TIP3    H111928   4.725   0.159   3.289
 3988TIP3    H211929   4.667   0.053   3.199
 3989TIP3   OH211930   2.401   1.650   5.063
 3989TIP3    H111931   2.488   1.681   5.038
 3989TIP3    H211932   2.367   1.608   4.984
 3990TIP3   OH211933   5.895   2.336   3.874
 3990TIP3    H111934   5.989   2.337   3.855
 3990TIP3    H211935   5.854   2.368   3.793
 3991TIP3   OH211936   6.764   4.041   1.881
 3991TIP3    H111937   6.769   4.054   1.786
 3991TIP3    H211938   6.841   4.086   1.916
 3992TIP3   OH211939   6.605   0.240   3.753
 3992TIP3    H111940   6.666   0.258   3.682
 3992TIP3    H211941   6.656   0.253   3.833
 3993TIP3   OH211942   2.281   1.516   0.003
 3993TIP3    H111943   2.338   1.458  -0.047
 3993TIP3    H211944   2.198   1.469   0.008
 3994TIP3   OH211945   3.302   4.498   0.441
 3994TIP3    H111946   3.290   4.456   0.526
 3994TIP3    H211947   3.298   4.427   0.378
 3995TIP3   OH211948   0.378   1.848   1.077
 3995TIP3    H111949   0.440   1.900   1.129
 3995TIP3    H211950   0.431   1.778   1.040
 3996TIP3   OH211951   0.541   2.344   0.307
 3996TIP3    H111952   0.478   2.381   0.245
 3996TIP3    H211953   0.496   2.349   0.392
 3997TIP3   OH211954   2.663   4.899   4.446
 3997TIP3    H111955   2.719   4.843   4.392
 3997TIP3    H211956   2.595   4.839   4.478
 3998TIP3   OH211957   3.702   0.911   1.485
 3998TIP3    H111958   3.765   0.945   1.548
 3998TIP3    H211959   3.617   0.946   1.514
 3999TIP3   OH211960   6.086   2.355   1.918
 3999TIP3    H111961   6.004   2.396   1.943
 3999TIP3    H211962   6.154   2.413   1.953
 4000TIP3   OH211963   6.813   5.195   5.274
 4000TIP3    H111964   6.885   5.152   5.321
 4000TIP3    H211965   6.844   5.202   5.184
 4001TIP3   OH211966   1.164   0.801   0.843
 4001TIP3    H111967   1.072   0.784   0.863
 4001TIP3    H211968   1.167   0.895   0.827
 4002TIP3   OH211969   0.026   0.035   1.379
 4002TIP3    H111970   0.056   0.120   1.346
 4002TIP3    H211971   0.105  -0.018   1.383
 4003TIP3   OH211972   4.020   4.133   4.856
 4003TIP3    H111973   4.080   4.206   4.873
 4003TIP3    H211974   4.078   4.060   4.833
 4004TIP3   OH211975   7.006   5.773   3.574
 4004TIP3    H111976   6.996   5.691   3.622
 4004TIP3    H211977   6.916   5.802   3.557
 4005TIP3   OH211978   4.416   3.368   1.908
 4005TIP3    H111979   4.469   3.445   1.890
 4005TIP3    H211980   4.346   3.371   1.842
 4006TIP3   OH211981   3.497   4.796   5.439
 4006TIP3    H111982   3.551   4.828   5.368
 4006TIP3    H211983   3.478   4.705   5.417
 4007TIP3   OH211984   6.632   6.343   5.746
 4007TIP3    H111985   6.639   6.309   5.657
 4007TIP3    H211986   6.567   6.413   5.739
 4008TIP3   OH211987   3.208   5.416   0.605
 4008TIP3    H111988   3.267   5.490   0.594
 4008TIP3    H211989   3.170   5.402   0.519
 4009TIP3   OH211990   3.678   5.784   2.421
 4009TIP3    H111991   3.615   5.743   2.481
 4009TIP3    H211992   3.637   5.868   2.398
 4010TIP3   OH211993   3.406   4.025   3.190
 4010TIP3    H111994   3.497   4.052   3.176
 4010TIP3    H211995   3.358   4.107   3.203
 4011TIP3   OH211996   6.134   6.766   4.295
 4011TIP3    H111997   6.086   6.849   4.294
 4011TIP3    H211998   6.068   6.700   4.272
 4012TIP3   OH211999   5.952   2.487   3.217
 4012TIP3    H112000   5.897   2.564   3.206
 4012TIP3    H212001   5.938   2.435   3.139
 4013TIP3   OH212002   0.434   0.726   4.533
 4013TIP3    H112003   0.340   0.706   4.529
 4013TIP3    H212004   0.470   0.687   4.453
 4014TIP3   OH212005   1.094   1.095   5.731
 4014TIP3    H112006   1.152   1.136   5.667
 4014TIP3    H212007   1.077   1.008   5.696
 4015TIP3   OH212008   2.272   6.106   0.782
 4015TIP3    H112009   2.301   6.043   0.715
 4015TIP3    H212010   2.244   6.051   0.855
 4016TIP3   OH212011   5.882   5.930   4.276
 4016TIP3    H112012   5.851   5.994   4.341
 4016TIP3    H212013   5.802   5.886   4.246
 4017TIP3   OH212014   1.074   2.424   3.762
 4017TIP3    H112015   1.060   2.386   3.675
 4017TIP3    H212016   1.000   2.392   3.814
 4018TIP3   OH212017   1.994   1.319   1.443
 4018TIP3    H112018   1.905   1.312   1.409
 4018TIP3    H212019   2.037   1.383   1.386
 4019TIP3   OH212020   6.487   0.718   0.041
 4019TIP3    H112021   6.578   0.700   0.016
 4019TIP3    H212022   6.493   0.767   0.123
 4020TIP3   OH212023   5.831   2.699   0.527
 4020TIP3    H112024   5.774   2.730   0.457
 4020TIP3    H212025   5.773   2.692   0.604
 4021TIP3   OH212026   1.265   2.644   3.257
 4021TIP3    H112027   1.331   2.669   3.193
 4021TIP3    H212028   1.246   2.725   3.305
 4022TIP3   OH212029   7.188   4.891   3.668
 4022TIP3    H112030   7.272   4.852   3.644
 4022TIP3    H212031   7.123   4.836   3.625
 4023TIP3   OH212032   4.127   6.351   4.332
 4023TIP3    H112033   4.172   6.434   4.321
 4023TIP3    H212034   4.035   6.370   4.310
 4024TIP3   OH212035   4.762   0.462   3.142
 4024TIP3    H112036   4.749   0.370   3.167
 4024TIP3    H212037   4.727   0.467   3.053
 4025TIP3   OH212038   4.856   3.796   0.090
 4025TIP3    H112039   4.830   3.771   0.179
 4025TIP3    H212040   4.861   3.714   0.042
 4026TIP3   OH212041   1.714   1.475   5.652
 4026TIP3    H112042   1.804   1.499   5.675
 4026TIP3    H212043   1.670   1.462   5.736
 4027TIP3   OH212044   0.367   4.048   2.621
 4027TIP3    H112045   0.404   4.046   2.709
 4027TIP3    H212046   0.345   4.140   2.606
 4028TIP3   OH212047   2.637   2.346   1.324
 4028TIP3    H112048   2.554   2.308   1.352
 4028TIP3    H212049   2.683   2.273   1.282
 4029TIP3   OH212050   3.530   1.381   2.925
 4029TIP3    H112051   3.486   1.347   3.003
 4029TIP3    H212052   3.573   1.461   2.954
 4030TIP3   OH212053   1.056   2.168   1.516
 4030TIP3    H112054   1.067   2.240   1.578
 4030TIP3    H212055   1.141   2.123   1.516
 4031TIP3   OH212056   6.451   1.369   2.419
 4031TIP3    H112057   6.523   1.411   2.372
 4031TIP3    H212058   6.376   1.377   2.360
 4032TIP3   OH212059   2.110   4.705   3.361
 4032TIP3    H112060   2.143   4.647   3.292
 4032TIP3    H212061   2.030   4.663   3.391
 4033TIP3   OH212062   0.909   3.255   3.714
 4033TIP3    H112063   0.825   3.301   3.708
 4033TIP3    H212064   0.893   3.184   3.776
 4034TIP3   OH212065   3.850   3.944   3.452
 4034TIP3    H112066   3.821   3.978   3.537
 4034TIP3    H212067   3.814   3.856   3.448
 4035TIP3   OH212068   1.136   5.147   4.247
 4035TIP3    H112069   1.089   5.064   4.242
 4035TIP3    H212070   1.092   5.203   4.183
 4036TIP3   OH212071   0.085   5.343   3.510
 4036TIP3    H112072   0.014   5.288   3.544
 4036TIP3    H212073   0.115   5.297   3.431
 4037TIP3   OH212074   1.532   2.805   0.400
 4037TIP3    H112075   1.481   2.759   0.466
 4037TIP3    H212076   1.468   2.830   0.333
 4038TIP3   OH212077   3.539   1.995   1.053
 4038TIP3    H112078   3.449   2.022   1.036
 4038TIP3    H212079   3.581   1.996   0.967
 4039TIP3   OH212080   4.271   0.055   0.137
 4039TIP3    H112081   4.222   0.077   0.058
 4039TIP3    H212082   4.353   0.104   0.129
 4040TIP3   OH212083   1.986   3.006   0.760
 4040TIP3    H112084   2.047   3.076   0.783
 4040TIP3    H212085   1.910   3.051   0.722
 4041TIP3   OH212086   5.840   1.631   1.588
 4041TIP3    H112087   5.749   1.623   1.558
 4041TIP3    H212088   5.874   1.542   1.584
 4042TIP3   OH212089   3.521   5.993   2.458
 4042TIP3    H112090   3.454   5.993   2.526
 4042TIP3    H212091   3.547   6.084   2.449
 4043TIP3   OH212092   1.729   1.536   3.085
 4043TIP3    H112093   1.742   1.629   3.069
 4043TIP3    H212094   1.664   1.532   3.155
 4044TIP3   OH212095   6.034   3.222   4.627
 4044TIP3    H112096   5.975   3.297   4.627
 4044TIP3    H212097   6.041   3.196   4.719
 4045TIP3   OH212098   0.103   4.968   5.167
 4045TIP3    H112099   0.010   4.957   5.146
 4045TIP3    H212100   0.126   5.053   5.130
 4046TIP3   OH212101   3.977   1.373   4.451
 4046TIP3    H112102   3.890   1.396   4.483
 4046TIP3    H212103   3.961   1.323   4.371
 4047TIP3   OH212104   1.499   1.251   0.392
 4047TIP3    H112105   1.421   1.214   0.351
 4047TIP3    H212106   1.527   1.320   0.332
 4048TIP3   OH212107   2.116   4.583   3.797
 4048TIP3    H112108   2.066   4.505   3.820
 4048TIP3    H212109   2.190   4.583   3.859
 4049TIP3   OH212110   5.785   4.244   4.919
 4049TIP3    H112111   5.806   4.240   5.012
 4049TIP3    H212112   5.691   4.225   4.915
 4050TIP3   OH212113   7.040   3.563   3.016
 4050TIP3    H112114   6.995   3.543   3.098
 4050TIP3    H212115   7.120   3.607   3.043
 4051TIP3   OH212116   6.374   4.774   4.316
 4051TIP3    H112117   6.385   4.863   4.284
 4051TIP3    H212118   6.439   4.765   4.386
 4052TIP3   OH212119   6.296   4.091   0.948
 4052TIP3    H112120   6.209   4.122   0.970
 4052TIP3    H212121   6.292   3.996   0.961
 4053TIP3   OH212122   2.707   5.986   4.649
 4053TIP3    H112123   2.709   5.947   4.737
 4053TIP3    H212124   2.623   5.958   4.612
 4054TIP3   OH212125   1.249   2.517   0.957
 4054TIP3    H112126   1.158   2.499   0.935
 4054TIP3    H212127   1.271   2.594   0.905
 4055TIP3   OH212128   6.243   2.313   0.568
 4055TIP3    H112129   6.238   2.229   0.614
 4055TIP3    H212130   6.198   2.298   0.485
 4056TIP3   OH212131   5.626   5.499   5.372
 4056TIP3    H112132   5.649   5.406   5.366
 4056TIP3    H212133   5.637   5.533   5.283
 4057TIP3   OH212134   2.415   6.093   3.413
 4057TIP3    H112135   2.450   6.019   3.364
 4057TIP3    H212136   2.345   6.128   3.358
 4058TIP3   OH212137   3.814   5.929   4.819
 4058TIP3    H112138   3.842   6.015   4.788
 4058TIP3    H212139   3.763   5.947   4.897
 4059TIP3   OH212140   6.606   5.520   0.199
 4059TIP3    H112141   6.533   5.581   0.205
 4059TIP3    H212142   6.684   5.574   0.213
 4060TIP3   OH212143   4.258   6.499   1.174
 4060TIP3    H112144   4.293   6.446   1.102
 4060TIP3    H212145   4.293   6.587   1.159
 4061TIP3   OH212146   1.004   0.943   3.981
 4061TIP3    H112147   1.062   0.937   4.057
 4061TIP3    H212148   1.018   0.861   3.933
 4062TIP3   OH212149   2.824   5.090   5.315
 4062TIP3    H112150   2.750   5.073   5.374
 4062TIP3    H212151   2.787   5.085   5.227
 4063TIP3   OH212152   0.426   3.417   1.060
 4063TIP3    H112153   0.439   3.490   1.120
 4063TIP3    H212154   0.491   3.431   0.991
 4064TIP3   OH212155   2.503   0.862   2.383
 4064TIP3    H112156   2.458   0.928   2.330
 4064TIP3    H212157   2.584   0.845   2.336
 4065TIP3   OH212158   2.660   1.758   3.689
 4065TIP3    H112159   2.599   1.825   3.719
 4065TIP3    H212160   2.667   1.697   3.762
 4066TIP3   OH212161   5.500   4.431   3.159
 4066TIP3    H112162   5.563   4.499   3.183
 4066TIP3    H212163   5.416   4.477   3.152
 4067TIP3   OH212164   2.970   2.263   0.220
 4067TIP3    H112165   2.962   2.317   0.299
 4067TIP3    H212166   3.058   2.226   0.225
 4068TIP3   OH212167   3.485   6.520   5.110
 4068TIP3    H112168   3.401   6.507   5.066
 4068TIP3    H212169   3.546   6.463   5.061
 4069TIP3   OH212170   5.992   1.921  -0.029
 4069TIP3    H112171   5.933   1.848  -0.049
 4069TIP3    H212172   6.032   1.896   0.055
 4070TIP3   OH212173   4.354   2.828   2.291
 4070TIP3    H112174   4.350   2.734   2.309
 4070TIP3    H212175   4.274   2.847   2.243
 4071TIP3   OH212176   2.342   4.505   2.727
 4071TIP3    H112177   2.363   4.464   2.811
 4071TIP3    H212178   2.262   4.554   2.744
 4072TIP3   OH212179   5.253   4.923   0.959
 4072TIP3    H112180   5.219   4.834   0.967
 4072TIP3    H212181   5.325   4.927   1.022
 4073TIP3   OH212182   4.474   6.498   1.538
 4073TIP3    H112183   4.434   6.528   1.620
 4073TIP3    H212184   4.508   6.578   1.498
 4074TIP3   OH212185   1.554   2.634   4.670
 4074TIP3    H112186   1.523   2.724   4.678
 4074TIP3    H212187   1.623   2.627   4.736
 4075TIP3   OH212188   1.091   5.550   3.897
 4075TIP3    H112189   1.041   5.625   3.931
 4075TIP3    H212190   1.049   5.529   3.814
 4076TIP3   OH212191   4.895   5.055   0.445
 4076TIP3    H112192   4.949   4.991   0.491
 4076TIP3    H212193   4.853   5.004   0.375
 4077TIP3   OH212194   1.608   1.563   3.612
 4077TIP3    H112195   1.640   1.627   3.675
 4077TIP3    H212196   1.678   1.499   3.604
 4078TIP3   OH212197   5.161   0.974   0.328
 4078TIP3    H112198   5.242   0.933   0.356
 4078TIP3    H212199   5.093   0.933   0.383
 4079TIP3   OH212200   5.580   2.123   0.652
 4079TIP3    H112201   5.484   2.115   0.656
 4079TIP3    H212202   5.597   2.213   0.680
 4080TIP3   OH212203   3.787   5.887   5.429
 4080TIP3    H112204   3.815   5.940   5.354
 4080TIP3    H212205   3.854   5.820   5.438
 4081TIP3   OH212206   6.589   6.435   5.256
 4081TIP3    H112207   6.580   6.519   5.211
 4081TIP3    H212208   6.636   6.379   5.194
 4082TIP3   OH212209   1.632   3.884   4.717
 4082TIP3    H112210   1.568   3.881   4.645
 4082TIP3    H212211   1.630   3.796   4.754
 4083TIP3   OH212212   6.054   4.741   0.246
 4083TIP3    H112213   6.126   4.741   0.182
 4083TIP3    H212214   6.014   4.827   0.237
 4084TIP3   OH212215   0.199   5.263   4.542
 4084TIP3    H112216   0.171   5.338   4.489
 4084TIP3    H212217   0.189   5.292   4.632
 4085TIP3   OH212218   5.961   5.510   0.003
 4085TIP3    H112219   5.929   5.440   0.059
 4085TIP3    H212220   6.028   5.554   0.055
 4086TIP3   OH212221   1.457   1.929   5.071
 4086TIP3    H112222   1.393   1.944   5.141
 4086TIP3    H212223   1.451   2.007   5.016
 4087TIP3   OH212224   6.465   0.938   4.405
 4087TIP3    H112225   6.385   0.890   4.425
 4087TIP3    H212226   6.439   1.030   4.403
 4088TIP3   OH212227   5.699   6.504   4.003
 4088TIP3    H112228   5.743   6.428   4.041
 4088TIP3    H212229   5.607   6.478   3.995
 4089TIP3   OH212230   6.607   3.314   1.679
 4089TIP3    H112231   6.537   3.370   1.713
 4089TIP3    H212232   6.562   3.254   1.619
 4090TIP3   OH212233   5.007   4.838   0.595
 4090TIP3    H112234   4.996   4.766   0.656
 4090TIP3    H212235   5.067   4.899   0.640
 4091TIP3   OH212236   4.396   1.486   5.823
 4091TIP3    H112237   4.364   1.500   5.733
 4091TIP3    H212238   4.347   1.548   5.876
 4092TIP3   OH212239   2.359   3.104   3.972
 4092TIP3    H112240   2.271   3.114   4.008
 4092TIP3    H212241   2.392   3.194   3.967
 4093TIP3   OH212242   1.181   6.373   3.407
 4093TIP3    H112243   1.107   6.321   3.439
 4093TIP3    H212244   1.258   6.328   3.441
 4094TIP3   OH212245   0.442   4.573   1.777
 4094TIP3    H112246   0.370   4.510   1.780
 4094TIP3    H212247   0.430   4.618   1.693
 4095TIP3   OH212248   1.283   4.929   1.025
 4095TIP3    H112249   1.223   4.857   1.047
 4095TIP3    H212250   1.310   4.964   1.110
 4096TIP3   OH212251   5.010   0.498   5.283
 4096TIP3    H112252   4.993   0.588   5.310
 4096TIP3    H212253   4.924   0.462   5.261
 4097TIP3   OH212254   5.537   5.216   5.488
 4097TIP3    H112255   5.483   5.158   5.434
 4097TIP3    H212256   5.627   5.196   5.462
 4098TIP3   OH212257   1.322   4.880   3.243
 4098TIP3    H112258   1.310   4.949   3.178
 4098TIP3    H212259   1.301   4.922   3.327
 4099TIP3   OH212260   6.317   3.228   0.153
 4099TIP3    H112261   6.411   3.215   0.136
 4099TIP3    H212262   6.281   3.251   0.067
 4100TIP3   OH212263   0.933   0.256   4.340
 4100TIP3    H112264   1.000   0.236   4.275
 4100TIP3    H212265   0.936   0.351   4.350
 4101TIP3   OH212266   1.563   0.567   2.143
 4101TIP3    H112267   1.615   0.628   2.195
 4101TIP3    H212268   1.573   0.597   2.053
 4102TIP3   OH212269   5.632   5.624   1.884
 4102TIP3    H112270   5.667   5.699   1.931
 4102TIP3    H212271   5.637   5.552   1.946
 4103TIP3   OH212272   1.065   4.427   0.750
 4103TIP3    H112273   1.102   4.339   0.748
 4103TIP3    H212274   1.133   4.481   0.788
 4104TIP3   OH212275   7.034   4.827   0.314
 4104TIP3    H112276   7.026   4.768   0.240
 4104TIP3    H212277   7.076   4.774   0.382
 4105TIP3   OH212278   6.684   1.957   2.622
 4105TIP3    H112279   6.749   1.942   2.553
 4105TIP3    H212280   6.623   1.883   2.614
 4106TIP3   OH212281   1.166   0.639   4.521
 4106TIP3    H112282   1.152   0.548   4.545
 4106TIP3    H212283   1.173   0.685   4.604
 4107TIP3   OH212284   0.147   4.406   4.730
 4107TIP3    H112285   0.184   4.451   4.654
 4107TIP3    H212286   0.183   4.452   4.805
 4108TIP3   OH212287   2.564   5.227   4.670
 4108TIP3    H112288   2.497   5.210   4.737
 4108TIP3    H212289   2.622   5.151   4.674
 4109TIP3   OH212290   6.397   6.642   5.385
 4109TIP3    H112291   6.374   6.669   5.474
 4109TIP3    H212292   6.313   6.624   5.342
 4110TIP3   OH212293   5.074   5.254   4.880
 4110TIP3    H112294   5.157   5.214   4.856
 4110TIP3    H212295   5.026   5.259   4.797
 4111TIP3   OH212296   2.643   0.741   3.175
 4111TIP3    H112297   2.653   0.780   3.088
 4111TIP3    H212298   2.557   0.770   3.205
 4112TIP3   OH212299   3.248   1.880   1.883
 4112TIP3    H112300   3.268   1.938   1.809
 4112TIP3    H212301   3.153   1.867   1.879
 4113TIP3   OH212302   5.462   0.821   5.391
 4113TIP3    H112303   5.427   0.872   5.318
 4113TIP3    H212304   5.413   0.851   5.468
 4114TIP3   OH212305   1.603   0.444   3.907
 4114TIP3    H112306   1.614   0.531   3.869
 4114TIP3    H212307   1.579   0.460   3.998
 4115TIP3   OH212308   6.312   2.918   2.715
 4115TIP3    H112309   6.320   2.823   2.714
 4115TIP3    H212310   6.230   2.935   2.762
 4116TIP3   OH212311   1.138   5.223   1.711
 4116TIP3    H112312   1.062   5.165   1.700
 4116TIP3    H212313   1.209   5.164   1.736
 4117TIP3   OH212314   1.384   5.766   0.364
 4117TIP3    H112315   1.398   5.803   0.277
 4117TIP3    H212316   1.465   5.718   0.383
 4118TIP3   OH212317   3.755   2.296   1.073
 4118TIP3    H112318   3.808   2.357   1.021
 4118TIP3    H212319   3.814   2.222   1.090
 4119TIP3   OH212320   0.281   0.334   0.755
 4119TIP3    H112321   0.272   0.420   0.796
 4119TIP3    H212322   0.319   0.351   0.669
 4120TIP3   OH212323   4.713   4.470   3.860
 4120TIP3    H112324   4.638   4.415   3.881
 4120TIP3    H212325   4.769   4.467   3.938
 4121TIP3   OH212326   3.702   1.586   3.932
 4121TIP3    H112327   3.732   1.531   4.005
 4121TIP3    H212328   3.659   1.660   3.974
 4122TIP3   OH212329   6.774   5.866   3.243
 4122TIP3    H112330   6.741   5.859   3.153
 4122TIP3    H212331   6.806   5.955   3.250
 4123TIP3   OH212332   2.463   2.771   1.208
 4123TIP3    H112333   2.409   2.836   1.253
 4123TIP3    H212334   2.534   2.822   1.169
 4124TIP3   OH212335   2.376   2.984   1.648
 4124TIP3    H112336   2.392   2.908   1.593
 4124TIP3    H212337   2.443   2.979   1.717
 4125TIP3   OH212338   4.984   1.159   1.387
 4125TIP3    H112339   4.947   1.085   1.435
 4125TIP3    H212340   5.047   1.198   1.448
 4126TIP3   OH212341   6.938   4.779   1.052
 4126TIP3    H112342   6.981   4.698   1.079
 4126TIP3    H212343   6.861   4.750   1.004
 4127TIP3   OH212344   1.479   6.130   4.212
 4127TIP3    H112345   1.489   6.056   4.272
 4127TIP3    H212346   1.543   6.194   4.244
 4128TIP3   OH212347   0.019   5.632   1.661
 4128TIP3    H112348   0.105   5.600   1.633
 4128TIP3    H212349  -0.016   5.678   1.585
 4129TIP3   OH212350   4.699   2.633   2.709
 4129TIP3    H112351   4.777   2.628   2.653
 4129TIP3    H212352   4.627   2.612   2.649
 4130TIP3   OH212353   4.539   4.184   2.607
 4130TIP3    H112354   4.515   4.196   2.515
 4130TIP3    H212355   4.632   4.163   2.604
 4131TIP3   OH212356   5.708   0.907   4.695
 4131TIP3    H112357   5.767   0.848   4.741
 4131TIP3    H212358   5.698   0.981   4.754
 4132TIP3   OH212359   4.605   6.022   2.816
 4132TIP3    H112360   4.594   6.117   2.810
 4132TIP3    H212361   4.622   5.994   2.726
 4133TIP3   OH212362   3.412   5.240   0.698
 4133TIP3    H112363   3.336   5.256   0.642
 4133TIP3    H212364   3.418   5.318   0.754
 4134TIP3   OH212365   1.257   4.444   5.092
 4134TIP3    H112366   1.198   4.378   5.054
 4134TIP3    H212367   1.329   4.449   5.029
 4135TIP3   OH212368   5.798   0.771   5.268
 4135TIP3    H112369   5.725   0.807   5.217
 4135TIP3    H212370   5.874   0.820   5.238
 4136TIP3   OH212371   5.680   3.802   2.065
 4136TIP3    H112372   5.588   3.779   2.058
 4136TIP3    H212373   5.720   3.728   2.111
 4137TIP3   OH212374   6.051   5.887   3.754
 4137TIP3    H112375   6.117   5.874   3.686
 4137TIP3    H212376   6.060   5.811   3.811
 4138TIP3   OH212377   0.226   1.763   3.053
 4138TIP3    H112378   0.237   1.856   3.035
 4138TIP3    H212379   0.177   1.730   2.977
 4139TIP3   OH212380   5.300   6.029   0.248
 4139TIP3    H112381   5.316   6.107   0.300
 4139TIP3    H212382   5.235   5.979   0.298
 4140TIP3   OH212383   3.007   3.482   3.829
 4140TIP3    H112384   3.094   3.513   3.801
 4140TIP3    H212385   2.975   3.432   3.754
 4141TIP3   OH212386   1.859   4.237   5.085
 4141TIP3    H112387   1.774   4.192   5.095
 4141TIP3    H212388   1.919   4.186   5.140
 4142TIP3   OH212389   1.027   2.565   3.169
 4142TIP3    H112390   0.992   2.609   3.245
 4142TIP3    H212391   1.121   2.558   3.186
 4143TIP3   OH212392   3.427   6.102   4.157
 4143TIP3    H112393   3.403   6.163   4.226
 4143TIP3    H212394   3.421   6.016   4.198
 4144TIP3   OH212395   4.438   5.297   4.295
 4144TIP3    H112396   4.360   5.278   4.243
 4144TIP3    H212397   4.507   5.244   4.255
 4145TIP3   OH212398   4.282   1.116   1.613
 4145TIP3    H112399   4.376   1.099   1.624
 4145TIP3    H212400   4.276   1.161   1.529
 4146TIP3   OH212401   5.794   2.536   5.475
 4146TIP3    H112402   5.724   2.540   5.540
 4146TIP3    H212403   5.822   2.444   5.475
 4147TIP3   OH212404   1.889   6.708   4.109
 4147TIP3    H112405   1.849   6.775   4.054
 4147TIP3    H212406   1.880   6.627   4.060
 4148TIP3   OH212407   4.914   5.784   4.706
 4148TIP3    H112408   4.939   5.848   4.772
 4148TIP3    H212409   4.908   5.701   4.753
 4149TIP3   OH212410   6.072   0.798   3.544
 4149TIP3    H112411   6.010   0.867   3.518
 4149TIP3    H212412   6.068   0.735   3.473
 4150TIP3   OH212413   2.959   6.264   1.412
 4150TIP3    H112414   2.992   6.231   1.328
 4150TIP3    H212415   2.884   6.319   1.388
 4151TIP3   OH212416   5.849   6.313   1.144
 4151TIP3    H112417   5.858   6.250   1.215
 4151TIP3    H212418   5.792   6.270   1.081
 4152TIP3   OH212419   2.525   1.421   4.702
 4152TIP3    H112420   2.433   1.447   4.706
 4152TIP3    H212421   2.531   1.362   4.627
 4153TIP3   OH212422   4.598   1.860   5.121
 4153TIP3    H112423   4.586   1.767   5.137
 4153TIP3    H212424   4.519   1.901   5.155
 4154TIP3   OH212425   4.675   5.627   0.610
 4154TIP3    H112426   4.632   5.689   0.551
 4154TIP3    H212427   4.626   5.545   0.597
 4155TIP3   OH212428   4.619   3.149   0.661
 4155TIP3    H112429   4.662   3.151   0.576
 4155TIP3    H212430   4.688   3.123   0.722
 4156TIP3   OH212431   5.209   0.182   4.099
 4156TIP3    H112432   5.143   0.217   4.159
 4156TIP3    H212433   5.203   0.087   4.111
 4157TIP3   OH212434   7.046   6.225   5.729
 4157TIP3    H112435   6.988   6.191   5.660
 4157TIP3    H212436   6.986   6.270   5.789
 4158TIP3   OH212437   3.299   4.979   4.441
 4158TIP3    H112438   3.267   4.909   4.384
 4158TIP3    H212439   3.315   5.053   4.382
 4159TIP3   OH212440   0.284   3.243   1.214
 4159TIP3    H112441   0.309   3.315   1.157
 4159TIP3    H212442   0.196   3.266   1.245
 4160TIP3   OH212443   6.336   3.180   4.135
 4160TIP3    H112444   6.311   3.129   4.212
 4160TIP3    H212445   6.357   3.267   4.169
 4161TIP3   OH212446   6.573   3.202   0.101
 4161TIP3    H112447   6.597   3.245   0.183
 4161TIP3    H212448   6.633   3.127   0.094
 4162TIP3   OH212449   5.161   4.675   4.701
 4162TIP3    H112450   5.206   4.748   4.744
 4162TIP3    H212451   5.229   4.608   4.692
 4163TIP3   OH212452   2.256   0.322   0.827
 4163TIP3    H112453   2.199   0.265   0.775
 4163TIP3    H212454   2.265   0.402   0.775
 4164TIP3   OH212455   7.166   0.615   4.559
 4164TIP3    H112456   7.123   0.622   4.644
 4164TIP3    H212457   7.094   0.606   4.497
 4165TIP3   OH212458   4.169   4.392   2.988
 4165TIP3    H112459   4.161   4.311   3.039
 4165TIP3    H212460   4.263   4.404   2.977
 4166TIP3   OH212461   4.931   3.380   4.743
 4166TIP3    H112462   4.969   3.300   4.708
 4166TIP3    H212463   4.988   3.450   4.711
 4167TIP3   OH212464   2.527   6.275   5.205
 4167TIP3    H112465   2.571   6.197   5.171
 4167TIP3    H212466   2.598   6.336   5.224
 4168TIP3   OH212467   0.323   1.036   3.735
 4168TIP3    H112468   0.393   1.016   3.797
 4168TIP3    H212469   0.368   1.049   3.651
 4169TIP3   OH212470   1.258   0.345   3.954
 4169TIP3    H112471   1.322   0.288   3.997
 4169TIP3    H212472   1.269   0.327   3.861
 4170TIP3   OH212473   5.531   4.553   0.543
 4170TIP3    H112474   5.574   4.634   0.514
 4170TIP3    H212475   5.576   4.484   0.495
 4171TIP3   OH212476   3.144   2.501   3.981
 4171TIP3    H112477   3.143   2.505   3.885
 4171TIP3    H212478   3.086   2.429   4.003
 4172TIP3   OH212479   6.164   1.479   0.954
 4172TIP3    H112480   6.155   1.565   0.911
 4172TIP3    H212481   6.076   1.443   0.954
 4173TIP3   OH212482   1.502   1.725   3.349
 4173TIP3    H112483   1.443   1.664   3.305
 4173TIP3    H212484   1.525   1.681   3.431
 4174TIP3   OH212485   2.275   4.000   5.521
 4174TIP3    H112486   2.334   3.951   5.578
 4174TIP3    H212487   2.261   4.083   5.566
 4175TIP3   OH212488   5.681   0.243   2.758
 4175TIP3    H112489   5.631   0.248   2.840
 4175TIP3    H212490   5.742   0.316   2.764
 4176TIP3   OH212491   1.268   3.877   1.268
 4176TIP3    H112492   1.313   3.844   1.191
 4176TIP3    H212493   1.336   3.884   1.335
 4177TIP3   OH212494   0.963   5.102   5.831
 4177TIP3    H112495   0.879   5.058   5.815
 4177TIP3    H212496   1.028   5.033   5.823
 4178TIP3   OH212497   4.335   3.801   5.395
 4178TIP3    H112498   4.316   3.890   5.424
 4178TIP3    H212499   4.317   3.801   5.301
 4179TIP3   OH212500   1.597   4.684   2.095
 4179TIP3    H112501   1.639   4.753   2.045
 4179TIP3    H212502   1.520   4.725   2.134
 4180TIP3   OH212503   1.032   6.106   0.779
 4180TIP3    H112504   0.937   6.121   0.779
 4180TIP3    H212505   1.049   6.064   0.863
 4181TIP3   OH212506   0.180   3.153   1.907
 4181TIP3    H112507   0.211   3.236   1.942
 4181TIP3    H212508   0.167   3.171   1.814
 4182TIP3   OH212509   2.692   0.974   5.540
 4182TIP3    H112510   2.775   1.008   5.507
 4182TIP3    H212511   2.655   1.046   5.591
 4183TIP3   OH212512   0.680   1.020   5.751
 4183TIP3    H112513   0.647   1.007   5.662
 4183TIP3    H212514   0.602   1.018   5.806
 4184TIP3   OH212515   0.478   2.642   0.453
 4184TIP3    H112516   0.484   2.723   0.504
 4184TIP3    H212517   0.421   2.586   0.505
 4185TIP3   OH212518   6.579   4.952   1.994
 4185TIP3    H112519   6.668   4.972   1.965
 4185TIP3    H212520   6.553   4.876   1.941
 4186TIP3   OH212521   5.308   4.891   4.758
 4186TIP3    H112522   5.335   4.972   4.802
 4186TIP3    H212523   5.387   4.860   4.715
 4187TIP3   OH212524   1.081   2.070   3.693
 4187TIP3    H112525   1.106   2.132   3.624
 4187TIP3    H212526   1.000   2.106   3.730
 4188TIP3   OH212527   6.569   0.438   2.657
 4188TIP3    H112528   6.484   0.395   2.653
 4188TIP3    H212529   6.550   0.531   2.650
 4189TIP3   OH212530   7.030   3.262   2.603
 4189TIP3    H112531   6.998   3.261   2.693
 4189TIP3    H212532   6.973   3.323   2.558
 4190TIP3   OH212533   5.894   3.352   1.009
 4190TIP3    H112534   5.871   3.430   1.058
 4190TIP3    H212535   5.878   3.279   1.069
 4191TIP3   OH212536   3.922   4.984   0.525
 4191TIP3    H112537   3.838   4.997   0.480
 4191TIP3    H212538   3.933   5.063   0.577
 4192TIP3   OH212539   4.659   5.404   0.104
 4192TIP3    H112540   4.753   5.422   0.095
 4192TIP3    H212541   4.655   5.318   0.145
 4193TIP3   OH212542   4.049   1.809   5.600
 4193TIP3    H112543   4.124   1.816   5.659
 4193TIP3    H212544   3.987   1.875   5.631
 4194TIP3   OH212545   5.523   6.377   3.437
 4194TIP3    H112546   5.568   6.442   3.490
 4194TIP3    H212547   5.430   6.392   3.454
 4195TIP3   OH212548   6.712   3.962   4.567
 4195TIP3    H112549   6.724   4.049   4.529
 4195TIP3    H212550   6.617   3.952   4.575
 4196TIP3   OH212551   6.445   1.597   3.536
 4196TIP3    H112552   6.397   1.637   3.464
 4196TIP3    H212553   6.422   1.650   3.613
 4197TIP3   OH212554   3.862   4.549   4.346
 4197TIP3    H112555   3.829   4.501   4.270
 4197TIP3    H212556   3.789   4.604   4.374
 4198TIP3   OH212557   7.210   4.325   3.631
 4198TIP3    H112558   7.198   4.299   3.722
 4198TIP3    H212559   7.123   4.357   3.604
 4199TIP3   OH212560   2.552   5.261   2.011
 4199TIP3    H112561   2.635   5.216   2.027
 4199TIP3    H212562   2.532   5.241   1.919
 4200TIP3   OH212563   1.468   2.258   2.631
 4200TIP3    H112564   1.383   2.302   2.628
 4200TIP3    H212565   1.513   2.285   2.551
 4201TIP3   OH212566   6.940   0.055   3.803
 4201TIP3    H112567   6.882  -0.021   3.809
 4201TIP3    H212568   6.968   0.071   3.893
 4202TIP3   OH212569   4.929   5.919   5.227
 4202TIP3    H112570   5.008   5.972   5.235
 4202TIP3    H212571   4.934   5.858   5.301
 4203TIP3   OH212572   6.987   2.465   2.219
 4203TIP3    H112573   7.078   2.468   2.191
 4203TIP3    H212574   6.982   2.526   2.292
 4204TIP3   OH212575   4.617   2.861   2.532
 4204TIP3    H112576   4.546   2.885   2.591
 4204TIP3    H212577   4.586   2.780   2.489
 4205TIP3   OH212578   3.074   1.800   4.769
 4205TIP3    H112579   2.984   1.770   4.785
 4205TIP3    H212580   3.063   1.888   4.732
 4206TIP3   OH212581   1.752   1.401   2.806
 4206TIP3    H112582   1.666   1.399   2.765
 4206TIP3    H212583   1.737   1.437   2.894
 4207TIP3   OH212584   5.486   1.666   0.347
 4207TIP3    H112585   5.482   1.753   0.388
 4207TIP3    H212586   5.434   1.610   0.405
 4208TIP3   OH212587   5.096   3.162   0.952
 4208TIP3    H112588   5.082   3.080   0.904
 4208TIP3    H212589   5.083   3.139   1.044
 4209TIP3   OH212590   3.151   6.232   3.624
 4209TIP3    H112591   3.105   6.184   3.694
 4209TIP3    H212592   3.228   6.268   3.667
 4210TIP3   OH212593   2.525   5.095   2.560
 4210TIP3    H112594   2.581   5.018   2.574
 4210TIP3    H212595   2.442   5.059   2.529
 4211TIP3   OH212596   5.171   2.810   2.481
 4211TIP3    H112597   5.162   2.878   2.548
 4211TIP3    H212598   5.259   2.775   2.495
 4212TIP3   OH212599   3.782   5.862   1.461
 4212TIP3    H112600   3.703   5.815   1.433
 4212TIP3    H212601   3.801   5.827   1.548
 4213TIP3   OH212602   3.801   0.184   4.160
 4213TIP3    H112603   3.751   0.195   4.241
 4213TIP3    H212604   3.785   0.265   4.111
 4214TIP3   OH212605   0.403   5.415   1.026
 4214TIP3    H112606   0.405   5.327   0.987
 4214TIP3    H212607   0.338   5.408   1.096
 4215TIP3   OH212608   3.480   3.649   0.709
 4215TIP3    H112609   3.412   3.628   0.774
 4215TIP3    H212610   3.534   3.716   0.751
 4216TIP3   OH212611   2.119   6.634   5.109
 4216TIP3    H112612   2.201   6.636   5.059
 4216TIP3    H212613   2.051   6.618   5.044
 4217TIP3   OH212614   3.237   3.264   3.826
 4217TIP3    H112615   3.293   3.288   3.900
 4217TIP3    H212616   3.233   3.344   3.773
 4218TIP3   OH212617   1.826   4.655   3.488
 4218TIP3    H112618   1.844   4.565   3.461
 4218TIP3    H212619   1.873   4.664   3.571
 4219TIP3   OH212620   6.522   4.448   4.755
 4219TIP3    H112621   6.515   4.470   4.662
 4219TIP3    H212622   6.452   4.385   4.770
 4220TIP3   OH212623   3.046   3.052   1.428
 4220TIP3    H112624   3.138   3.028   1.419
 4220TIP3    H212625   3.008   2.985   1.484
 4221TIP3   OH212626   4.613   6.613   2.277
 4221TIP3    H112627   4.566   6.673   2.336
 4221TIP3    H212628   4.552   6.540   2.264
 4222TIP3   OH212629   2.888   0.157   4.714
 4222TIP3    H112630   2.983   0.168   4.720
 4222TIP3    H212631   2.864   0.203   4.634
 4223TIP3   OH212632   2.879   1.340   0.544
 4223TIP3    H112633   2.798   1.388   0.528
 4223TIP3    H212634   2.851   1.251   0.562
 4224TIP3   OH212635   4.281   0.466   0.595
 4224TIP3    H112636   4.335   0.514   0.532
 4224TIP3    H212637   4.239   0.534   0.647
 4225TIP3   OH212638   1.796   3.331   4.867
 4225TIP3    H112639   1.733   3.299   4.802
 4225TIP3    H212640   1.789   3.426   4.863
 4226TIP3   OH212641   0.449   1.649   1.321
 4226TIP3    H112642   0.456   1.729   1.373
 4226TIP3    H212643   0.444   1.578   1.385
 4227TIP3   OH212644   5.469   1.521   1.936
 4227TIP3    H112645   5.533   1.592   1.931
 4227TIP3    H212646   5.521   1.442   1.945
 4228TIP3   OH212647   2.552   2.196   0.941
 4228TIP3    H112648   2.461   2.221   0.925
 4228TIP3    H212649   2.558   2.105   0.911
 4229TIP3   OH212650   1.052   2.341   4.191
 4229TIP3    H112651   0.964   2.330   4.228
 4229TIP3    H212652   1.111   2.321   4.263
 4230TIP3   OH212653   4.568   4.285   1.270
 4230TIP3    H112654   4.481   4.310   1.240
 4230TIP3    H212655   4.581   4.196   1.237
 4231TIP3   OH212656   1.027   5.927   5.393
 4231TIP3    H112657   1.031   5.841   5.434
 4231TIP3    H212658   0.934   5.939   5.373
 4232TIP3   OH212659   0.680   4.812   2.463
 4232TIP3    H112660   0.631   4.859   2.396
 4232TIP3    H212661   0.672   4.720   2.438
 4233TIP3   OH212662   6.452   4.037   1.604
 4233TIP3    H112663   6.446   4.047   1.699
 4233TIP3    H212664   6.453   3.942   1.590
 4234TIP3   OH212665   7.013   5.950   2.947
 4234TIP3    H112666   6.987   5.862   2.975
 4234TIP3    H212667   7.066   5.935   2.868
 4235TIP3   OH212668   4.239   5.913   0.351
 4235TIP3    H112669   4.282   5.999   0.348
 4235TIP3    H212670   4.179   5.920   0.425
 4236TIP3   OH212671   1.329   6.715   3.113
 4236TIP3    H112672   1.298   6.699   3.202
 4236TIP3    H212673   1.419   6.682   3.112
 4237TIP3   OH212674   1.954   1.076   4.425
 4237TIP3    H112675   1.877   1.025   4.449
 4237TIP3    H212676   1.922   1.138   4.360
 4238TIP3   OH212677   3.350   2.647   5.335
 4238TIP3    H112678   3.372   2.726   5.286
 4238TIP3    H212679   3.373   2.575   5.276
 4239TIP3   OH212680   7.094   2.569   5.363
 4239TIP3    H112681   7.162   2.575   5.431
 4239TIP3    H212682   7.140   2.590   5.282
 4240TIP3   OH212683   0.416   0.100   3.880
 4240TIP3    H112684   0.457   0.013   3.881
 4240TIP3    H212685   0.463   0.149   3.948
 4241TIP3   OH212686   4.936   3.740   0.362
 4241TIP3    H112687   5.027   3.716   0.379
 4241TIP3    H212688   4.887   3.701   0.435
 4242TIP3   OH212689   5.697   0.620   0.125
 4242TIP3    H112690   5.752   0.688   0.162
 4242TIP3    H212691   5.685   0.556   0.196
 4243TIP3   OH212692   4.959   3.507   4.997
 4243TIP3    H112693   4.874   3.545   5.018
 4243TIP3    H212694   4.955   3.489   4.903
 4244TIP3   OH212695   4.682   3.800   1.971
 4244TIP3    H112696   4.624   3.743   1.921
 4244TIP3    H212697   4.712   3.865   1.908
 4245TIP3   OH212698   6.879   3.868   3.498
 4245TIP3    H112699   6.901   3.900   3.410
 4245TIP3    H212700   6.962   3.832   3.531
 4246TIP3   OH212701   6.576   2.850   0.085
 4246TIP3    H112702   6.506   2.863   0.150
 4246TIP3    H212703   6.641   2.917   0.106
 4247TIP3   OH212704   4.436   2.540   3.018
 4247TIP3    H112705   4.400   2.567   2.934
 4247TIP3    H212706   4.376   2.578   3.083
 4248TIP3   OH212707   4.232   0.657   0.886
 4248TIP3    H112708   4.140   0.630   0.882
 4248TIP3    H212709   4.250   0.668   0.979
 4249TIP3   OH212710   1.490   6.606   0.644
 4249TIP3    H112711   1.447   6.551   0.578
 4249TIP3    H212712   1.451   6.692   0.632
 4250TIP3   OH212713   1.876   6.181   2.554
 4250TIP3    H112714   1.965   6.158   2.528
 4250TIP3    H212715   1.855   6.259   2.501
 4251TIP3   OH212716   7.023   0.187   4.047
 4251TIP3    H112717   6.979   0.226   4.122
 4251TIP3    H212718   7.026   0.256   3.981
 4252TIP3   OH212719   0.109   2.096   4.243
 4252TIP3    H112720   0.018   2.083   4.269
 4252TIP3    H212721   0.118   2.191   4.234
 4253TIP3   OH212722   6.412   0.286   2.402
 4253TIP3    H112723   6.364   0.326   2.475
 4253TIP3    H212724   6.444   0.360   2.351
 4254TIP3   OH212725   3.932   1.935   5.215
 4254TIP3    H112726   3.904   1.847   5.242
 4254TIP3    H212727   3.871   1.994   5.260
 4255TIP3   OH212728   7.145   5.095   4.786
 4255TIP3    H112729   7.147   5.178   4.737
 4255TIP3    H212730   7.083   5.111   4.857
 4256TIP3   OH212731   2.712   3.317   0.570
 4256TIP3    H112732   2.755   3.333   0.486
 4256TIP3    H212733   2.781   3.283   0.626
 4257TIP3   OH212734   2.156   0.418   5.183
 4257TIP3    H112735   2.167   0.508   5.154
 4257TIP3    H212736   2.063   0.399   5.170
 4258TIP3   OH212737   6.315   1.424   5.851
 4258TIP3    H112738   6.407   1.422   5.877
 4258TIP3    H212739   6.278   1.343   5.884
 4259TIP3   OH212740   1.690   6.546   0.341
 4259TIP3    H112741   1.753   6.542   0.269
 4259TIP3    H212742   1.732   6.499   0.413
 4260TIP3   OH212743   1.517   1.582   2.654
 4260TIP3    H112744   1.454   1.609   2.720
 4260TIP3    H212745   1.534   1.661   2.603
 4261TIP3   OH212746   3.675   5.767   4.641
 4261TIP3    H112747   3.584   5.777   4.669
 4261TIP3    H212748   3.725   5.819   4.704
 4262TIP3   OH212749   0.871   3.512   3.444
 4262TIP3    H112750   0.947   3.559   3.479
 4262TIP3    H212751   0.835   3.466   3.520
 4263TIP3   OH212752   0.693   1.064   2.039
 4263TIP3    H112753   0.663   1.116   1.965
 4263TIP3    H212754   0.630   1.083   2.109
 4264TIP3   OH212755   5.425   2.755   2.208
 4264TIP3    H112756   5.339   2.712   2.206
 4264TIP3    H212757   5.440   2.783   2.118
 4265TIP3   OH212758   0.720   3.929   4.515
 4265TIP3    H112759   0.729   4.023   4.532
 4265TIP3    H212760   0.798   3.890   4.555
 4266TIP3   OH212761   0.834   4.172   5.786
 4266TIP3    H112762   0.859   4.142   5.873
 4266TIP3    H212763   0.910   4.222   5.755
 4267TIP3   OH212764   2.529   5.876   5.287
 4267TIP3    H112765   2.560   5.907   5.202
 4267TIP3    H212766   2.581   5.925   5.351
 4268TIP3   OH212767   2.537   2.585   1.033
 4268TIP3    H112768   2.628   2.602   1.056
 4268TIP3    H212769   2.487   2.645   1.087
 4269TIP3   OH212770   2.372   5.267   1.313
 4269TIP3    H112771   2.432   5.193   1.325
 4269TIP3    H212772   2.320   5.244   1.236
 4270TIP3   OH212773   5.580   3.793   3.620
 4270TIP3    H112774   5.587   3.885   3.648
 4270TIP3    H212775   5.662   3.754   3.647
 4271TIP3   OH212776   4.627   6.620   2.621
 4271TIP3    H112777   4.608   6.704   2.662
 4271TIP3    H212778   4.545   6.595   2.579
 4272TIP3   OH212779   7.112   3.009   2.551
 4272TIP3    H112780   7.081   3.098   2.567
 4272TIP3    H212781   7.143   3.009   2.460
 4273TIP3   OH212782   4.735   2.015   4.263
 4273TIP3    H112783   4.790   1.945   4.228
 4273TIP3    H212784   4.660   1.970   4.300
 4274TIP3   OH212785   2.632   0.508   5.808
 4274TIP3    H112786   2.565   0.463   5.858
 4274TIP3    H212787   2.584   0.574   5.757
 4275TIP3   OH212788   2.843   6.314   3.131
 4275TIP3    H112789   2.771   6.375   3.148
 4275TIP3    H212790   2.803   6.227   3.137
 4276TIP3   OH212791   0.766   1.316   5.375
 4276TIP3    H112792   0.821   1.265   5.434
 4276TIP3    H212793   0.720   1.377   5.433
 4277TIP3   OH212794   7.187   6.685   3.465
 4277TIP3    H112795   7.171   6.762   3.520
 4277TIP3    H212796   7.179   6.718   3.375
 4278TIP3   OH212797   6.252   2.643   2.933
 4278TIP3    H112798   6.211   2.685   3.009
 4278TIP3    H212799   6.345   2.639   2.955
 4279TIP3   OH212800   2.460   4.712   4.502
 4279TIP3    H112801   2.379   4.687   4.546
 4279TIP3    H212802   2.441   4.706   4.409
 4280TIP3   OH212803   5.275   0.951   2.686
 4280TIP3    H112804   5.291   0.935   2.594
 4280TIP3    H212805   5.187   0.916   2.702
 4281TIP3   OH212806   4.978   2.447   1.349
 4281TIP3    H112807   4.917   2.374   1.352
 4281TIP3    H212808   4.923   2.525   1.336
 4282TIP3   OH212809   2.841   3.939   5.095
 4282TIP3    H112810   2.779   3.948   5.023
 4282TIP3    H212811   2.845   3.845   5.112
 4283TIP3   OH212812   0.241   5.625   4.919
 4283TIP3    H112813   0.195   5.672   4.988
 4283TIP3    H212814   0.318   5.588   4.962
 4284TIP3   OH212815   4.576   4.485   2.346
 4284TIP3    H112816   4.523   4.479   2.266
 4284TIP3    H212817   4.512   4.480   2.417
 4285TIP3   OH212818   0.636   2.880   5.443
 4285TIP3    H112819   0.731   2.886   5.436
 4285TIP3    H212820   0.604   2.923   5.363
 4286TIP3   OH212821   5.767   5.556   2.304
 4286TIP3    H112822   5.725   5.477   2.338
 4286TIP3    H212823   5.801   5.530   2.218
 4287TIP3   OH212824   3.684   3.448   2.425
 4287TIP3    H112825   3.645   3.533   2.403
 4287TIP3    H212826   3.747   3.432   2.355
 4288TIP3   OH212827   1.703   0.590   1.186
 4288TIP3    H112828   1.631   0.564   1.245
 4288TIP3    H212829   1.742   0.666   1.229
 4289TIP3   OH212830   3.677   2.831   2.336
 4289TIP3    H112831   3.761   2.877   2.338
 4289TIP3    H212832   3.659   2.811   2.428
 4290TIP3   OH212833   7.151   4.569   0.422
 4290TIP3    H112834   7.122   4.499   0.364
 4290TIP3    H212835   7.239   4.592   0.391
 4291TIP3   OH212836   4.384   2.353   4.600
 4291TIP3    H112837   4.335   2.408   4.539
 4291TIP3    H212838   4.377   2.398   4.684
 4292TIP3   OH212839   0.558   5.820   2.757
 4292TIP3    H112840   0.651   5.801   2.760
 4292TIP3    H212841   0.537   5.825   2.664
 4293TIP3   OH212842   3.724   3.706   3.449
 4293TIP3    H112843   3.752   3.641   3.514
 4293TIP3    H212844   3.713   3.655   3.369
 4294TIP3   OH212845   6.732   3.976   4.887
 4294TIP3    H112846   6.742   3.996   4.980
 4294TIP3    H212847   6.659   4.031   4.858
 4295TIP3   OH212848   4.727   0.764   2.454
 4295TIP3    H112849   4.739   0.713   2.535
 4295TIP3    H212850   4.707   0.699   2.387
 4296TIP3   OH212851   3.698   6.222   1.860
 4296TIP3    H112852   3.719   6.310   1.829
 4296TIP3    H212853   3.618   6.198   1.814
 4297TIP3   OH212854   4.880   6.237   1.865
 4297TIP3    H112855   4.948   6.283   1.913
 4297TIP3    H212856   4.927   6.185   1.800
 4298TIP3   OH212857   2.017   4.901   1.141
 4298TIP3    H112858   1.927   4.898   1.109
 4298TIP3    H212859   2.043   4.993   1.129
 4299TIP3   OH212860   1.841   4.684   1.208
 4299TIP3    H112861   1.775   4.740   1.168
 4299TIP3    H212862   1.866   4.623   1.139
 4300TIP3   OH212863   0.384   2.464   3.576
 4300TIP3    H112864   0.386   2.548   3.532
 4300TIP3    H212865   0.378   2.399   3.506
 4301TIP3   OH212866   5.239   5.203   4.602
 4301TIP3    H112867   5.190   5.284   4.612
 4301TIP3    H212868   5.178   5.143   4.559
 4302TIP3   OH212869   6.097   1.749   2.880
 4302TIP3    H112870   6.106   1.821   2.818
 4302TIP3    H212871   6.086   1.792   2.965
 4303TIP3   OH212872   3.045   1.699   1.937
 4303TIP3    H112873   2.973   1.753   1.969
 4303TIP3    H212874   3.009   1.654   1.861
 4304TIP3   OH212875   3.974   3.346   0.225
 4304TIP3    H112876   3.882   3.340   0.200
 4304TIP3    H212877   4.000   3.435   0.201
 4305TIP3   OH212878   1.270   3.105   1.117
 4305TIP3    H112879   1.331   3.038   1.149
 4305TIP3    H212880   1.301   3.126   1.029
 4306TIP3   OH212881   3.409   0.566   3.354
 4306TIP3    H112882   3.400   0.654   3.391
 4306TIP3    H212883   3.453   0.516   3.422
 4307TIP3   OH212884   0.943   0.078   2.961
 4307TIP3    H112885   0.925  -0.006   3.003
 4307TIP3    H212886   0.890   0.141   3.011
 4308TIP3   OH212887   6.740   2.385   3.943
 4308TIP3    H112888   6.719   2.414   4.032
 4308TIP3    H212889   6.664   2.334   3.916
 4309TIP3   OH212890   3.781   3.475   2.121
 4309TIP3    H112891   3.862   3.423   2.121
 4309TIP3    H212892   3.750   3.472   2.031
 4310TIP3   OH212893   3.812   4.095   5.523
 4310TIP3    H112894   3.899   4.119   5.554
 4310TIP3    H212895   3.753   4.162   5.559
 4311TIP3   OH212896   0.218   4.190   5.641
 4311TIP3    H112897   0.280   4.129   5.599
 4311TIP3    H212898   0.195   4.251   5.572
 4312TIP3   OH212899   1.873   0.148   0.363
 4312TIP3    H112900   1.821   0.123   0.287
 4312TIP3    H212901   1.848   0.084   0.430
 4313TIP3   OH212902   5.148   1.284   4.375
 4313TIP3    H112903   5.240   1.266   4.396
 4313TIP3    H212904   5.121   1.209   4.322
 4314TIP3   OH212905   6.758   0.732   4.953
 4314TIP3    H112906   6.783   0.670   4.884
 4314TIP3    H212907   6.662   0.725   4.957
 4315TIP3   OH212908   6.329   0.199   4.916
 4315TIP3    H112909   6.397   0.132   4.926
 4315TIP3    H212910   6.256   0.152   4.874
 4316TIP3   OH212911   2.612   4.663   3.742
 4316TIP3    H112912   2.597   4.653   3.836
 4316TIP3    H212913   2.631   4.756   3.730
 4317TIP3   OH212914   0.557   2.290   5.253
 4317TIP3    H112915   0.595   2.203   5.261
 4317TIP3    H212916   0.492   2.295   5.322
 4318TIP3   OH212917   7.102   4.459   5.621
 4318TIP3    H112918   7.059   4.436   5.539
 4318TIP3    H212919   7.031   4.467   5.685
 4319TIP3   OH212920   5.382   4.414   2.083
 4319TIP3    H112921   5.390   4.470   2.006
 4319TIP3    H212922   5.442   4.341   2.066
 4320TIP3   OH212923   2.876   1.279   2.135
 4320TIP3    H112924   2.928   1.199   2.145
 4320TIP3    H212925   2.821   1.262   2.059
 4321TIP3   OH212926   4.084   5.102   4.391
 4321TIP3    H112927   4.087   5.076   4.299
 4321TIP3    H212928   3.998   5.142   4.402
 4322TIP3   OH212929   1.189   3.784   2.510
 4322TIP3    H112930   1.106   3.736   2.514
 4322TIP3    H212931   1.255   3.717   2.497
 4323TIP3   OH212932   3.917   2.396   2.065
 4323TIP3    H112933   3.846   2.375   2.005
 4323TIP3    H212934   3.955   2.477   2.030
 4324TIP3   OH212935   2.367   6.271   1.241
 4324TIP3    H112936   2.363   6.346   1.299
 4324TIP3    H212937   2.351   6.306   1.154
 4325TIP3   OH212938   4.816   3.976   5.417
 4325TIP3    H112939   4.793   4.065   5.444
 4325TIP3    H212940   4.870   3.987   5.339
 4326TIP3   OH212941   4.040   2.499   0.196
 4326TIP3    H112942   4.032   2.550   0.276
 4326TIP3    H212943   4.024   2.562   0.126
 4327TIP3   OH212944   4.943   3.554   1.292
 4327TIP3    H112945   4.934   3.536   1.198
 4327TIP3    H212946   4.904   3.478   1.335
 4328TIP3   OH212947   3.130   2.982   5.570
 4328TIP3    H112948   3.100   2.946   5.653
 4328TIP3    H212949   3.125   2.909   5.509
 4329TIP3   OH212950   2.388   6.264   2.597
 4329TIP3    H112951   2.442   6.293   2.671
 4329TIP3    H212952   2.309   6.318   2.602
 4330TIP3   OH212953   0.817   4.831   5.135
 4330TIP3    H112954   0.883   4.764   5.121
 4330TIP3    H212955   0.768   4.834   5.053
 4331TIP3   OH212956   0.287   5.458   0.561
 4331TIP3    H112957   0.205   5.464   0.608
 4331TIP3    H212958   0.335   5.537   0.584
 4332TIP3   OH212959   2.745   0.710   2.726
 4332TIP3    H112960   2.741   0.779   2.792
 4332TIP3    H212961   2.737   0.629   2.776
 4333TIP3   OH212962   0.369   0.225   0.330
 4333TIP3    H112963   0.452   0.247   0.286
 4333TIP3    H212964   0.332   0.155   0.277
 4334TIP3   OH212965   2.217   0.078   5.479
 4334TIP3    H112966   2.200   0.001   5.533
 4334TIP3    H212967   2.305   0.065   5.445
 4335TIP3   OH212968   3.428   5.321   1.896
 4335TIP3    H112969   3.489   5.363   1.836
 4335TIP3    H212970   3.394   5.392   1.950
 4336TIP3   OH212971   4.484   1.986   0.340
 4336TIP3    H112972   4.418   2.036   0.389
 4336TIP3    H212973   4.435   1.911   0.305
 4337TIP3   OH212974   2.814   3.593   4.181
 4337TIP3    H112975   2.773   3.564   4.099
 4337TIP3    H212976   2.859   3.674   4.157
 4338TIP3   OH212977   6.956   3.661   2.748
 4338TIP3    H112978   6.980   3.625   2.834
 4338TIP3    H212979   6.987   3.751   2.750
 4339TIP3   OH212980   0.470   0.866   1.900
 4339TIP3    H112981   0.443   0.795   1.958
 4339TIP3    H212982   0.565   0.872   1.911
 4340TIP3   OH212983   4.120   2.411   5.208
 4340TIP3    H112984   4.169   2.385   5.286
 4340TIP3    H212985   4.139   2.505   5.198
 4341TIP3   OH212986   4.216   0.682   2.376
 4341TIP3    H112987   4.286   0.660   2.314
 4341TIP3    H212988   4.257   0.675   2.462
 4342TIP3   OH212989   2.347   3.662   2.314
 4342TIP3    H112990   2.304   3.602   2.376
 4342TIP3    H212991   2.347   3.615   2.231
 4343TIP3   OH212992   6.448   3.916   3.305
 4343TIP3    H112993   6.420   3.865   3.229
 4343TIP3    H212994   6.403   3.875   3.379
 4344TIP3   OH212995   6.790   6.746   5.837
 4344TIP3    H112996   6.751   6.829   5.808
 4344TIP3    H212997   6.742   6.725   5.918
 4345TIP3   OH212998   0.134   1.927   1.388
 4345TIP3    H112999   0.139   1.875   1.307
 4345TIP3    H213000   0.045   1.913   1.420
 4346TIP3   OH213001   0.888   0.239   0.065
 4346TIP3    H113002   0.853   0.260   0.151
 4346TIP3    H213003   0.914   0.324   0.028
 4347TIP3   OH213004   5.965   4.801   1.774
 4347TIP3    H113005   5.947   4.769   1.685
 4347TIP3    H213006   5.969   4.722   1.828
 4348TIP3   OH213007   4.431   2.144   1.591
 4348TIP3    H113008   4.423   2.052   1.566
 4348TIP3    H213009   4.404   2.146   1.683
 4349TIP3   OH213010   0.235   1.626   5.719
 4349TIP3    H113011   0.298   1.610   5.648
 4349TIP3    H213012   0.289   1.654   5.793
 4350TIP3   OH213013   3.431   2.343   4.557
 4350TIP3    H113014   3.510   2.313   4.513
 4350TIP3    H213015   3.434   2.438   4.549
 4351TIP3   OH213016   1.391   0.093   2.546
 4351TIP3    H113017   1.482   0.096   2.519
 4351TIP3    H213018   1.394   0.074   2.640
 4352TIP3   OH213019   0.293   0.740   0.412
 4352TIP3    H113020   0.317   0.655   0.451
 4352TIP3    H213021   0.295   0.801   0.485
 4353TIP3   OH213022   6.564   3.773   0.813
 4353TIP3    H113023   6.488   3.717   0.796
 4353TIP3    H213024   6.621   3.759   0.737
 4354TIP3   OH213025   4.154   5.430   0.268
 4354TIP3    H113026   4.198   5.350   0.240
 4354TIP3    H213027   4.070   5.400   0.303
 4355TIP3   OH213028   6.522   5.237   4.279
 4355TIP3    H113029   6.446   5.293   4.291
 4355TIP3    H213030   6.516   5.207   4.188
 4356TIP3   OH213031   6.972   2.539   4.205
 4356TIP3    H113032   6.878   2.522   4.194
 4356TIP3    H213033   6.980   2.634   4.195
 4357TIP3   OH213034   7.148   1.002   4.190
 4357TIP3    H113035   7.242   0.992   4.174
 4357TIP3    H213036   7.107   0.958   4.115
 4358TIP3   OH213037   4.973   6.065   2.484
 4358TIP3    H113038   4.879   6.058   2.499
 4358TIP3    H213039   5.013   6.027   2.562
 4359TIP3   OH213040   5.607   6.721   0.647
 4359TIP3    H113041   5.522   6.724   0.603
 4359TIP3    H213042   5.594   6.770   0.728
 4360TIP3   OH213043   1.949   4.068   2.157
 4360TIP3    H113044   2.035   4.111   2.162
 4360TIP3    H213045   1.969   3.975   2.170
 4361TIP3   OH213046   2.365   1.764   1.700
 4361TIP3    H113047   2.329   1.839   1.746
 4361TIP3    H213048   2.308   1.754   1.623
 4362TIP3   OH213049   4.538   3.893   1.431
 4362TIP3    H113050   4.491   3.955   1.487
 4362TIP3    H213051   4.547   3.938   1.347
 4363TIP3   OH213052   1.825   4.540   5.070
 4363TIP3    H113053   1.789   4.455   5.043
 4363TIP3    H213054   1.756   4.580   5.122
 4364TIP3   OH213055   3.943   5.257   1.722
 4364TIP3    H113056   4.007   5.197   1.684
 4364TIP3    H213057   3.878   5.200   1.763
 4365TIP3   OH213058   2.099   3.850   3.882
 4365TIP3    H113059   2.141   3.933   3.905
 4365TIP3    H213060   2.013   3.854   3.924
 4366TIP3   OH213061   5.438   2.006   1.287
 4366TIP3    H113062   5.438   2.070   1.358
 4366TIP3    H213063   5.390   1.931   1.322
 4367TIP3   OH213064   4.810   1.749   5.731
 4367TIP3    H113065   4.779   1.667   5.693
 4367TIP3    H213066   4.740   1.812   5.712
 4368TIP3   OH213067   6.015   5.150   2.416
 4368TIP3    H113068   6.038   5.073   2.364
 4368TIP3    H213069   5.954   5.199   2.360
 4369TIP3   OH213070   2.502   6.452   3.726
 4369TIP3    H113071   2.554   6.526   3.695
 4369TIP3    H213072   2.536   6.377   3.676
 4370TIP3   OH213073   4.978   6.756   1.118
 4370TIP3    H113074   4.893   6.793   1.096
 4370TIP3    H213075   5.017   6.819   1.179
 4371TIP3   OH213076   1.588   5.143   0.777
 4371TIP3    H113077   1.558   5.155   0.687
 4371TIP3    H213078   1.649   5.070   0.772
 4372TIP3   OH213079   3.330   4.334   2.994
 4372TIP3    H113080   3.324   4.269   2.924
 4372TIP3    H213081   3.263   4.398   2.973
 4373TIP3   OH213082   0.233   5.905   0.793
 4373TIP3    H113083   0.203   5.994   0.814
 4373TIP3    H213084   0.176   5.848   0.845
 4374TIP3   OH213085   6.048   2.493   1.003
 4374TIP3    H113086   6.051   2.511   0.909
 4374TIP3    H213087   6.000   2.411   1.011
 4375TIP3   OH213088   6.132   3.764   0.673
 4375TIP3    H113089   6.224   3.743   0.661
 4375TIP3    H213090   6.093   3.684   0.708
 4376TIP3   OH213091   6.345   1.388   0.469
 4376TIP3    H113092   6.414   1.416   0.409
 4376TIP3    H213093   6.341   1.293   0.459
 4377TIP3   OH213094   5.441   3.593   1.985
 4377TIP3    H113095   5.446   3.583   2.080
 4377TIP3    H213096   5.348   3.601   1.966
 4378TIP3   OH213097   0.867   3.649   2.742
 4378TIP3    H113098   0.835   3.580   2.800
 4378TIP3    H213099   0.801   3.718   2.749
 4379TIP3   OH213100   5.418   2.791   3.982
 4379TIP3    H113101   5.443   2.845   4.057
 4379TIP3    H213102   5.501   2.763   3.944
 4380TIP3   OH213103   3.549   0.799   1.862
 4380TIP3    H113104   3.474   0.854   1.839
 4380TIP3    H213105   3.594   0.847   1.931
 4381TIP3   OH213106   6.041   0.383   5.412
 4381TIP3    H113107   6.014   0.317   5.475
 4381TIP3    H213108   5.960   0.425   5.384
 4382TIP3   OH213109   1.373   1.891   1.944
 4382TIP3    H113110   1.346   1.819   1.887
 4382TIP3    H213111   1.430   1.850   2.009
 4383TIP3   OH213112   0.396   1.620   4.860
 4383TIP3    H113113   0.329   1.570   4.813
 4383TIP3    H213114   0.437   1.675   4.793
 4384TIP3   OH213115   0.856   3.968   3.386
 4384TIP3    H113116   0.829   3.966   3.478
 4384TIP3    H213117   0.946   3.936   3.387
 4385TIP3   OH213118   6.739   4.645   0.913
 4385TIP3    H113119   6.674   4.617   0.977
 4385TIP3    H213120   6.792   4.567   0.897
 4386TIP3   OH213121   4.274   6.517   0.810
 4386TIP3    H113122   4.370   6.513   0.816
 4386TIP3    H213123   4.256   6.610   0.795
 4387TIP3   OH213124   7.207   4.950   2.810
 4387TIP3    H113125   7.250   4.888   2.869
 4387TIP3    H213126   7.172   5.018   2.868
 4388TIP3   OH213127   6.619   4.542   2.025
 4388TIP3    H113128   6.581   4.603   1.961
 4388TIP3    H213129   6.565   4.555   2.103
 4389TIP3   OH213130   0.804   2.022   0.000
 4389TIP3    H113131   0.840   2.029   0.089
 4389TIP3    H213132   0.713   1.995   0.014
 4390TIP3   OH213133   5.594   0.816   1.352
 4390TIP3    H113134   5.649   0.892   1.370
 4390TIP3    H213135   5.539   0.842   1.278
 4391TIP3   OH213136   0.552   1.615   2.700
 4391TIP3    H113137   0.616   1.544   2.696
 4391TIP3    H213138   0.526   1.617   2.792
 4392TIP3   OH213139   2.649   2.528   2.610
 4392TIP3    H113140   2.715   2.543   2.542
 4392TIP3    H213141   2.604   2.612   2.618
 4393TIP3   OH213142   3.375   6.193   1.381
 4393TIP3    H113143   3.317   6.121   1.406
 4393TIP3    H213144   3.456   6.149   1.355
 4394TIP3   OH213145   4.862   0.251   5.244
 4394TIP3    H113146   4.779   0.277   5.206
 4394TIP3    H213147   4.858   0.283   5.335
 4395TIP3   OH213148   6.275   0.545   2.082
 4395TIP3    H113149   6.302   0.482   2.149
 4395TIP3    H213150   6.287   0.631   2.125
 4396TIP3   OH213151   6.503   0.811   0.773
 4396TIP3    H113152   6.524   0.802   0.866
 4396TIP3    H213153   6.408   0.794   0.769
 4397TIP3   OH213154   4.095   0.598   4.472
 4397TIP3    H113155   4.019   0.621   4.525
 4397TIP3    H213156   4.070   0.621   4.383
 4398TIP3   OH213157   1.628   3.970   0.376
 4398TIP3    H113158   1.648   3.898   0.317
 4398TIP3    H213159   1.539   3.951   0.407
 4399TIP3   OH213160   4.781   4.481   4.182
 4399TIP3    H113161   4.787   4.451   4.273
 4399TIP3    H213162   4.786   4.576   4.188
 4400TIP3   OH213163   4.204   3.566   4.242
 4400TIP3    H113164   4.255   3.610   4.310
 4400TIP3    H213165   4.114   3.595   4.259
 4401TIP3   OH213166   0.541   2.055   1.193
 4401TIP3    H113167   0.587   2.126   1.238
 4401TIP3    H213168   0.501   2.097   1.118
 4402TIP3   OH213169   5.727   0.150   4.493
 4402TIP3    H113170   5.756   0.225   4.440
 4402TIP3    H213171   5.734   0.075   4.434
 4403TIP3   OH213172   0.691   1.388   0.397
 4403TIP3    H113173   0.754   1.380   0.468
 4403TIP3    H213174   0.614   1.427   0.438
 4404TIP3   OH213175   1.868   0.273   4.127
 4404TIP3    H113176   1.920   0.353   4.124
 4404TIP3    H213177   1.821   0.272   4.043
 4405TIP3   OH213178   1.854   4.835   5.594
 4405TIP3    H113179   1.863   4.825   5.499
 4405TIP3    H213180   1.861   4.745   5.628
 4406TIP3   OH213181   4.251   6.282   2.128
 4406TIP3    H113182   4.193   6.207   2.141
 4406TIP3    H213183   4.264   6.286   2.033
 4407TIP3   OH213184   5.261   4.041   1.926
 4407TIP3    H113185   5.227   4.130   1.923
 4407TIP3    H213186   5.264   4.013   1.835
 4408TIP3   OH213187   7.186   3.482   2.627
 4408TIP3    H113188   7.098   3.519   2.635
 4408TIP3    H213189   7.171   3.392   2.600
 4409TIP3   OH213190   6.347   6.340   5.325
 4409TIP3    H113191   6.431   6.385   5.327
 4409TIP3    H213192   6.285   6.403   5.360
 4410TIP3   OH213193   6.278   6.387   3.561
 4410TIP3    H113194   6.191   6.414   3.592
 4410TIP3    H213195   6.265   6.298   3.528
 4411TIP3   OH213196   5.106   0.862   0.801
 4411TIP3    H113197   5.192   0.869   0.760
 4411TIP3    H213198   5.096   0.942   0.851
 4412TIP3   OH213199   2.221   1.166   1.572
 4412TIP3    H113200   2.307   1.157   1.532
 4412TIP3    H213201   2.228   1.117   1.655
 4413TIP3   OH213202   4.481   3.357   2.286
 4413TIP3    H113203   4.526   3.431   2.326
 4413TIP3    H213204   4.508   3.282   2.339
 4414TIP3   OH213205   0.562   3.239   3.166
 4414TIP3    H113206   0.627   3.194   3.113
 4414TIP3    H213207   0.514   3.169   3.210
 4415TIP3   OH213208   0.669   4.471   2.937
 4415TIP3    H113209   0.633   4.515   3.014
 4415TIP3    H213210   0.740   4.416   2.972
 4416TIP3   OH213211   6.277   0.859   5.238
 4416TIP3    H113212   6.300   0.795   5.306
 4416TIP3    H213213   6.353   0.860   5.180
 4417TIP3   OH213214   7.168   3.161   0.566
 4417TIP3    H113215   7.155   3.134   0.475
 4417TIP3    H213216   7.081   3.155   0.606
 4418TIP3   OH213217   6.399   2.355   2.696
 4418TIP3    H113218   6.465   2.359   2.626
 4418TIP3    H213219   6.348   2.435   2.685
 4419TIP3   OH213220   2.505   6.389   0.127
 4419TIP3    H113221   2.445   6.349   0.190
 4419TIP3    H213222   2.564   6.442   0.180
 4420TIP3   OH213223   2.942   5.091   5.571
 4420TIP3    H113224   3.010   5.024   5.581
 4420TIP3    H213225   2.903   5.073   5.486
 4421TIP3   OH213226   5.080   3.749   1.121
 4421TIP3    H113227   5.078   3.714   1.033
 4421TIP3    H213228   5.128   3.684   1.172
 4422TIP3   OH213229   6.139   1.585   5.218
 4422TIP3    H113230   6.234   1.582   5.223
 4422TIP3    H213231   6.119   1.677   5.199
 4423TIP3   OH213232   5.538   2.901   3.511
 4423TIP3    H113233   5.475   2.853   3.457
 4423TIP3    H213234   5.488   2.926   3.589
 4424TIP3   OH213235   6.184   0.993   4.558
 4424TIP3    H113236   6.100   1.037   4.548
 4424TIP3    H213237   6.173   0.938   4.636
 4425TIP3   OH213238   1.496   0.253   3.106
 4425TIP3    H113239   1.526   0.173   3.149
 4425TIP3    H213240   1.444   0.298   3.172
 4426TIP3   OH213241   2.208   4.039   0.882
 4426TIP3    H113242   2.254   4.105   0.831
 4426TIP3    H213243   2.273   3.970   0.896
 4427TIP3   OH213244   0.933   2.777   0.177
 4427TIP3    H113245   0.926   2.861   0.223
 4427TIP3    H213246   0.886   2.716   0.234
 4428TIP3   OH213247   2.451   1.330   0.999
 4428TIP3    H113248   2.465   1.240   1.030
 4428TIP3    H213249   2.497   1.384   1.063
 4429TIP3   OH213250   5.917   1.685   5.630
 4429TIP3    H113251   5.955   1.744   5.566
 4429TIP3    H213252   5.923   1.733   5.713
 4430TIP3   OH213253   0.661   6.224   2.477
 4430TIP3    H113254   0.745   6.208   2.519
 4430TIP3    H213255   0.657   6.159   2.406
 4431TIP3   OH213256   1.887   4.088   1.567
 4431TIP3    H113257   1.818   4.133   1.615
 4431TIP3    H213258   1.875   4.116   1.476
 4432TIP3   OH213259   0.131   6.731   4.554
 4432TIP3    H113260   0.179   6.780   4.621
 4432TIP3    H213261   0.047   6.776   4.547
 4433TIP3   OH213262   6.164   3.977   1.367
 4433TIP3    H113263   6.182   3.911   1.434
 4433TIP3    H213264   6.106   3.933   1.305
 4434TIP3   OH213265   6.472   6.338   2.619
 4434TIP3    H113266   6.403   6.359   2.556
 4434TIP3    H213267   6.459   6.244   2.637
 4435TIP3   OH213268   0.187   6.256   3.231
 4435TIP3    H113269   0.204   6.247   3.138
 4435TIP3    H213270   0.100   6.297   3.236
 4436TIP3   OH213271   0.799   4.192   4.574
 4436TIP3    H113272   0.829   4.231   4.492
 4436TIP3    H213273   0.742   4.258   4.614
 4437TIP3   OH213274   1.792   2.205   4.749
 4437TIP3    H113275   1.789   2.261   4.671
 4437TIP3    H213276   1.701   2.184   4.767
 4438TIP3   OH213277   2.216   6.295   5.772
 4438TIP3    H113278   2.273   6.362   5.735
 4438TIP3    H213279   2.218   6.311   5.866
 4439TIP3   OH213280   3.526   4.944   2.948
 4439TIP3    H113281   3.507   4.929   2.855
 4439TIP3    H213282   3.501   4.862   2.991
 4440TIP3   OH213283   3.766   5.449   1.294
 4440TIP3    H113284   3.771   5.495   1.378
 4440TIP3    H213285   3.808   5.364   1.311
 4441TIP3   OH213286   4.403   5.674   5.289
 4441TIP3    H113287   4.429   5.709   5.375
 4441TIP3    H213288   4.484   5.677   5.237
 4442TIP3   OH213289   6.650   5.351   2.991
 4442TIP3    H113290   6.625   5.438   3.022
 4442TIP3    H213291   6.697   5.367   2.910
 4443TIP3   OH213292   5.075   1.078   0.986
 4443TIP3    H113293   5.109   1.043   1.068
 4443TIP3    H213294   4.986   1.108   1.007
 4444TIP3   OH213295   2.980   3.460   0.843
 4444TIP3    H113296   2.948   3.377   0.807
 4444TIP3    H213297   3.052   3.485   0.786
 4445TIP3   OH213298   7.056   5.367   4.303
 4445TIP3    H113299   7.134   5.398   4.349
 4445TIP3    H213300   6.983   5.410   4.347
 4446TIP3   OH213301   7.056   0.469   5.274
 4446TIP3    H113302   6.975   0.514   5.295
 4446TIP3    H213303   7.083   0.505   5.190
 4447TIP3   OH213304   3.324   2.521   4.175
 4447TIP3    H113305   3.249   2.534   4.116
 4447TIP3    H213306   3.293   2.457   4.239
 4448TIP3   OH213307   3.827   5.682   0.903
 4448TIP3    H113308   3.803   5.680   0.996
 4448TIP3    H213309   3.921   5.664   0.902
 4449TIP3   OH213310   0.221   2.503   5.809
 4449TIP3    H113311   0.146   2.500   5.868
 4449TIP3    H213312   0.283   2.562   5.851
 4450TIP3   OH213313   2.535   1.349   3.509
 4450TIP3    H113314   2.606   1.312   3.457
 4450TIP3    H213315   2.531   1.293   3.587
 4451TIP3   OH213316   4.597   1.795   1.322
 4451TIP3    H113317   4.579   1.719   1.378
 4451TIP3    H213318   4.690   1.788   1.300
 4452TIP3   OH213319   5.083   5.479   4.681
 4452TIP3    H113320   5.122   5.565   4.696
 4452TIP3    H213321   5.021   5.468   4.753
 4453TIP3   OH213322   5.190   1.394   0.190
 4453TIP3    H113323   5.129   1.356   0.254
 4453TIP3    H213324   5.140   1.396   0.108
 4454TIP3   OH213325   3.781   4.812   1.579
 4454TIP3    H113326   3.776   4.838   1.486
 4454TIP3    H213327   3.852   4.747   1.582
 4455TIP3   OH213328   7.094   1.910   5.837
 4455TIP3    H113329   7.035   1.983   5.818
 4455TIP3    H213330   7.041   1.831   5.821
 4456TIP3   OH213331   1.367   4.860   5.631
 4456TIP3    H113332   1.455   4.896   5.630
 4456TIP3    H213333   1.374   4.779   5.682
 4457TIP3   OH213334   0.819   0.705   2.395
 4457TIP3    H113335   0.914   0.701   2.409
 4457TIP3    H213336   0.782   0.705   2.483
 4458TIP3   OH213337   5.380   1.192   2.207
 4458TIP3    H113338   5.427   1.109   2.214
 4458TIP3    H213339   5.288   1.167   2.206
 4459TIP3   OH213340   6.159   0.374   3.367
 4459TIP3    H113341   6.243   0.419   3.371
 4459TIP3    H213342   6.096   0.441   3.342
 4460TIP3   OH213343   3.239   2.356   2.521
 4460TIP3    H113344   3.203   2.316   2.442
 4460TIP3    H213345   3.330   2.375   2.499
 4461TIP3   OH213346   1.570   3.257   5.484
 4461TIP3    H113347   1.574   3.184   5.547
 4461TIP3    H213348   1.477   3.269   5.468
 4462TIP3   OH213349   6.941   3.773   1.831
 4462TIP3    H113350   6.948   3.869   1.835
 4462TIP3    H213351   6.850   3.755   1.855
 4463TIP3   OH213352   6.158   3.564   1.370
 4463TIP3    H113353   6.118   3.626   1.431
 4463TIP3    H213354   6.086   3.509   1.340
 4464TIP3   OH213355   6.505   0.518   2.993
 4464TIP3    H113356   6.490   0.603   2.952
 4464TIP3    H213357   6.598   0.500   2.978
 4465TIP3   OH213358   4.364   1.167   5.131
 4465TIP3    H113359   4.432   1.212   5.081
 4465TIP3    H213360   4.310   1.237   5.168
 4466TIP3   OH213361   5.128   6.218   5.297
 4466TIP3    H113362   5.122   6.185   5.387
 4466TIP3    H213363   5.171   6.148   5.248
 4467TIP3   OH213364   0.898   1.699   4.498
 4467TIP3    H113365   0.985   1.692   4.459
 4467TIP3    H213366   0.887   1.617   4.548
 4468TIP3   OH213367   0.277   6.542   3.789
 4468TIP3    H113368   0.273   6.574   3.880
 4468TIP3    H213369   0.196   6.494   3.777
 4469TIP3   OH213370   4.082   0.634   1.397
 4469TIP3    H113371   4.155   0.687   1.430
 4469TIP3    H213372   4.046   0.685   1.324
 4470TIP3   OH213373   1.618   6.571   1.718
 4470TIP3    H113374   1.538   6.519   1.715
 4470TIP3    H213375   1.688   6.506   1.711
 4471TIP3   OH213376   2.875   5.672   5.238
 4471TIP3    H113377   2.865   5.583   5.273
 4471TIP3    H213378   2.913   5.721   5.310
 4472TIP3   OH213379   1.900   0.668   3.713
 4472TIP3    H113380   1.949   0.588   3.734
 4472TIP3    H213381   1.849   0.687   3.793
 4473TIP3   OH213382   5.027   6.006   0.305
 4473TIP3    H113383   5.009   5.988   0.398
 4473TIP3    H213384   4.985   6.090   0.288
 4474TIP3   OH213385   1.599   4.659   4.250
 4474TIP3    H113386   1.583   4.644   4.156
 4474TIP3    H213387   1.525   4.617   4.294
 4475TIP3   OH213388   1.026   5.636   4.483
 4475TIP3    H113389   1.110   5.619   4.439
 4475TIP3    H213390   1.047   5.700   4.551
 4476TIP3   OH213391   6.490   3.455   2.156
 4476TIP3    H113392   6.502   3.529   2.216
 4476TIP3    H213393   6.397   3.456   2.135
 4477TIP3   OH213394   6.377   0.269   2.938
 4477TIP3    H113395   6.285   0.273   2.964
 4477TIP3    H213396   6.408   0.359   2.949
 4478TIP3   OH213397   5.109   5.844   0.902
 4478TIP3    H113398   5.049   5.825   0.974
 4478TIP3    H213399   5.169   5.909   0.938
 4479TIP3   OH213400   2.962   3.487   5.492
 4479TIP3    H113401   2.971   3.406   5.542
 4479TIP3    H213402   3.004   3.554   5.546
 4480TIP3   OH213403   3.921   4.377   1.756
 4480TIP3    H113404   3.848   4.329   1.795
 4480TIP3    H213405   3.980   4.310   1.723
 4481TIP3   OH213406   0.244   2.746   5.037
 4481TIP3    H113407   0.181   2.747   5.109
 4481TIP3    H213408   0.283   2.659   5.041
 4482TIP3   OH213409   4.716   5.362   4.658
 4482TIP3    H113410   4.645   5.340   4.599
 4482TIP3    H213411   4.692   5.319   4.741
 4483TIP3   OH213412   3.173   2.706   1.951
 4483TIP3    H113413   3.180   2.655   2.032
 4483TIP3    H213414   3.086   2.746   1.955
 4484TIP3   OH213415   1.165   6.652   1.233
 4484TIP3    H113416   1.115   6.571   1.235
 4484TIP3    H213417   1.183   6.672   1.325
 4485TIP3   OH213418   6.798   4.851   3.302
 4485TIP3    H113419   6.800   4.781   3.236
 4485TIP3    H213420   6.732   4.823   3.364
 4486TIP3   OH213421   1.997   3.788   0.576
 4486TIP3    H113422   2.008   3.814   0.668
 4486TIP3    H213423   2.069   3.833   0.531
 4487TIP3   OH213424   5.219   1.534   4.234
 4487TIP3    H113425   5.169   1.473   4.288
 4487TIP3    H213426   5.304   1.539   4.276
 4488TIP3   OH213427   1.990   3.555   1.122
 4488TIP3    H113428   2.039   3.626   1.164
 4488TIP3    H213429   1.901   3.589   1.114
 4489TIP3   OH213430   3.939   1.464   2.357
 4489TIP3    H113431   3.914   1.374   2.334
 4489TIP3    H213432   3.930   1.468   2.452
 4490TIP3   OH213433   5.941   3.048   2.558
 4490TIP3    H113434   5.968   2.957   2.572
 4490TIP3    H213435   5.908   3.049   2.468
 4491TIP3   OH213436   6.901   1.811   5.325
 4491TIP3    H113437   6.816   1.772   5.302
 4491TIP3    H213438   6.931   1.852   5.244
 4492TIP3   OH213439   4.095   1.818   1.215
 4492TIP3    H113440   4.029   1.790   1.277
 4492TIP3    H213441   4.163   1.860   1.269
 4493TIP3   OH213442   2.121   0.607   1.313
 4493TIP3    H113443   2.109   0.588   1.220
 4493TIP3    H213444   2.195   0.551   1.340
 4494TIP3   OH213445   4.001   6.192   0.355
 4494TIP3    H113446   3.906   6.204   0.353
 4494TIP3    H213447   4.023   6.155   0.270
 4495TIP3   OH213448   1.527   5.620   5.396
 4495TIP3    H113449   1.512   5.714   5.380
 4495TIP3    H213450   1.622   5.611   5.394
 4496TIP3   OH213451   1.678   5.192   3.557
 4496TIP3    H113452   1.602   5.219   3.607
 4496TIP3    H213453   1.750   5.191   3.620
 4497TIP3   OH213454   2.980   3.768   3.091
 4497TIP3    H113455   2.999   3.859   3.114
 4497TIP3    H213456   2.964   3.726   3.176
 4498TIP3   OH213457   3.661   3.347   0.485
 4498TIP3    H113458   3.650   3.435   0.449
 4498TIP3    H213459   3.755   3.330   0.480
 4499TIP3   OH213460   3.084   3.321   5.202
 4499TIP3    H113461   3.110   3.391   5.141
 4499TIP3    H213462   2.992   3.338   5.220
 4500TIP3   OH213463   3.710   0.797   3.285
 4500TIP3    H113464   3.743   0.876   3.241
 4500TIP3    H213465   3.735   0.725   3.227
 4501TIP3   OH213466   5.082   1.208   3.108
 4501TIP3    H113467   5.001   1.192   3.059
 4501TIP3    H213468   5.147   1.150   3.067
 4502TIP3   OH213469   5.660   4.289   0.422
 4502TIP3    H113470   5.702   4.211   0.458
 4502TIP3    H213471   5.733   4.345   0.395
 4503TIP3   OH213472   3.297   5.562   1.700
 4503TIP3    H113473   3.319   5.604   1.783
 4503TIP3    H213474   3.374   5.508   1.680
 4504TIP3   OH213475   3.686   2.709   5.381
 4504TIP3    H113476   3.757   2.764   5.348
 4504TIP3    H213477   3.617   2.771   5.406
 4505TIP3   OH213478   6.606   2.133   5.344
 4505TIP3    H113479   6.546   2.102   5.411
 4505TIP3    H213480   6.630   2.222   5.373
 4506TIP3   OH213481   5.602   4.647   1.759
 4506TIP3    H113482   5.594   4.552   1.747
 4506TIP3    H213483   5.604   4.682   1.670
 4507TIP3   OH213484   6.276   4.503   2.283
 4507TIP3    H113485   6.268   4.575   2.345
 4507TIP3    H213486   6.194   4.504   2.233
 4508TIP3   OH213487   6.057   5.992   0.644
 4508TIP3    H113488   6.015   5.908   0.657
 4508TIP3    H213489   5.989   6.047   0.604
 4509TIP3   OH213490   4.968   4.822   5.237
 4509TIP3    H113491   4.874   4.838   5.242
 4509TIP3    H213492   5.007   4.889   5.294
 4510TIP3   OH213493   3.016   2.161   1.274
 4510TIP3    H113494   2.985   2.246   1.305
 4510TIP3    H213495   2.942   2.125   1.225
 4511TIP3   OH213496   3.776   6.264   1.550
 4511TIP3    H113497   3.751   6.349   1.587
 4511TIP3    H213498   3.743   6.200   1.613
 4512TIP3   OH213499   3.401   6.682   3.177
 4512TIP3    H113500   3.373   6.721   3.094
 4512TIP3    H213501   3.496   6.674   3.169
 4513TIP3   OH213502   6.835   4.062   0.672
 4513TIP3    H113503   6.751   4.107   0.665
 4513TIP3    H213504   6.900   4.131   0.661
 4514TIP3   OH213505   2.673   2.279   4.029
 4514TIP3    H113506   2.628   2.288   4.113
 4514TIP3    H213507   2.761   2.251   4.052
 4515TIP3   OH213508   3.517   5.058   5.797
 4515TIP3    H113509   3.593   5.103   5.760
 4515TIP3    H213510   3.443   5.115   5.775
 4516TIP3   OH213511   6.173   1.470   1.220
 4516TIP3    H113512   6.158   1.481   1.126
 4516TIP3    H213513   6.152   1.378   1.237
 4517TIP3   OH213514   3.157   3.239   2.794
 4517TIP3    H113515   3.242   3.246   2.751
 4517TIP3    H213516   3.156   3.151   2.832
 4518TIP3   OH213517   5.642   0.203   0.414
 4518TIP3    H113518   5.641   0.112   0.383
 4518TIP3    H213519   5.613   0.197   0.505
 4519TIP3   OH213520   2.779   3.964   2.793
 4519TIP3    H113521   2.791   3.969   2.698
 4519TIP3    H213522   2.799   3.873   2.815
 4520TIP3   OH213523   6.843   6.270   0.194
 4520TIP3    H113524   6.935   6.294   0.200
 4520TIP3    H213525   6.796   6.353   0.203
 4521TIP3   OH213526   2.523   3.022   2.586
 4521TIP3    H113527   2.457   3.008   2.518
 4521TIP3    H213528   2.588   3.078   2.544
 4522TIP3   OH213529   1.902   6.066   2.023
 4522TIP3    H113530   1.843   6.013   1.970
 4522TIP3    H213531   1.984   6.068   1.974
 4523TIP3   OH213532   2.563   3.393   0.230
 4523TIP3    H113533   2.614   3.434   0.160
 4523TIP3    H213534   2.504   3.333   0.184
 4524TIP3   OH213535   5.284   1.005   5.270
 4524TIP3    H113536   5.288   1.002   5.175
 4524TIP3    H213537   5.197   1.040   5.290
 4525TIP3   OH213538   3.032   3.732   2.375
 4525TIP3    H113539   2.964   3.691   2.323
 4525TIP3    H213540   3.114   3.705   2.334
 4526TIP3   OH213541   3.213   5.956   1.394
 4526TIP3    H113542   3.269   5.950   1.317
 4526TIP3    H213543   3.163   5.875   1.394
 4527TIP3   OH213544   2.218   3.010   2.812
 4527TIP3    H113545   2.177   3.074   2.871
 4527TIP3    H213546   2.312   3.020   2.827
 4528TIP3   OH213547   5.162   5.015   3.239
 4528TIP3    H113548   5.168   5.059   3.324
 4528TIP3    H213549   5.123   5.079   3.181
 4529TIP3   OH213550   0.017   4.138   5.817
 4529TIP3    H113551   0.094   4.165   5.767
 4529TIP3    H213552   0.011   4.043   5.802
 4530TIP3   OH213553   2.366   3.526   5.871
 4530TIP3    H113554   2.421   3.450   5.856
 4530TIP3    H213555   2.320   3.539   5.788
 4531TIP3   OH213556   2.663   3.371   1.335
 4531TIP3    H113557   2.740   3.327   1.298
 4531TIP3    H213558   2.628   3.423   1.263
 4532TIP3   OH213559   1.302   4.329   1.564
 4532TIP3    H113560   1.277   4.422   1.568
 4532TIP3    H213561   1.341   4.312   1.650
 4533TIP3   OH213562   5.976   3.910   2.428
 4533TIP3    H113563   5.915   3.954   2.368
 4533TIP3    H213564   5.922   3.847   2.476
 4534TIP3   OH213565   6.421   2.662   1.175
 4534TIP3    H113566   6.481   2.712   1.119
 4534TIP3    H213567   6.476   2.596   1.217
 4535TIP3   OH213568   1.617   3.527   4.298
 4535TIP3    H113569   1.686   3.520   4.232
 4535TIP3    H213570   1.663   3.523   4.382
 4536TIP3   OH213571   2.325   4.468   1.650
 4536TIP3    H113572   2.350   4.393   1.704
 4536TIP3    H213573   2.305   4.538   1.712
 4537TIP3   OH213574   6.740   6.533   3.140
 4537TIP3    H113575   6.710   6.500   3.056
 4537TIP3    H213576   6.661   6.541   3.193
 4538TIP3   OH213577   5.286   6.658   2.520
 4538TIP3    H113578   5.314   6.681   2.431
 4538TIP3    H213579   5.364   6.670   2.573
 4539TIP3   OH213580   5.044   1.544   5.448
 4539TIP3    H113581   5.094   1.617   5.484
 4539TIP3    H213582   5.107   1.471   5.446
 4540TIP3   OH213583   4.620   3.634   1.008
 4540TIP3    H113584   4.541   3.686   0.995
 4540TIP3    H213585   4.688   3.698   1.027
 4541TIP3   OH213586   2.819   2.007   5.736
 4541TIP3    H113587   2.890   2.022   5.674
 4541TIP3    H213588   2.842   1.926   5.780
 4542TIP3   OH213589   5.577   5.365   1.575
 4542TIP3    H113590   5.547   5.444   1.620
 4542TIP3    H213591   5.504   5.338   1.521
 4543TIP3   OH213592   2.264   4.943   0.080
 4543TIP3    H113593   2.208   4.990   0.018
 4543TIP3    H213594   2.350   4.982   0.071
 4544TIP3   OH213595   4.321   2.648   1.988
 4544TIP3    H113596   4.335   2.634   2.082
 4544TIP3    H213597   4.325   2.561   1.950
 4545TIP3   OH213598   2.836   3.667   5.063
 4545TIP3    H113599   2.907   3.637   5.006
 4545TIP3    H213600   2.837   3.607   5.137
 4546TIP3   OH213601   6.473   1.151   5.522
 4546TIP3    H113602   6.397   1.105   5.486
 4546TIP3    H213603   6.518   1.187   5.445
 4547TIP3   OH213604   2.015   4.456   2.294
 4547TIP3    H113605   1.996   4.536   2.246
 4547TIP3    H213606   2.075   4.407   2.237
 4548TIP3   OH213607   7.013   5.940   1.905
 4548TIP3    H113608   6.993   5.847   1.915
 4548TIP3    H213609   6.947   5.973   1.844
 4549TIP3   OH213610   0.512   0.090   5.364
 4549TIP3    H113611   0.497   0.037   5.443
 4549TIP3    H213612   0.524   0.026   5.294
 4550TIP3   OH213613   0.957   5.043   5.239
 4550TIP3    H113614   0.920   5.004   5.160
 4550TIP3    H213615   1.035   4.991   5.257
 4551TIP3   OH213616   1.218   2.324   4.840
 4551TIP3    H113617   1.275   2.400   4.852
 4551TIP3    H213618   1.131   2.362   4.827
 4552TIP3   OH213619   1.315   3.866   2.014
 4552TIP3    H113620   1.272   3.815   2.083
 4552TIP3    H213621   1.405   3.833   2.013
 4553TIP3   OH213622   1.306   2.296   3.587
 4553TIP3    H113623   1.332   2.381   3.550
 4553TIP3    H213624   1.232   2.268   3.533
 4554TIP3   OH213625   4.277   5.267   2.507
 4554TIP3    H113626   4.295   5.213   2.584
 4554TIP3    H213627   4.203   5.322   2.533
 4555TIP3   OH213628   6.997   5.874   2.610
 4555TIP3    H113629   6.908   5.867   2.646
 4555TIP3    H213630   7.014   5.968   2.607
 4556TIP3   OH213631   6.481   4.523   5.730
 4556TIP3    H113632   6.531   4.593   5.688
 4556TIP3    H213633   6.473   4.455   5.663
 4557TIP3   OH213634   4.848   6.789   1.707
 4557TIP3    H113635   4.809   6.816   1.790
 4557TIP3    H213636   4.851   6.694   1.713
 4558TIP3   OH213637   3.637   0.412   0.682
 4558TIP3    H113638   3.627   0.342   0.746
 4558TIP3    H213639   3.602   0.490   0.725
 4559TIP3   OH213640   2.186   5.771   5.735
 4559TIP3    H113641   2.206   5.843   5.675
 4559TIP3    H213642   2.207   5.692   5.685
 4560TIP3   OH213643   0.496   1.135   4.727
 4560TIP3    H113644   0.543   1.218   4.721
 4560TIP3    H213645   0.519   1.088   4.647
 4561TIP3   OH213646   0.802   3.463   1.749
 4561TIP3    H113647   0.777   3.376   1.719
 4561TIP3    H213648   0.898   3.459   1.758
 4562TIP3   OH213649   6.072   2.224   4.775
 4562TIP3    H113650   6.076   2.141   4.727
 4562TIP3    H213651   6.163   2.240   4.803
 4563TIP3   OH213652   3.337   4.032   4.455
 4563TIP3    H113653   3.424   4.007   4.424
 4563TIP3    H213654   3.328   4.123   4.428
 4564TIP3   OH213655   6.672   1.429   5.160
 4564TIP3    H113656   6.729   1.478   5.220
 4564TIP3    H213657   6.733   1.388   5.099
 4565TIP3   OH213658   0.550   4.776   5.782
 4565TIP3    H113659   0.559   4.681   5.789
 4565TIP3    H213660   0.455   4.791   5.781
 4566TIP3   OH213661   2.104   6.043   0.350
 4566TIP3    H113662   2.193   6.076   0.336
 4566TIP3    H213663   2.061   6.110   0.403
 4567TIP3   OH213664   0.115   6.198   3.988
 4567TIP3    H113665   0.130   6.241   3.904
 4567TIP3    H213666   0.092   6.270   4.047
 4568TIP3   OH213667   6.587   2.314   2.514
 4568TIP3    H113668   6.630   2.346   2.435
 4568TIP3    H213669   6.659   2.305   2.577
 4569TIP3   OH213670   0.669   4.810   4.297
 4569TIP3    H113671   0.712   4.733   4.333
 4569TIP3    H213672   0.741   4.868   4.271
 4570TIP3   OH213673   0.564   3.113   5.280
 4570TIP3    H113674   0.485   3.159   5.254
 4570TIP3    H213675   0.608   3.092   5.198
 4571TIP3   OH213676   0.265   3.776   1.042
 4571TIP3    H113677   0.303   3.699   1.086
 4571TIP3    H213678   0.182   3.790   1.087
 4572TIP3   OH213679   3.777   6.581   1.098
 4572TIP3    H113680   3.867   6.605   1.074
 4572TIP3    H213681   3.741   6.540   1.020
 4573TIP3   OH213682   6.049   0.690   4.992
 4573TIP3    H113683   6.080   0.623   5.053
 4573TIP3    H213684   6.034   0.767   5.047
 4574TIP3   OH213685   6.359   5.724   3.441
 4574TIP3    H113686   6.275   5.684   3.467
 4574TIP3    H213687   6.396   5.663   3.377
 4575TIP3   OH213688   0.153   3.192   2.699
 4575TIP3    H113689   0.064   3.174   2.670
 4575TIP3    H213690   0.208   3.163   2.626
 4576TIP3   OH213691   0.441   6.002   0.605
 4576TIP3    H113692   0.500   5.947   0.657
 4576TIP3    H213693   0.403   5.942   0.541
 4577TIP3   OH213694   4.841   2.143   3.186
 4577TIP3    H113695   4.839   2.083   3.112
 4577TIP3    H213696   4.750   2.147   3.216
 4578TIP3   OH213697   1.385   3.212   4.723
 4578TIP3    H113698   1.316   3.248   4.779
 4578TIP3    H213699   1.361   3.239   4.635
 4579TIP3   OH213700   0.940   3.703   2.042
 4579TIP3    H113701   0.920   3.727   1.951
 4579TIP3    H213702   0.854   3.691   2.082
 4580TIP3   OH213703   1.908   6.591   1.846
 4580TIP3    H113704   1.893   6.683   1.869
 4580TIP3    H213705   1.846   6.542   1.900
 4581TIP3   OH213706   3.948   2.086   1.110
 4581TIP3    H113707   4.014   2.117   1.172
 4581TIP3    H213708   3.995   2.025   1.054
 4582TIP3   OH213709   2.656   5.930   0.635
 4582TIP3    H113710   2.716   5.905   0.564
 4582TIP3    H213711   2.599   5.854   0.646
 4583TIP3   OH213712   1.639   3.017   2.664
 4583TIP3    H113713   1.610   2.966   2.588
 4583TIP3    H213714   1.572   3.085   2.674
 4584TIP3   OH213715   1.729   6.453   0.626
 4584TIP3    H113716   1.651   6.507   0.641
 4584TIP3    H213717   1.695   6.370   0.596
 4585TIP3   OH213718   3.066   2.733   1.131
 4585TIP3    H113719   3.124   2.683   1.189
 4585TIP3    H213720   3.076   2.691   1.046
 4586TIP3   OH213721   5.417   2.335   2.969
 4586TIP3    H113722   5.404   2.242   2.984
 4586TIP3    H213723   5.330   2.374   2.980
 4587TIP3   OH213724   2.550   1.447   5.199
 4587TIP3    H113725   2.502   1.451   5.282
 4587TIP3    H213726   2.526   1.528   5.153
 4588TIP3   OH213727   2.807   4.119   3.503
 4588TIP3    H113728   2.752   4.191   3.532
 4588TIP3    H213729   2.881   4.161   3.461
 4589TIP3   OH213730   5.667   2.145   1.260
 4589TIP3    H113731   5.582   2.101   1.250
 4589TIP3    H213732   5.651   2.214   1.324
 4590TIP3   OH213733   4.868   3.341   1.433
 4590TIP3    H113734   4.798   3.370   1.492
 4590TIP3    H213735   4.932   3.300   1.490
 4591TIP3   OH213736   5.129   3.515   5.442
 4591TIP3    H113737   5.078   3.592   5.417
 4591TIP3    H213738   5.112   3.451   5.372
 4592TIP3   OH213739   4.486   0.150   1.434
 4592TIP3    H113740   4.447   0.229   1.472
 4592TIP3    H213741   4.418   0.083   1.442
 4593TIP3   OH213742   4.365   5.346   2.951
 4593TIP3    H113743   4.327   5.268   2.909
 4593TIP3    H213744   4.370   5.411   2.880
 4594TIP3   OH213745   1.864   4.753   0.299
 4594TIP3    H113746   1.954   4.776   0.275
 4594TIP3    H213747   1.872   4.702   0.379
 4595TIP3   OH213748   3.005   6.532   5.380
 4595TIP3    H113749   2.985   6.541   5.473
 4595TIP3    H213750   3.083   6.585   5.367
 4596TIP3   OH213751   5.247   2.064   4.432
 4596TIP3    H113752   5.313   2.129   4.456
 4596TIP3    H213753   5.192   2.109   4.368
 4597TIP3   OH213754   4.242   4.691   0.557
 4597TIP3    H113755   4.257   4.753   0.628
 4597TIP3    H213756   4.237   4.746   0.479
 4598TIP3   OH213757   3.290   2.947   1.429
 4598TIP3    H113758   3.319   2.898   1.352
 4598TIP3    H213759   3.369   2.989   1.462
 4599TIP3   OH213760   6.174   0.952   0.042
 4599TIP3    H113761   6.186   0.870   0.089
 4599TIP3    H213762   6.233   0.947  -0.033
 4600TIP3   OH213763   4.706   5.349   3.370
 4600TIP3    H113764   4.637   5.311   3.424
 4600TIP3    H213765   4.660   5.388   3.296
 4601TIP3   OH213766   5.748   2.250   2.057
 4601TIP3    H113767   5.672   2.259   2.000
 4601TIP3    H213768   5.791   2.335   2.053
 4602TIP3   OH213769   3.068   4.638   1.700
 4602TIP3    H113770   3.108   4.642   1.614
 4602TIP3    H213771   2.975   4.623   1.683
 4603TIP3   OH213772   0.232   3.372   4.277
 4603TIP3    H113773   0.233   3.284   4.314
 4603TIP3    H213774   0.206   3.429   4.350
 4604TIP3   OH213775   6.954   3.974   4.693
 4604TIP3    H113776   6.870   3.939   4.662
 4604TIP3    H213777   6.929   4.042   4.757
 4605TIP3   OH213778   5.149   5.046   0.721
 4605TIP3    H113779   5.216   5.063   0.654
 4605TIP3    H213780   5.199   5.034   0.802
 4606TIP3   OH213781   0.709   1.492   4.945
 4606TIP3    H113782   0.772   1.460   5.009
 4606TIP3    H213783   0.719   1.587   4.946
 4607TIP3   OH213784   4.346   5.319   1.724
 4607TIP3    H113785   4.348   5.329   1.820
 4607TIP3    H213786   4.350   5.224   1.711
 4608TIP3   OH213787   2.979   3.460   1.942
 4608TIP3    H113788   3.069   3.492   1.955
 4608TIP3    H213789   2.965   3.401   2.016
 4609TIP3   OH213790   1.834   3.926   4.210
 4609TIP3    H113791   1.921   3.922   4.251
 4609TIP3    H213792   1.846   3.882   4.126
 4610TIP3   OH213793   5.326   4.456   5.022
 4610TIP3    H113794   5.394   4.393   5.045
 4610TIP3    H213795   5.343   4.531   5.079
 4611TIP3   OH213796   0.236   4.788   4.432
 4611TIP3    H113797   0.209   4.880   4.425
 4611TIP3    H213798   0.256   4.762   4.342
 4612TIP3   OH213799   6.700   5.483   5.046
 4612TIP3    H113800   6.777   5.429   5.065
 4612TIP3    H213801   6.628   5.439   5.092
 4613TIP3   OH213802   2.686   1.549   3.883
 4613TIP3    H113803   2.620   1.481   3.871
 4613TIP3    H213804   2.669   1.584   3.971
 4614TIP3   OH213805   2.148   4.517   3.159
 4614TIP3    H113806   2.086   4.559   3.100
 4614TIP3    H213807   2.224   4.497   3.104
 4615TIP3   OH213808   1.439   3.942   5.066
 4615TIP3    H113809   1.436   3.848   5.047
 4615TIP3    H213810   1.424   3.984   4.982
 4616TIP3   OH213811   5.587   2.524   3.132
 4616TIP3    H113812   5.669   2.560   3.098
 4616TIP3    H213813   5.519   2.568   3.081
 4617TIP3   OH213814   0.272   5.867   3.373
 4617TIP3    H113815   0.266   5.803   3.444
 4617TIP3    H213816   0.202   5.843   3.313
 4618TIP3   OH213817   0.586   4.130   0.428
 4618TIP3    H113818   0.679   4.147   0.446
 4618TIP3    H213819   0.561   4.064   0.494
 4619TIP3   OH213820   1.087   2.183   1.253
 4619TIP3    H113821   1.061   2.209   1.342
 4619TIP3    H213822   1.019   2.220   1.197
 4620TIP3   OH213823   6.590   3.448   1.299
 4620TIP3    H113824   6.579   3.437   1.204
 4620TIP3    H213825   6.643   3.373   1.325
 4621TIP3   OH213826   2.215   3.865   2.990
 4621TIP3    H113827   2.170   3.941   3.026
 4621TIP3    H213828   2.292   3.854   3.045
 4622TIP3   OH213829   3.323   5.981   1.708
 4622TIP3    H113830   3.286   5.928   1.638
 4622TIP3    H213831   3.247   6.021   1.750
 4623TIP3   OH213832   1.421   1.853   4.371
 4623TIP3    H113833   1.387   1.878   4.457
 4623TIP3    H213834   1.352   1.878   4.310
 4624TIP3   OH213835   5.231   3.203   1.928
 4624TIP3    H113836   5.319   3.206   1.890
 4624TIP3    H213837   5.211   3.109   1.934
 4625TIP3   OH213838   3.753   6.162   2.914
 4625TIP3    H113839   3.714   6.098   2.855
 4625TIP3    H213840   3.693   6.237   2.910
 4626TIP3   OH213841   1.461   5.211   3.715
 4626TIP3    H113842   1.429   5.297   3.743
 4626TIP3    H213843   1.416   5.149   3.772
 4627TIP3   OH213844   6.923   6.288   2.391
 4627TIP3    H113845   6.899   6.197   2.372
 4627TIP3    H213846   7.017   6.284   2.411
 4628TIP3   OH213847   4.865   2.266   3.855
 4628TIP3    H113848   4.900   2.353   3.876
 4628TIP3    H213849   4.863   2.264   3.760
 4629TIP3   OH213850   4.706   3.327   2.891
 4629TIP3    H113851   4.718   3.232   2.896
 4629TIP3    H213852   4.704   3.356   2.982
 4630TIP3   OH213853   1.635   6.576   5.147
 4630TIP3    H113854   1.594   6.516   5.084
 4630TIP3    H213855   1.717   6.533   5.171
 4631TIP3   OH213856   6.314   0.462   4.877
 4631TIP3    H113857   6.285   0.458   4.786
 4631TIP3    H213858   6.303   0.373   4.910
 4632TIP3   OH213859   2.819   0.891   3.342
 4632TIP3    H113860   2.766   0.857   3.270
 4632TIP3    H213861   2.886   0.945   3.300
 4633TIP3   OH213862   3.344   6.027   0.401
 4633TIP3    H113863   3.385   5.978   0.473
 4633TIP3    H213864   3.328   5.960   0.334
 4634TIP3   OH213865   5.795   5.340   1.103
 4634TIP3    H113866   5.796   5.374   1.193
 4634TIP3    H213867   5.711   5.296   1.096
 4635TIP3   OH213868   5.805   0.335   4.277
 4635TIP3    H113869   5.746   0.396   4.234
 4635TIP3    H213870   5.767   0.249   4.259
 4636TIP3   OH213871   1.738   4.229   3.250
 4636TIP3    H113872   1.725   4.318   3.283
 4636TIP3    H213873   1.734   4.238   3.155
 4637TIP3   OH213874   2.629   2.838   0.570
 4637TIP3    H113875   2.568   2.907   0.595
 4637TIP3    H213876   2.595   2.759   0.612
 4638TIP3   OH213877   5.317   5.920   1.224
 4638TIP3    H113878   5.311   5.875   1.309
 4638TIP3    H213879   5.231   5.961   1.213
 4639TIP3   OH213880   5.681   3.963   4.680
 4639TIP3    H113881   5.627   3.930   4.752
 4639TIP3    H213882   5.728   4.038   4.717
 4640TIP3   OH213883   4.145   5.814   5.397
 4640TIP3    H113884   4.199   5.893   5.394
 4640TIP3    H213885   4.153   5.776   5.310
 4641TIP3   OH213886   1.728   2.376   3.980
 4641TIP3    H113887   1.806   2.396   4.031
 4641TIP3    H213888   1.735   2.430   3.901
 4642TIP3   OH213889   5.754   1.392   2.815
 4642TIP3    H113890   5.757   1.298   2.834
 4642TIP3    H213891   5.666   1.406   2.780
 4643TIP3   OH213892   4.207   6.722   2.727
 4643TIP3    H113893   4.181   6.660   2.659
 4643TIP3    H213894   4.128   6.773   2.745
 4644TIP3   OH213895   3.148   1.304   1.634
 4644TIP3    H113896   3.159   1.246   1.559
 4644TIP3    H213897   3.117   1.387   1.596
 4645TIP3   OH213898   6.045   3.473   5.854
 4645TIP3    H113899   5.972   3.494   5.913
 4645TIP3    H213900   6.012   3.400   5.802
 4646TIP3   OH213901   7.166   1.514   5.102
 4646TIP3    H113902   7.080   1.473   5.093
 4646TIP3    H213903   7.217   1.452   5.153
 4647TIP3   OH213904   1.359   1.231   3.912
 4647TIP3    H113905   1.434   1.174   3.894
 4647TIP3    H213906   1.391   1.319   3.893
 4648TIP3   OH213907   0.008   1.629   3.195
 4648TIP3    H113908   0.001   1.559   3.131
 4648TIP3    H213909   0.085   1.679   3.167
 4649TIP3   OH213910   2.620   1.468   0.500
 4649TIP3    H113911   2.592   1.558   0.517
 4649TIP3    H213912   2.566   1.441   0.426
 4650TIP3   OH213913   1.153   3.446   4.522
 4650TIP3    H113914   1.136   3.518   4.460
 4650TIP3    H213915   1.170   3.490   4.605
 4651TIP3   OH213916   4.615   3.921   2.211
 4651TIP3    H113917   4.657   3.876   2.138
 4651TIP3    H213918   4.661   3.888   2.289
 4652TIP3   OH213919   5.167   1.132   4.778
 4652TIP3    H113920   5.234   1.152   4.843
 4652TIP3    H213921   5.140   1.042   4.797
 4653TIP3   OH213922   2.762   0.911   0.421
 4653TIP3    H113923   2.837   0.967   0.438
 4653TIP3    H213924   2.686   0.969   0.422
 4654TIP3   OH213925   1.207   2.251   5.249
 4654TIP3    H113926   1.207   2.331   5.301
 4654TIP3    H213927   1.245   2.276   5.165
 4655TIP3   OH213928   7.009   2.062   3.269
 4655TIP3    H113929   7.045   2.011   3.197
 4655TIP3    H213930   6.964   1.998   3.325
 4656TIP3   OH213931   3.703   3.935   5.314
 4656TIP3    H113932   3.742   4.007   5.364
 4656TIP3    H213933   3.631   3.976   5.266
 4657TIP3   OH213934   0.139   4.549   0.216
 4657TIP3    H113935   0.229   4.543   0.185
 4657TIP3    H213936   0.098   4.468   0.186
 4658TIP3   OH213937   2.995   4.046   0.288
 4658TIP3    H113938   3.021   3.954   0.280
 4658TIP3    H213939   3.030   4.088   0.209
 4659TIP3   OH213940   2.002   2.117   3.344
 4659TIP3    H113941   2.062   2.085   3.411
 4659TIP3    H213942   1.941   2.173   3.392
 4660TIP3   OH213943   4.120   3.779   2.447
 4660TIP3    H113944   4.206   3.749   2.416
 4660TIP3    H213945   4.133   3.872   2.467
 4661TIP3   OH213946   7.030   0.084   2.732
 4661TIP3    H113947   6.943   0.123   2.738
 4661TIP3    H213948   7.081   0.128   2.800
 4662TIP3   OH213949   5.466   3.101   4.569
 4662TIP3    H113950   5.503   3.013   4.567
 4662TIP3    H213951   5.386   3.096   4.518
 4663TIP3   OH213952   0.161   0.938   1.495
 4663TIP3    H113953   0.221   0.960   1.424
 4663TIP3    H213954   0.119   0.856   1.467
 4664TIP3   OH213955   4.757   3.991   1.772
 4664TIP3    H113956   4.700   4.067   1.785
 4664TIP3    H213957   4.774   3.990   1.678
 4665TIP3   OH213958   6.090   6.490   4.544
 4665TIP3    H113959   6.059   6.505   4.455
 4665TIP3    H213960   6.104   6.395   4.548
 4666TIP3   OH213961   5.568   0.873   3.568
 4666TIP3    H113962   5.586   0.780   3.577
 4666TIP3    H213963   5.642   0.906   3.517
 4667TIP3   OH213964   0.792   2.255   0.291
 4667TIP3    H113965   0.700   2.278   0.303
 4667TIP3    H213966   0.798   2.164   0.322
 4668TIP3   OH213967   1.653   5.262   1.972
 4668TIP3    H113968   1.558   5.277   1.964
 4668TIP3    H213969   1.692   5.330   1.918
 4669TIP3   OH213970   7.115   0.468   1.021
 4669TIP3    H113971   7.193   0.485   1.073
 4669TIP3    H213972   7.060   0.413   1.077
 4670TIP3   OH213973   5.674   0.518   0.494
 4670TIP3    H113974   5.660   0.460   0.419
 4670TIP3    H213975   5.716   0.463   0.560
 4671TIP3   OH213976   5.565   5.864   0.480
 4671TIP3    H113977   5.586   5.957   0.492
 4671TIP3    H213978   5.616   5.819   0.548
 4672TIP3   OH213979   0.112   0.654   3.254
 4672TIP3    H113980   0.088   0.585   3.193
 4672TIP3    H213981   0.144   0.607   3.331
 4673TIP3   OH213982   2.675   1.825   1.972
 4673TIP3    H113983   2.651   1.738   1.939
 4673TIP3    H213984   2.602   1.850   2.029
 4674TIP3   OH213985   0.361   1.188   0.816
 4674TIP3    H113986   0.446   1.224   0.843
 4674TIP3    H213987   0.380   1.095   0.798
 4675TIP3   OH213988   1.235   4.930   1.385
 4675TIP3    H113989   1.164   4.896   1.439
 4675TIP3    H213990   1.237   5.024   1.405
 4676TIP3   OH213991   0.121   2.511   5.536
 4676TIP3    H113992   0.166   2.515   5.620
 4676TIP3    H213993   0.045   2.455   5.552
 4677TIP3   OH213994   5.006   1.345   3.710
 4677TIP3    H113995   5.047   1.266   3.675
 4677TIP3    H213996   4.960   1.315   3.788
 4678TIP3   OH213997   0.563   4.815   3.132
 4678TIP3    H113998   0.657   4.802   3.144
 4678TIP3    H213999   0.532   4.731   3.099
 4679TIP3   OH214000   2.462   4.233   5.619
 4679TIP3    H114001   2.524   4.160   5.613
 4679TIP3    H214002   2.473   4.280   5.536
 4680TIP3   OH214003   5.200   5.640   3.930
 4680TIP3    H114004   5.158   5.672   4.010
 4680TIP3    H214005   5.142   5.669   3.859
 4681TIP3   OH214006   4.051   0.160   0.550
 4681TIP3    H114007   4.039   0.094   0.482
 4681TIP3    H214008   3.973   0.215   0.544
 4682TIP3   OH214009   5.543   2.518   2.657
 4682TIP3    H114010   5.462   2.468   2.666
 4682TIP3    H214011   5.519   2.607   2.684
 4683TIP3   OH214012   3.521   2.429   3.266
 4683TIP3    H114013   3.475   2.459   3.344
 4683TIP3    H214014   3.590   2.373   3.299
 4684TIP3   OH214015   2.029   0.377   5.663
 4684TIP3    H114016   1.974   0.452   5.640
 4684TIP3    H214017   2.093   0.371   5.592
 4685TIP3   OH214018   7.178   6.422   2.918
 4685TIP3    H114019   7.155   6.341   2.961
 4685TIP3    H214020   7.118   6.487   2.954
 4686TIP3   OH214021   0.293   5.489  -0.019
 4686TIP3    H114022   0.309   5.459   0.071
 4686TIP3    H214023   0.379   5.517  -0.051
 4687TIP3   OH214024   1.519   0.364   0.687
 4687TIP3    H114025   1.463   0.435   0.717
 4687TIP3    H214026   1.514   0.368   0.591
 4688TIP3   OH214027   1.434   0.022   0.846
 4688TIP3    H114028   1.441   0.005   0.752
 4688TIP3    H214029   1.382   0.102   0.851
 4689TIP3   OH214030   1.831   6.069   1.731
 4689TIP3    H114031   1.922   6.076   1.759
 4689TIP3    H214032   1.835   6.055   1.636
 4690TIP3   OH214033   5.014   4.946   2.167
 4690TIP3    H114034   5.012   5.035   2.131
 4690TIP3    H214035   4.972   4.893   2.100
 4691TIP3   OH214036   1.651   3.197   2.940
 4691TIP3    H114037   1.561   3.216   2.968
 4691TIP3    H214038   1.703   3.270   2.975
 4692TIP3   OH214039   1.506   2.905   5.275
 4692TIP3    H114040   1.413   2.885   5.266
 4692TIP3    H214041   1.527   2.957   5.197
 4693TIP3   OH214042   6.270   3.070   5.325
 4693TIP3    H114043   6.279   3.150   5.273
 4693TIP3    H214044   6.243   3.003   5.261
 4694TIP3   OH214045   2.906   6.738  -0.011
 4694TIP3    H114046   2.992   6.766   0.019
 4694TIP3    H214047   2.847   6.808   0.018
 4695TIP3   OH214048   2.106   3.733   4.595
 4695TIP3    H114049   2.015   3.759   4.585
 4695TIP3    H214050   2.136   3.716   4.505
 4696TIP3   OH214051   4.556   2.084   3.187
 4696TIP3    H114052   4.513   2.160   3.227
 4696TIP3    H214053   4.541   2.093   3.093
 4697TIP3   OH214054   1.507   4.051   0.716
 4697TIP3    H114055   1.588   4.032   0.764
 4697TIP3    H214056   1.441   3.995   0.758
 4698TIP3   OH214057   0.453   2.261   1.855
 4698TIP3    H114058   0.403   2.187   1.889
 4698TIP3    H214059   0.545   2.235   1.863
 4699TIP3   OH214060   2.144   0.621   0.899
 4699TIP3    H114061   2.052   0.627   0.872
 4699TIP3    H214062   2.193   0.626   0.818
 4700TIP3   OH214063   4.846   2.884   1.704
 4700TIP3    H114064   4.772   2.883   1.765
 4700TIP3    H214065   4.922   2.907   1.757
 4701TIP3   OH214066   3.457   5.715   2.879
 4701TIP3    H114067   3.389   5.691   2.942
 4701TIP3    H214068   3.539   5.685   2.918
 4702TIP3   OH214069   4.835   1.182   1.122
 4702TIP3    H114070   4.894   1.195   1.196
 4702TIP3    H214071   4.828   1.269   1.082
 4703TIP3   OH214072   6.406   1.649   4.656
 4703TIP3    H114073   6.401   1.745   4.658
 4703TIP3    H214074   6.464   1.630   4.582
 4704TIP3   OH214075   1.011   2.724   1.729
 4704TIP3    H114076   1.044   2.788   1.666
 4704TIP3    H214077   1.068   2.734   1.805
 4705TIP3   OH214078   5.194   1.109   1.929
 4705TIP3    H114079   5.160   1.020   1.937
 4705TIP3    H214080   5.270   1.100   1.872
 4706TIP3   OH214081   0.677   0.526   0.938
 4706TIP3    H114082   0.639   0.483   1.014
 4706TIP3    H214083   0.689   0.456   0.874
 4707TIP3   OH214084   4.262   1.507   3.161
 4707TIP3    H114085   4.178   1.506   3.207
 4707TIP3    H214086   4.300   1.421   3.178
 4708TIP3   OH214087   6.138   3.470   5.484
 4708TIP3    H114088   6.171   3.540   5.428
 4708TIP3    H214089   6.139   3.392   5.428
 4709TIP3   OH214090   6.194   5.832   2.462
 4709TIP3    H114091   6.236   5.860   2.381
 4709TIP3    H214092   6.109   5.796   2.433
 4710TIP3   OH214093   1.185   4.072   1.591
 4710TIP3    H114094   1.240   4.143   1.557
 4710TIP3    H214095   1.165   4.099   1.681
 4711TIP3   OH214096   4.845   3.189   1.162
 4711TIP3    H114097   4.936   3.161   1.160
 4711TIP3    H214098   4.840   3.246   1.239
 4712TIP3   OH214099   5.660   3.338   1.936
 4712TIP3    H114100   5.615   3.328   2.020
 4712TIP3    H214101   5.647   3.430   1.912
 4713TIP3   OH214102   5.942   1.161   5.180
 4713TIP3    H114103   5.847   1.150   5.182
 4713TIP3    H214104   5.956   1.253   5.160
 4714TIP3   OH214105   1.184   5.766   5.223
 4714TIP3    H114106   1.145   5.842   5.267
 4714TIP3    H214107   1.195   5.701   5.292
 4715TIP3   OH214108   3.893   1.467   5.659
 4715TIP3    H114109   3.802   1.495   5.649
 4715TIP3    H214110   3.928   1.526   5.726
 4716TIP3   OH214111   6.077   2.181   3.579
 4716TIP3    H114112   6.016   2.193   3.506
 4716TIP3    H214113   6.078   2.086   3.594
 4717TIP3   OH214114   4.226   5.624   2.104
 4717TIP3    H114115   4.308   5.582   2.131
 4717TIP3    H214116   4.215   5.696   2.167
 4718TIP3   OH214117   4.091   5.026   5.685
 4718TIP3    H114118   4.019   5.085   5.707
 4718TIP3    H214119   4.170   5.074   5.708
 4719TIP3   OH214120   5.867   1.678   1.053
 4719TIP3    H114121   5.851   1.752   0.994
 4719TIP3    H214122   5.804   1.691   1.124
 4720TIP3   OH214123   6.592   6.165   0.326
 4720TIP3    H114124   6.525   6.234   0.331
 4720TIP3    H214125   6.648   6.180   0.402
 4721TIP3   OH214126   5.881   0.810   0.241
 4721TIP3    H114127   5.852   0.794   0.331
 4721TIP3    H214128   5.890   0.906   0.236
 4722TIP3   OH214129   4.005   4.172   3.399
 4722TIP3    H114130   3.952   4.092   3.401
 4722TIP3    H214131   4.069   4.156   3.330
 4723TIP3   OH214132   4.773   0.030   1.961
 4723TIP3    H114133   4.827  -0.039   1.923
 4723TIP3    H214134   4.700   0.041   1.900
 4724TIP3   OH214135   2.256   3.750   3.673
 4724TIP3    H114136   2.312   3.685   3.716
 4724TIP3    H214137   2.206   3.789   3.744
 4725TIP3   OH214138   6.790   3.350   3.899
 4725TIP3    H114139   6.739   3.359   3.979
 4725TIP3    H214140   6.726   3.329   3.832
 4726TIP3   OH214141   6.674   1.338   0.655
 4726TIP3    H114142   6.584   1.354   0.626
 4726TIP3    H214143   6.696   1.252   0.620
 4727TIP3   OH214144   2.016   3.858   0.853
 4727TIP3    H114145   2.059   3.940   0.876
 4727TIP3    H214146   2.084   3.791   0.863
 4728TIP3   OH214147   3.548   5.955   3.075
 4728TIP3    H114148   3.482   5.886   3.067
 4728TIP3    H214149   3.585   5.962   2.987
 4729TIP3   OH214150   3.957   1.057   2.074
 4729TIP3    H114151   3.911   1.070   1.991
 4729TIP3    H214152   3.979   1.145   2.104
 4730TIP3   OH214153   0.103   0.371   5.257
 4730TIP3    H114154   0.137   0.442   5.202
 4730TIP3    H214155   0.010   0.390   5.265
 4731TIP3   OH214156   1.029   1.198   5.101
 4731TIP3    H114157   1.117   1.183   5.068
 4731TIP3    H214158   1.019   1.138   5.175
 4732TIP3   OH214159   4.363   5.645   4.826
 4732TIP3    H114160   4.310   5.725   4.826
 4732TIP3    H214161   4.370   5.622   4.733
 4733TIP3   OH214162   3.527   1.825   2.400
 4733TIP3    H114163   3.479   1.745   2.424
 4733TIP3    H214164   3.590   1.796   2.334
 4734TIP3   OH214165   2.801   6.597   2.022
 4734TIP3    H114166   2.871   6.562   1.966
 4734TIP3    H214167   2.845   6.657   2.081
 4735TIP3   OH214168   0.232   3.743   4.677
 4735TIP3    H114169   0.311   3.765   4.728
 4735TIP3    H214170   0.160   3.754   4.739
 4736TIP3   OH214171   5.814   0.693   4.838
 4736TIP3    H114172   5.893   0.675   4.889
 4736TIP3    H214173   5.743   0.682   4.900
 4737TIP3   OH214174   3.392   4.294   4.644
 4737TIP3    H114175   3.388   4.388   4.626
 4737TIP3    H214176   3.329   4.280   4.715
 4738TIP3   OH214177   6.833   0.376   2.582
 4738TIP3    H114178   6.803   0.317   2.513
 4738TIP3    H214179   6.752   0.418   2.613
 4739TIP3   OH214180   4.964   3.554   5.822
 4739TIP3    H114181   4.897   3.619   5.801
 4739TIP3    H214182   4.971   3.500   5.743
 4740TIP3   OH214183   2.017   1.135   2.902
 4740TIP3    H114184   2.105   1.127   2.939
 4740TIP3    H214185   2.030   1.178   2.817
 4741TIP3   OH214186   6.605   1.271   2.137
 4741TIP3    H114187   6.627   1.352   2.090
 4741TIP3    H214188   6.666   1.269   2.210
 4742TIP3   OH214189   4.966   6.603   4.135
 4742TIP3    H114190   4.932   6.514   4.139
 4742TIP3    H214191   4.915   6.651   4.201
 4743TIP3   OH214192   4.973   3.745   3.132
 4743TIP3    H114193   4.907   3.780   3.191
 4743TIP3    H214194   4.957   3.789   3.048
 4744TIP3   OH214195   4.902   0.042   3.490
 4744TIP3    H114196   4.897   0.110   3.556
 4744TIP3    H214197   4.811   0.020   3.471
 4745TIP3   OH214198   2.058   2.362   2.419
 4745TIP3    H114199   2.107   2.283   2.440
 4745TIP3    H214200   2.095   2.429   2.477
 4746TIP3   OH214201   6.763   2.794   0.740
 4746TIP3    H114202   6.759   2.837   0.654
 4746TIP3    H214203   6.682   2.744   0.746
 4747TIP3   OH214204   0.405   3.386   4.785
 4747TIP3    H114205   0.391   3.426   4.871
 4747TIP3    H214206   0.433   3.459   4.730
 4748TIP3   OH214207   3.873   6.339   3.552
 4748TIP3    H114208   3.885   6.433   3.566
 4748TIP3    H214209   3.866   6.302   3.640
 4749TIP3   OH214210   1.423   4.765   2.801
 4749TIP3    H114211   1.437   4.702   2.729
 4749TIP3    H214212   1.470   4.727   2.875
 4750TIP3   OH214213   1.124   0.578   5.727
 4750TIP3    H114214   1.074   0.499   5.706
 4750TIP3    H214215   1.126   0.581   5.822
 4751TIP3   OH214216   0.262   3.139   4.423
 4751TIP3    H114217   0.277   3.210   4.486
 4751TIP3    H214218   0.308   3.064   4.461
 4752TIP3   OH214219   7.200   2.995   2.025
 4752TIP3    H114220   7.134   3.017   1.960
 4752TIP3    H214221   7.283   3.023   1.986
 4753TIP3   OH214222   6.931   4.483   2.781
 4753TIP3    H114223   6.854   4.427   2.790
 4753TIP3    H214224   6.896   4.572   2.788
 4754TIP3   OH214225   5.251   4.975   3.970
 4754TIP3    H114226   5.179   4.979   4.032
 4754TIP3    H214227   5.308   4.906   4.003
 4755TIP3   OH214228   5.095   2.977   4.401
 4755TIP3    H114229   5.085   3.040   4.330
 4755TIP3    H214230   5.187   2.949   4.396
 4756TIP3   OH214231   0.394   4.209   1.479
 4756TIP3    H114232   0.320   4.187   1.424
 4756TIP3    H214233   0.382   4.301   1.501
 4757TIP3   OH214234   5.234   6.653   4.111
 4757TIP3    H114235   5.149   6.622   4.141
 4757TIP3    H214236   5.234   6.635   4.017
 4758TIP3   OH214237   1.559   5.670   0.030
 4758TIP3    H114238   1.572   5.579   0.004
 4758TIP3    H214239   1.648   5.706   0.037
 4759TIP3   OH214240   5.782   4.982   4.212
 4759TIP3    H114241   5.723   4.918   4.253
 4759TIP3    H214242   5.801   5.045   4.282
 4760TIP3   OH214243   4.388   4.628   1.664
 4760TIP3    H114244   4.452   4.621   1.593
 4760TIP3    H214245   4.315   4.572   1.637
 4761TIP3   OH214246   4.120   5.436   0.749
 4761TIP3    H114247   4.075   5.512   0.711
 4761TIP3    H214248   4.124   5.455   0.843
 4762TIP3   OH214249   1.950   5.319   0.808
 4762TIP3    H114250   1.958   5.230   0.773
 4762TIP3    H214251   1.858   5.326   0.833
 4763TIP3   OH214252   0.702   5.285   2.208
 4763TIP3    H114253   0.665   5.207   2.167
 4763TIP3    H214254   0.769   5.252   2.267
 4764TIP3   OH214255   4.262   3.895   0.049
 4764TIP3    H114256   4.314   3.825   0.088
 4764TIP3    H214257   4.224   3.941   0.124
 4765TIP3   OH214258   6.416   6.624   1.707
 4765TIP3    H114259   6.378   6.544   1.669
 4765TIP3    H214260   6.345   6.688   1.703
 4766TIP3   OH214261   4.429   4.597   1.347
 4766TIP3    H114262   4.365   4.533   1.315
 4766TIP3    H214263   4.480   4.550   1.413
 4767TIP3   OH214264   0.725   1.520   1.772
 4767TIP3    H114265   0.736   1.559   1.859
 4767TIP3    H214266   0.809   1.536   1.729
 4768TIP3   OH214267   4.792   4.672   4.876
 4768TIP3    H114268   4.744   4.589   4.881
 4768TIP3    H214269   4.726   4.737   4.852
 4769TIP3   OH214270   3.865   3.565   0.761
 4769TIP3    H114271   3.878   3.582   0.668
 4769TIP3    H214272   3.889   3.647   0.804
 4770TIP3   OH214273   2.026   4.841   3.626
 4770TIP3    H114274   2.061   4.846   3.537
 4770TIP3    H214275   2.097   4.875   3.681
 4771TIP3   OH214276   2.694   1.226   4.058
 4771TIP3    H114277   2.768   1.172   4.081
 4771TIP3    H214278   2.681   1.284   4.133
 4772TIP3   OH214279   3.741   6.778   5.387
 4772TIP3    H114280   3.816   6.753   5.440
 4772TIP3    H214281   3.688   6.833   5.445
 4773TIP3   OH214282   4.539   5.430   5.198
 4773TIP3    H114283   4.445   5.442   5.212
 4773TIP3    H214284   4.570   5.385   5.276
 4774TIP3   OH214285   1.838   1.857   3.506
 4774TIP3    H114286   1.837   1.817   3.419
 4774TIP3    H214287   1.779   1.932   3.498
 4775TIP3   OH214288   6.614   4.371   4.089
 4775TIP3    H114289   6.688   4.382   4.149
 4775TIP3    H214290   6.541   4.416   4.131
 4776TIP3   OH214291   1.349   5.522   3.925
 4776TIP3    H114292   1.255   5.517   3.939
 4776TIP3    H214293   1.367   5.616   3.916
 4777TIP3   OH214294   3.038   4.542   2.225
 4777TIP3    H114295   2.944   4.546   2.211
 4777TIP3    H214296   3.071   4.625   2.192
 4778TIP3   OH214297   3.372   3.401   4.039
 4778TIP3    H114298   3.278   3.416   4.054
 4778TIP3    H214299   3.416   3.467   4.093
 4779TIP3   OH214300   2.642   5.548   2.846
 4779TIP3    H114301   2.692   5.573   2.923
 4779TIP3    H214302   2.638   5.627   2.793
 4780TIP3   OH214303   0.585   5.128   0.228
 4780TIP3    H114304   0.493   5.112   0.207
 4780TIP3    H214305   0.618   5.043   0.256
 4781TIP3   OH214306   6.525   3.148   5.129
 4781TIP3    H114307   6.612   3.178   5.155
 4781TIP3    H214308   6.535   3.054   5.116
 4782TIP3   OH214309   1.992   0.522   3.216
 4782TIP3    H114310   1.934   0.593   3.187
 4782TIP3    H214311   2.020   0.547   3.304
 4783TIP3   OH214312   3.747   0.552   4.854
 4783TIP3    H114313   3.727   0.464   4.823
 4783TIP3    H214314   3.664   0.586   4.886
 4784TIP3   OH214315   6.257   2.938   1.950
 4784TIP3    H114316   6.190   2.884   1.991
 4784TIP3    H214317   6.284   2.888   1.873
 4785TIP3   OH214318   4.248   4.800   3.430
 4785TIP3    H114319   4.326   4.838   3.389
 4785TIP3    H214320   4.279   4.724   3.477
 4786TIP3   OH214321   6.749   1.770   3.792
 4786TIP3    H114322   6.772   1.678   3.802
 4786TIP3    H214323   6.701   1.774   3.709
 4787TIP3   OH214324   6.414   2.721   2.076
 4787TIP3    H114325   6.342   2.783   2.082
 4787TIP3    H214326   6.472   2.745   2.148
 4788TIP3   OH214327   5.070   1.786   0.070
 4788TIP3    H114328   5.145   1.753   0.120
 4788TIP3    H214329   5.033   1.855   0.125
 4789TIP3   OH214330   1.179   3.658   4.699
 4789TIP3    H114331   1.092   3.633   4.731
 4789TIP3    H214332   1.175   3.753   4.689
 4790TIP3   OH214333   3.405   3.840   3.621
 4790TIP3    H114334   3.361   3.801   3.546
 4790TIP3    H214335   3.414   3.768   3.684
 4791TIP3   OH214336   2.322   1.711   5.354
 4791TIP3    H114337   2.229   1.726   5.367
 4791TIP3    H214338   2.334   1.708   5.259
 4792TIP3   OH214339   1.690   0.546   3.624
 4792TIP3    H114340   1.771   0.594   3.639
 4792TIP3    H214341   1.622   0.614   3.621
 4793TIP3   OH214342   2.586   2.986   1.898
 4793TIP3    H114343   2.517   2.947   1.951
 4793TIP3    H214344   2.661   2.993   1.957
 4794TIP3   OH214345   2.094   6.103   1.813
 4794TIP3    H114346   2.172   6.066   1.853
 4794TIP3    H214347   2.111   6.197   1.808
 4795TIP3   OH214348   6.706   4.525   3.283
 4795TIP3    H114349   6.627   4.561   3.324
 4795TIP3    H214350   6.697   4.430   3.295
 4796TIP3   OH214351   5.723   3.721   0.201
 4796TIP3    H114352   5.785   3.713   0.273
 4796TIP3    H214353   5.648   3.767   0.239
 4797TIP3   OH214354   0.177   5.640   1.178
 4797TIP3    H114355   0.186   5.545   1.174
 4797TIP3    H214356   0.267   5.672   1.187
 4798TIP3   OH214357   0.204   6.226   1.517
 4798TIP3    H114358   0.291   6.186   1.521
 4798TIP3    H214359   0.177   6.232   1.608
 4799TIP3   OH214360   6.017   2.594   3.456
 4799TIP3    H114361   6.112   2.598   3.464
 4799TIP3    H214362   6.002   2.542   3.377
 4800TIP3   OH214363   5.122   0.112   0.066
 4800TIP3    H114364   5.129   0.205   0.047
 4800TIP3    H214365   5.036   0.086   0.033
 4801TIP3   OH214366   7.146   3.019   2.288
 4801TIP3    H114367   7.177   3.034   2.199
 4801TIP3    H214368   7.076   2.955   2.278
 4802TIP3   OH214369   4.784   1.707   3.394
 4802TIP3    H114370   4.864   1.742   3.356
 4802TIP3    H214371   4.716   1.771   3.373
 4803TIP3   OH214372   2.539   4.566   1.035
 4803TIP3    H114373   2.479   4.542   0.964
 4803TIP3    H214374   2.570   4.483   1.070
 4804TIP3   OH214375   3.061   2.056   5.570
 4804TIP3    H114376   3.126   2.126   5.578
 4804TIP3    H214377   3.001   2.087   5.502
 4805TIP3   OH214378   0.415   6.695   4.671
 4805TIP3    H114379   0.435   6.692   4.577
 4805TIP3    H214380   0.456   6.775   4.702
 4806TIP3   OH214381   4.324   3.512   5.505
 4806TIP3    H114382   4.325   3.602   5.472
 4806TIP3    H214383   4.417   3.488   5.512
 4807TIP3   OH214384   3.129   3.013   2.956
 4807TIP3    H114385   3.101   2.926   2.927
 4807TIP3    H214386   3.127   3.008   3.052
 4808TIP3   OH214387   6.815   4.086   5.727
 4808TIP3    H114388   6.892   4.091   5.670
 4808TIP3    H214389   6.823   4.000   5.770
 4809TIP3   OH214390   6.794   0.969   2.177
 4809TIP3    H114391   6.796   1.033   2.248
 4809TIP3    H214392   6.887   0.955   2.156
 4810TIP3   OH214393   5.176   5.682   2.182
 4810TIP3    H114394   5.112   5.635   2.129
 4810TIP3    H214395   5.247   5.619   2.195
 4811TIP3   OH214396   0.895   3.097   3.274
 4811TIP3    H114397   0.864   3.133   3.357
 4811TIP3    H214398   0.958   3.162   3.242
 4812TIP3   OH214399   3.224   4.535   5.176
 4812TIP3    H114400   3.309   4.530   5.133
 4812TIP3    H214401   3.238   4.495   5.262
 4813TIP3   OH214402   6.292   2.610   3.359
 4813TIP3    H114403   6.318   2.546   3.293
 4813TIP3    H214404   6.374   2.642   3.396
 4814TIP3   OH214405   2.384   4.814   4.245
 4814TIP3    H114406   2.318   4.822   4.175
 4814TIP3    H214407   2.383   4.900   4.287
 4815TIP3   OH214408   6.757   2.135   1.953
 4815TIP3    H114409   6.770   2.187   2.033
 4815TIP3    H214410   6.666   2.152   1.929
 4816TIP3   OH214411   1.555   5.049   1.107
 4816TIP3    H114412   1.488   5.112   1.079
 4816TIP3    H214413   1.615   5.101   1.160
 4817TIP3   OH214414   1.863   0.458   0.102
 4817TIP3    H114415   1.793   0.395   0.122
 4817TIP3    H214416   1.943   0.409   0.119
 4818TIP3   OH214417   1.634   6.093   4.640
 4818TIP3    H114418   1.632   6.188   4.636
 4818TIP3    H214419   1.727   6.070   4.632
 4819TIP3   OH214420   2.067   6.228   0.898
 4819TIP3    H114421   2.135   6.200   0.838
 4819TIP3    H214422   2.105   6.216   0.985
 4820TIP3   OH214423   4.445   0.865   1.326
 4820TIP3    H114424   4.386   0.872   1.401
 4820TIP3    H214425   4.419   0.938   1.269
 4821TIP3   OH214426   2.528   1.841   5.479
 4821TIP3    H114427   2.448   1.795   5.453
 4821TIP3    H214428   2.500   1.931   5.495
 4822TIP3   OH214429   6.249   2.144   1.987
 4822TIP3    H114430   6.197   2.223   1.976
 4822TIP3    H214431   6.203   2.094   2.054
 4823TIP3   OH214432   1.169   2.767   1.151
 4823TIP3    H114433   1.139   2.818   1.226
 4823TIP3    H214434   1.265   2.768   1.158
 4824TIP3   OH214435   1.730   6.777   5.336
 4824TIP3    H114436   1.751   6.688   5.365
 4824TIP3    H214437   1.666   6.765   5.266
 4825TIP3   OH214438   0.030   2.366   4.228
 4825TIP3    H114439  -0.057   2.405   4.226
 4825TIP3    H214440   0.078   2.410   4.157
 4826TIP3   OH214441   2.946   1.269   5.083
 4826TIP3    H114442   2.871   1.214   5.056
 4826TIP3    H214443   2.911   1.323   5.154
 4827TIP3   OH214444   3.390   1.974   5.414
 4827TIP3    H114445   3.355   2.053   5.372
 4827TIP3    H214446   3.429   1.925   5.342
 4828TIP3   OH214447   3.039   3.422   4.551
 4828TIP3    H114448   3.091   3.494   4.586
 4828TIP3    H214449   3.103   3.354   4.529
 4829TIP3   OH214450   0.096   0.257   1.250
 4829TIP3    H114451   0.088   0.348   1.278
 4829TIP3    H214452   0.148   0.261   1.170
 4830TIP3   OH214453   7.145   2.245   3.008
 4830TIP3    H114454   7.194   2.191   3.070
 4830TIP3    H214455   7.125   2.325   3.057
 4831TIP3   OH214456   1.678   3.955   4.419
 4831TIP3    H114457   1.707   3.878   4.467
 4831TIP3    H214458   1.725   3.951   4.336
 4832TIP3   OH214459   4.130   1.993   2.916
 4832TIP3    H114460   4.059   1.994   2.981
 4832TIP3    H214461   4.109   1.918   2.859
 4833TIP3   OH214462   1.568   5.442   4.334
 4833TIP3    H114463   1.474   5.424   4.336
 4833TIP3    H214464   1.579   5.518   4.391
 4834TIP3   OH214465   3.831   0.269   1.680
 4834TIP3    H114466   3.881   0.197   1.640
 4834TIP3    H214467   3.770   0.296   1.612
 4835TIP3   OH214468   4.030   3.966   2.133
 4835TIP3    H114469   4.074   3.999   2.211
 4835TIP3    H214470   3.994   3.881   2.160
 4836TIP3   OH214471   6.614   2.627   1.506
 4836TIP3    H114472   6.669   2.598   1.579
 4836TIP3    H214473   6.639   2.570   1.433
 4837TIP3   OH214474   6.674   3.821   2.810
 4837TIP3    H114475   6.683   3.759   2.883
 4837TIP3    H214476   6.701   3.772   2.733
 4838TIP3   OH214477   1.285   2.954   5.033
 4838TIP3    H114478   1.368   3.001   5.028
 4838TIP3    H214479   1.295   2.880   4.973
 4839TIP3   OH214480   6.857   6.267   3.430
 4839TIP3    H114481   6.832   6.230   3.514
 4839TIP3    H214482   6.908   6.199   3.387
 4840TIP3   OH214483   2.890   2.521   3.816
 4840TIP3    H114484   2.945   2.599   3.827
 4840TIP3    H214485   2.810   2.540   3.865
 4841TIP3   OH214486   2.775   5.786   0.342
 4841TIP3    H114487   2.840   5.789   0.411
 4841TIP3    H214488   2.737   5.698   0.348
 4842TIP3   OH214489   1.338   0.414   4.773
 4842TIP3    H114490   1.397   0.488   4.791
 4842TIP3    H214491   1.386   0.337   4.802
 4843TIP3   OH214492   1.159   4.141   3.354
 4843TIP3    H114493   1.068   4.157   3.329
 4843TIP3    H214494   1.210   4.201   3.300
 4844TIP3   OH214495   3.125   4.168   0.031
 4844TIP3    H114496   3.145   4.252  -0.011
 4844TIP3    H214497   3.155   4.102  -0.031
 4845TIP3   OH214498   3.298   5.684   4.407
 4845TIP3    H114499   3.312   5.768   4.450
 4845TIP3    H214500   3.210   5.658   4.433
 4846TIP3   OH214501   3.786   5.936   0.596
 4846TIP3    H114502   3.696   5.921   0.626
 4846TIP3    H214503   3.817   6.010   0.649
 4847TIP3   OH214504   1.599   0.749   5.504
 4847TIP3    H114505   1.595   0.778   5.413
 4847TIP3    H214506   1.628   0.826   5.553
 4848TIP3   OH214507   3.627   6.755   1.216
 4848TIP3    H114508   3.682   6.689   1.174
 4848TIP3    H214509   3.547   6.708   1.240
 4849TIP3   OH214510   4.877   2.881   2.686
 4849TIP3    H114511   4.870   2.801   2.739
 4849TIP3    H214512   4.792   2.890   2.644
 4850TIP3   OH214513   7.127   4.622   1.988
 4850TIP3    H114514   7.044   4.630   2.035
 4850TIP3    H214515   7.127   4.532   1.955
 4851TIP3   OH214516   1.300   5.389   2.532
 4851TIP3    H114517   1.254   5.310   2.561
 4851TIP3    H214518   1.349   5.418   2.609
 4852TIP3   OH214519   3.173   1.374   4.935
 4852TIP3    H114520   3.166   1.469   4.936
 4852TIP3    H214521   3.100   1.345   4.991
 4853TIP3   OH214522   4.267   0.622   0.119
 4853TIP3    H114523   4.222   0.560   0.061
 4853TIP3    H214524   4.197   0.678   0.153
 4854TIP3   OH214525   6.870   0.348   5.759
 4854TIP3    H114526   6.780   0.333   5.729
 4854TIP3    H214527   6.860   0.405   5.835
 4855TIP3   OH214528   6.606   1.869   0.970
 4855TIP3    H114529   6.555   1.838   1.044
 4855TIP3    H214530   6.603   1.964   0.976
 4856TIP3   OH214531   6.191   6.165   5.148
 4856TIP3    H114532   6.241   6.236   5.189
 4856TIP3    H214533   6.257   6.112   5.103
 4857TIP3   OH214534   2.759   4.012   1.996
 4857TIP3    H114535   2.851   4.025   2.018
 4857TIP3    H214536   2.738   4.085   1.937
 4858TIP3   OH214537   0.036   1.117   3.553
 4858TIP3    H114538   0.083   1.039   3.522
 4858TIP3    H214539  -0.008   1.088   3.633
 4859TIP3   OH214540   0.999   2.407   1.639
 4859TIP3    H114541   0.936   2.469   1.676
 4859TIP3    H214542   1.024   2.447   1.555
 4860TIP3   OH214543   1.338   3.494   5.543
 4860TIP3    H114544   1.278   3.444   5.599
 4860TIP3    H214545   1.409   3.518   5.602
 4861TIP3   OH214546   2.241   4.866   5.794
 4861TIP3    H114547   2.224   4.793   5.853
 4861TIP3    H214548   2.335   4.883   5.804
 4862TIP3   OH214549   5.458   5.817   0.953
 4862TIP3    H114550   5.475   5.859   1.038
 4862TIP3    H214551   5.531   5.845   0.897
 4863TIP3   OH214552   4.028   2.618   1.310
 4863TIP3    H114553   4.011   2.690   1.371
 4863TIP3    H214554   4.103   2.572   1.347
 4864TIP3   OH214555   2.471   0.543   4.202
 4864TIP3    H114556   2.500   0.535   4.293
 4864TIP3    H214557   2.415   0.620   4.201
 4865TIP3   OH214558   6.844   3.954   2.341
 4865TIP3    H114559   6.923   3.973   2.392
 4865TIP3    H214560   6.850   3.860   2.322
 4866TIP3   OH214561   3.354   1.676   5.515
 4866TIP3    H114562   3.358   1.617   5.591
 4866TIP3    H214563   3.308   1.754   5.548
 4867TIP3   OH214564   2.750   4.655   1.632
 4867TIP3    H114565   2.728   4.563   1.645
 4867TIP3    H214566   2.708   4.678   1.549
 4868TIP3   OH214567   4.244   2.326   0.248
 4868TIP3    H114568   4.199   2.241   0.250
 4868TIP3    H214569   4.186   2.382   0.196
 4869TIP3   OH214570   2.941   3.866   4.201
 4869TIP3    H114571   2.867   3.910   4.244
 4869TIP3    H214572   2.961   3.921   4.126
 4870TIP3   OH214573   2.415   2.027   5.773
 4870TIP3    H114574   2.480   2.053   5.707
 4870TIP3    H214575   2.447   2.064   5.855
 4871TIP3   OH214576   1.736   4.437   2.155
 4871TIP3    H114577   1.757   4.433   2.248
 4871TIP3    H214578   1.674   4.509   2.147
 4872TIP3   OH214579   0.568   5.162   5.241
 4872TIP3    H114580   0.621   5.192   5.167
 4872TIP3    H214581   0.630   5.118   5.299
 4873TIP3   OH214582   4.648   6.494   3.322
 4873TIP3    H114583   4.674   6.479   3.413
 4873TIP3    H214584   4.712   6.447   3.270
 4874TIP3   OH214585   3.340   2.904   4.753
 4874TIP3    H114586   3.359   2.876   4.664
 4874TIP3    H214587   3.245   2.911   4.757
 4875TIP3   OH214588   5.187   5.176   3.508
 4875TIP3    H114589   5.160   5.144   3.594
 4875TIP3    H214590   5.191   5.272   3.518
 4876TIP3   OH214591   2.900   2.897   4.557
 4876TIP3    H114592   2.819   2.936   4.591
 4876TIP3    H214593   2.915   2.942   4.474
 4877TIP3   OH214594   2.620   3.964   4.925
 4877TIP3    H114595   2.656   3.926   4.844
 4877TIP3    H214596   2.545   3.908   4.946
 4878TIP3   OH214597   6.182   6.661   2.296
 4878TIP3    H114598   6.148   6.583   2.251
 4878TIP3    H214599   6.106   6.717   2.308
 4879TIP3   OH214600   7.086   4.074   0.224
 4879TIP3    H114601   7.023   4.064   0.152
 4879TIP3    H214602   7.063   4.004   0.286
 4880TIP3   OH214603   3.190   1.171   4.767
 4880TIP3    H114604   3.188   1.251   4.819
 4880TIP3    H214605   3.201   1.101   4.831
 4881TIP3   OH214606   1.022   3.985   5.058
 4881TIP3    H114607   1.047   3.975   4.966
 4881TIP3    H214608   0.934   3.948   5.063
 4882TIP3   OH214609   3.602   4.674   5.064
 4882TIP3    H114610   3.675   4.691   5.004
 4882TIP3    H214611   3.618   4.732   5.139
 4883TIP3   OH214612   5.404   5.092   2.976
 4883TIP3    H114613   5.460   5.138   2.914
 4883TIP3    H214614   5.315   5.113   2.947
 4884TIP3   OH214615   1.521   0.268   1.868
 4884TIP3    H114616   1.441   0.309   1.902
 4884TIP3    H214617   1.570   0.243   1.946
 4885TIP3   OH214618   2.595   5.864   3.299
 4885TIP3    H114619   2.642   5.877   3.381
 4885TIP3    H214620   2.551   5.779   3.309
 4886TIP3   OH214621   5.457   2.730   3.003
 4886TIP3    H114622   5.476   2.820   3.029
 4886TIP3    H214623   5.423   2.737   2.913
 4887TIP3   OH214624   5.406   3.746   0.631
 4887TIP3    H114625   5.410   3.842   0.634
 4887TIP3    H214626   5.369   3.727   0.544
 4888TIP3   OH214627   2.250   2.041   5.470
 4888TIP3    H114628   2.227   2.027   5.378
 4888TIP3    H214629   2.335   2.086   5.466
 4889TIP3   OH214630   0.532   5.052   3.310
 4889TIP3    H114631   0.606   5.088   3.359
 4889TIP3    H214632   0.571   4.986   3.253
 4890TIP3   OH214633   4.654   5.620   1.751
 4890TIP3    H114634   4.654   5.711   1.721
 4890TIP3    H214635   4.736   5.583   1.717
 4891TIP3   OH214636   1.404   5.379   5.313
 4891TIP3    H114637   1.316   5.383   5.349
 4891TIP3    H214638   1.444   5.462   5.338
 4892TIP3   OH214639   4.012   1.318   2.083
 4892TIP3    H114640   4.045   1.340   2.170
 4892TIP3    H214641   3.991   1.403   2.044
 4893TIP3   OH214642   2.780   1.219   3.779
 4893TIP3    H114643   2.740   1.245   3.862
 4893TIP3    H214644   2.874   1.222   3.795
 4894TIP3   OH214645   4.416   6.534   2.830
 4894TIP3    H114646   4.334   6.582   2.833
 4894TIP3    H214647   4.436   6.525   2.737
 4895TIP3   OH214648   5.574   5.630   0.113
 4895TIP3    H114649   5.530   5.637   0.198
 4895TIP3    H214650   5.619   5.546   0.116
 4896TIP3   OH214651   3.369   0.330   3.688
 4896TIP3    H114652   3.287   0.305   3.646
 4896TIP3    H214653   3.358   0.304   3.779
 4897TIP3   OH214654   5.668   3.809   3.106
 4897TIP3    H114655   5.639   3.742   3.044
 4897TIP3    H214656   5.706   3.759   3.179
 4898TIP3   OH214657   0.274   4.415   5.478
 4898TIP3    H114658   0.296   4.462   5.398
 4898TIP3    H214659   0.251   4.483   5.541
 4899TIP3   OH214660   2.049   6.037   3.522
 4899TIP3    H114661   2.034   5.989   3.440
 4899TIP3    H214662   2.004   5.986   3.589
 4900TIP3   OH214663   4.756   2.890   4.658
 4900TIP3    H114664   4.837   2.875   4.609
 4900TIP3    H214665   4.696   2.824   4.625
 4901TIP3   OH214666   3.542   6.071   4.432
 4901TIP3    H114667   3.620   6.076   4.377
 4901TIP3    H214668   3.513   6.162   4.441
 4902TIP3   OH214669   2.855   0.301   4.490
 4902TIP3    H114670   2.849   0.389   4.529
 4902TIP3    H214671   2.791   0.302   4.419
 4903TIP3   OH214672   0.797   6.757   4.480
 4903TIP3    H114673   0.829   6.682   4.429
 4903TIP3    H214674   0.722   6.790   4.431
 4904TIP3   OH214675   2.227   4.912   5.530
 4904TIP3    H114676   2.237   4.888   5.622
 4904TIP3    H214677   2.207   4.830   5.485
 4905TIP3   OH214678   2.160   6.276   3.436
 4905TIP3    H114679   2.106   6.211   3.481
 4905TIP3    H214680   2.222   6.306   3.502
 4906TIP3   OH214681   3.184   5.193   3.898
 4906TIP3    H114682   3.184   5.210   3.804
 4906TIP3    H214683   3.227   5.269   3.936
 4907TIP3   OH214684   0.179   6.051   2.977
 4907TIP3    H114685   0.274   6.050   2.965
 4907TIP3    H214686   0.147   5.974   2.930
 4908TIP3   OH214687   5.389   6.473   1.528
 4908TIP3    H114688   5.451   6.543   1.509
 4908TIP3    H214689   5.327   6.475   1.454
 4909TIP3   OH214690   7.003   0.939   4.884
 4909TIP3    H114691   7.061   0.975   4.817
 4909TIP3    H214692   6.944   0.880   4.836
 4910TIP3   OH214693   2.802   5.348   0.234
 4910TIP3    H114694   2.860   5.416   0.268
 4910TIP3    H214695   2.785   5.374   0.144
 4911TIP3   OH214696   0.259   1.797   4.497
 4911TIP3    H114697   0.339   1.774   4.449
 4911TIP3    H214698   0.189   1.752   4.450
 4912TIP3   OH214699   1.323   1.171   3.651
 4912TIP3    H114700   1.305   1.187   3.743
 4912TIP3    H214701   1.265   1.099   3.627
 4913TIP3   OH214702   6.027   2.612   1.445
 4913TIP3    H114703   6.116   2.646   1.432
 4913TIP3    H214704   6.029   2.525   1.404
 4914TIP3   OH214705   6.710   4.796   0.208
 4914TIP3    H114706   6.691   4.860   0.139
 4914TIP3    H214707   6.776   4.739   0.169
 4915TIP3   OH214708   1.366   5.336   1.964
 4915TIP3    H114709   1.284   5.376   1.935
 4915TIP3    H214710   1.357   5.244   1.941
 4916TIP3   OH214711   5.268   0.885   3.333
 4916TIP3    H114712   5.264   0.795   3.365
 4916TIP3    H214713   5.217   0.884   3.252
 4917TIP3   OH214714   3.920   2.641   3.771
 4917TIP3    H114715   3.921   2.718   3.827
 4917TIP3    H214716   4.005   2.641   3.728
 4918TIP3   OH214717   7.200   4.676   1.455
 4918TIP3    H114718   7.119   4.715   1.421
 4918TIP3    H214719   7.262   4.749   1.460
 4919TIP3   OH214720   4.168   3.967   1.872
 4919TIP3    H114721   4.178   3.874   1.849
 4919TIP3    H214722   4.119   3.966   1.955
 4920TIP3   OH214723   2.670   1.543   2.210
 4920TIP3    H114724   2.589   1.595   2.213
 4920TIP3    H214725   2.737   1.603   2.243
 4921TIP3   OH214726   6.017   4.110   0.936
 4921TIP3    H114727   6.018   4.093   0.841
 4921TIP3    H214728   5.925   4.121   0.958
 4922TIP3   OH214729   3.470   0.963   0.856
 4922TIP3    H114730   3.485   0.892   0.794
 4922TIP3    H214731   3.376   0.981   0.850
 4923TIP3   OH214732   1.735   4.287   1.290
 4923TIP3    H114733   1.737   4.276   1.194
 4923TIP3    H214734   1.827   4.287   1.316
 4924TIP3   OH214735   5.190   5.696   0.277
 4924TIP3    H114736   5.186   5.601   0.276
 4924TIP3    H214737   5.112   5.723   0.326
 4925TIP3   OH214738   5.192   4.183   4.938
 4925TIP3    H114739   5.228   4.162   5.024
 4925TIP3    H214740   5.169   4.276   4.944
 4926TIP3   OH214741   1.343   1.103   4.617
 4926TIP3    H114742   1.296   1.186   4.605
 4926TIP3    H214743   1.425   1.128   4.659
 4927TIP3   OH214744   7.142   1.817   1.722
 4927TIP3    H114745   7.226   1.848   1.688
 4927TIP3    H214746   7.136   1.726   1.692
 4928TIP3   OH214747   7.016   2.857   5.461
 4928TIP3    H114748   6.969   2.835   5.542
 4928TIP3    H214749   7.107   2.831   5.478
 4929TIP3   OH214750   1.343   3.711   2.991
 4929TIP3    H114751   1.329   3.801   3.019
 4929TIP3    H214752   1.277   3.696   2.923
 4930TIP3   OH214753   1.525   5.037   2.888
 4930TIP3    H114754   1.491   4.948   2.886
 4930TIP3    H214755   1.573   5.046   2.805
 4931TIP3   OH214756   5.293   2.366   2.567
 4931TIP3    H114757   5.364   2.325   2.517
 4931TIP3    H214758   5.219   2.367   2.507
 4932TIP3   OH214759   2.737   0.524   4.066
 4932TIP3    H114760   2.792   0.560   3.996
 4932TIP3    H214761   2.663   0.484   4.020
 4933TIP3   OH214762   5.648   0.666   4.104
 4933TIP3    H114763   5.643   0.652   4.199
 4933TIP3    H214764   5.562   0.697   4.079
 4934TIP3   OH214765   1.197   3.916   4.660
 4934TIP3    H114766   1.257   3.969   4.712
 4934TIP3    H214767   1.198   3.957   4.573
 4935TIP3   OH214768   6.610   6.555   4.581
 4935TIP3    H114769   6.541   6.560   4.515
 4935TIP3    H214770   6.678   6.500   4.540
 4936TIP3   OH214771   2.872   5.785   1.901
 4936TIP3    H114772   2.892   5.749   1.814
 4936TIP3    H214773   2.913   5.723   1.962
 4937TIP3   OH214774   3.574   4.930   2.643
 4937TIP3    H114775   3.574   4.919   2.547
 4937TIP3    H214776   3.612   4.849   2.676
 4938TIP3   OH214777   1.284   1.230   1.483
 4938TIP3    H114778   1.345   1.175   1.434
 4938TIP3    H214779   1.331   1.252   1.564
 4939TIP3   OH214780   3.411   5.324   0.149
 4939TIP3    H114781   3.446   5.254   0.095
 4939TIP3    H214782   3.479   5.341   0.214
 4940TIP3   OH214783   2.811   4.952   1.402
 4940TIP3    H114784   2.787   5.006   1.326
 4940TIP3    H214785   2.757   4.873   1.393
 4941TIP3   OH214786   2.447   2.221   5.020
 4941TIP3    H114787   2.480   2.139   5.057
 4941TIP3    H214788   2.415   2.270   5.096
 4942TIP3   OH214789   4.213   5.379   1.496
 4942TIP3    H114790   4.160   5.305   1.467
 4942TIP3    H214791   4.262   5.345   1.571
 4943TIP3   OH214792   0.143   4.790   0.982
 4943TIP3    H114793   0.054   4.813   0.958
 4943TIP3    H214794   0.151   4.698   0.957
 4944TIP3   OH214795   0.901   5.942   4.876
 4944TIP3    H114796   0.888   5.899   4.961
 4944TIP3    H214797   0.953   6.020   4.896
 4945TIP3   OH214798   1.364   3.306   2.951
 4945TIP3    H114799   1.287   3.251   2.935
 4945TIP3    H214800   1.357   3.333   3.042
 4946TIP3   OH214801   6.866   1.687   5.884
 4946TIP3    H114802   6.789   1.634   5.905
 4946TIP3    H214803   6.852   1.715   5.793
 4947TIP3   OH214804   4.818   2.225   2.062
 4947TIP3    H114805   4.815   2.254   2.152
 4947TIP3    H214806   4.911   2.230   2.038
 4948TIP3   OH214807   2.768   2.666   1.729
 4948TIP3    H114808   2.730   2.647   1.643
 4948TIP3    H214809   2.769   2.582   1.774
 4949TIP3   OH214810   0.692   3.053   2.120
 4949TIP3    H114811   0.726   3.128   2.167
 4949TIP3    H214812   0.618   3.087   2.070
 4950TIP3   OH214813   1.474   1.126   1.326
 4950TIP3    H114814   1.479   1.139   1.231
 4950TIP3    H214815   1.556   1.082   1.348
 4951TIP3   OH214816   0.668   0.633   1.478
 4951TIP3    H114817   0.583   0.632   1.523
 4951TIP3    H214818   0.711   0.552   1.507
 4952TIP3   OH214819   5.448   1.342   0.286
 4952TIP3    H114820   5.413   1.315   0.371
 4952TIP3    H214821   5.371   1.359   0.232
 4953TIP3   OH214822   5.505   6.397   2.780
 4953TIP3    H114823   5.533   6.338   2.710
 4953TIP3    H214824   5.455   6.341   2.840
 4954TIP3   OH214825   6.063   0.418   1.599
 4954TIP3    H114826   6.030   0.410   1.510
 4954TIP3    H214827   6.147   0.463   1.590
 4955TIP3   OH214828   1.462   1.869   2.934
 4955TIP3    H114829   1.457   1.961   2.907
 4955TIP3    H214830   1.377   1.832   2.908
 4956TIP3   OH214831   5.571   4.826   0.086
 4956TIP3    H114832   5.654   4.778   0.085
 4956TIP3    H214833   5.508   4.766   0.047
 4957TIP3   OH214834   2.352   0.459   1.484
 4957TIP3    H114835   2.416   0.422   1.424
 4957TIP3    H214836   2.392   0.540   1.516
 4958TIP3   OH214837   3.210   2.575   5.066
 4958TIP3    H114838   3.173   2.528   4.992
 4958TIP3    H214839   3.305   2.562   5.057
 4959TIP3   OH214840   1.121   0.402   4.619
 4959TIP3    H114841   1.178   0.383   4.693
 4959TIP3    H214842   1.072   0.321   4.605
 4960TIP3   OH214843   6.291   3.887   4.744
 4960TIP3    H114844   6.244   3.811   4.710
 4960TIP3    H214845   6.228   3.932   4.800
 4961TIP3   OH214846   3.179   4.202   3.684
 4961TIP3    H114847   3.198   4.290   3.718
 4961TIP3    H214848   3.253   4.182   3.627
 4962TIP3   OH214849   4.408   1.891   1.939
 4962TIP3    H114850   4.486   1.937   1.969
 4962TIP3    H214851   4.351   1.960   1.905
 4963TIP3   OH214852   0.636   3.472   2.491
 4963TIP3    H114853   0.622   3.380   2.470
 4963TIP3    H214854   0.581   3.487   2.568
 4964TIP3   OH214855   0.260   3.497   3.429
 4964TIP3    H114856   0.234   3.496   3.521
 4964TIP3    H214857   0.196   3.553   3.386
 4965TIP3   OH214858   2.791   6.222   4.841
 4965TIP3    H114859   2.854   6.175   4.788
 4965TIP3    H214860   2.822   6.212   4.931
 4966TIP3   OH214861   2.276   6.358   0.624
 4966TIP3    H114862   2.304   6.288   0.682
 4966TIP3    H214863   2.233   6.421   0.682
 4967TIP3   OH214864   1.224   4.540   5.368
 4967TIP3    H114865   1.218   4.551   5.273
 4967TIP3    H214866   1.134   4.535   5.398
 4968TIP3   OH214867   1.842   5.563   4.497
 4968TIP3    H114868   1.920   5.521   4.461
 4968TIP3    H214869   1.829   5.522   4.582
 4969TIP3   OH214870   5.150   4.067   0.599
 4969TIP3    H114871   5.072   4.122   0.593
 4969TIP3    H214872   5.116   3.978   0.608
 4970TIP3   OH214873   1.867   2.512   3.684
 4970TIP3    H114874   1.886   2.588   3.628
 4970TIP3    H214875   1.775   2.522   3.707
 4971TIP3   OH214876   7.209   3.174   1.511
 4971TIP3    H114877   7.201   3.079   1.511
 4971TIP3    H214878   7.124   3.206   1.543
 4972TIP3   OH214879   4.558   6.724   5.861
 4972TIP3    H114880   4.530   6.732   5.770
 4972TIP3    H214881   4.639   6.776   5.866
 4973TIP3   OH214882   2.247   0.913   2.642
 4973TIP3    H114883   2.196   0.833   2.634
 4973TIP3    H214884   2.303   0.899   2.719
 4974TIP3   OH214885   4.591   6.729   4.109
 4974TIP3    H114886   4.650   6.712   4.182
 4974TIP3    H214887   4.597   6.824   4.095
 4975TIP3   OH214888   5.581   5.331   0.448
 4975TIP3    H114889   5.534   5.326   0.365
 4975TIP3    H214890   5.512   5.343   0.514
 4976TIP3   OH214891   5.004   5.914   4.937
 4976TIP3    H114892   4.961   5.895   5.020
 4976TIP3    H214893   5.095   5.890   4.951
 4977TIP3   OH214894   7.106   6.629   2.701
 4977TIP3    H114895   7.176   6.655   2.642
 4977TIP3    H214896   7.132   6.542   2.733
 4978TIP3   OH214897   4.101   4.458   3.595
 4978TIP3    H114898   4.042   4.507   3.538
 4978TIP3    H214899   4.131   4.521   3.660
 4979TIP3   OH214900   0.741   1.355   2.962
 4979TIP3    H114901   0.778   1.287   3.019
 4979TIP3    H214902   0.673   1.310   2.913
 4980TIP3   OH214903   2.683   4.047   5.598
 4980TIP3    H114904   2.706   4.088   5.514
 4980TIP3    H214905   2.737   3.968   5.601
 4981TIP3   OH214906   0.141   4.544   3.693
 4981TIP3    H114907   0.125   4.558   3.786
 4981TIP3    H214908   0.102   4.458   3.675
 4982TIP3   OH214909   1.838   3.195   2.679
 4982TIP3    H114910   1.828   3.214   2.772
 4982TIP3    H214911   1.759   3.148   2.654
 4983TIP3   OH214912   0.017   3.977   3.754
 4983TIP3    H114913  -0.001   3.901   3.698
 4983TIP3    H214914   0.092   4.020   3.713
 4984TIP3   OH214915   4.279   3.713   4.491
 4984TIP3    H114916   4.274   3.720   4.586
 4984TIP3    H214917   4.363   3.753   4.469
 4985TIP3   OH214918   6.421   3.975   4.523
 4985TIP3    H114919   6.372   3.926   4.588
 4985TIP3    H214920   6.377   3.956   4.440
 4986TIP3   OH214921   6.510   6.660   3.790
 4986TIP3    H114922   6.556   6.744   3.787
 4986TIP3    H214923   6.526   6.628   3.879
 4987TIP3   OH214924   4.408   1.396   2.068
 4987TIP3    H114925   4.358   1.475   2.047
 4987TIP3    H214926   4.429   1.357   1.983
 4988TIP3   OH214927   3.594   3.155   3.758
 4988TIP3    H114928   3.647   3.097   3.813
 4988TIP3    H214929   3.604   3.241   3.799
 4989TIP3   OH214930   4.151   0.833   3.563
 4989TIP3    H114931   4.072   0.881   3.589
 4989TIP3    H214932   4.217   0.859   3.627
 4990TIP3   OH214933   5.896   3.269   5.301
 4990TIP3    H114934   5.826   3.319   5.342
 4990TIP3    H214935   5.941   3.332   5.244
 4991TIP3   OH214936   4.013   5.667   0.675
 4991TIP3    H114937   3.926   5.708   0.674
 4991TIP3    H214938   4.054   5.698   0.594
 4992TIP3   OH214939   2.321   6.513   1.061
 4992TIP3    H114940   2.260   6.539   1.130
 4992TIP3    H214941   2.282   6.545   0.980
 4993TIP3   OH214942   1.710   4.534   1.430
 4993TIP3    H114943   1.733   4.447   1.398
 4993TIP3    H214944   1.767   4.594   1.382
 4994TIP3   OH214945   4.108   5.550   5.752
 4994TIP3    H114946   4.198   5.555   5.720
 4994TIP3    H214947   4.055   5.588   5.682
 4995TIP3   OH214948   7.094   1.836   5.536
 4995TIP3    H114949   7.014   1.809   5.490
 4995TIP3    H214950   7.160   1.774   5.508
 4996TIP3   OH214951   5.772   0.643   5.783
 4996TIP3    H114952   5.756   0.710   5.716
 4996TIP3    H214953   5.689   0.635   5.829
 4997TIP3   OH214954   0.559   1.875   0.032
 4997TIP3    H114955   0.515   1.915  -0.043
 4997TIP3    H214956   0.521   1.918   0.108
 4998TIP3   OH214957   4.704   1.972   2.244
 4998TIP3    H114958   4.661   2.016   2.317
 4998TIP3    H214959   4.668   2.013   2.166
 4999TIP3   OH214960   5.672   6.514   0.396
 4999TIP3    H114961   5.638   6.570   0.466
 4999TIP3    H214962   5.767   6.529   0.397
 5000TIP3   OH214963   4.035   5.100   0.237
 5000TIP3    H114964   3.969   5.092   0.168
 5000TIP3    H214965   4.119   5.099   0.190
 5001TIP3   OH214966   5.664   1.217   0.355
 5001TIP3    H114967   5.600   1.276   0.316
 5001TIP3    H214968   5.615   1.136   0.369
 5002TIP3   OH214969   5.814   3.475   3.035
 5002TIP3    H114970   5.849   3.405   2.980
 5002TIP3    H214971   5.722   3.451   3.050
 5003TIP3   OH214972   0.340   2.698   1.471
 5003TIP3    H114973   0.270   2.727   1.412
 5003TIP3    H214974   0.340   2.763   1.541
 5004TIP3   OH214975   5.731   0.417   5.557
 5004TIP3    H114976   5.698   0.370   5.634
 5004TIP3    H214977   5.748   0.506   5.589
 5005TIP3   OH214978   6.407   1.398   1.961
 5005TIP3    H114979   6.486   1.437   1.999
 5005TIP3    H214980   6.345   1.470   1.956
 5006TIP3   OH214981   7.133   0.069   1.096
 5006TIP3    H114982   7.072   0.131   1.055
 5006TIP3    H214983   7.164   0.114   1.174
 5007TIP3   OH214984   3.668   4.687   1.803
 5007TIP3    H114985   3.634   4.618   1.747
 5007TIP3    H214986   3.734   4.732   1.750
 5008TIP3   OH214987   2.904   3.119   4.372
 5008TIP3    H114988   2.874   3.137   4.461
 5008TIP3    H214989   2.907   3.205   4.329
 5009TIP3   OH214990   1.871   5.588   5.868
 5009TIP3    H114991   1.938   5.520   5.870
 5009TIP3    H214992   1.795   5.548   5.911
 5010TIP3   OH214993   4.960   1.557   2.330
 5010TIP3    H114994   4.926   1.477   2.289
 5010TIP3    H214995   4.995   1.608   2.257
 5011TIP3   OH214996   2.320   5.174   1.595
 5011TIP3    H114997   2.253   5.157   1.528
 5011TIP3    H214998   2.297   5.260   1.630
 5012TIP3   OH214999   6.645   6.487   0.994
 5012TIP3    H115000   6.603   6.544   1.058
 5012TIP3    H215001   6.577   6.422   0.972
 5013TIP3   OH215002   3.234   3.279   3.202
 5013TIP3    H115003   3.289   3.202   3.187
 5013TIP3    H215004   3.239   3.328   3.121
 5014TIP3   OH215005   1.929   4.464   1.051
 5014TIP3    H115006   1.879   4.389   1.019
 5014TIP3    H215007   2.010   4.427   1.084
 5015TIP3   OH215008   1.760   1.059   5.183
 5015TIP3    H115009   1.815   1.085   5.257
 5015TIP3    H215010   1.727   1.142   5.147
 5016TIP3   OH215011   2.925   3.375   4.294
 5016TIP3    H115012   2.888   3.456   4.261
 5016TIP3    H215013   2.951   3.395   4.384
 5017TIP3   OH215014   1.929   5.831   0.508
 5017TIP3    H115015   2.008   5.847   0.456
 5017TIP3    H215016   1.958   5.771   0.577
 5018TIP3   OH215017   6.846   2.278   3.233
 5018TIP3    H115018   6.757   2.245   3.222
 5018TIP3    H215019   6.900   2.200   3.247
 5019TIP3   OH215020   6.361   5.359   2.822
 5019TIP3    H115021   6.438   5.318   2.860
 5019TIP3    H215022   6.370   5.452   2.842
 5020TIP3   OH215023   4.212   4.954   4.138
 5020TIP3    H115024   4.130   4.917   4.171
 5020TIP3    H215025   4.197   4.965   4.044
 5021TIP3   OH215026   4.310   0.658   4.939
 5021TIP3    H115027   4.240   0.707   4.894
 5021TIP3    H215028   4.264   0.608   5.006
 5022TIP3   OH215029   2.838   2.826   0.127
 5022TIP3    H115030   2.854   2.837   0.221
 5022TIP3    H215031   2.773   2.756   0.122
 5023TIP3   OH215032   7.134   4.581   2.383
 5023TIP3    H115033   7.046   4.619   2.396
 5023TIP3    H215034   7.183   4.650   2.339
 5024TIP3   OH215035   3.641   4.651   0.444
 5024TIP3    H115036   3.716   4.605   0.481
 5024TIP3    H215037   3.625   4.608   0.360
 5025TIP3   OH215038   5.930   3.858   4.990
 5025TIP3    H115039   6.023   3.839   5.004
 5025TIP3    H215040   5.900   3.894   5.074
 5026TIP3   OH215041   1.504   5.128   4.519
 5026TIP3    H115042   1.570   5.189   4.485
 5026TIP3    H215043   1.509   5.137   4.614
 5027TIP3   OH215044   3.451   0.152   4.528
 5027TIP3    H115045   3.418   0.163   4.439
 5027TIP3    H215046   3.444   0.058   4.545
 5028TIP3   OH215047   4.529   3.717   3.067
 5028TIP3    H115048   4.526   3.715   3.163
 5028TIP3    H215049   4.473   3.645   3.040
 5029TIP3   OH215050   6.312   2.317   0.054
 5029TIP3    H115051   6.322   2.389  -0.009
 5029TIP3    H215052   6.399   2.277   0.057
 5030TIP3   OH215053   1.222   3.896   4.076
 5030TIP3    H115054   1.295   3.957   4.084
 5030TIP3    H215055   1.157   3.944   4.025
 5031TIP3   OH215056   2.339   3.498   3.522
 5031TIP3    H115057   2.417   3.542   3.556
 5031TIP3    H215058   2.341   3.412   3.565
 5032TIP3   OH215059   4.218   1.578   5.648
 5032TIP3    H115060   4.277   1.605   5.576
 5032TIP3    H215061   4.134   1.617   5.625
 5033TIP3   OH215062   1.931   4.076   5.819
 5033TIP3    H115063   1.955   4.062   5.728
 5033TIP3    H215064   1.970   4.002   5.866
 5034TIP3   OH215065   4.866   5.219   1.496
 5034TIP3    H115066   4.785   5.270   1.491
 5034TIP3    H215067   4.926   5.262   1.436
 5035TIP3   OH215068   5.499   6.292   5.364
 5035TIP3    H115069   5.513   6.237   5.441
 5035TIP3    H215070   5.424   6.347   5.387
 5036TIP3   OH215071   4.770   3.187   4.448
 5036TIP3    H115072   4.732   3.272   4.469
 5036TIP3    H215073   4.836   3.173   4.516
 5037TIP3   OH215074   5.254   3.471   1.127
 5037TIP3    H115075   5.321   3.534   1.101
 5037TIP3    H215076   5.211   3.447   1.045
 5038TIP3   OH215077   5.735   3.351   0.790
 5038TIP3    H115078   5.650   3.314   0.811
 5038TIP3    H215079   5.786   3.343   0.871
 5039TIP3   OH215080   6.862   4.189   5.371
 5039TIP3    H115081   6.882   4.282   5.376
 5039TIP3    H215082   6.942   4.146   5.402
 5040TIP3   OH215083   0.572   3.748   1.921
 5040TIP3    H115084   0.599   3.704   2.001
 5040TIP3    H215085   0.654   3.766   1.874
 5041TIP3   OH215086   0.453   4.166   4.164
 5041TIP3    H115087   0.388   4.140   4.099
 5041TIP3    H215088   0.467   4.087   4.217
 5042TIP3   OH215089   7.140   1.774   0.155
 5042TIP3    H115090   7.201   1.702   0.169
 5042TIP3    H215091   7.066   1.755   0.213
 5043TIP3   OH215092   5.482   4.736   2.930
 5043TIP3    H115093   5.576   4.722   2.944
 5043TIP3    H215094   5.455   4.794   3.002
 5044TIP3   OH215095   6.618   5.598   2.244
 5044TIP3    H115096   6.633   5.680   2.198
 5044TIP3    H215097   6.524   5.582   2.235
 5045TIP3   OH215098   1.728   0.591   1.506
 5045TIP3    H115099   1.800   0.529   1.491
 5045TIP3    H215100   1.650   0.543   1.478
 5046TIP3   OH215101   3.621   1.385   3.762
 5046TIP3    H115102   3.656   1.443   3.829
 5046TIP3    H215103   3.581   1.444   3.698
 5047TIP3   OH215104   6.288   1.906   5.833
 5047TIP3    H115105   6.313   1.851   5.907
 5047TIP3    H215106   6.281   1.846   5.759
 5048TIP3   OH215107   0.133   2.145   3.613
 5048TIP3    H115108   0.105   2.216   3.555
 5048TIP3    H215109   0.065   2.078   3.604
 5049TIP3   OH215110   5.949   3.270   2.878
 5049TIP3    H115111   5.933   3.178   2.901
 5049TIP3    H215112   5.995   3.267   2.795
 5050TIP3   OH215113   2.472   5.344   2.425
 5050TIP3    H115114   2.502   5.361   2.514
 5050TIP3    H215115   2.452   5.251   2.424
 5051TIP3   OH215116   0.560   2.188   4.463
 5051TIP3    H115117   0.491   2.255   4.451
 5051TIP3    H215118   0.514   2.105   4.449
 5052TIP3   OH215119   6.868   1.534   5.368
 5052TIP3    H115120   6.933   1.596   5.332
 5052TIP3    H215121   6.897   1.449   5.335
 5053TIP3   OH215122   2.374   4.524   3.886
 5053TIP3    H115123   2.410   4.502   3.800
 5053TIP3    H215124   2.411   4.609   3.907
 5054TIP3   OH215125   2.321   1.953   0.942
 5054TIP3    H115126   2.234   1.923   0.968
 5054TIP3    H215127   2.311   1.978   0.850
 5055TIP3   OH215128   4.953   3.456   2.332
 5055TIP3    H115129   4.992   3.370   2.317
 5055TIP3    H215130   4.964   3.502   2.249
 5056TIP3   OH215131   5.852   5.891   3.444
 5056TIP3    H115132   5.928   5.904   3.387
 5056TIP3    H215133   5.810   5.977   3.447
 5057TIP3   OH215134   1.779   1.391   4.611
 5057TIP3    H115135   1.782   1.304   4.650
 5057TIP3    H215136   1.800   1.451   4.682
 5058TIP3   OH215137   4.509   6.566   2.028
 5058TIP3    H115138   4.567   6.597   2.098
 5058TIP3    H215139   4.528   6.472   2.021
 5059TIP3   OH215140   0.456   6.249   1.783
 5059TIP3    H115141   0.394   6.176   1.779
 5059TIP3    H215142   0.447   6.283   1.872
 5060TIP3   OH215143   0.723   3.147   4.996
 5060TIP3    H115144   0.736   3.241   4.983
 5060TIP3    H215145   0.668   3.119   4.923
 5061TIP3   OH215146   3.214   0.617   0.596
 5061TIP3    H115147   3.137   0.673   0.582
 5061TIP3    H215148   3.222   0.612   0.691
 5062TIP3   OH215149   5.921   5.065   5.202
 5062TIP3    H115150   5.886   5.044   5.116
 5062TIP3    H215151   5.956   4.981   5.234
 5063TIP3   OH215152   3.567   3.301   0.752
 5063TIP3    H115153   3.624   3.291   0.675
 5063TIP3    H215154   3.548   3.395   0.755
 5064TIP3   OH215155   0.890   3.019   5.163
 5064TIP3    H115156   0.984   3.032   5.154
 5064TIP3    H215157   0.852   3.070   5.092
 5065TIP3   OH215158   0.577   2.715   0.949
 5065TIP3    H115159   0.597   2.624   0.927
 5065TIP3    H215160   0.514   2.709   1.021
 5066TIP3   OH215161   4.646   5.068   2.573
 5066TIP3    H115162   4.681   5.081   2.484
 5066TIP3    H215163   4.664   5.150   2.618
 5067TIP3   OH215164   0.642   2.564   3.635
 5067TIP3    H115165   0.651   2.550   3.729
 5067TIP3    H215166   0.632   2.475   3.599
 5068TIP3   OH215167   5.751   2.021   3.740
 5068TIP3    H115168   5.726   1.967   3.665
 5068TIP3    H215169   5.761   2.109   3.703
 5069TIP3   OH215170   1.036   0.978   0.063
 5069TIP3    H115171   1.121   0.934   0.066
 5069TIP3    H215172   1.023   1.013   0.151
 5070TIP3   OH215173   0.011   3.731   1.951
 5070TIP3    H115174  -0.064   3.724   2.010
 5070TIP3    H215175   0.045   3.819   1.966
 5071TIP3   OH215176   4.158   3.055   5.301
 5071TIP3    H115177   4.142   3.127   5.361
 5071TIP3    H215178   4.142   3.092   5.214
 5072TIP3   OH215179   0.798   6.754   2.410
 5072TIP3    H115180   0.785   6.663   2.382
 5072TIP3    H215181   0.803   6.749   2.506
 5073TIP3   OH215182   3.975   2.848   3.071
 5073TIP3    H115183   3.958   2.762   3.109
 5073TIP3    H215184   3.966   2.909   3.144
 5074TIP3   OH215185   3.167   6.650   4.519
 5074TIP3    H115186   3.123   6.732   4.495
 5074TIP3    H215187   3.248   6.651   4.468
 5075TIP3   OH215188   2.034   5.776   2.607
 5075TIP3    H115189   2.047   5.697   2.555
 5075TIP3    H215190   1.944   5.802   2.589
 5076TIP3   OH215191   3.631   3.369   4.192
 5076TIP3    H115192   3.633   3.275   4.211
 5076TIP3    H215193   3.679   3.409   4.264
 5077TIP3   OH215194   5.934   3.695   5.630
 5077TIP3    H115195   5.949   3.787   5.609
 5077TIP3    H215196   6.021   3.660   5.650
 5078TIP3   OH215197   0.521   5.996   1.010
 5078TIP3    H115198   0.511   5.901   1.007
 5078TIP3    H215199   0.526   6.016   1.104
 5079TIP3   OH215200   4.334   5.750   1.095
 5079TIP3    H115201   4.363   5.662   1.119
 5079TIP3    H215202   4.373   5.765   1.009
 5080TIP3   OH215203   1.472   2.420   4.145
 5080TIP3    H115204   1.478   2.501   4.196
 5080TIP3    H215205   1.553   2.418   4.094
 5081TIP3   OH215206   0.973   5.130   1.082
 5081TIP3    H115207   1.033   5.183   1.135
 5081TIP3    H215208   0.967   5.047   1.128
 5082TIP3   OH215209   6.394   4.856   1.539
 5082TIP3    H115210   6.429   4.767   1.541
 5082TIP3    H215211   6.459   4.906   1.490
 5083TIP3   OH215212   5.131   4.963   2.426
 5083TIP3    H115213   5.161   4.874   2.443
 5083TIP3    H215214   5.082   4.956   2.344
 5084TIP3   OH215215   3.666   6.407   0.879
 5084TIP3    H115216   3.698   6.380   0.793
 5084TIP3    H215217   3.616   6.331   0.911
 5085TIP3   OH215218   2.597   4.151   2.928
 5085TIP3    H115219   2.660   4.079   2.921
 5085TIP3    H215220   2.587   4.165   3.022
 5086TIP3   OH215221   3.151   3.001   3.515
 5086TIP3    H115222   3.243   2.983   3.533
 5086TIP3    H215223   3.103   2.957   3.585
 5087TIP3   OH215224   7.087   4.258   1.473
 5087TIP3    H115225   7.100   4.320   1.544
 5087TIP3    H215226   7.161   4.274   1.414
 5088TIP3   OH215227   4.285   4.197   1.649
 5088TIP3    H115228   4.195   4.181   1.676
 5088TIP3    H215229   4.318   4.111   1.623
 5089TIP3   OH215230   4.411   3.282   4.435
 5089TIP3    H115231   4.338   3.313   4.487
 5089TIP3    H215232   4.424   3.191   4.462
 5090TIP3   OH215233   5.645   5.908   1.585
 5090TIP3    H115234   5.641   5.877   1.494
 5090TIP3    H215235   5.588   5.985   1.586
 5091TIP3   OH215236   6.401   0.571   3.241
 5091TIP3    H115237   6.450   0.533   3.168
 5091TIP3    H215238   6.418   0.511   3.314
 5092TIP3   OH215239   2.970   5.049   3.586
 5092TIP3    H115240   3.065   5.063   3.586
 5092TIP3    H215241   2.934   5.124   3.539
 5093TIP3   OH215242   5.088   6.198   0.106
 5093TIP3    H115243   5.125   6.201   0.018
 5093TIP3    H215244   5.135   6.128   0.150
 5094TIP3   OH215245   2.891   3.858   1.676
 5094TIP3    H115246   2.979   3.823   1.683
 5094TIP3    H215247   2.838   3.804   1.735
 5095TIP3   OH215248   5.816   4.206   5.767
 5095TIP3    H115249   5.855   4.179   5.850
 5095TIP3    H215250   5.722   4.195   5.779
 5096TIP3   OH215251   1.975   1.501   0.795
 5096TIP3    H115252   2.057   1.474   0.835
 5096TIP3    H215253   1.907   1.465   0.852
 5097TIP3   OH215254   0.906   3.129   0.152
 5097TIP3    H115255   0.846   3.149   0.080
 5097TIP3    H215256   0.993   3.134   0.112
 5098TIP3   OH215257   2.910   4.754   4.537
 5098TIP3    H115258   2.974   4.729   4.603
 5098TIP3    H215259   2.939   4.841   4.508
 5099TIP3   OH215260   6.795   4.091   3.095
 5099TIP3    H115261   6.743   4.086   3.015
 5099TIP3    H215262   6.805   4.000   3.123
 5100TIP3   OH215263   1.488   5.945   4.436
 5100TIP3    H115264   1.503   5.856   4.466
 5100TIP3    H215265   1.529   6.000   4.502
 5101TIP3   OH215266   2.151   1.415   2.502
 5101TIP3    H115267   2.100   1.462   2.568
 5101TIP3    H215268   2.143   1.323   2.527
 5102TIP3   OH215269   0.386   1.129   1.884
 5102TIP3    H115270   0.430   1.046   1.899
 5102TIP3    H215271   0.455   1.189   1.855
 5103TIP3   OH215272   3.753   0.032   4.808
 5103TIP3    H115273   3.718   0.003   4.893
 5103TIP3    H215274   3.822  -0.031   4.787
 5104TIP3   OH215275   3.960   6.654   5.085
 5104TIP3    H115276   3.896   6.724   5.096
 5104TIP3    H215277   4.012   6.681   5.009
 5105TIP3   OH215278   5.480   0.965   4.507
 5105TIP3    H115279   5.512   0.912   4.580
 5105TIP3    H215280   5.559   0.984   4.455
 5106TIP3   OH215281   5.808   0.925   3.754
 5106TIP3    H115282   5.835   0.925   3.662
 5106TIP3    H215283   5.713   0.936   3.751
 5107TIP3   OH215284   5.712   1.980   1.817
 5107TIP3    H115285   5.655   1.935   1.754
 5107TIP3    H215286   5.666   2.062   1.837
 5108TIP3   OH215287   1.623   4.274   3.855
 5108TIP3    H115288   1.692   4.283   3.920
 5108TIP3    H215289   1.546   4.315   3.895
 5109TIP3   OH215290   7.017   3.018   3.893
 5109TIP3    H115291   7.004   3.045   3.802
 5109TIP3    H215292   7.002   3.097   3.944
 5110TIP3   OH215293   1.314   1.132   5.572
 5110TIP3    H115294   1.365   1.130   5.491
 5110TIP3    H215295   1.303   1.040   5.595
 5111TIP3   OH215296   4.989   1.812   3.869
 5111TIP3    H115297   4.934   1.877   3.913
 5111TIP3    H215298   5.070   1.810   3.920
 5112TIP3   OH215299   1.415   3.670   0.688
 5112TIP3    H115300   1.511   3.672   0.687
 5112TIP3    H215301   1.393   3.598   0.748
 5113TIP3   OH215302   1.851   3.101   5.339
 5113TIP3    H115303   1.883   3.158   5.269
 5113TIP3    H215304   1.756   3.118   5.341
 5114TIP3   OH215305   3.525   1.203   1.385
 5114TIP3    H115306   3.517   1.171   1.475
 5114TIP3    H215307   3.619   1.200   1.367
 5115TIP3   OH215308   3.654   2.463   0.341
 5115TIP3    H115309   3.715   2.396   0.310
 5115TIP3    H215310   3.678   2.542   0.291
 5116TIP3   OH215311   5.801   3.527   4.084
 5116TIP3    H115312   5.889   3.490   4.085
 5116TIP3    H215313   5.815   3.622   4.083
 5117TIP3   OH215314   4.071   4.309   0.989
 5117TIP3    H115315   4.067   4.391   0.939
 5117TIP3    H215316   4.128   4.329   1.063
 5118TIP3   OH215317   1.099   3.496   1.642
 5118TIP3    H115318   1.083   3.462   1.554
 5118TIP3    H215319   1.097   3.591   1.631
 5119TIP3   OH215320   4.161   5.892   4.515
 5119TIP3    H115321   4.155   5.817   4.456
 5119TIP3    H215322   4.070   5.919   4.530
 5120TIP3   OH215323   6.220   2.216   1.398
 5120TIP3    H115324   6.286   2.190   1.334
 5120TIP3    H215325   6.168   2.137   1.412
 5121TIP3   OH215326   2.499   0.560   4.881
 5121TIP3    H115327   2.436   0.593   4.817
 5121TIP3    H215328   2.474   0.602   4.963
 5122TIP3   OH215329   5.367   2.363   5.461
 5122TIP3    H115330   5.428   2.429   5.428
 5122TIP3    H215331   5.420   2.310   5.520
 5123TIP3   OH215332   0.279   4.820   5.811
 5123TIP3    H115333   0.239   4.759   5.749
 5123TIP3    H215334   0.229   4.901   5.800
 5124TIP3   OH215335   5.692   2.407   1.388
 5124TIP3    H115336   5.673   2.410   1.482
 5124TIP3    H215337   5.787   2.393   1.384
 5125TIP3   OH215338   1.417   3.577   1.390
 5125TIP3    H115339   1.323   3.581   1.406
 5125TIP3    H215340   1.430   3.622   1.306
 5126TIP3   OH215341   1.091   4.993   1.976
 5126TIP3    H115342   1.093   5.004   2.071
 5126TIP3    H215343   1.029   5.058   1.945
 5127TIP3   OH215344   6.218   0.185   0.603
 5127TIP3    H115345   6.190   0.147   0.520
 5127TIP3    H215346   6.162   0.261   0.615
 5128TIP3   OH215347   2.558   1.980   0.602
 5128TIP3    H115348   2.587   2.044   0.536
 5128TIP3    H215349   2.638   1.958   0.650
 5129TIP3   OH215350   6.134   2.287   4.467
 5129TIP3    H115351   6.126   2.240   4.550
 5129TIP3    H215352   6.148   2.378   4.492
 5130TIP3   OH215353   1.282   0.345   1.189
 5130TIP3    H115354   1.305   0.346   1.282
 5130TIP3    H215355   1.313   0.260   1.158
 5131TIP3   OH215356   3.269   2.626   1.282
 5131TIP3    H115357   3.347   2.677   1.265
 5131TIP3    H215358   3.301   2.536   1.294
 5132TIP3   OH215359   5.928   2.309   2.628
 5132TIP3    H115360   5.974   2.225   2.638
 5132TIP3    H215361   5.983   2.372   2.674
 5133TIP3   OH215362   4.150   2.548   2.325
 5133TIP3    H115363   4.230   2.521   2.280
 5133TIP3    H215364   4.174   2.549   2.417
 5134TIP3   OH215365   1.879   5.859   2.886
 5134TIP3    H115366   1.944   5.894   2.825
 5134TIP3    H215367   1.924   5.788   2.931
 5135TIP3   OH215368   2.252   0.490   1.104
 5135TIP3    H115369   2.284   0.401   1.096
 5135TIP3    H215370   2.197   0.504   1.027
 5136TIP3   OH215371   0.788   1.694   0.936
 5136TIP3    H115372   0.759   1.666   1.022
 5136TIP3    H215373   0.868   1.744   0.952
 5137TIP3   OH215374   3.991   2.692   1.972
 5137TIP3    H115375   4.051   2.719   1.903
 5137TIP3    H215376   3.907   2.732   1.948
 5138TIP3   OH215377   0.062   0.807   4.957
 5138TIP3    H115378   0.124   0.845   4.896
 5138TIP3    H215379   0.021   0.882   5.000
 5139TIP3   OH215380   5.408   1.463   3.293
 5139TIP3    H115381   5.342   1.406   3.333
 5139TIP3    H215382   5.427   1.423   3.208
 5140TIP3   OH215383   3.116   3.879   2.732
 5140TIP3    H115384   3.189   3.869   2.672
 5140TIP3    H215385   3.042   3.903   2.676
 5141TIP3   OH215386   3.999   1.599   2.018
 5141TIP3    H115387   4.068   1.657   2.049
 5141TIP3    H215388   3.966   1.640   1.938
 5142TIP3   OH215389   1.277   2.588   3.980
 5142TIP3    H115390   1.320   2.528   3.918
 5142TIP3    H215391   1.310   2.561   4.066
 5143TIP3   OH215392   1.754   6.788   2.465
 5143TIP3    H115393   1.662   6.778   2.438
 5143TIP3    H215394   1.804   6.746   2.395
 5144TIP3   OH215395   5.395   0.022   3.572
 5144TIP3    H115396   5.401  -0.067   3.536
 5144TIP3    H215397   5.318   0.060   3.528
 5145TIP3   OH215398   0.450   0.857   0.087
 5145TIP3    H115399   0.478   0.943   0.056
 5145TIP3    H215400   0.357   0.866   0.105
 5146TIP3   OH215401   2.167   6.413   2.559
 5146TIP3    H115402   2.103   6.453   2.617
 5146TIP3    H215403   2.174   6.473   2.485
 5147TIP3   OH215404   4.827   0.500   5.527
 5147TIP3    H115405   4.759   0.464   5.584
 5147TIP3    H215406   4.792   0.585   5.499
 5148TIP3   OH215407   1.865   1.527   1.229
 5148TIP3    H115408   1.929   1.475   1.180
 5148TIP3    H215409   1.829   1.588   1.165
 5149TIP3   OH215410   6.523   3.199   3.951
 5149TIP3    H115411   6.453   3.186   4.015
 5149TIP3    H215412   6.543   3.111   3.919
 5150TIP3   OH215413   4.178   0.991   0.948
 5150TIP3    H115414   4.112   0.930   0.916
 5150TIP3    H215415   4.257   0.970   0.897
 5151TIP3   OH215416   3.604   2.204   3.673
 5151TIP3    H115417   3.684   2.153   3.660
 5151TIP3    H215418   3.630   2.295   3.661
 5152TIP3   OH215419   0.543   5.224   3.634
 5152TIP3    H115420   0.606   5.157   3.605
 5152TIP3    H215421   0.517   5.269   3.554
 5153TIP3   OH215422   5.118   1.403   2.760
 5153TIP3    H115423   5.163   1.443   2.835
 5153TIP3    H215424   5.181   1.409   2.688
 5154TIP3   OH215425   0.218   1.671   1.731
 5154TIP3    H115426   0.146   1.611   1.748
 5154TIP3    H215427   0.292   1.615   1.709
 5155TIP3   OH215428   2.910   0.607   2.146
 5155TIP3    H115429   2.976   0.674   2.162
 5155TIP3    H215430   2.910   0.594   2.052
 5156TIP3   OH215431   4.977   0.491   1.246
 5156TIP3    H115432   5.032   0.413   1.257
 5156TIP3    H215433   4.967   0.499   1.151
 5157TIP3   OH215434   3.138   1.065   1.466
 5157TIP3    H115435   3.119   0.972   1.454
 5157TIP3    H215436   3.132   1.102   1.378
 5158TIP3   OH215437   5.365   5.075   5.318
 5158TIP3    H115438   5.423   5.034   5.254
 5158TIP3    H215439   5.306   5.129   5.266
 5159TIP3   OH215440   3.342   3.329   4.301
 5159TIP3    H115441   3.410   3.312   4.236
 5159TIP3    H215442   3.287   3.398   4.262
 5160TIP3   OH215443   0.323   1.807   5.037
 5160TIP3    H115444   0.337   1.889   4.989
 5160TIP3    H215445   0.326   1.739   4.970
 5161TIP3   OH215446   0.776   4.194   2.553
 5161TIP3    H115447   0.737   4.267   2.600
 5161TIP3    H215448   0.839   4.234   2.494
 5162TIP3   OH215449   4.261   3.898   1.233
 5162TIP3    H115450   4.340   3.893   1.179
 5162TIP3    H215451   4.209   3.822   1.208
 5163TIP3   OH215452   4.667   2.606   3.147
 5163TIP3    H115453   4.733   2.547   3.110
 5163TIP3    H215454   4.584   2.572   3.115
 5164TIP3   OH215455   1.057   5.606   2.804
 5164TIP3    H115456   1.035   5.672   2.870
 5164TIP3    H215457   1.122   5.551   2.847
 5165TIP3   OH215458   4.718   5.985   1.272
 5165TIP3    H115459   4.758   5.988   1.185
 5165TIP3    H215460   4.631   5.950   1.257
 5166TIP3   OH215461   0.479   0.889   0.791
 5166TIP3    H115462   0.530   0.862   0.868
 5166TIP3    H215463   0.544   0.894   0.721
 5167TIP3   OH215464   0.695   0.786   0.330
 5167TIP3    H115465   0.711   0.876   0.303
 5167TIP3    H215466   0.622   0.757   0.276
 5168TIP3   OH215467   6.105   1.203   1.506
 5168TIP3    H115468   6.178   1.260   1.529
 5168TIP3    H215469   6.099   1.208   1.411
 5169TIP3   OH215470   6.795   6.315   0.821
 5169TIP3    H115471   6.749   6.387   0.864
 5169TIP3    H215472   6.872   6.357   0.782
 5170TIP3   OH215473   6.977   5.120   4.216
 5170TIP3    H115474   6.905   5.111   4.279
 5170TIP3    H215475   7.008   5.210   4.229
 5171TIP3   OH215476   5.989   3.936   0.316
 5171TIP3    H115477   5.949   3.850   0.325
 5171TIP3    H215478   6.048   3.928   0.241
 5172TIP3   OH215479   1.751   4.366   4.160
 5172TIP3    H115480   1.764   4.456   4.189
 5172TIP3    H215481   1.759   4.313   4.240
 5173TIP3   OH215482   4.251   1.330   1.850
 5173TIP3    H115483   4.205   1.315   1.767
 5173TIP3    H215484   4.183   1.362   1.909
 5174TIP3   OH215485   2.346   3.954   0.105
 5174TIP3    H115486   2.374   3.894   0.035
 5174TIP3    H215487   2.416   3.950   0.170
 5175TIP3   OH215488   5.700   4.753   4.341
 5175TIP3    H115489   5.652   4.677   4.310
 5175TIP3    H215490   5.792   4.732   4.323
 5176TIP3   OH215491   5.465   3.016   3.040
 5176TIP3    H115492   5.488   3.050   3.127
 5176TIP3    H215493   5.405   3.081   3.005
 5177TIP3   OH215494   4.234   0.005   1.244
 5177TIP3    H115495   4.232   0.032   1.336
 5177TIP3    H215496   4.271  -0.084   1.246
 5178TIP3   OH215497   3.517   4.421   1.715
 5178TIP3    H115498   3.566   4.353   1.761
 5178TIP3    H215499   3.426   4.392   1.719
 5179TIP3   OH215500   5.671   2.049   5.811
 5179TIP3    H115501   5.678   2.064   5.906
 5179TIP3    H215502   5.666   1.954   5.802
 5180TIP3   OH215503   0.488   4.083   1.920
 5180TIP3    H115504   0.431   4.109   1.992
 5180TIP3    H215505   0.564   4.141   1.927
 5181TIP3   OH215506   3.663   1.928   0.122
 5181TIP3    H115507   3.636   2.018   0.141
 5181TIP3    H215508   3.621   1.907   0.038
 5182TIP3   OH215509   5.169   2.687   3.929
 5182TIP3    H115510   5.144   2.738   3.852
 5182TIP3    H215511   5.265   2.687   3.928
 5183TIP3   OH215512   5.708   1.397   0.597
 5183TIP3    H115513   5.700   1.364   0.508
 5183TIP3    H215514   5.674   1.326   0.652
 5184TIP3   OH215515   3.672   2.263   1.943
 5184TIP3    H115516   3.651   2.170   1.934
 5184TIP3    H215517   3.587   2.307   1.943
 5185TIP3   OH215518   1.266   4.012   0.282
 5185TIP3    H115519   1.174   4.001   0.256
 5185TIP3    H215520   1.270   3.975   0.370
 5186TIP3   OH215521   3.368   0.922   2.837
 5186TIP3    H115522   3.444   0.980   2.845
 5186TIP3    H215523   3.400   0.838   2.870
 5187TIP3   OH215524   4.002   0.651   4.226
 5187TIP3    H115525   3.945   0.699   4.167
 5187TIP3    H215526   4.083   0.637   4.177
 5188TIP3   OH215527   4.903   3.459   1.024
 5188TIP3    H115528   4.960   3.389   0.991
 5188TIP3    H215529   4.863   3.495   0.945
 5189TIP3   OH215530   6.839   4.242   4.735
 5189TIP3    H115531   6.831   4.265   4.642
 5189TIP3    H215532   6.752   4.211   4.760
 5190TIP3   OH215533   0.229   0.115   4.339
 5190TIP3    H115534   0.207   0.171   4.265
 5190TIP3    H215535   0.309   0.070   4.314
 5191TIP3   OH215536   1.966   1.041   2.209
 5191TIP3    H115537   1.964   1.087   2.293
 5191TIP3    H215538   2.003   0.955   2.229
 5192TIP3   OH215539   7.108   2.284   5.822
 5192TIP3    H115540   7.108   2.309   5.729
 5192TIP3    H215541   7.024   2.240   5.835
 5193TIP3   OH215542   2.035   6.239   0.531
 5193TIP3    H115543   2.114   6.258   0.581
 5193TIP3    H215544   1.963   6.250   0.593
 5194TIP3   OH215545   2.961   3.484   0.115
 5194TIP3    H115546   3.054   3.501   0.109
 5194TIP3    H215547   2.920   3.570   0.119
 5195TIP3   OH215548   0.990   2.251   2.202
 5195TIP3    H115549   0.986   2.165   2.245
 5195TIP3    H215550   1.076   2.285   2.224
 5196TIP3   OH215551   7.106   6.727   1.899
 5196TIP3    H115552   7.124   6.644   1.943
 5196TIP3    H215553   7.067   6.702   1.816
 5197TIP3   OH215554   6.433   1.410   3.935
 5197TIP3    H115555   6.468   1.404   3.846
 5197TIP3    H215556   6.452   1.325   3.974
 5198TIP3   OH215557   6.121   6.492   5.568
 5198TIP3    H115558   6.112   6.513   5.475
 5198TIP3    H215559   6.182   6.557   5.601
 5199TIP3   OH215560   2.623   3.135   0.301
 5199TIP3    H115561   2.603   3.099   0.214
 5199TIP3    H215562   2.588   3.224   0.298
 5200TIP3   OH215563   5.351   2.116   3.177
 5200TIP3    H115564   5.328   2.051   3.111
 5200TIP3    H215565   5.271   2.127   3.228
 5201TIP3   OH215566   2.744   4.885   4.128
 5201TIP3    H115567   2.787   4.968   4.149
 5201TIP3    H215568   2.787   4.821   4.184
 5202TIP3   OH215569   2.335   0.807   0.031
 5202TIP3    H115570   2.426   0.817   0.003
 5202TIP3    H215571   2.314   0.715   0.011
 5203TIP3   OH215572   1.840   2.698   4.144
 5203TIP3    H115573   1.752   2.702   4.108
 5203TIP3    H215574   1.828   2.665   4.233
 5204TIP3   OH215575   4.839   3.368   3.614
 5204TIP3    H115576   4.782   3.440   3.640
 5204TIP3    H215577   4.800   3.334   3.533
 5205TIP3   OH215578   4.338   5.997   3.364
 5205TIP3    H115579   4.411   6.002   3.303
 5205TIP3    H215580   4.268   6.049   3.324
 5206TIP3   OH215581   2.218   5.749   1.085
 5206TIP3    H115582   2.261   5.664   1.078
 5206TIP3    H215583   2.153   5.737   1.155
 5207TIP3   OH215584   3.557   4.496   3.575
 5207TIP3    H115585   3.650   4.491   3.554
 5207TIP3    H215586   3.521   4.554   3.509
 5208TIP3   OH215587   0.139   2.016   0.210
 5208TIP3    H115588   0.076   2.064   0.264
 5208TIP3    H215589   0.112   1.924   0.218
 5209TIP3   OH215590   4.423   2.911   3.687
 5209TIP3    H115591   4.424   2.920   3.591
 5209TIP3    H215592   4.511   2.881   3.709
 5210TIP3   OH215593   1.851   5.170   5.322
 5210TIP3    H115594   1.922   5.169   5.386
 5210TIP3    H215595   1.888   5.213   5.245
 5211TIP3   OH215596   4.584   5.004   4.795
 5211TIP3    H115597   4.645   5.046   4.734
 5211TIP3    H215598   4.525   4.954   4.739
 5212TIP3   OH215599   3.978   4.605   4.759
 5212TIP3    H115600   3.926   4.528   4.734
 5212TIP3    H215601   4.027   4.576   4.836
 5213TIP3   OH215602   6.762   0.929   1.696
 5213TIP3    H115603   6.855   0.923   1.719
 5213TIP3    H215604   6.716   0.899   1.774
 5214TIP3   OH215605   5.819   4.667   0.085
 5214TIP3    H115606   5.840   4.707   0.001
 5214TIP3    H215607   5.892   4.691   0.142
 5215TIP3   OH215608   6.872   4.050   0.039
 5215TIP3    H115609   6.815   3.977   0.015
 5215TIP3    H215610   6.817   4.106   0.094
 5216TIP3   OH215611   5.931   5.671   4.476
 5216TIP3    H115612   6.012   5.690   4.524
 5216TIP3    H215613   5.920   5.746   4.418
 5217TIP3   OH215614   6.938   1.848   3.983
 5217TIP3    H115615   6.924   1.776   4.044
 5217TIP3    H215616   7.033   1.854   3.973
 5218TIP3   OH215617   2.174   2.059   3.579
 5218TIP3    H115618   2.100   2.012   3.617
 5218TIP3    H215619   2.196   2.125   3.645
 5219TIP3   OH215620   4.054   4.199   0.736
 5219TIP3    H115621   4.143   4.224   0.708
 5219TIP3    H215622   4.050   4.227   0.827
 5220TIP3   OH215623   6.420   4.787   5.139
 5220TIP3    H115624   6.468   4.782   5.222
 5220TIP3    H215625   6.353   4.853   5.154
 5221TIP3   OH215626   3.984   1.391   2.759
 5221TIP3    H115627   3.948   1.354   2.839
 5221TIP3    H215628   3.916   1.449   2.726
 5222TIP3   OH215629   4.257   2.385   3.896
 5222TIP3    H115630   4.338   2.435   3.901
 5222TIP3    H215631   4.192   2.441   3.938
 5223TIP3   OH215632   1.623   2.550   3.775
 5223TIP3    H115633   1.541   2.507   3.797
 5223TIP3    H215634   1.598   2.639   3.751
 5224TIP3   OH215635   6.673   3.230   4.468
 5224TIP3    H115636   6.669   3.266   4.380
 5224TIP3    H215637   6.692   3.137   4.454
 5225TIP3   OH215638   3.833   5.640   3.982
 5225TIP3    H115639   3.873   5.637   3.895
 5225TIP3    H215640   3.833   5.549   4.012
 5226TIP3   OH215641   1.219   2.836   5.456
 5226TIP3    H115642   1.185   2.757   5.415
 5226TIP3    H215643   1.172   2.908   5.412
 5227TIP3   OH215644   2.599   1.773   0.179
 5227TIP3    H115645   2.619   1.864   0.156
 5227TIP3    H215646   2.508   1.761   0.151
 5228TIP3   OH215647   4.867   2.041   0.938
 5228TIP3    H115648   4.844   1.949   0.925
 5228TIP3    H215649   4.839   2.060   1.028
 5229TIP3   OH215650   1.131   0.140   1.702
 5229TIP3    H115651   1.153   0.231   1.683
 5229TIP3    H215652   1.209   0.090   1.679
 5230TIP3   OH215653   6.472   5.354   1.218
 5230TIP3    H115654   6.538   5.409   1.260
 5230TIP3    H215655   6.522   5.283   1.178
 5231TIP3   OH215656   6.105   1.499   4.774
 5231TIP3    H115657   6.032   1.467   4.827
 5231TIP3    H215658   6.129   1.583   4.812
 5232TIP3   OH215659   2.408   0.281   1.915
 5232TIP3    H115660   2.352   0.236   1.978
 5232TIP3    H215661   2.430   0.213   1.851
 5233TIP3   OH215662   3.021   1.829   1.000
 5233TIP3    H115663   3.056   1.843   0.912
 5233TIP3    H215664   2.926   1.840   0.991
 5234TIP3   OH215665   5.045   5.534   1.545
 5234TIP3    H115666   5.074   5.611   1.497
 5234TIP3    H215667   4.986   5.488   1.485
 5235TIP3   OH215668   5.109   3.262   5.312
 5235TIP3    H115669   5.018   3.234   5.313
 5235TIP3    H215670   5.143   3.228   5.229
 5236TIP3   OH215671   2.135   5.575   0.854
 5236TIP3    H115672   2.098   5.489   0.869
 5236TIP3    H215673   2.225   5.558   0.827
 5237TIP3   OH215674   5.542   2.558   5.629
 5237TIP3    H115675   5.458   2.529   5.665
 5237TIP3    H215676   5.607   2.506   5.675
 5238TIP3   OH215677   0.159   5.551   0.909
 5238TIP3    H115678   0.250   5.526   0.926
 5238TIP3    H215679   0.109   5.505   0.977
 5239TIP3   OH215680   1.158   2.513   0.095
 5239TIP3    H115681   1.187   2.586   0.149
 5239TIP3    H215682   1.239   2.480   0.054
 5240TIP3   OH215683   6.096   5.164   2.988
 5240TIP3    H115684   6.122   5.136   3.075
 5240TIP3    H215685   6.167   5.221   2.959
 5241TIP3   OH215686   5.717   0.021   1.422
 5241TIP3    H115687   5.803  -0.018   1.436
 5241TIP3    H215688   5.708   0.028   1.327
 5242TIP3   OH215689   2.001   0.709   5.889
 5242TIP3    H115690   1.930   0.645   5.882
 5242TIP3    H215691   1.972   0.784   5.836
 5243TIP3   OH215692   6.838   2.383   1.236
 5243TIP3    H115693   6.925   2.399   1.273
 5243TIP3    H215694   6.815   2.295   1.266
 5244TIP3   OH215695   2.684   1.127   1.980
 5244TIP3    H115696   2.635   1.073   2.042
 5244TIP3    H215697   2.617   1.170   1.927
 5245TIP3   OH215698   2.635   6.747   3.252
 5245TIP3    H115699   2.587   6.777   3.329
 5245TIP3    H215700   2.575   6.688   3.208
 5246TIP3   OH215701   5.473   0.030   5.887
 5246TIP3    H115702   5.478   0.122   5.860
 5246TIP3    H215703   5.449  -0.017   5.807
 5247TIP3   OH215704   5.033   0.629   4.401
 5247TIP3    H115705   4.997   0.655   4.316
 5247TIP3    H215706   5.127   0.641   4.392
 5248TIP3   OH215707   5.835   0.364   1.043
 5248TIP3    H115708   5.912   0.390   1.093
 5248TIP3    H215709   5.865   0.294   0.985
 5249TIP3   OH215710   5.399   3.575   5.343
 5249TIP3    H115711   5.352   3.597   5.262
 5249TIP3    H215712   5.331   3.576   5.410
 5250TIP3   OH215713  -0.009   2.170   1.338
 5250TIP3    H115714  -0.056   2.250   1.314
 5250TIP3    H215715  -0.051   2.141   1.419
 5251TIP3   OH215716   2.942   4.062   0.576
 5251TIP3    H115717   2.957   4.069   0.482
 5251TIP3    H215718   2.973   4.145   0.611
 5252TIP3   OH215719   1.388   4.552   0.648
 5252TIP3    H115720   1.466   4.606   0.642
 5252TIP3    H215721   1.369   4.548   0.742
 5253TIP3   OH215722   1.946   4.187   4.053
 5253TIP3    H115723   1.906   4.101   4.061
 5253TIP3    H215724   1.890   4.245   4.105
 5254TIP3   OH215725   3.011   0.523   5.041
 5254TIP3    H115726   2.925   0.559   5.063
 5254TIP3    H215727   3.015   0.440   5.087
 5255TIP3   OH215728   2.147   2.713   2.212
 5255TIP3    H115729   2.070   2.711   2.269
 5255TIP3    H215730   2.117   2.755   2.132
 5256TIP3   OH215731   1.883   5.326   2.934
 5256TIP3    H115732   1.833   5.308   2.855
 5256TIP3    H215733   1.840   5.402   2.973
 5257TIP3   OH215734   4.752   4.628   2.169
 5257TIP3    H115735   4.676   4.581   2.203
 5257TIP3    H215736   4.783   4.682   2.242
 5258TIP3   OH215737   4.828   4.785   1.687
 5258TIP3    H115738   4.914   4.759   1.655
 5258TIP3    H215739   4.840   4.800   1.781
 5259TIP3   OH215740   3.450   4.816   2.111
 5259TIP3    H115741   3.476   4.744   2.053
 5259TIP3    H215742   3.500   4.891   2.081
 5260TIP3   OH215743   1.633   4.713   1.687
 5260TIP3    H115744   1.555   4.770   1.684
 5260TIP3    H215745   1.597   4.625   1.691
 5261TIP3   OH215746   0.790   6.657   4.734
 5261TIP3    H115747   0.779   6.562   4.738
 5261TIP3    H215748   0.795   6.677   4.640
 5262TIP3   OH215749   4.038   2.633   0.791
 5262TIP3    H115750   3.981   2.684   0.734
 5262TIP3    H215751   4.039   2.682   0.874
 5263TIP3   OH215752   6.039   1.103   1.902
 5263TIP3    H115753   6.062   1.017   1.938
 5263TIP3    H215754   6.119   1.155   1.910
 5264TIP3   OH215755   0.515   3.843   4.888
 5264TIP3    H115756   0.490   3.913   4.827
 5264TIP3    H215757   0.446   3.844   4.954
 5265TIP3   OH215758   5.322   3.912   3.122
 5265TIP3    H115759   5.411   3.938   3.143
 5265TIP3    H215760   5.293   3.860   3.197
 5266TIP3   OH215761   1.055   4.163   5.432
 5266TIP3    H115762   1.011   4.244   5.405
 5266TIP3    H215763   1.113   4.141   5.360
 5267TIP3   OH215764   2.844   5.999   0.906
 5267TIP3    H115765   2.802   6.044   0.833
 5267TIP3    H215766   2.773   5.980   0.967
 5268TIP3   OH215767   0.788   4.182   4.123
 5268TIP3    H115768   0.733   4.169   4.045
 5268TIP3    H215769   0.788   4.097   4.166
 5269TIP3   OH215770   6.017   1.413   3.830
 5269TIP3    H115771   6.020   1.336   3.887
 5269TIP3    H215772   6.082   1.394   3.762
 5270TIP3   OH215773   0.488   2.885   5.151
 5270TIP3    H115774   0.418   2.905   5.214
 5270TIP3    H215775   0.452   2.912   5.067
 5271TIP3   OH215776   2.591   5.557   1.168
 5271TIP3    H115777   2.667   5.574   1.112
 5271TIP3    H215778   2.564   5.644   1.198
 5272TIP3   OH215779   2.723   3.535   3.919
 5272TIP3    H115780   2.696   3.623   3.893
 5272TIP3    H215781   2.815   3.529   3.892
 5273TIP3   OH215782   3.991   0.475   3.143
 5273TIP3    H115783   3.967   0.442   3.229
 5273TIP3    H215784   3.928   0.545   3.125
 5274TIP3   OH215785   0.873   5.546   3.268
 5274TIP3    H115786   0.884   5.574   3.177
 5274TIP3    H215787   0.849   5.453   3.261
 5275TIP3   OH215788   1.054   3.481   1.120
 5275TIP3    H115789   1.106   3.424   1.064
 5275TIP3    H215790   0.974   3.496   1.071
 5276TIP3   OH215791   1.552   4.018   3.836
 5276TIP3    H115792   1.625   3.961   3.812
 5276TIP3    H215793   1.588   4.107   3.833
 5277TIP3   OH215794   2.941   5.904   2.625
 5277TIP3    H115795   2.979   5.913   2.713
 5277TIP3    H215796   2.895   5.820   2.629
 5278TIP3   OH215797   3.661   3.467   3.296
 5278TIP3    H115798   3.630   3.493   3.209
 5278TIP3    H215799   3.590   3.414   3.332
 5279TIP3   OH215800   1.021   0.663   3.591
 5279TIP3    H115801   0.976   0.620   3.664
 5279TIP3    H215802   0.960   0.732   3.563
 5280TIP3   OH215803   2.325   1.998   1.855
 5280TIP3    H115804   2.356   2.080   1.892
 5280TIP3    H215805   2.250   1.973   1.909
 5281TIP3   OH215806   5.464   2.899   0.266
 5281TIP3    H115807   5.505   2.962   0.326
 5281TIP3    H215808   5.454   2.819   0.318
 5282TIP3   OH215809   7.113   4.071   1.120
 5282TIP3    H115810   7.024   4.070   1.084
 5282TIP3    H215811   7.163   4.123   1.056
 5283TIP3   OH215812   2.433   6.281   2.239
 5283TIP3    H115813   2.344   6.313   2.224
 5283TIP3    H215814   2.422   6.212   2.305
 5284TIP3   OH215815   3.102   5.934   0.974
 5284TIP3    H115816   3.015   5.943   0.934
 5284TIP3    H215817   3.146   5.869   0.920
 5285TIP3   OH215818   2.281   3.383   3.982
 5285TIP3    H115819   2.226   3.461   3.981
 5285TIP3    H215820   2.326   3.385   4.067
 5286TIP3   OH215821   3.174   4.779   2.395
 5286TIP3    H115822   3.211   4.849   2.450
 5286TIP3    H215823   3.188   4.699   2.446
 5287TIP3   OH215824   1.348   1.083   5.269
 5287TIP3    H115825   1.343   1.158   5.210
 5287TIP3    H215826   1.259   1.073   5.303
 5288TIP3   OH215827   1.475   3.541   2.793
 5288TIP3    H115828   1.493   3.631   2.766
 5288TIP3    H215829   1.440   3.549   2.881
 5289TIP3   OH215830   3.566   1.108   2.878
 5289TIP3    H115831   3.543   1.195   2.912
 5289TIP3    H215832   3.633   1.124   2.813
 5290TIP3   OH215833   2.763   4.593   2.275
 5290TIP3    H115834   2.754   4.676   2.227
 5290TIP3    H215835   2.681   4.547   2.261
 5291TIP3   OH215836   0.695   6.252   3.600
 5291TIP3    H115837   0.642   6.215   3.670
 5291TIP3    H215838   0.633   6.268   3.528
 5292TIP3   OH215839   1.672   2.817   5.719
 5292TIP3    H115840   1.705   2.772   5.641
 5292TIP3    H215841   1.584   2.846   5.695
 5293TIP3   OH215842   5.423   4.152   3.414
 5293TIP3    H115843   5.468   4.102   3.345
 5293TIP3    H215844   5.368   4.087   3.458
 5294TIP3   OH215845   7.099   5.500   4.702
 5294TIP3    H115846   7.029   5.484   4.765
 5294TIP3    H215847   7.116   5.594   4.709
 5295TIP3   OH215848   4.842   0.397   2.121
 5295TIP3    H115849   4.892   0.322   2.089
 5295TIP3    H215850   4.895   0.432   2.192
 5296TIP3   OH215851   5.842   6.133   5.727
 5296TIP3    H115852   5.816   6.171   5.810
 5296TIP3    H215853   5.928   6.171   5.709
 5297TIP3   OH215854   1.488   4.354   1.791
 5297TIP3    H115855   1.569   4.339   1.742
 5297TIP3    H215856   1.490   4.289   1.861
 5298TIP3   OH215857   3.792   2.687   4.302
 5298TIP3    H115858   3.743   2.733   4.370
 5298TIP3    H215859   3.731   2.682   4.228
 5299TIP3   OH215860   4.209   4.627   5.391
 5299TIP3    H115861   4.238   4.587   5.309
 5299TIP3    H215862   4.278   4.690   5.412
 5300TIP3   OH215863   0.923   0.623   3.269
 5300TIP3    H115864   0.868   0.569   3.326
 5300TIP3    H215865   0.909   0.588   3.181
 5301TIP3   OH215866   3.278   0.389   1.807
 5301TIP3    H115867   3.309   0.380   1.897
 5301TIP3    H215868   3.356   0.413   1.757
 5302TIP3   OH215869   4.600   3.431   5.516
 5302TIP3    H115870   4.681   3.477   5.536
 5302TIP3    H215871   4.628   3.342   5.494
 5303TIP3   OH215872   5.123   6.194   4.137
 5303TIP3    H115873   5.144   6.113   4.090
 5303TIP3    H215874   5.208   6.231   4.161
 5304TIP3   OH215875   4.471   2.849   3.408
 5304TIP3    H115876   4.544   2.843   3.347
 5304TIP3    H215877   4.401   2.890   3.357
 5305TIP3   OH215878   3.700   1.817   4.982
 5305TIP3    H115879   3.763   1.759   5.026
 5305TIP3    H215880   3.728   1.905   5.006
 5306TIP3   OH215881   5.382   5.365   0.820
 5306TIP3    H115882   5.296   5.402   0.840
 5306TIP3    H215883   5.419   5.425   0.755
 5307TIP3   OH215884   4.307   5.577   3.627
 5307TIP3    H115885   4.288   5.670   3.614
 5307TIP3    H215886   4.386   5.561   3.574
 5308TIP3   OH215887   5.290   3.740   2.882
 5308TIP3    H115888   5.280   3.810   2.945
 5308TIP3    H215889   5.211   3.746   2.827
 5309TIP3   OH215890   4.341   3.055   5.582
 5309TIP3    H115891   4.367   3.098   5.501
 5309TIP3    H215892   4.397   3.095   5.649
 5310TIP3   OH215893   1.095   6.417   1.410
 5310TIP3    H115894   1.024   6.354   1.414
 5310TIP3    H215895   1.092   6.462   1.495
 5311TIP3   OH215896   1.990   2.948   5.508
 5311TIP3    H115897   1.943   2.864   5.508
 5311TIP3    H215898   1.940   3.003   5.447
 5312TIP3   OH215899   0.954   2.504   2.862
 5312TIP3    H115900   0.871   2.483   2.820
 5312TIP3    H215901   1.021   2.470   2.803
 5313TIP3   OH215902   0.176   5.380   2.893
 5313TIP3    H115903   0.267   5.400   2.914
 5313TIP3    H215904   0.157   5.299   2.940
 5314TIP3   OH215905   1.042   2.527   0.745
 5314TIP3    H115906   1.036   2.489   0.657
 5314TIP3    H215907   0.951   2.549   0.767
 5315TIP3   OH215908   1.934   5.849   5.023
 5315TIP3    H115909   1.944   5.842   5.118
 5315TIP3    H215910   1.883   5.929   5.010
 5316TIP3   OH215911   5.733   5.875   0.034
 5316TIP3    H115912   5.681   5.797   0.012
 5316TIP3    H215913   5.683   5.948  -0.004
 5317TIP3   OH215914   5.839   6.586   2.345
 5317TIP3    H115915   5.784   6.662   2.326
 5317TIP3    H215916   5.899   6.615   2.413
 5318TIP3   OH215917   2.458   5.872   4.219
 5318TIP3    H115918   2.375   5.918   4.227
 5318TIP3    H215919   2.510   5.904   4.293
 5319TIP3   OH215920   2.707   1.365   4.304
 5319TIP3    H115921   2.794   1.392   4.332
 5319TIP3    H215922   2.663   1.336   4.384
 5320TIP3   OH215923   3.006   0.318   3.873
 5320TIP3    H115924   3.010   0.223   3.883
 5320TIP3    H215925   2.942   0.347   3.937
 5321TIP3   OH215926   1.390   4.875   2.052
 5321TIP3    H115927   1.367   4.954   2.100
 5321TIP3    H215928   1.470   4.899   2.004
 5322TIP3   OH215929   6.413   6.636   3.535
 5322TIP3    H115930   6.365   6.554   3.542
 5322TIP3    H215931   6.454   6.647   3.621
 5323TIP3   OH215932   1.426   4.879   1.585
 5323TIP3    H115933   1.346   4.877   1.637
 5323TIP3    H215934   1.397   4.864   1.495
 5324TIP3   OH215935   2.951   6.409   4.085
 5324TIP3    H115936   2.875   6.395   4.028
 5324TIP3    H215937   3.022   6.362   4.042
 5325TIP3   OH215938   5.195   3.831   4.057
 5325TIP3    H115939   5.206   3.755   4.001
 5325TIP3    H215940   5.261   3.821   4.125
 5326TIP3   OH215941   4.070   0.226   5.650
 5326TIP3    H115942   4.029   0.143   5.672
 5326TIP3    H215943   4.128   0.206   5.576
 5327TIP3   OH215944   5.270   4.408   2.520
 5327TIP3    H115945   5.270   4.387   2.613
 5327TIP3    H215946   5.197   4.468   2.508
 5328TIP3   OH215947   4.773   5.176   5.889
 5328TIP3    H115948   4.719   5.098   5.873
 5328TIP3    H215949   4.847   5.167   5.828
 5329TIP3   OH215950   4.031   6.293   1.176
 5329TIP3    H115951   4.116   6.301   1.219
 5329TIP3    H215952   3.981   6.235   1.233
 5330TIP3   OH215953   3.290   1.070   2.059
 5330TIP3    H115954   3.338   1.070   2.143
 5330TIP3    H215955   3.246   1.155   2.058
 5331TIP3   OH215956   1.942   0.137   2.751
 5331TIP3    H115957   1.856   0.112   2.785
 5331TIP3    H215958   1.936   0.120   2.657
 5332TIP3   OH215959   4.146   0.840   2.046
 5332TIP3    H115960   4.229   0.839   2.095
 5332TIP3    H215961   4.159   0.908   1.980
 5333TIP3   OH215962   1.405   3.721   4.544
 5333TIP3    H115963   1.314   3.696   4.561
 5333TIP3    H215964   1.457   3.650   4.583
 5334TIP3   OH215965   1.729   2.171   0.578
 5334TIP3    H115966   1.742   2.255   0.533
 5334TIP3    H215967   1.725   2.194   0.671
 5335TIP3   OH215968   5.219   0.344   3.092
 5335TIP3    H115969   5.214   0.270   3.152
 5335TIP3    H215970   5.156   0.325   3.023
 5336TIP3   OH215971   5.284   0.906   2.194
 5336TIP3    H115972   5.341   0.902   2.118
 5336TIP3    H215973   5.201   0.939   2.160
 5337TIP3   OH215974   3.131   4.180   1.616
 5337TIP3    H115975   3.165   4.119   1.682
 5337TIP3    H215976   3.143   4.266   1.655
 5338TIP3   OH215977   3.336   0.958   3.122
 5338TIP3    H115978   3.352   1.022   3.053
 5338TIP3    H215979   3.312   0.877   3.076
 5339TIP3   OH215980   5.861   6.149   3.235
 5339TIP3    H115981   5.784   6.146   3.292
 5339TIP3    H215982   5.921   6.209   3.280
 5340TIP3   OH215983   5.936   0.287   5.135
 5340TIP3    H115984   5.890   0.359   5.177
 5340TIP3    H215985   5.871   0.217   5.128
 5341TIP3   OH215986   0.437   6.092   2.928
 5341TIP3    H115987   0.453   6.015   2.873
 5341TIP3    H215988   0.522   6.110   2.969
 5342TIP3   OH215989   4.581   3.678  -0.021
 5342TIP3    H115990   4.534   3.682   0.062
 5342TIP3    H215991   4.520   3.714  -0.085
 5343TIP3   OH215992   4.574   3.899   3.359
 5343TIP3    H115993   4.518   3.950   3.300
 5343TIP3    H215994   4.516   3.873   3.430
 5344TIP3   OH215995   4.970   2.958   3.929
 5344TIP3    H115996   4.943   3.013   3.855
 5344TIP3    H215997   4.921   2.992   4.003
 5345TIP3   OH215998   0.363   2.432   2.866
 5345TIP3    H115999   0.361   2.337   2.857
 5345TIP3    H216000   0.308   2.464   2.794
 5346TIP3   OH216001   2.000   6.082   4.129
 5346TIP3    H116002   1.940   6.037   4.189
 5346TIP3    H216003   1.993   6.033   4.047
 5347TIP3   OH216004   3.654   3.196   2.297
 5347TIP3    H116005   3.667   3.267   2.359
 5347TIP3    H216006   3.670   3.116   2.348
 5348TIP3   OH216007   3.431   0.621   5.907
 5348TIP3    H116008   3.480   0.542   5.931
 5348TIP3    H216009   3.341   0.602   5.934
 5349TIP3   OH216010   5.748   6.078   4.699
 5349TIP3    H116011   5.733   5.990   4.665
 5349TIP3    H216012   5.838   6.077   4.729
 5350TIP3   OH216013   6.567   6.126   1.985
 5350TIP3    H116014   6.560   6.164   1.898
 5350TIP3    H216015   6.489   6.071   1.994
 5351TIP3   OH216016   6.853   6.807   3.457
 5351TIP3    H116017   6.774   6.818   3.404
 5351TIP3    H216018   6.883   6.718   3.437
 5352TIP3   OH216019   0.360   2.263   5.845
 5352TIP3    H116020   0.437   2.319   5.849
 5352TIP3    H216021   0.287   2.324   5.830
 5353TIP3   OH216022   3.700   2.265   4.902
 5353TIP3    H116023   3.780   2.223   4.934
 5353TIP3    H216024   3.709   2.357   4.927
 5354TIP3   OH216025   0.626   2.251   1.590
 5354TIP3    H116026   0.617   2.340   1.555
 5354TIP3    H216027   0.675   2.263   1.672
 5355TIP3   OH216028   3.236   0.815   4.511
 5355TIP3    H116029   3.148   0.833   4.478
 5355TIP3    H216030   3.229   0.730   4.554
 5356TIP3   OH216031   1.523   6.303   3.773
 5356TIP3    H116032   1.479   6.368   3.829
 5356TIP3    H216033   1.495   6.325   3.684
 5357TIP3   OH216034   5.173   2.896   2.758
 5357TIP3    H116035   5.152   2.822   2.816
 5357TIP3    H216036   5.091   2.943   2.749
 5358TIP3   OH216037   7.203   3.498   3.539
 5358TIP3    H116038   7.149   3.446   3.598
 5358TIP3    H216039   7.246   3.563   3.595
 5359TIP3   OH216040   2.037   3.303   3.495
 5359TIP3    H116041   2.017   3.388   3.536
 5359TIP3    H216042   2.088   3.256   3.562
 5360TIP3   OH216043   2.715   4.917   1.738
 5360TIP3    H116044   2.694   4.825   1.719
 5360TIP3    H216045   2.689   4.929   1.829
 5361TIP3   OH216046   3.904   0.669   5.036
 5361TIP3    H116047   3.857   0.693   5.116
 5361TIP3    H216048   3.843   0.613   4.989
 5362TIP3   OH216049   5.214   4.877   5.479
 5362TIP3    H116050   5.224   4.789   5.443
 5362TIP3    H216051   5.295   4.923   5.454
 5363TIP3   OH216052   0.318   4.209   2.105
 5363TIP3    H116053   0.343   4.282   2.162
 5363TIP3    H216054   0.241   4.171   2.147
 5364TIP3   OH216055   6.367   4.792   0.094
 5364TIP3    H116056   6.350   4.712   0.045
 5364TIP3    H216057   6.435   4.768   0.157
 5365TIP3   OH216058   0.486   4.251   5.389
 5365TIP3    H116059   0.527   4.197   5.321
 5365TIP3    H216060   0.402   4.276   5.352
 5366TIP3   OH216061   4.558   4.443   2.759
 5366TIP3    H116062   4.518   4.496   2.690
 5366TIP3    H216063   4.552   4.353   2.725
 5367TIP3   OH216064   5.312   2.013   5.486
 5367TIP3    H116065   5.395   2.019   5.440
 5367TIP3    H216066   5.321   2.070   5.561
 5368TIP3   OH216067   6.782   5.879   0.530
 5368TIP3    H116068   6.696   5.887   0.489
 5368TIP3    H216069   6.787   5.954   0.590
 5369TIP3   OH216070   5.436   6.157   5.823
 5369TIP3    H116071   5.388   6.217   5.880
 5369TIP3    H216072   5.395   6.072   5.839
 5370TIP3   OH216073   2.659   2.929   1.106
 5370TIP3    H116074   2.753   2.918   1.113
 5370TIP3    H216075   2.646   3.023   1.102
 5371TIP3   OH216076   3.401   5.493   4.987
 5371TIP3    H116077   3.467   5.562   4.978
 5371TIP3    H216078   3.325   5.537   5.026
 5372TIP3   OH216079   3.077   0.160   4.338
 5372TIP3    H116080   3.003   0.100   4.331
 5372TIP3    H216081   3.039   0.242   4.369
 5373TIP3   OH216082   6.544   0.663   1.790
 5373TIP3    H116083   6.470   0.723   1.778
 5373TIP3    H216084   6.609   0.714   1.838
 5374TIP3   OH216085  -0.005   2.251   3.354
 5374TIP3    H116086  -0.077   2.191   3.335
 5374TIP3    H216087   0.059   2.234   3.285
 5375TIP3   OH216088   5.640   1.920   4.545
 5375TIP3    H116089   5.572   1.896   4.483
 5375TIP3    H216090   5.593   1.962   4.617
 5376TIP3   OH216091   6.113   2.517   2.720
 5376TIP3    H116092   6.026   2.544   2.750
 5376TIP3    H216093   6.169   2.527   2.797
 5377TIP3   OH216094   6.173   2.798   3.164
 5377TIP3    H116095   6.206   2.733   3.226
 5377TIP3    H216096   6.142   2.870   3.219
 5378TIP3   OH216097   0.207   2.399   3.173
 5378TIP3    H116098   0.161   2.365   3.097
 5378TIP3    H216099   0.208   2.494   3.160
 5379TIP3   OH216100   6.296   4.187   3.786
 5379TIP3    H116101   6.329   4.101   3.758
 5379TIP3    H216102   6.258   4.225   3.706
 5380TIP3   OH216103   1.060   5.974   1.014
 5380TIP3    H116104   1.150   5.940   1.020
 5380TIP3    H216105   1.055   6.039   1.084
 5381TIP3   OH216106   0.409   3.926   0.064
 5381TIP3    H116107   0.353   3.976   0.124
 5381TIP3    H216108   0.365   3.932  -0.021
 5382TIP3   OH216109   1.677   4.870   3.551
 5382TIP3    H116110   1.746   4.926   3.588
 5382TIP3    H216111   1.723   4.791   3.523
 5383TIP3   OH216112   1.453   2.701   3.081
 5383TIP3    H116113   1.521   2.663   3.136
 5383TIP3    H216114   1.492   2.780   3.045
 5384TIP3   OH216115   4.658   4.370   0.403
 5384TIP3    H116116   4.645   4.283   0.363
 5384TIP3    H216117   4.578   4.418   0.383
 5385TIP3   OH216118   4.370   4.876   1.262
 5385TIP3    H116119   4.389   4.865   1.169
 5385TIP3    H216120   4.359   4.786   1.295
 5386TIP3   OH216121   1.678   0.182   3.873
 5386TIP3    H116122   1.765   0.215   3.892
 5386TIP3    H216123   1.626   0.260   3.855
 5387TIP3   OH216124   4.586   6.305   0.524
 5387TIP3    H116125   4.565   6.354   0.445
 5387TIP3    H216126   4.621   6.370   0.584
 5388TIP3   OH216127   3.589   5.725   4.987
 5388TIP3    H116128   3.609   5.814   5.015
 5388TIP3    H216129   3.557   5.735   4.897
 5389TIP3   OH216130   6.926   3.114   3.188
 5389TIP3    H116131   6.986   3.144   3.121
 5389TIP3    H216132   6.948   3.022   3.202
 5390TIP3   OH216133   6.076   1.543   5.887
 5390TIP3    H116134   6.032   1.531   5.803
 5390TIP3    H216135   6.167   1.520   5.870
 5391TIP3   OH216136   1.349   0.243   3.452
 5391TIP3    H116137   1.331   0.291   3.371
 5391TIP3    H216138   1.444   0.251   3.464
 5392TIP3   OH216139   3.130   5.915   1.972
 5392TIP3    H116140   3.041   5.891   1.946
 5392TIP3    H216141   3.125   5.927   2.067
 5393TIP3   OH216142   3.325   2.159   3.238
 5393TIP3    H116143   3.415   2.172   3.269
 5393TIP3    H216144   3.271   2.180   3.314
 5394TIP3   OH216145   0.186   1.084   2.688
 5394TIP3    H116146   0.209   1.137   2.612
 5394TIP3    H216147   0.093   1.063   2.676
 5395TIP3   OH216148   0.467   3.114   4.845
 5395TIP3    H116149   0.481   3.207   4.825
 5395TIP3    H216150   0.378   3.110   4.880
 5396TIP3   OH216151   3.326   0.888   0.519
 5396TIP3    H116152   3.307   0.981   0.527
 5396TIP3    H216153   3.247   0.845   0.552
 5397TIP3   OH216154   5.388   4.016   1.546
 5397TIP3    H116155   5.441   3.993   1.470
 5397TIP3    H216156   5.446   4.003   1.621
 5398TIP3   OH216157   2.263   4.670   5.136
 5398TIP3    H116158   2.258   4.766   5.138
 5398TIP3    H216159   2.342   4.651   5.085
 5399TIP3   OH216160   4.034   5.529   4.271
 5399TIP3    H116161   4.079   5.612   4.287
 5399TIP3    H216162   4.031   5.486   4.357
 5400TIP3   OH216163   3.919   1.715   1.792
 5400TIP3    H116164   3.828   1.704   1.765
 5400TIP3    H216165   3.952   1.786   1.737
 5401TIP3   OH216166   0.937   6.163   2.539
 5401TIP3    H116167   0.976   6.100   2.478
 5401TIP3    H216168   1.007   6.180   2.602
 5402TIP3   OH216169   2.516   0.735   0.551
 5402TIP3    H116170   2.559   0.724   0.466
 5402TIP3    H216171   2.574   0.691   0.613
 5403TIP3   OH216172   0.390   5.103   5.664
 5403TIP3    H116173   0.406   5.031   5.603
 5403TIP3    H216174   0.477   5.134   5.689
 5404TIP3   OH216175   4.073   0.278   1.313
 5404TIP3    H116176   4.078   0.285   1.409
 5404TIP3    H216177   4.120   0.355   1.281
 5405TIP3   OH216178   1.649   6.653   2.169
 5405TIP3    H116179   1.742   6.635   2.182
 5405TIP3    H216180   1.605   6.573   2.198
 5406TIP3   OH216181   5.282   3.976   4.759
 5406TIP3    H116182   5.334   4.014   4.688
 5406TIP3    H216183   5.265   4.050   4.818
 5407TIP3   OH216184   0.836   6.545   4.317
 5407TIP3    H116185   0.886   6.542   4.236
 5407TIP3    H216186   0.769   6.477   4.306
 5408TIP3   OH216187   0.722   1.416   1.146
 5408TIP3    H116188   0.708   1.503   1.184
 5408TIP3    H216189   0.647   1.365   1.176
 5409TIP3   OH216190   6.463   4.306   0.348
 5409TIP3    H116191   6.416   4.307   0.432
 5409TIP3    H216192   6.395   4.301   0.282
 5410TIP3   OH216193   4.650   1.050   2.881
 5410TIP3    H116194   4.733   1.033   2.837
 5410TIP3    H216195   4.673   1.065   2.973
 5411TIP3   OH216196   1.963   6.392   3.750
 5411TIP3    H116197   1.976   6.399   3.655
 5411TIP3    H216198   2.035   6.337   3.780
 5412TIP3   OH216199   2.206   1.719   2.714
 5412TIP3    H116200   2.117   1.754   2.710
 5412TIP3    H216201   2.256   1.776   2.655
 5413TIP3   OH216202   1.193   4.571   2.309
 5413TIP3    H116203   1.210   4.479   2.324
 5413TIP3    H216204   1.174   4.577   2.215
 5414TIP3   OH216205   2.095   3.831   2.145
 5414TIP3    H116206   2.136   3.770   2.083
 5414TIP3    H216207   2.157   3.837   2.217
 5415TIP3   OH216208   6.858   0.744   3.186
 5415TIP3    H116209   6.864   0.740   3.091
 5415TIP3    H216210   6.837   0.836   3.205
 5416TIP3   OH216211   0.084   4.769   3.443
 5416TIP3    H116212   0.177   4.761   3.427
 5416TIP3    H216213   0.046   4.687   3.412
 5417TIP3   OH216214   0.813   4.701   2.895
 5417TIP3    H116215   0.790   4.609   2.910
 5417TIP3    H216216   0.733   4.740   2.860
 5418TIP3   OH216217   1.017   1.178   0.360
 5418TIP3    H116218   0.962   1.214   0.290
 5418TIP3    H216219   0.955   1.151   0.428
 5419TIP3   OH216220   1.149   0.521   5.226
 5419TIP3    H116221   1.240   0.505   5.251
 5419TIP3    H216222   1.143   0.486   5.137
 5420TIP3   OH216223   5.847   3.015   3.065
 5420TIP3    H116224   5.760   3.010   3.105
 5420TIP3    H216225   5.905   3.038   3.138
 5421TIP3   OH216226   5.425   0.853   0.039
 5421TIP3    H116227   5.408   0.843   0.133
 5421TIP3    H216228   5.508   0.808   0.024
 5422TIP3   OH216229   7.145   0.313   3.789
 5422TIP3    H116230   7.240   0.305   3.781
 5422TIP3    H216231   7.114   0.319   3.698
 5423TIP3   OH216232   3.727   6.634   4.902
 5423TIP3    H116233   3.726   6.705   4.966
 5423TIP3    H216234   3.754   6.676   4.820
 5424TIP3   OH216235   3.129   2.034   2.357
 5424TIP3    H116236   3.087   1.974   2.419
 5424TIP3    H216237   3.059   2.093   2.330
 5425TIP3   OH216238   6.118   2.057   2.533
 5425TIP3    H116239   6.203   2.069   2.577
 5425TIP3    H216240   6.067   2.004   2.595
 5426TIP3   OH216241   0.513   6.198   5.203
 5426TIP3    H116242   0.451   6.271   5.207
 5426TIP3    H216243   0.597   6.238   5.224
 5427TIP3   OH216244   4.226   3.859   3.303
 5427TIP3    H116245   4.282   3.895   3.235
 5427TIP3    H216246   4.266   3.888   3.385
 5428TIP3   OH216247   5.271   2.758   0.084
 5428TIP3    H116248   5.338   2.824   0.104
 5428TIP3    H216249   5.232   2.738   0.169
 5429TIP3   OH216250   2.968   5.051   4.131
 5429TIP3    H116251   3.026   5.118   4.096
 5429TIP3    H216252   3.015   4.969   4.116
 5430TIP3   OH216253   6.866   1.822   1.013
 5430TIP3    H116254   6.782   1.861   0.990
 5430TIP3    H216255   6.869   1.824   1.109
 5431TIP3   OH216256   0.439   0.958   1.547
 5431TIP3    H116257   0.350   0.972   1.515
 5431TIP3    H216258   0.453   0.864   1.541
 5432TIP3   OH216259   4.637   4.734   4.507
 5432TIP3    H116260   4.573   4.771   4.568
 5432TIP3    H216261   4.716   4.787   4.519
 5433TIP3   OH216262   7.134   5.652   1.133
 5433TIP3    H116263   7.143   5.746   1.117
 5433TIP3    H216264   7.223   5.618   1.129
 5434TIP3   OH216265   2.542   5.265   3.044
 5434TIP3    H116266   2.506   5.211   2.973
 5434TIP3    H216267   2.477   5.334   3.056
 5435TIP3   OH216268   5.452   2.809   2.697
 5435TIP3    H116269   5.471   2.848   2.612
 5435TIP3    H216270   5.368   2.847   2.723
 5436TIP3   OH216271   2.323   2.075   1.587
 5436TIP3    H116272   2.287   2.055   1.674
 5436TIP3    H216273   2.396   2.014   1.577
 5437TIP3   OH216274   1.351   5.562   1.502
 5437TIP3    H116275   1.305   5.594   1.580
 5437TIP3    H216276   1.412   5.632   1.479
 5438TIP3   OH216277   1.485   5.973   1.108
 5438TIP3    H116278   1.467   5.944   1.019
 5438TIP3    H216279   1.487   6.068   1.103
 5439TIP3   OH216280   2.976   1.076   5.459
 5439TIP3    H116281   3.010   1.143   5.399
 5439TIP3    H216282   2.996   0.993   5.415
 5440TIP3   OH216283   2.661   6.655   3.644
 5440TIP3    H116284   2.725   6.632   3.577
 5440TIP3    H216285   2.599   6.713   3.599
 5441TIP3   OH216286   2.779   4.954   2.692
 5441TIP3    H116287   2.796   4.912   2.776
 5441TIP3    H216288   2.854   4.929   2.638
 5442TIP3   OH216289   7.181   0.582   4.227
 5442TIP3    H116290   7.100   0.633   4.217
 5442TIP3    H216291   7.220   0.582   4.140
 5443TIP3   OH216292   1.820   1.217   4.218
 5443TIP3    H116293   1.773   1.143   4.179
 5443TIP3    H216294   1.837   1.276   4.145
 5444TIP3   OH216295   1.328   2.795   0.893
 5444TIP3    H116296   1.272   2.807   0.970
 5444TIP3    H216297   1.332   2.881   0.853
 5445TIP3   OH216298   6.321   0.196   5.638
 5445TIP3    H116299   6.287   0.237   5.717
 5445TIP3    H216300   6.278   0.111   5.633
 5446TIP3   OH216301   6.415   6.267   3.119
 5446TIP3    H116302   6.488   6.228   3.168
 5446TIP3    H216303   6.383   6.337   3.176
 5447TIP3   OH216304   3.605   5.550   3.738
 5447TIP3    H116305   3.696   5.574   3.722
 5447TIP3    H216306   3.555   5.627   3.708
 5448TIP3   OH216307   6.520   6.030   5.380
 5448TIP3    H116308   6.457   6.010   5.312
 5448TIP3    H216309   6.572   5.950   5.389
 5449TIP3   OH216310   4.059   3.659   3.999
 5449TIP3    H116311   4.012   3.609   3.933
 5449TIP3    H216312   4.106   3.593   4.050
 5450TIP3   OH216313   6.555   0.332   4.704
 5450TIP3    H116314   6.489   0.336   4.773
 5450TIP3    H216315   6.518   0.273   4.639
 5451TIP3   OH216316   5.028   6.302   3.588
 5451TIP3    H116317   5.012   6.215   3.551
 5451TIP3    H216318   4.947   6.350   3.573
 5452TIP3   OH216319   0.671   5.225   5.004
 5452TIP3    H116320   0.622   5.260   4.929
 5452TIP3    H216321   0.747   5.182   4.965
 5453TIP3   OH216322   4.100   0.001   0.888
 5453TIP3    H116323   4.028   0.045   0.843
 5453TIP3    H216324   4.140   0.070   0.941
 5454TIP3   OH216325   2.495   4.701   5.493
 5454TIP3    H116326   2.503   4.734   5.582
 5454TIP3    H216327   2.402   4.711   5.472
 5455TIP3   OH216328   1.773   1.779   3.248
 5455TIP3    H116329   1.758   1.832   3.170
 5455TIP3    H216330   1.696   1.722   3.254
 5456TIP3   OH216331   1.072   3.104   2.358
 5456TIP3    H116332   1.156   3.094   2.403
 5456TIP3    H216333   1.090   3.075   2.268
 5457TIP3   OH216334   3.524   5.680   1.370
 5457TIP3    H116335   3.469   5.602   1.363
 5457TIP3    H216336   3.504   5.716   1.457
 5458TIP3   OH216337   2.739   3.045   2.114
 5458TIP3    H116338   2.686   3.123   2.130
 5458TIP3    H216339   2.761   3.012   2.201
 5459TIP3   OH216340   0.098   5.840   4.102
 5459TIP3    H116341   0.150   5.763   4.122
 5459TIP3    H216342   0.048   5.816   4.024
 5460TIP3   OH216343   2.678   3.916   4.383
 5460TIP3    H116344   2.647   3.895   4.471
 5460TIP3    H216345   2.608   3.969   4.345
 5461TIP3   OH216346   6.282   1.860   0.930
 5461TIP3    H116347   6.218   1.837   0.862
 5461TIP3    H216348   6.249   1.816   1.009
 5462TIP3   OH216349   4.671   2.537   4.823
 5462TIP3    H116350   4.708   2.571   4.904
 5462TIP3    H216351   4.732   2.467   4.797
 5463TIP3   OH216352   1.931   3.292   4.251
 5463TIP3    H116353   1.897   3.210   4.286
 5463TIP3    H216354   1.981   3.331   4.322
 5464TIP3   OH216355   0.256   2.878   0.956
 5464TIP3    H116356   0.190   2.914   0.896
 5464TIP3    H216357   0.339   2.918   0.926
 5465TIP3   OH216358   0.222   1.100   1.063
 5465TIP3    H116359   0.137   1.138   1.083
 5465TIP3    H216360   0.248   1.140   0.980
 5466TIP3   OH216361   4.354   0.138   0.625
 5466TIP3    H116362   4.415   0.147   0.551
 5466TIP3    H216363   4.348   0.044   0.639
 5467TIP3   OH216364   6.122   4.947   1.522
 5467TIP3    H116365   6.129   5.021   1.582
 5467TIP3    H216366   6.208   4.905   1.525
 5468TIP3   OH216367   6.038   0.928   5.589
 5468TIP3    H116368   6.032   0.871   5.512
 5468TIP3    H216369   6.121   0.973   5.580
 5469TIP3   OH216370   3.891   3.874   0.541
 5469TIP3    H116371   3.973   3.835   0.572
 5469TIP3    H216372   3.909   3.893   0.448
 5470TIP3   OH216373   0.603   4.784   1.290
 5470TIP3    H116374   0.595   4.689   1.278
 5470TIP3    H216375   0.561   4.821   1.212
 5471TIP3   OH216376   4.528   0.222   4.892
 5471TIP3    H116377   4.523   0.317   4.897
 5471TIP3    H216378   4.499   0.192   4.978
 5472TIP3   OH216379   4.957   0.794   5.383
 5472TIP3    H116380   5.006   0.826   5.308
 5472TIP3    H216381   4.867   0.784   5.351
 5473TIP3   OH216382   2.066   0.271   0.200
 5473TIP3    H116383   2.007   0.243   0.270
 5473TIP3    H216384   2.119   0.194   0.181
 5474TIP3   OH216385   2.132   3.224   3.757
 5474TIP3    H116386   2.219   3.250   3.725
 5474TIP3    H216387   2.137   3.240   3.851
 5475TIP3   OH216388   0.986   2.596   2.492
 5475TIP3    H116389   1.045   2.544   2.547
 5475TIP3    H216390   1.036   2.610   2.412
 5476TIP3   OH216391   4.792   5.203   2.932
 5476TIP3    H116392   4.721   5.143   2.955
 5476TIP3    H216393   4.849   5.151   2.876
 5477TIP3   OH216394   5.998   6.564   0.512
 5477TIP3    H116395   5.975   6.636   0.571
 5477TIP3    H216396   5.988   6.485   0.566
 5478TIP3   OH216397   1.164   0.260   2.545
 5478TIP3    H116398   1.234   0.195   2.550
 5478TIP3    H216399   1.090   0.220   2.590
 5479TIP3   OH216400   3.196   1.787   5.261
 5479TIP3    H116401   3.258   1.779   5.333
 5479TIP3    H216402   3.245   1.827   5.190
 5480TIP3   OH216403   3.319   0.878   5.711
 5480TIP3    H116404   3.330   0.803   5.653
 5480TIP3    H216405   3.236   0.862   5.755
 5481TIP3   OH216406   0.247   5.874   5.468
 5481TIP3    H116407   0.202   5.793   5.443
 5481TIP3    H216408   0.179   5.927   5.510
 5482TIP3   OH216409   5.557   6.412   2.127
 5482TIP3    H116410   5.471   6.437   2.161
 5482TIP3    H216411   5.600   6.367   2.200
 5483TIP3   OH216412   3.345   1.921   5.041
 5483TIP3    H116413   3.354   2.015   5.054
 5483TIP3    H216414   3.389   1.904   4.958
 5484TIP3   OH216415   1.473   4.197   1.377
 5484TIP3    H116416   1.555   4.242   1.357
 5484TIP3    H216417   1.421   4.261   1.425
 5485TIP3   OH216418   4.931   2.616   2.588
 5485TIP3    H116419   4.972   2.555   2.527
 5485TIP3    H216420   4.988   2.692   2.589
 5486TIP3   OH216421   2.155   1.763   0.195
 5486TIP3    H116422   2.167   1.835   0.257
 5486TIP3    H216423   2.236   1.762   0.144
 5487TIP3   OH216424   5.048   0.322   5.006
 5487TIP3    H116425   5.078   0.231   4.998
 5487TIP3    H216426   4.994   0.323   5.085
 5488TIP3   OH216427   6.518   3.577   0.229
 5488TIP3    H116428   6.529   3.670   0.210
 5488TIP3    H216429   6.430   3.556   0.196
 5489TIP3   OH216430   3.846   5.088   5.362
 5489TIP3    H116431   3.869   5.168   5.410
 5489TIP3    H216432   3.840   5.020   5.430
 5490TIP3   OH216433   5.582   3.562   0.934
 5490TIP3    H116434   5.657   3.612   0.901
 5490TIP3    H216435   5.547   3.518   0.857
 5491TIP3   OH216436   2.150   0.806   2.243
 5491TIP3    H116437   2.094   0.739   2.203
 5491TIP3    H216438   2.230   0.805   2.190
 5492TIP3   OH216439   5.247   1.532   3.840
 5492TIP3    H116440   5.180   1.523   3.772
 5492TIP3    H216441   5.229   1.617   3.880
 5493TIP3   OH216442   5.155   0.279   1.211
 5493TIP3    H116443   5.173   0.195   1.252
 5493TIP3    H216444   5.189   0.270   1.122
 5494TIP3   OH216445   5.051   0.953   4.593
 5494TIP3    H116446   5.109   0.885   4.627
 5494TIP3    H216447   5.089   1.035   4.624
 5495TIP3   OH216448   5.130   2.245   3.539
 5495TIP3    H116449   5.112   2.156   3.568
 5495TIP3    H216450   5.117   2.242   3.444
 5496TIP3   OH216451   5.714   0.040   4.109
 5496TIP3    H116452   5.620   0.051   4.124
 5496TIP3    H216453   5.720  -0.005   4.025
 5497TIP3   OH216454   6.167   5.423   1.744
 5497TIP3    H116455   6.126   5.491   1.690
 5497TIP3    H216456   6.120   5.428   1.827
 5498TIP3   OH216457   1.812   2.835   0.502
 5498TIP3    H116458   1.847   2.909   0.454
 5498TIP3    H216459   1.719   2.833   0.478
 5499TIP3   OH216460   2.196   5.296   5.371
 5499TIP3    H116461   2.290   5.305   5.384
 5499TIP3    H216462   2.168   5.238   5.442
 5500TIP3   OH216463   5.564   3.058   0.469
 5500TIP3    H116464   5.547   3.147   0.438
 5500TIP3    H216465   5.534   3.058   0.560
 5501TIP3   OH216466   1.727   0.477   2.620
 5501TIP3    H116467   1.688   0.438   2.699
 5501TIP3    H216468   1.751   0.565   2.647
 5502TIP3   OH216469   4.147   0.648   5.149
 5502TIP3    H116470   4.191   0.728   5.180
 5502TIP3    H216471   4.058   0.675   5.130
 5503TIP3   OH216472   1.742   0.851   1.052
 5503TIP3    H116473   1.756   0.933   1.099
 5503TIP3    H216474   1.674   0.806   1.102
 5504TIP3   OH216475   6.688   5.069   2.298
 5504TIP3    H116476   6.638   4.988   2.298
 5504TIP3    H216477   6.668   5.110   2.214
 5505TIP3   OH216478   1.576   1.744   5.576
 5505TIP3    H116479   1.512   1.674   5.581
 5505TIP3    H216480   1.629   1.735   5.655
 5506TIP3   OH216481   6.713   0.103   5.023
 5506TIP3    H116482   6.764   0.036   5.067
 5506TIP3    H216483   6.651   0.134   5.089
 5507TIP3   OH216484   5.812   6.675   5.005
 5507TIP3    H116485   5.768   6.616   5.066
 5507TIP3    H216486   5.848   6.618   4.937
 5508TIP3   OH216487   4.886   6.443   0.921
 5508TIP3    H116488   4.824   6.491   0.975
 5508TIP3    H216489   4.886   6.489   0.837
 5509TIP3   OH216490   3.409   4.062   0.327
 5509TIP3    H116491   3.500   4.052   0.357
 5509TIP3    H216492   3.374   4.134   0.379
 5510TIP3   OH216493   6.106   0.356   2.309
 5510TIP3    H116494   6.045   0.351   2.235
 5510TIP3    H216495   6.119   0.265   2.336
 5511TIP3   OH216496   5.589   0.668   4.417
 5511TIP3    H116497   5.593   0.581   4.457
 5511TIP3    H216498   5.522   0.714   4.468
 5512TIP3   OH216499   0.604   3.750   5.456
 5512TIP3    H116500   0.667   3.773   5.388
 5512TIP3    H216501   0.646   3.680   5.506
 5513TIP3   OH216502   2.806   0.159   2.495
 5513TIP3    H116503   2.885   0.192   2.452
 5513TIP3    H216504   2.796   0.069   2.462
 5514TIP3   OH216505   5.105   6.243   1.682
 5514TIP3    H116506   5.181   6.199   1.720
 5514TIP3    H216507   5.120   6.336   1.699
 5515TIP3   OH216508   3.850   4.785   0.943
 5515TIP3    H116509   3.850   4.766   0.849
 5515TIP3    H216510   3.841   4.699   0.985
 5516TIP3   OH216511   0.012   0.152   5.516
 5516TIP3    H116512   0.067   0.073   5.518
 5516TIP3    H216513   0.063   0.215   5.466
 5517TIP3   OH216514   6.476   2.183   4.454
 5517TIP3    H116515   6.453   2.253   4.392
 5517TIP3    H216516   6.571   2.177   4.449
 5518TIP3   OH216517   3.163   1.424   0.573
 5518TIP3    H116518   3.162   1.467   0.487
 5518TIP3    H216519   3.072   1.426   0.601
 5519TIP3   OH216520   5.410   4.663   1.346
 5519TIP3    H116521   5.426   4.575   1.382
 5519TIP3    H216522   5.452   4.722   1.408
 5520TIP3   OH216523   2.646   2.048   1.770
 5520TIP3    H116524   2.680   1.979   1.828
 5520TIP3    H216525   2.582   2.094   1.824
 5521TIP3   OH216526   3.298   5.970   2.638
 5521TIP3    H116527   3.287   5.887   2.591
 5521TIP3    H216528   3.243   6.032   2.590
 5522TIP3   OH216529   4.423   5.846   4.579
 5522TIP3    H116530   4.334   5.866   4.552
 5522TIP3    H216531   4.447   5.918   4.638
 5523TIP3   OH216532   4.091   3.727   0.677
 5523TIP3    H116533   4.149   3.653   0.692
 5523TIP3    H216534   4.117   3.793   0.742
 5524TIP3   OH216535   6.151   2.459   4.971
 5524TIP3    H116536   6.090   2.410   5.026
 5524TIP3    H216537   6.212   2.393   4.938
 5525TIP3   OH216538   3.121   0.717   0.260
 5525TIP3    H116539   3.184   0.653   0.227
 5525TIP3    H216540   3.174   0.795   0.278
 5526TIP3   OH216541   1.918   4.867   5.047
 5526TIP3    H116542   1.838   4.897   5.005
 5526TIP3    H216543   1.981   4.856   4.976
 5527TIP3   OH216544   0.482   6.204   0.810
 5527TIP3    H116545   0.461   6.139   0.742
 5527TIP3    H216546   0.458   6.160   0.892
 5528TIP3   OH216547  -0.004   1.247   3.316
 5528TIP3    H116548  -0.057   1.323   3.338
 5528TIP3    H216549   0.010   1.202   3.399
 5529TIP3   OH216550   3.613   6.795   2.502
 5529TIP3    H116551   3.519   6.776   2.511
 5529TIP3    H216552   3.656   6.713   2.529
 5530TIP3   OH216553   2.244   4.630   4.677
 5530TIP3    H116554   2.177   4.653   4.613
 5530TIP3    H216555   2.202   4.567   4.735
 5531TIP3   OH216556   3.631   4.816   5.719
 5531TIP3    H116557   3.589   4.897   5.751
 5531TIP3    H216558   3.656   4.836   5.629
 5532TIP3   OH216559   3.257   4.430   2.092
 5532TIP3    H116560   3.306   4.507   2.064
 5532TIP3    H216561   3.197   4.464   2.159
 5533TIP3   OH216562   1.000   1.129   4.734
 5533TIP3    H116563   1.005   1.109   4.827
 5533TIP3    H216564   1.036   1.217   4.726
 5534TIP3   OH216565   1.921   3.313   0.249
 5534TIP3    H116566   1.996   3.254   0.239
 5534TIP3    H216567   1.894   3.304   0.340
 5535TIP3   OH216568   4.514   3.816   2.800
 5535TIP3    H116569   4.491   3.750   2.734
 5535TIP3    H216570   4.505   3.771   2.883
 5536TIP3   OH216571   2.374   2.280   3.138
 5536TIP3    H116572   2.464   2.247   3.146
 5536TIP3    H216573   2.346   2.295   3.228
 5537TIP3   OH216574   0.731   1.080   4.336
 5537TIP3    H116575   0.705   1.163   4.296
 5537TIP3    H216576   0.656   1.055   4.390
 5538TIP3   OH216577   6.469   3.055   3.532
 5538TIP3    H116578   6.545   3.014   3.572
 5538TIP3    H216579   6.413   3.080   3.606
 5539TIP3   OH216580   4.374   6.760   1.123
 5539TIP3    H116581   4.391   6.827   1.190
 5539TIP3    H216582   4.388   6.805   1.040
 5540TIP3   OH216583   0.932   2.988   4.377
 5540TIP3    H116584   0.839   3.008   4.374
 5540TIP3    H216585   0.969   3.052   4.438
 5541TIP3   OH216586   5.824   5.248   3.985
 5541TIP3    H116587   5.773   5.180   3.941
 5541TIP3    H216588   5.817   5.228   4.078
 5542TIP3   OH216589   2.743   2.574   0.091
 5542TIP3    H116590   2.825   2.546   0.050
 5542TIP3    H216591   2.686   2.497   0.086
 5543TIP3   OH216592   0.731   2.941   1.196
 5543TIP3    H116593   0.812   2.974   1.157
 5543TIP3    H216594   0.663   3.001   1.165
 5544TIP3   OH216595   6.742   2.967   4.343
 5544TIP3    H116596   6.719   2.917   4.264
 5544TIP3    H216597   6.771   2.901   4.406
 5545TIP3   OH216598   3.455   2.446   5.124
 5545TIP3    H116599   3.430   2.376   5.063
 5545TIP3    H216600   3.519   2.498   5.075
 5546TIP3   OH216601   4.926   2.274   5.157
 5546TIP3    H116602   4.843   2.279   5.110
 5546TIP3    H216603   4.918   2.340   5.227
 5547TIP3   OH216604   4.630   4.653   3.602
 5547TIP3    H116605   4.672   4.712   3.540
 5547TIP3    H216606   4.697   4.586   3.620
 5548TIP3   OH216607   1.727   3.103   5.679
 5548TIP3    H116608   1.815   3.096   5.716
 5548TIP3    H216609   1.705   3.014   5.652
 5549TIP3   OH216610   3.561   0.654   2.142
 5549TIP3    H116611   3.574   0.566   2.106
 5549TIP3    H216612   3.540   0.641   2.234
 5550TIP3   OH216613   5.836   2.107   4.455
 5550TIP3    H116614   5.859   2.175   4.390
 5550TIP3    H216615   5.778   2.048   4.408
 5551TIP3   OH216616   1.740   2.407   0.441
 5551TIP3    H116617   1.801   2.464   0.488
 5551TIP3    H216618   1.671   2.466   0.410
 5552TIP3   OH216619   1.451   5.148   0.532
 5552TIP3    H116620   1.373   5.191   0.566
 5552TIP3    H216621   1.418   5.074   0.481
 5553TIP3   OH216622   6.447   0.426   3.466
 5553TIP3    H116623   6.484   0.464   3.545
 5553TIP3    H216624   6.457   0.331   3.478
 5554TIP3   OH216625   0.968   5.619   1.484
 5554TIP3    H116626   0.971   5.586   1.573
 5554TIP3    H216627   1.022   5.698   1.486
 5555TIP3   OH216628   5.072   6.629   5.242
 5555TIP3    H116629   5.062   6.723   5.231
 5555TIP3    H216630   5.019   6.591   5.172
 5556TIP3   OH216631   1.398   1.483   4.423
 5556TIP3    H116632   1.459   1.413   4.400
 5556TIP3    H216633   1.359   1.509   4.340
 5557TIP3   OH216634   2.091   4.955   4.583
 5557TIP3    H116635   2.178   4.977   4.618
 5557TIP3    H216636   2.060   5.035   4.543
 5558TIP3   OH216637   2.102   6.276   1.488
 5558TIP3    H116638   2.179   6.327   1.511
 5558TIP3    H216639   2.087   6.219   1.564
 5559TIP3   OH216640   6.405   5.497   1.616
 5559TIP3    H116641   6.366   5.584   1.615
 5559TIP3    H216642   6.338   5.441   1.656
 5560TIP3   OH216643   2.705   5.461   2.145
 5560TIP3    H116644   2.626   5.411   2.121
 5560TIP3    H216645   2.695   5.544   2.098
 5561TIP3   OH216646   5.417   1.125   3.324
 5561TIP3    H116647   5.349   1.192   3.317
 5561TIP3    H216648   5.368   1.043   3.338
 5562TIP3   OH216649   3.500   4.349   2.739
 5562TIP3    H116650   3.433   4.281   2.745
 5562TIP3    H216651   3.453   4.431   2.758
 5563TIP3   OH216652   3.322   5.936   4.481
 5563TIP3    H116653   3.405   5.983   4.467
 5563TIP3    H216654   3.275   5.987   4.546
 5564TIP3   OH216655   6.055   2.853   0.448
 5564TIP3    H116656   5.980   2.813   0.492
 5564TIP3    H216657   6.019   2.931   0.406
 5565TIP3   OH216658   6.073   3.847   0.065
 5565TIP3    H116659   6.113   3.916   0.011
 5565TIP3    H216660   6.029   3.790   0.002
 5566TIP3   OH216661   0.216   5.972   1.339
 5566TIP3    H116662   0.231   6.060   1.374
 5566TIP3    H216663   0.200   5.986   1.245
 5567TIP3   OH216664   3.159   5.305   3.643
 5567TIP3    H116665   3.219   5.266   3.579
 5567TIP3    H216666   3.204   5.384   3.673
 5568TIP3   OH216667   4.046  -0.004   0.311
 5568TIP3    H116668   4.064  -0.098   0.307
 5568TIP3    H216669   4.064   0.028   0.223
 5569TIP3   OH216670   6.926   2.755   4.487
 5569TIP3    H116671   6.972   2.801   4.557
 5569TIP3    H216672   6.974   2.779   4.408
 5570TIP3   OH216673   5.236   5.872   1.481
 5570TIP3    H116674   5.250   5.830   1.566
 5570TIP3    H216675   5.163   5.932   1.495
 5571TIP3   OH216676   1.976   2.104   3.053
 5571TIP3    H116677   1.976   2.112   3.148
 5571TIP3    H216678   2.045   2.040   3.034
 5572TIP3   OH216679   5.764   4.324   1.309
 5572TIP3    H116680   5.823   4.399   1.306
 5572TIP3    H216681   5.702   4.344   1.380
 5573TIP3   OH216682   2.581   4.086   1.720
 5573TIP3    H116683   2.582   3.991   1.730
 5573TIP3    H216684   2.651   4.105   1.658
 5574TIP3   OH216685   5.277   3.805   5.494
 5574TIP3    H116686   5.343   3.858   5.537
 5574TIP3    H216687   5.269   3.727   5.549
 5575TIP3   OH216688   5.787   0.079   5.844
 5575TIP3    H116689   5.866   0.131   5.862
 5575TIP3    H216690   5.717   0.143   5.835
 5576TIP3   OH216691   1.172   5.124   3.187
 5576TIP3    H116692   1.208   5.162   3.268
 5576TIP3    H216693   1.077   5.127   3.200
 5577TIP3   OH216694   4.955   5.216   0.806
 5577TIP3    H116695   5.006   5.146   0.765
 5577TIP3    H216696   4.867   5.205   0.770
 5578TIP3   OH216697   0.009   6.760   2.281
 5578TIP3    H116698   0.042   6.712   2.205
 5578TIP3    H216699  -0.050   6.698   2.325
 5579TIP3   OH216700   2.114   2.974   4.242
 5579TIP3    H116701   2.188   2.967   4.303
 5579TIP3    H216702   2.136   2.915   4.170
 5580TIP3   OH216703   0.126   6.491   0.852
 5580TIP3    H116704   0.056   6.556   0.855
 5580TIP3    H216705   0.156   6.491   0.762
 5581TIP3   OH216706   4.293   6.765   0.705
 5581TIP3    H116707   4.228   6.830   0.680
 5581TIP3    H216708   4.335   6.740   0.623
 5582TIP3   OH216709   0.291   6.679   0.083
 5582TIP3    H116710   0.313   6.722   0.001
 5582TIP3    H216711   0.237   6.605   0.057
 5583TIP3   OH216712   2.206   5.631   5.493
 5583TIP3    H116713   2.236   5.670   5.411
 5583TIP3    H216714   2.279   5.576   5.521
 5584TIP3   OH216715   0.987   1.526   3.355
 5584TIP3    H116716   1.011   1.465   3.286
 5584TIP3    H216717   0.996   1.475   3.436
 5585TIP3   OH216718   1.140   5.835   4.204
 5585TIP3    H116719   1.191   5.853   4.125
 5585TIP3    H216720   1.178   5.755   4.240
 5586TIP3   OH216721   2.234   4.108   3.917
 5586TIP3    H116722   2.203   4.123   3.828
 5586TIP3    H216723   2.251   4.195   3.951
 5587TIP3   OH216724   1.695   1.253   5.503
 5587TIP3    H116725   1.702   1.336   5.551
 5587TIP3    H216726   1.634   1.272   5.432
 5588TIP3   OH216727   5.478   1.645   2.355
 5588TIP3    H116728   5.556   1.595   2.334
 5588TIP3    H216729   5.405   1.586   2.332
 5589TIP3   OH216730   4.983   0.497   5.767
 5589TIP3    H116731   4.927   0.510   5.690
 5589TIP3    H216732   4.924   0.509   5.842
 5590TIP3   OH216733   4.988   3.139   4.598
 5590TIP3    H116734   5.067   3.194   4.600
 5590TIP3    H216735   5.008   3.073   4.532
 5591TIP3   OH216736   2.356   5.603   4.779
 5591TIP3    H116737   2.334   5.661   4.852
 5591TIP3    H216738   2.272   5.566   4.751
 5592TIP3   OH216739   5.688   0.775   2.925
 5592TIP3    H116740   5.675   0.782   3.019
 5592TIP3    H216741   5.664   0.862   2.891
 5593TIP3   OH216742   3.076   3.734   0.609
 5593TIP3    H116743   3.124   3.652   0.615
 5593TIP3    H216744   3.112   3.788   0.680
 5594TIP3   OH216745   6.823   3.435   2.454
 5594TIP3    H116746   6.904   3.457   2.410
 5594TIP3    H216747   6.779   3.374   2.395
 5595TIP3   OH216748   5.324   1.772   5.230
 5595TIP3    H116749   5.233   1.746   5.226
 5595TIP3    H216750   5.367   1.701   5.278
 5596TIP3   OH216751   3.588   6.808   3.997
 5596TIP3    H116752   3.618   6.767   4.078
 5596TIP3    H216753   3.605   6.742   3.929
 5597TIP3   OH216754   6.627   3.278   3.680
 5597TIP3    H116755   6.624   3.220   3.604
 5597TIP3    H216756   6.576   3.231   3.747
 5598TIP3   OH216757   1.282   3.467   0.904
 5598TIP3    H116758   1.301   3.556   0.934
 5598TIP3    H216759   1.323   3.410   0.970
 5599TIP3   OH216760   0.621   0.309   5.507
 5599TIP3    H116761   0.715   0.327   5.496
 5599TIP3    H216762   0.602   0.240   5.444
 5600TIP3   OH216763   0.871   5.912   4.200
 5600TIP3    H116764   0.872   5.963   4.120
 5600TIP3    H216765   0.957   5.869   4.201
 5601TIP3   OH216766   2.766   6.095   2.114
 5601TIP3    H116767   2.734   6.186   2.110
 5601TIP3    H216768   2.841   6.099   2.173
 5602TIP3   OH216769   1.310   5.796   3.843
 5602TIP3    H116770   1.361   5.818   3.922
 5602TIP3    H216771   1.316   5.874   3.788
 5603TIP3   OH216772   3.076   4.759   5.208
 5603TIP3    H116773   3.114   4.673   5.190
 5603TIP3    H216774   3.025   4.779   5.130
 5604TIP3   OH216775   1.140   4.571   1.332
 5604TIP3    H116776   1.070   4.585   1.396
 5604TIP3    H216777   1.221   4.588   1.380
 5605TIP3   OH216778   4.757   6.073   4.383
 5605TIP3    H116779   4.697   6.073   4.309
 5605TIP3    H216780   4.709   6.116   4.453
 5606TIP3   OH216781   4.424   1.161   4.012
 5606TIP3    H116782   4.330   1.149   3.997
 5606TIP3    H216783   4.459   1.190   3.928
 5607TIP3   OH216784   4.603   0.338   0.437
 5607TIP3    H116785   4.559   0.397   0.376
 5607TIP3    H216786   4.604   0.386   0.520
 5608TIP3   OH216787   2.439   1.696   3.161
 5608TIP3    H116788   2.492   1.688   3.240
 5608TIP3    H216789   2.352   1.720   3.193
 5609TIP3   OH216790   4.789   1.294   3.917
 5609TIP3    H116791   4.713   1.320   3.969
 5609TIP3    H216792   4.864   1.329   3.965
 5610TIP3   OH216793   0.115   2.102   3.162
 5610TIP3    H116794   0.160   2.049   3.228
 5610TIP3    H216795   0.169   2.092   3.083
 5611TIP3   OH216796   6.779   2.440   3.454
 5611TIP3    H116797   6.820   2.526   3.446
 5611TIP3    H216798   6.823   2.386   3.389
 5612TIP3   OH216799   3.428   4.672   4.149
 5612TIP3    H116800   3.360   4.622   4.103
 5612TIP3    H216801   3.452   4.740   4.086
 5613TIP3   OH216802   5.323   4.518   1.822
 5613TIP3    H116803   5.303   4.569   1.744
 5613TIP3    H216804   5.312   4.427   1.796
 5614TIP3   OH216805   5.041   4.428   4.886
 5614TIP3    H116806   5.044   4.492   4.957
 5614TIP3    H216807   5.050   4.480   4.806
 5615TIP3   OH216808   3.624   5.953   1.907
 5615TIP3    H116809   3.577   5.952   1.990
 5615TIP3    H216810   3.662   6.041   1.902
 5616TIP3   OH216811   2.370   6.533   5.324
 5616TIP3    H116812   2.396   6.615   5.282
 5616TIP3    H216813   2.448   6.479   5.321
 5617TIP3   OH216814   5.387   1.432   1.692
 5617TIP3    H116815   5.304   1.479   1.681
 5617TIP3    H216816   5.425   1.471   1.771
 5618TIP3   OH216817   0.561   6.196   1.337
 5618TIP3    H116818   0.590   6.284   1.312
 5618TIP3    H216819   0.590   6.186   1.427
 5619TIP3   OH216820   3.569   3.849   4.112
 5619TIP3    H116821   3.527   3.895   4.040
 5619TIP3    H216822   3.662   3.848   4.089
 5620TIP3   OH216823   4.267   6.558   3.040
 5620TIP3    H116824   4.338   6.554   2.976
 5620TIP3    H216825   4.310   6.570   3.124
 5621TIP3   OH216826   3.614   3.662   0.228
 5621TIP3    H116827   3.638   3.659   0.320
 5621TIP3    H216828   3.698   3.664   0.181
 5622TIP3   OH216829   6.415   6.452   2.303
 5622TIP3    H116830   6.399   6.488   2.390
 5622TIP3    H216831   6.463   6.371   2.319
 5623TIP3   OH216832   5.831   1.672   2.445
 5623TIP3    H116833   5.767   1.602   2.456
 5623TIP3    H216834   5.890   1.663   2.520
 5624TIP3   OH216835   0.104   3.688   1.549
 5624TIP3    H116836   0.018   3.665   1.585
 5624TIP3    H216837   0.113   3.782   1.565
 5625TIP3   OH216838   0.941   6.171   1.669
 5625TIP3    H116839   0.982   6.156   1.754
 5625TIP3    H216840   0.898   6.088   1.648
 5626TIP3   OH216841   2.787   6.217   5.441
 5626TIP3    H116842   2.777   6.253   5.529
 5626TIP3    H216843   2.728   6.141   5.440
 5627TIP3   OH216844   0.621   6.167   5.556
 5627TIP3    H116845   0.697   6.224   5.546
 5627TIP3    H216846   0.641   6.114   5.634
 5628TIP3   OH216847   3.938   1.248   5.480
 5628TIP3    H116848   3.923   1.304   5.556
 5628TIP3    H216849   3.860   1.261   5.425
 5629TIP3   OH216850   2.472   5.109   0.074
 5629TIP3    H116851   2.565   5.111   0.052
 5629TIP3    H216852   2.435   5.183   0.026
 5630TIP3   OH216853  -0.007   1.769   2.496
 5630TIP3    H116854  -0.022   1.827   2.570
 5630TIP3    H216855   0.022   1.826   2.425
 5631TIP3   OH216856   3.025   2.757   2.376
 5631TIP3    H116857   3.072   2.792   2.452
 5631TIP3    H216858   2.941   2.803   2.377
 5632TIP3   OH216859   4.640   3.948   5.850
 5632TIP3    H116860   4.600   3.937   5.936
 5632TIP3    H216861   4.571   3.983   5.795
 5633TIP3   OH216862   5.015   4.338   3.938
 5633TIP3    H116863   5.100   4.344   3.982
 5633TIP3    H216864   5.022   4.260   3.884
 5634TIP3   OH216865   5.633   1.608   5.851
 5634TIP3    H116866   5.709   1.569   5.895
 5634TIP3    H216867   5.557   1.574   5.898
 5635TIP3   OH216868   4.623   1.202   0.156
 5635TIP3    H116869   4.708   1.159   0.150
 5635TIP3    H216870   4.625   1.248   0.239
 5636TIP3   OH216871   1.112   2.600   5.236
 5636TIP3    H116872   1.056   2.538   5.189
 5636TIP3    H216873   1.186   2.614   5.178
 5637TIP3   OH216874   6.233   6.142   5.462
 5637TIP3    H116875   6.277   6.196   5.397
 5637TIP3    H216876   6.235   6.194   5.542
 5638TIP3   OH216877   3.115   0.381   0.836
 5638TIP3    H116878   3.079   0.301   0.874
 5638TIP3    H216879   3.061   0.397   0.758
 5639TIP3   OH216880   6.445   4.612   5.389
 5639TIP3    H116881   6.451   4.676   5.460
 5639TIP3    H216882   6.516   4.551   5.406
 5640TIP3   OH216883   2.534   0.881   5.018
 5640TIP3    H116884   2.571   0.872   5.106
 5640TIP3    H216885   2.448   0.920   5.032
 5641TIP3   OH216886   6.008   5.712   2.762
 5641TIP3    H116887   5.994   5.633   2.814
 5641TIP3    H216888   5.953   5.779   2.805
 5642TIP3   OH216889   5.164   4.068   2.969
 5642TIP3    H116890   5.179   4.143   3.026
 5642TIP3    H216891   5.201   3.994   3.018
 5643TIP3   OH216892   7.135   2.501   3.887
 5643TIP3    H116893   7.230   2.490   3.893
 5643TIP3    H216894   7.120   2.593   3.909
 5644TIP3   OH216895   2.490   1.055   0.088
 5644TIP3    H116896   2.417   0.995   0.103
 5644TIP3    H216897   2.488   1.115   0.163
 5645TIP3   OH216898   6.043   5.590   0.574
 5645TIP3    H116899   5.996   5.508   0.560
 5645TIP3    H216900   6.127   5.563   0.612
 5646TIP3   OH216901   3.843   3.255   3.152
 5646TIP3    H116902   3.809   3.300   3.076
 5646TIP3    H216903   3.816   3.309   3.227
 5647TIP3   OH216904   1.816   2.994   2.213
 5647TIP3    H116905   1.906   3.012   2.187
 5647TIP3    H216906   1.768   3.074   2.193
 5648TIP3   OH216907   0.081   4.004   2.046
 5648TIP3    H116908   0.003   4.027   2.096
 5648TIP3    H216909   0.067   4.045   1.960
 5649TIP3   OH216910   4.559   3.900   5.185
 5649TIP3    H116911   4.465   3.915   5.173
 5649TIP3    H216912   4.599   3.942   5.109
 5650TIP3   OH216913   3.847   4.436   4.066
 5650TIP3    H116914   3.938   4.459   4.048
 5650TIP3    H216915   3.851   4.345   4.096
 5651TIP3   OH216916   0.073   5.793   1.883
 5651TIP3    H116917   0.002   5.857   1.891
 5651TIP3    H216918   0.039   5.726   1.824
 5652TIP3   OH216919   5.955   4.747   1.455
 5652TIP3    H116920   5.884   4.805   1.428
 5652TIP3    H216921   6.032   4.804   1.464
 5653TIP3   OH216922   5.586   0.192   3.526
 5653TIP3    H116923   5.531   0.114   3.534
 5653TIP3    H216924   5.644   0.187   3.601
 5654TIP3   OH216925   0.373   3.392   2.294
 5654TIP3    H116926   0.300   3.355   2.344
 5654TIP3    H216927   0.344   3.480   2.272
 5655TIP3   OH216928   3.435   0.370   1.140
 5655TIP3    H116929   3.496   0.421   1.194
 5655TIP3    H216930   3.429   0.286   1.186
 5656TIP3   OH216931   3.596   0.727   5.677
 5656TIP3    H116932   3.639   0.791   5.733
 5656TIP3    H216933   3.528   0.688   5.732
 5657TIP3   OH216934   2.007   3.229   5.535
 5657TIP3    H116935   1.991   3.316   5.572
 5657TIP3    H216936   1.925   3.207   5.490
 5658TIP3   OH216937   4.220   6.257   2.398
 5658TIP3    H116938   4.266   6.313   2.335
 5658TIP3    H216939   4.130   6.252   2.365
 5659TIP3   OH216940   4.651   5.157   0.226
 5659TIP3    H116941   4.576   5.146   0.284
 5659TIP3    H216942   4.722   5.187   0.284
 5660TIP3   OH216943   5.731   4.998   1.086
 5660TIP3    H116944   5.681   5.016   1.006
 5660TIP3    H216945   5.665   4.977   1.152
 5661TIP3   OH216946   3.046   3.490   1.103
 5661TIP3    H116947   2.993   3.570   1.110
 5661TIP3    H216948   3.051   3.473   1.009
 5662TIP3   OH216949   5.078   3.336   4.033
 5662TIP3    H116950   5.006   3.279   4.060
 5662TIP3    H216951   5.127   3.284   3.969
 5663TIP3   OH216952   0.487   2.752   3.826
 5663TIP3    H116953   0.392   2.745   3.815
 5663TIP3    H216954   0.523   2.691   3.762
 5664TIP3   OH216955   0.923   3.457   5.779
 5664TIP3    H116956   0.907   3.365   5.759
 5664TIP3    H216957   1.006   3.476   5.736
 5665TIP3   OH216958   3.528   6.268   0.431
 5665TIP3    H116959   3.479   6.194   0.465
 5665TIP3    H216960   3.543   6.246   0.339
 5666TIP3   OH216961   5.047   6.707   5.787
 5666TIP3    H116962   5.066   6.790   5.831
 5666TIP3    H216963   5.110   6.645   5.824
 5667TIP3   OH216964   0.589   0.211   3.444
 5667TIP3    H116965   0.572   0.177   3.532
 5667TIP3    H216966   0.516   0.179   3.391
 5668TIP3   OH216967   6.559   5.329   0.015
 5668TIP3    H116968   6.464   5.323   0.023
 5668TIP3    H216969   6.585   5.385   0.088
 5669TIP3   OH216970   5.339   5.120   4.246
 5669TIP3    H116971   5.251   5.106   4.211
 5669TIP3    H216972   5.394   5.061   4.196
 5670TIP3   OH216973   6.675   6.607   0.034
 5670TIP3    H116974   6.714   6.586   0.118
 5670TIP3    H216975   6.750   6.613  -0.026
 5671TIP3   OH216976   5.307   1.092   5.528
 5671TIP3    H116977   5.255   1.170   5.544
 5671TIP3    H216978   5.284   1.066   5.439
 5672TIP3   OH216979   5.381   2.825   4.985
 5672TIP3    H116980   5.442   2.899   4.987
 5672TIP3    H216981   5.299   2.861   5.016
 5673TIP3   OH216982   0.063   6.156   4.925
 5673TIP3    H116983   0.024   6.174   5.011
 5673TIP3    H216984   0.133   6.220   4.917
 5674TIP3   OH216985   1.957   4.915   2.628
 5674TIP3    H116986   1.937   4.853   2.558
 5674TIP3    H216987   1.877   4.920   2.679
 5675TIP3   OH216988   1.890   6.350   5.691
 5675TIP3    H116989   1.972   6.394   5.713
 5675TIP3    H216990   1.896   6.265   5.733
 5676TIP3   OH216991   0.677   5.852   3.664
 5676TIP3    H116992   0.595   5.840   3.711
 5676TIP3    H216993   0.651   5.865   3.573
 5677TIP3   OH216994   5.728   6.139   5.283
 5677TIP3    H116995   5.809   6.157   5.331
 5677TIP3    H216996   5.663   6.198   5.322
 5678TIP3   OH216997   3.137   1.555   2.214
 5678TIP3    H116998   3.077   1.525   2.145
 5678TIP3    H216999   3.186   1.627   2.175
 5679TIP3   OH217000   4.710   1.108   5.277
 5679TIP3    H117001   4.772   1.179   5.293
 5679TIP3    H217002   4.753   1.052   5.212
 5680TIP3   OH217003   0.745   1.703   3.182
 5680TIP3    H117004   0.716   1.655   3.259
 5680TIP3    H217005   0.719   1.794   3.199
 5681TIP3   OH217006   2.311   4.913   5.234
 5681TIP3    H117007   2.303   4.941   5.326
 5681TIP3    H217008   2.267   4.982   5.185
 5682TIP3   OH217009   0.026   4.990   1.186
 5682TIP3    H117010  -0.007   4.939   1.259
 5682TIP3    H217011   0.119   5.004   1.205
 5683TIP3   OH217012   3.958   1.038   4.831
 5683TIP3    H117013   3.927   0.995   4.752
 5683TIP3    H217014   4.045   1.072   4.807
 5684TIP3   OH217015   3.900   3.878   2.841
 5684TIP3    H117016   3.839   3.822   2.889
 5684TIP3    H217017   3.986   3.837   2.854
 5685TIP3   OH217018   5.789   1.181   3.181
 5685TIP3    H117019   5.757   1.244   3.246
 5685TIP3    H217020   5.884   1.192   3.182
 5686TIP3   OH217021   6.299   2.572   2.393
 5686TIP3    H117022   6.271   2.505   2.455
 5686TIP3    H217023   6.383   2.603   2.428
 5687TIP3   OH217024   0.286   4.956   0.815
 5687TIP3    H117025   0.225   4.981   0.746
 5687TIP3    H217026   0.230   4.916   0.882
 5688TIP3   OH217027   4.990   4.720   0.159
 5688TIP3    H117028   4.912   4.713   0.214
 5688TIP3    H217029   4.987   4.809   0.123
 5689TIP3   OH217030   2.650   3.931   0.698
 5689TIP3    H117031   2.579   3.876   0.664
 5689TIP3    H217032   2.726   3.905   0.645
 5690TIP3   OH217033   5.998   6.239   1.987
 5690TIP3    H117034   5.919   6.279   1.952
 5690TIP3    H217035   6.070   6.291   1.952
 5691TIP3   OH217036   0.810   5.337   5.256
 5691TIP3    H117037   0.757   5.352   5.178
 5691TIP3    H217038   0.846   5.249   5.243
 5692TIP3   OH217039   5.224   1.641   3.477
 5692TIP3    H117040   5.180   1.588   3.410
 5692TIP3    H217041   5.159   1.652   3.546
 5693TIP3   OH217042   1.411   4.473   4.864
 5693TIP3    H117043   1.400   4.411   4.792
 5693TIP3    H217044   1.503   4.499   4.860
 5694TIP3   OH217045   6.755   4.093   2.757
 5694TIP3    H117046   6.763   4.003   2.789
 5694TIP3    H217047   6.845   4.116   2.732
 5695TIP3   OH217048   1.981   3.472   2.234
 5695TIP3    H117049   1.921   3.442   2.303
 5695TIP3    H217050   2.055   3.411   2.240
 5696TIP3   OH217051   0.635   5.092   2.011
 5696TIP3    H117052   0.657   5.120   1.922
 5696TIP3    H217053   0.656   4.998   2.012
 5697TIP3   OH217054   5.098   3.703   4.399
 5697TIP3    H117055   5.115   3.613   4.370
 5697TIP3    H217056   5.003   3.712   4.394
 5698TIP3   OH217057   1.372   5.591   3.385
 5698TIP3    H117058   1.326   5.562   3.464
 5698TIP3    H217059   1.457   5.621   3.418
 5699TIP3   OH217060   0.951   6.731   5.794
 5699TIP3    H117061   1.006   6.652   5.794
 5699TIP3    H217062   0.990   6.787   5.862
 5700TIP3   OH217063   5.496   3.949   5.105
 5700TIP3    H117064   5.550   3.956   5.183
 5700TIP3    H217065   5.419   3.899   5.134
 5701TIP3   OH217066   0.298   6.490   3.059
 5701TIP3    H117067   0.328   6.526   3.143
 5701TIP3    H217068   0.370   6.435   3.029
 5702TIP3   OH217069   5.145   0.677   1.722
 5702TIP3    H117070   5.121   0.588   1.747
 5702TIP3    H217071   5.124   0.730   1.799
 5703TIP3   OH217072   0.433   2.189   0.953
 5703TIP3    H117073   0.376   2.263   0.931
 5703TIP3    H217074   0.403   2.118   0.896
 5704TIP3   OH217075   4.435   0.729   2.566
 5704TIP3    H117076   4.516   0.716   2.615
 5704TIP3    H217077   4.446   0.813   2.522
 5705TIP3   OH217078   5.218   0.056   0.348
 5705TIP3    H117079   5.200   0.110   0.272
 5705TIP3    H217080   5.267  -0.019   0.313
 5706TIP3   OH217081   2.155   6.614   4.189
 5706TIP3    H117082   2.075   6.659   4.160
 5706TIP3    H217083   2.226   6.659   4.143
 5707TIP3   OH217084   0.273   4.230   1.094
 5707TIP3    H117085   0.321   4.156   1.059
 5707TIP3    H217086   0.185   4.222   1.058
 5708TIP3   OH217087   2.513   3.147   2.230
 5708TIP3    H117088   2.499   3.053   2.245
 5708TIP3    H217089   2.478   3.190   2.308
 5709TIP3   OH217090   5.365   1.511   4.594
 5709TIP3    H117091   5.371   1.416   4.587
 5709TIP3    H217092   5.382   1.544   4.506
 5710TIP3   OH217093   0.671   4.412   2.666
 5710TIP3    H117094   0.749   4.463   2.649
 5710TIP3    H217095   0.631   4.453   2.743
 5711TIP3   OH217096   5.018   5.790   5.445
 5711TIP3    H117097   5.089   5.784   5.509
 5711TIP3    H217098   5.004   5.700   5.416
 5712TIP3   OH217099   5.639   6.124   3.396
 5712TIP3    H117100   5.554   6.094   3.428
 5712TIP3    H217101   5.644   6.216   3.421
 5713TIP3   OH217102   4.800   2.312   3.573
 5713TIP3    H117103   4.826   2.224   3.546
 5713TIP3    H217104   4.852   2.370   3.517
 5714TIP3   OH217105   7.055   5.088   0.865
 5714TIP3    H117106   7.014   5.168   0.899
 5714TIP3    H217107   7.095   5.047   0.941
 5715TIP3   OH217108   2.655   4.315   1.094
 5715TIP3    H117109   2.635   4.230   1.054
 5715TIP3    H217110   2.615   4.310   1.181
 5716TIP3   OH217111   3.874   1.721   1.387
 5716TIP3    H117112   3.813   1.672   1.441
 5716TIP3    H217113   3.819   1.778   1.334
 5717TIP3   OH217114   2.472   3.742   2.781
 5717TIP3    H117115   2.481   3.717   2.873
 5717TIP3    H217116   2.408   3.813   2.782
 5718TIP3   OH217117   1.157   3.236   2.620
 5718TIP3    H117118   1.067   3.219   2.591
 5718TIP3    H217119   1.173   3.173   2.690
 5719TIP3   OH217120   2.719   5.336   3.742
 5719TIP3    H117121   2.623   5.334   3.747
 5719TIP3    H217122   2.738   5.344   3.649
 5720TIP3   OH217123   4.760   0.521   1.424
 5720TIP3    H117124   4.779   0.603   1.469
 5720TIP3    H217125   4.821   0.519   1.350
 5721TIP3   OH217126   6.623   2.408   5.964
 5721TIP3    H117127   6.688   2.477   5.973
 5721TIP3    H217128   6.632   2.377   5.874
 5722TIP3   OH217129   1.630   5.235   5.463
 5722TIP3    H117130   1.712   5.208   5.422
 5722TIP3    H217131   1.562   5.206   5.402
 5723TIP3   OH217132   5.214   0.224   3.491
 5723TIP3    H117133   5.145   0.288   3.476
 5723TIP3    H217134   5.242   0.198   3.403
 5724TIP3   OH217135   4.839   5.664   4.292
 5724TIP3    H117136   4.820   5.637   4.381
 5724TIP3    H217137   4.792   5.747   4.282
 5725TIP3   OH217138   0.199   1.918   0.802
 5725TIP3    H117139   0.141   1.994   0.804
 5725TIP3    H217140   0.201   1.887   0.892
 5726TIP3   OH217141   1.448   2.185   1.844
 5726TIP3    H117142   1.446   2.280   1.829
 5726TIP3    H217143   1.526   2.155   1.797
 5727TIP3   OH217144   7.150   2.302   5.555
 5727TIP3    H117145   7.074   2.245   5.542
 5727TIP3    H217146   7.223   2.242   5.569
 5728TIP3   OH217147   6.526   1.231   5.269
 5728TIP3    H117148   6.583   1.297   5.230
 5728TIP3    H217149   6.439   1.271   5.269
 5729TIP3   OH217150   2.105   0.659   2.644
 5729TIP3    H117151   2.100   0.593   2.713
 5729TIP3    H217152   2.142   0.613   2.569
 5730TIP3   OH217153   5.872   1.366   1.532
 5730TIP3    H117154   5.937   1.305   1.498
 5730TIP3    H217155   5.856   1.336   1.622
 5731TIP3   OH217156   0.318   5.689   2.836
 5731TIP3    H117157   0.402   5.736   2.834
 5731TIP3    H217158   0.314   5.651   2.923
 5732TIP3   OH217159   3.732   6.778   0.766
 5732TIP3    H117160   3.745   6.863   0.724
 5732TIP3    H217161   3.820   6.745   0.782
 5733TIP3   OH217162   3.402   0.161   5.568
 5733TIP3    H117163   3.331   0.167   5.632
 5733TIP3    H217164   3.358   0.144   5.484
 5734TIP3   OH217165   5.918   4.277   2.287
 5734TIP3    H117166   5.823   4.288   2.288
 5734TIP3    H217167   5.941   4.265   2.379
 5735TIP3   OH217168   3.558   2.602   1.729
 5735TIP3    H117169   3.475   2.634   1.693
 5735TIP3    H217170   3.606   2.568   1.654
 5736TIP3   OH217171   1.959   6.296   0.051
 5736TIP3    H117172   1.927   6.301   0.142
 5736TIP3    H217173   1.942   6.384   0.015
 5737TIP3   OH217174   1.353   2.685   0.570
 5737TIP3    H117175   1.398   2.667   0.652
 5737TIP3    H217176   1.267   2.645   0.580
 5738TIP3   OH217177   5.529   6.271   1.614
 5738TIP3    H117178   5.475   6.342   1.580
 5738TIP3    H217179   5.611   6.279   1.566
 5739TIP3   OH217180   2.836   2.743   3.573
 5739TIP3    H117181   2.915   2.751   3.519
 5739TIP3    H217182   2.784   2.820   3.550
 5740TIP3   OH217183   3.145   6.263   3.967
 5740TIP3    H117184   3.191   6.323   3.909
 5740TIP3    H217185   3.184   6.177   3.950
 5741TIP3   OH217186   2.831   1.234   5.919
 5741TIP3    H117187   2.777   1.296   5.871
 5741TIP3    H217188   2.872   1.181   5.851
 5742TIP3   OH217189   5.373   3.748   1.002
 5742TIP3    H117190   5.457   3.706   1.022
 5742TIP3    H217191   5.397   3.824   0.948
 5743TIP3   OH217192   6.565   4.112   0.610
 5743TIP3    H117193   6.536   4.104   0.701
 5743TIP3    H217194   6.579   4.206   0.598
 5744TIP3   OH217195   3.550   3.185   5.854
 5744TIP3    H117196   3.628   3.149   5.812
 5744TIP3    H217197   3.484   3.185   5.784
 5745TIP3   OH217198   0.795   5.385   0.775
 5745TIP3    H117199   0.882   5.424   0.765
 5745TIP3    H217200   0.791   5.318   0.707
 5746TIP3   OH217201   4.907   2.962   2.098
 5746TIP3    H117202   4.857   3.042   2.113
 5746TIP3    H217203   4.909   2.919   2.183
 5747TIP3   OH217204   2.272   3.602   3.090
 5747TIP3    H117205   2.255   3.695   3.080
 5747TIP3    H217206   2.222   3.577   3.168
 5748TIP3   OH217207   6.068   1.839   5.115
 5748TIP3    H117208   6.143   1.898   5.123
 5748TIP3    H217209   6.005   1.887   5.062
 5749TIP3   OH217210   0.581   5.781   0.080
 5749TIP3    H117211   0.487   5.790   0.099
 5749TIP3    H217212   0.602   5.692   0.107
 5750TIP3   OH217213   6.676   2.975   3.154
 5750TIP3    H117214   6.740   3.044   3.174
 5750TIP3    H217215   6.678   2.967   3.059
 5751TIP3   OH217216   0.132   1.038   3.152
 5751TIP3    H117217   0.085   1.113   3.188
 5751TIP3    H217218   0.128   0.971   3.220
 5752TIP3   OH217219   0.048   5.676   5.803
 5752TIP3    H117220   0.062   5.675   5.708
 5752TIP3    H217221   0.077   5.763   5.831
 5753TIP3   OH217222   0.550   3.537   3.407
 5753TIP3    H117223   0.584   3.494   3.328
 5753TIP3    H217224   0.456   3.543   3.393
 5754TIP3   OH217225   2.739   5.613   3.091
 5754TIP3    H117226   2.678   5.579   3.156
 5754TIP3    H217227   2.810   5.650   3.142
 5755TIP3   OH217228   5.837   2.488   1.960
 5755TIP3    H117229   5.879   2.532   2.034
 5755TIP3    H217230   5.746   2.518   1.961
 5756TIP3   OH217231   3.896   1.578   0.627
 5756TIP3    H117232   3.913   1.665   0.591
 5756TIP3    H217233   3.982   1.545   0.652
 5757TIP3   OH217234   5.641   5.810   5.739
 5757TIP3    H117235   5.728   5.793   5.774
 5757TIP3    H217236   5.649   5.789   5.645
 5758TIP3   OH217237   3.940   3.384   3.465
 5758TIP3    H117238   3.904   3.453   3.522
 5758TIP3    H217239   3.930   3.419   3.376
 5759TIP3   OH217240   6.976   1.445   4.350
 5759TIP3    H117241   7.036   1.378   4.381
 5759TIP3    H217242   6.905   1.397   4.307
 5760TIP3   OH217243   3.043   4.788   4.086
 5760TIP3    H117244   3.029   4.695   4.102
 5760TIP3    H217245   2.994   4.807   4.005
 5761TIP3   OH217246   6.706   1.323   1.552
 5761TIP3    H117247   6.799   1.316   1.528
 5761TIP3    H217248   6.699   1.408   1.594
 5762TIP3   OH217249   6.778   0.391   1.448
 5762TIP3    H117250   6.694   0.349   1.468
 5762TIP3    H217251   6.765   0.483   1.471
 5763TIP3   OH217252   6.809   2.149   1.390
 5763TIP3    H117253   6.724   2.115   1.419
 5763TIP3    H217254   6.848   2.185   1.470
 5764TIP3   OH217255   1.393   0.916   0.591
 5764TIP3    H117256   1.304   0.908   0.626
 5764TIP3    H217257   1.450   0.895   0.665
 5765TIP3   OH217258   5.304   1.801   1.761
 5765TIP3    H117259   5.272   1.732   1.819
 5765TIP3    H217260   5.230   1.861   1.751
 5766TIP3   OH217261   4.933   4.135   3.197
 5766TIP3    H117262   4.877   4.070   3.239
 5766TIP3    H217263   4.985   4.171   3.268
 5767TIP3   OH217264   0.776   5.786   3.113
 5767TIP3    H117265   0.829   5.831   3.047
 5767TIP3    H217266   0.792   5.836   3.193
 5768TIP3   OH217267   6.113   5.612   3.831
 5768TIP3    H117268   6.074   5.583   3.749
 5768TIP3    H217269   6.095   5.540   3.892
 5769TIP3   OH217270   6.107   0.625   0.820
 5769TIP3    H117271   6.145   0.660   0.900
 5769TIP3    H217272   6.178   0.624   0.757
 5770TIP3   OH217273   3.122   1.582   1.515
 5770TIP3    H117274   3.216   1.564   1.516
 5770TIP3    H217275   3.093   1.554   1.428
 5771TIP3   OH217276   4.982   0.793   0.134
 5771TIP3    H117277   5.057   0.765   0.080
 5771TIP3    H217278   4.909   0.797   0.073
 5772TIP3   OH217279   2.388   3.872   5.029
 5772TIP3    H117280   2.359   3.904   4.944
 5772TIP3    H217281   2.306   3.861   5.079
 5773TIP3   OH217282   5.592   4.260   4.369
 5773TIP3    H117283   5.667   4.207   4.339
 5773TIP3    H217284   5.515   4.213   4.336
 5774TIP3   OH217285   0.425   3.472   3.056
 5774TIP3    H117286   0.354   3.453   2.995
 5774TIP3    H217287   0.437   3.391   3.105
 5775TIP3   OH217288   0.383   4.609   3.055
 5775TIP3    H117289   0.313   4.662   3.093
 5775TIP3    H217290   0.339   4.554   2.990
 5776TIP3   OH217291   6.484   0.128   3.475
 5776TIP3    H117292   6.417   0.129   3.407
 5776TIP3    H217293   6.437   0.099   3.553
 5777TIP3   OH217294   5.102   6.311   2.437
 5777TIP3    H117295   5.058   6.230   2.460
 5777TIP3    H217296   5.059   6.340   2.357
 5778TIP3   OH217297   4.462   2.377   0.635
 5778TIP3    H117298   4.522   2.451   0.646
 5778TIP3    H217299   4.375   2.417   0.636
 5779TIP3   OH217300   3.940   1.987   0.805
 5779TIP3    H117301   4.006   2.054   0.821
 5779TIP3    H217302   3.988   1.904   0.806
 5780TIP3   OH217303   1.033   5.497   0.826
 5780TIP3    H117304   1.128   5.503   0.816
 5780TIP3    H217305   1.006   5.586   0.852
 5781TIP3   OH217306   4.437   4.491   0.311
 5781TIP3    H117307   4.443   4.546   0.389
 5781TIP3    H217308   4.350   4.450   0.317
 5782TIP3   OH217309   1.029   2.424   1.947
 5782TIP3    H117310   1.002   2.508   1.983
 5782TIP3    H217311   1.033   2.366   2.023
 5783TIP3   OH217312   2.255   1.974   5.181
 5783TIP3    H117313   2.223   1.894   5.138
 5783TIP3    H217314   2.222   2.045   5.126
 5784TIP3   OH217315   2.796   5.212   2.601
 5784TIP3    H117316   2.769   5.124   2.628
 5784TIP3    H217317   2.889   5.202   2.579
 5785TIP3   OH217318   7.049   5.280   1.443
 5785TIP3    H117319   7.106   5.357   1.447
 5785TIP3    H217320   7.065   5.234   1.526
 5786TIP3   OH217321   4.090   2.904   5.030
 5786TIP3    H117322   4.116   2.846   4.958
 5786TIP3    H217323   4.172   2.944   5.059
 5787TIP3   OH217324   0.860   1.302   0.183
 5787TIP3    H117325   0.883   1.379   0.131
 5787TIP3    H217326   0.773   1.320   0.218
 5788TIP3   OH217327   0.493   4.621   4.537
 5788TIP3    H117328   0.407   4.588   4.514
 5788TIP3    H217329   0.476   4.702   4.585
 5789TIP3   OH217330   2.658   2.638   4.193
 5789TIP3    H117331   2.577   2.666   4.151
 5789TIP3    H217332   2.718   2.712   4.182
 5790TIP3   OH217333   2.223   4.510   1.181
 5790TIP3    H117334   2.257   4.591   1.144
 5790TIP3    H217335   2.229   4.447   1.109
 5791TIP3   OH217336   5.026   2.665   5.602
 5791TIP3    H117337   4.938   2.654   5.638
 5791TIP3    H217338   5.025   2.752   5.561
 5792TIP3   OH217339   3.753   2.509   5.040
 5792TIP3    H117340   3.782   2.471   5.123
 5792TIP3    H217341   3.770   2.602   5.049
 5793TIP3   OH217342   6.773   4.891   5.443
 5793TIP3    H117343   6.699   4.944   5.415
 5793TIP3    H217344   6.846   4.953   5.447
 5794TIP3   OH217345   4.520   5.773   0.455
 5794TIP3    H117346   4.509   5.867   0.466
 5794TIP3    H217347   4.450   5.747   0.394
 5795TIP3   OH217348   5.930   6.658   0.775
 5795TIP3    H117349   5.983   6.647   0.855
 5795TIP3    H217350   5.874   6.581   0.773
 5796TIP3   OH217351   2.723   1.863   3.967
 5796TIP3    H117352   2.771   1.810   3.903
 5796TIP3    H217353   2.776   1.942   3.977
 5797TIP3   OH217354   4.885   6.348   4.115
 5797TIP3    H117355   4.953   6.285   4.092
 5797TIP3    H217356   4.803   6.304   4.092
 5798TIP3   OH217357   0.074   1.766   5.159
 5798TIP3    H117358   0.021   1.689   5.138
 5798TIP3    H217359   0.151   1.758   5.103
 5799TIP3   OH217360   6.517   6.360   3.688
 5799TIP3    H117361   6.438   6.356   3.633
 5799TIP3    H217362   6.505   6.440   3.740
 5800TIP3   OH217363   5.313   2.339   0.463
 5800TIP3    H117364   5.234   2.354   0.411
 5800TIP3    H217365   5.285   2.353   0.553
 5801TIP3   OH217366   4.148   2.085   5.332
 5801TIP3    H117367   4.140   2.170   5.374
 5801TIP3    H217368   4.066   2.074   5.284
 5802TIP3   OH217369   5.831   4.098   4.340
 5802TIP3    H117370   5.901   4.101   4.406
 5802TIP3    H217371   5.827   4.006   4.314
 5803TIP3   OH217372   0.083   0.273   1.645
 5803TIP3    H117373   0.040   0.188   1.658
 5803TIP3    H217374   0.012   0.334   1.627
 5804TIP3   OH217375   6.649   3.282   0.341
 5804TIP3    H117376   6.742   3.280   0.365
 5804TIP3    H217377   6.607   3.225   0.406
 5805TIP3   OH217378   4.702   1.159   3.122
 5805TIP3    H117379   4.676   1.113   3.202
 5805TIP3    H217380   4.740   1.241   3.153
 5806TIP3   OH217381   6.419   2.888   5.467
 5806TIP3    H117382   6.384   2.955   5.408
 5806TIP3    H217383   6.346   2.826   5.479
 5807TIP3   OH217384   4.129   3.921   0.859
 5807TIP3    H117385   4.220   3.934   0.883
 5807TIP3    H217386   4.106   3.999   0.809
 5808TIP3   OH217387   0.031   6.403   3.815
 5808TIP3    H117388   0.000   6.407   3.725
 5808TIP3    H217389  -0.042   6.436   3.867
 5809TIP3   OH217390   3.993   2.732   0.003
 5809TIP3    H117391   3.919   2.750  -0.054
 5809TIP3    H217392   4.003   2.811   0.056
 5810TIP3   OH217393   0.829   2.799   4.727
 5810TIP3    H117394   0.828   2.894   4.715
 5810TIP3    H217395   0.779   2.784   4.807
 5811TIP3   OH217396   5.406   3.604   4.621
 5811TIP3    H117397   5.424   3.513   4.646
 5811TIP3    H217398   5.333   3.630   4.676
 5812TIP3   OH217399   4.485   1.303   0.835
 5812TIP3    H117400   4.560   1.243   0.832
 5812TIP3    H217401   4.434   1.273   0.910
 5813TIP3   OH217402   6.128   5.652   1.302
 5813TIP3    H117403   6.128   5.591   1.228
 5813TIP3    H217404   6.149   5.737   1.263
 5814TIP3   OH217405   5.964   5.761   0.786
 5814TIP3    H117406   5.937   5.722   0.869
 5814TIP3    H217407   5.998   5.687   0.735
 5815TIP3   OH217408   1.895   4.106   0.726
 5815TIP3    H117409   1.950   4.155   0.787
 5815TIP3    H217410   1.903   4.015   0.754
 5816TIP3   OH217411   6.134   2.743   4.063
 5816TIP3    H117412   6.073   2.789   4.005
 5816TIP3    H217413   6.098   2.654   4.069
 5817TIP3   OH217414   6.662   5.074   3.593
 5817TIP3    H117415   6.624   4.991   3.562
 5817TIP3    H217416   6.671   5.127   3.514
 5818TIP3   OH217417   3.796   0.398   3.656
 5818TIP3    H117418   3.703   0.415   3.643
 5818TIP3    H217419   3.827   0.472   3.708
 5819TIP3   OH217420   4.464   1.651   1.838
 5819TIP3    H117421   4.388   1.647   1.780
 5819TIP3    H217422   4.449   1.728   1.892
 5820TIP3   OH217423   4.552   2.285   5.664
 5820TIP3    H117424   4.499   2.210   5.636
 5820TIP3    H217425   4.642   2.252   5.665
 5821TIP3   OH217426   3.757   4.775   3.173
 5821TIP3    H117427   3.739   4.782   3.266
 5821TIP3    H217428   3.705   4.701   3.143
 5822TIP3   OH217429   1.134   3.309   1.859
 5822TIP3    H117430   1.113   3.373   1.791
 5822TIP3    H217431   1.174   3.362   1.929
 5823TIP3   OH217432   5.088   0.727   1.305
 5823TIP3    H117433   5.177   0.745   1.276
 5823TIP3    H217434   5.060   0.652   1.253
 5824TIP3   OH217435   6.421   4.030   5.451
 5824TIP3    H117436   6.505   3.991   5.426
 5824TIP3    H217437   6.444   4.114   5.491
 5825TIP3   OH217438   4.228   1.565   2.350
 5825TIP3    H117439   4.236   1.634   2.284
 5825TIP3    H217440   4.133   1.552   2.359
 5826TIP3   OH217441   6.105   6.636   3.033
 5826TIP3    H117442   6.152   6.569   2.983
 5826TIP3    H217443   6.019   6.597   3.050
 5827TIP3   OH217444   4.473   1.262   2.463
 5827TIP3    H117445   4.437   1.339   2.507
 5827TIP3    H217446   4.422   1.254   2.382
 5828TIP3   OH217447   5.014   3.789   1.427
 5828TIP3    H117448   5.026   3.699   1.397
 5828TIP3    H217449   5.026   3.843   1.349
 5829TIP3   OH217450   5.022   2.891   0.824
 5829TIP3    H117451   5.087   2.908   0.755
 5829TIP3    H217452   5.072   2.852   0.895
 5830TIP3   OH217453   4.521   2.372   3.587
 5830TIP3    H117454   4.611   2.374   3.553
 5830TIP3    H217455   4.472   2.426   3.526
 5831TIP3   OH217456   0.579   3.734   2.394
 5831TIP3    H117457   0.483   3.737   2.388
 5831TIP3    H217458   0.599   3.641   2.405
 5832TIP3   OH217459   2.838   3.682   0.234
 5832TIP3    H117460   2.901   3.747   0.201
 5832TIP3    H217461   2.842   3.691   0.329
 5833TIP3   OH217462   6.324   1.031   1.529
 5833TIP3    H117463   6.252   1.093   1.516
 5833TIP3    H217464   6.403   1.084   1.524
 5834TIP3   OH217465   0.861   6.443   4.999
 5834TIP3    H117466   0.806   6.414   4.926
 5834TIP3    H217467   0.799   6.455   5.072
 5835TIP3   OH217468   5.859   0.738   3.946
 5835TIP3    H117469   5.843   0.806   3.881
 5835TIP3    H217470   5.783   0.742   4.005
 5836TIP3   OH217471   7.268   2.530   0.733
 5836TIP3    H117472   7.237   2.554   0.821
 5836TIP3    H217473   7.196   2.555   0.675
 5837TIP3   OH217474   1.367   6.366   5.079
 5837TIP3    H117475   1.449   6.346   5.034
 5837TIP3    H217476   1.304   6.304   5.043
 5838TIP3   OH217477   4.998   5.504   1.977
 5838TIP3    H117478   4.938   5.441   2.016
 5838TIP3    H217479   4.942   5.571   1.937
 5839TIP3   OH217480   6.075   0.409   1.225
 5839TIP3    H117481   6.149   0.410   1.164
 5839TIP3    H217482   6.069   0.499   1.257
 5840TIP3   OH217483   0.706   1.732   0.353
 5840TIP3    H117484   0.645   1.660   0.367
 5840TIP3    H217485   0.654   1.811   0.365
 5841TIP3   OH217486   0.599   2.221   4.982
 5841TIP3    H117487   0.557   2.261   5.058
 5841TIP3    H217488   0.559   2.264   4.907
 5842TIP3   OH217489   4.929   1.314   4.554
 5842TIP3    H117490   4.986   1.295   4.479
 5842TIP3    H217491   4.986   1.356   4.618
 5843TIP3   OH217492   3.191   5.342   2.293
 5843TIP3    H117493   3.260   5.307   2.350
 5843TIP3    H217494   3.128   5.270   2.284
 5844TIP3   OH217495   6.679   6.747   0.845
 5844TIP3    H117496   6.765   6.784   0.866
 5844TIP3    H217497   6.672   6.671   0.904
 5845TIP3   OH217498   0.893   2.729   3.635
 5845TIP3    H117499   0.820   2.667   3.643
 5845TIP3    H217500   0.938   2.724   3.719
 5846TIP3   OH217501   4.414   5.003   2.296
 5846TIP3    H117502   4.463   5.074   2.338
 5846TIP3    H217503   4.466   4.982   2.218
 5847TIP3   OH217504   0.924   1.496   4.683
 5847TIP3    H117505   0.885   1.547   4.754
 5847TIP3    H217506   1.007   1.464   4.720
 5848TIP3   OH217507   5.501   1.768   2.899
 5848TIP3    H117508   5.512   1.732   2.811
 5848TIP3    H217509   5.419   1.816   2.895
 5849TIP3   OH217510   0.459   5.662   1.165
 5849TIP3    H117511   0.472   5.608   1.087
 5849TIP3    H217512   0.528   5.634   1.225
 5850TIP3   OH217513   6.864   6.046   0.757
 5850TIP3    H117514   6.825   6.128   0.789
 5850TIP3    H217515   6.958   6.056   0.775
 5851TIP3   OH217516   4.185   4.918   0.428
 5851TIP3    H117517   4.194   4.966   0.346
 5851TIP3    H217518   4.103   4.950   0.466
 5852TIP3   OH217519   2.651   0.446   2.200
 5852TIP3    H117520   2.742   0.474   2.190
 5852TIP3    H217521   2.633   0.451   2.294
 5853TIP3   OH217522   3.057   0.806   1.848
 5853TIP3    H117523   3.036   0.895   1.821
 5853TIP3    H217524   2.973   0.760   1.844
 5854TIP3   OH217525   4.557   1.342   5.038
 5854TIP3    H117526   4.620   1.331   4.966
 5854TIP3    H217527   4.610   1.367   5.113
 5855TIP3   OH217528   0.439   0.404   4.617
 5855TIP3    H117529   0.351   0.426   4.586
 5855TIP3    H217530   0.489   0.386   4.538
 5856TIP3   OH217531   0.818   0.302   4.811
 5856TIP3    H117532   0.881   0.284   4.741
 5856TIP3    H217533   0.805   0.217   4.854
 5857TIP3   OH217534   1.061   6.347   2.748
 5857TIP3    H117535   0.974   6.327   2.783
 5857TIP3    H217536   1.070   6.442   2.758
 5858TIP3   OH217537   5.942   2.995   0.233
 5858TIP3    H117538   5.883   2.923   0.213
 5858TIP3    H217539   5.932   3.056   0.160
 5859TIP3   OH217540   5.950   4.469   4.879
 5859TIP3    H117541   5.970   4.474   4.786
 5859TIP3    H217542   5.903   4.387   4.889
 5860TIP3   OH217543   6.533   4.345   0.900
 5860TIP3    H117544   6.581   4.351   0.818
 5860TIP3    H217545   6.550   4.256   0.931
 5861TIP3   OH217546   0.050   3.494   4.123
 5861TIP3    H117547   0.100   3.448   4.190
 5861TIP3    H217548   0.064   3.444   4.043
 5862TIP3   OH217549   4.667   0.308   3.400
 5862TIP3    H117550   4.646   0.380   3.459
 5862TIP3    H217551   4.589   0.253   3.401
 5863TIP3   OH217552   1.967   2.786   3.031
 5863TIP3    H117553   1.922   2.868   3.052
 5863TIP3    H217554   2.029   2.809   2.962
 5864TIP3   OH217555   5.037   1.119   5.285
 5864TIP3    H117556   4.992   1.089   5.206
 5864TIP3    H217557   4.992   1.200   5.309
 5865TIP3   OH217558   6.783   1.791   0.066
 5865TIP3    H117559   6.832   1.720   0.026
 5865TIP3    H217560   6.714   1.811   0.003
 5866TIP3   OH217561   4.334   3.673   5.750
 5866TIP3    H117562   4.389   3.620   5.807
 5866TIP3    H217563   4.292   3.610   5.691
 5867TIP3   OH217564   3.745   5.582   4.323
 5867TIP3    H117565   3.678   5.646   4.298
 5867TIP3    H217566   3.828   5.628   4.312
 5868TIP3   OH217567   0.817   4.067   1.678
 5868TIP3    H117568   0.853   4.144   1.636
 5868TIP3    H217569   0.733   4.053   1.634
 5869TIP3   OH217570   7.052   6.505   4.009
 5869TIP3    H117571   7.002   6.585   3.992
 5869TIP3    H217572   7.108   6.528   4.083
 5870TIP3   OH217573   3.611   4.197   1.852
 5870TIP3    H117574   3.580   4.122   1.802
 5870TIP3    H217575   3.676   4.161   1.912
 5871TIP3   OH217576   1.854   0.722   2.776
 5871TIP3    H117577   1.924   0.680   2.826
 5871TIP3    H217578   1.900   0.784   2.718
 5872TIP3   OH217579   1.564   0.110   5.251
 5872TIP3    H117580   1.639   0.116   5.192
 5872TIP3    H217581   1.585   0.037   5.309
 5873TIP3   OH217582   1.403   2.383   5.723
 5873TIP3    H117583   1.425   2.404   5.814
 5873TIP3    H217584   1.464   2.313   5.699
 5874TIP3   OH217585   4.604   4.473   4.907
 5874TIP3    H117586   4.527   4.516   4.944
 5874TIP3    H217587   4.575   4.443   4.820
 5875TIP3   OH217588   3.251   4.385   1.806
 5875TIP3    H117589   3.243   4.379   1.901
 5875TIP3    H217590   3.198   4.462   1.782
 5876TIP3   OH217591   4.581   2.198   5.263
 5876TIP3    H117592   4.608   2.270   5.321
 5876TIP3    H217593   4.507   2.157   5.308
 5877TIP3   OH217594   6.273   4.372   5.024
 5877TIP3    H117595   6.305   4.457   4.996
 5877TIP3    H217596   6.215   4.391   5.097
 5878TIP3   OH217597   6.444   0.178   0.908
 5878TIP3    H117598   6.351   0.157   0.915
 5878TIP3    H217599   6.467   0.157   0.818
 5879TIP3   OH217600   0.305   1.551   3.439
 5879TIP3    H117601   0.244   1.622   3.460
 5879TIP3    H217602   0.274   1.476   3.489
 5880TIP3   OH217603   1.016   2.601   4.011
 5880TIP3    H117604   1.017   2.529   4.074
 5880TIP3    H217605   1.108   2.615   3.989
 5881TIP3   OH217606   2.738   3.826   0.971
 5881TIP3    H117607   2.801   3.883   0.925
 5881TIP3    H217608   2.678   3.798   0.902
 5882TIP3   OH217609   4.808   1.506   1.220
 5882TIP3    H117610   4.836   1.597   1.230
 5882TIP3    H217611   4.802   1.492   1.126
 5883TIP3   OH217612   3.679   4.151   3.576
 5883TIP3    H117613   3.586   4.150   3.552
 5883TIP3    H217614   3.717   4.221   3.524
 5884TIP3   OH217615   3.325   5.009   1.454
 5884TIP3    H117616   3.320   4.944   1.384
 5884TIP3    H217617   3.406   5.056   1.438
 5885TIP3   OH217618   2.960   2.087   3.456
 5885TIP3    H117619   2.999   2.128   3.533
 5885TIP3    H217620   3.013   2.119   3.383
 5886TIP3   OH217621   0.574   2.928   4.694
 5886TIP3    H117622   0.523   2.974   4.760
 5886TIP3    H217623   0.657   2.975   4.692
 5887TIP3   OH217624   3.307   4.097   5.060
 5887TIP3    H117625   3.354   4.018   5.031
 5887TIP3    H217626   3.226   4.064   5.099
 5888TIP3   OH217627   1.170   1.692   3.503
 5888TIP3    H117628   1.235   1.623   3.491
 5888TIP3    H217629   1.104   1.674   3.436
 5889TIP3   OH217630   0.511   2.660   4.672
 5889TIP3    H117631   0.512   2.756   4.674
 5889TIP3    H217632   0.603   2.635   4.675
 5890TIP3   OH217633   3.909   6.452   4.014
 5890TIP3    H117634   3.925   6.546   4.006
 5890TIP3    H217635   3.818   6.441   3.985
 5891TIP3   OH217636   3.206   6.400   1.453
 5891TIP3    H117637   3.127   6.346   1.442
 5891TIP3    H217638   3.269   6.363   1.391
 5892TIP3   OH217639   1.514   2.594   0.802
 5892TIP3    H117640   1.480   2.664   0.858
 5892TIP3    H217641   1.605   2.617   0.787
 5893TIP3   OH217642   2.410   3.185   5.479
 5893TIP3    H117643   2.355   3.161   5.405
 5893TIP3    H217644   2.400   3.113   5.541
 5894TIP3   OH217645   0.898   4.883   1.187
 5894TIP3    H117646   0.811   4.912   1.162
 5894TIP3    H217647   0.890   4.860   1.280
 5895TIP3   OH217648   6.973   6.118   2.122
 5895TIP3    H117649   6.969   6.083   2.033
 5895TIP3    H217650   6.894   6.173   2.129
 5896TIP3   OH217651   6.440   4.923   5.477
 5896TIP3    H117652   6.346   4.943   5.470
 5896TIP3    H217653   6.483   5.008   5.470
 5897TIP3   OH217654   3.863   0.986   2.997
 5897TIP3    H117655   3.826   1.074   3.003
 5897TIP3    H217656   3.958   1.000   3.004
 5898TIP3   OH217657   1.112   0.961   0.533
 5898TIP3    H117658   1.112   1.042   0.483
 5898TIP3    H217659   1.020   0.947   0.557
 5899TIP3   OH217660   1.884   0.430   1.752
 5899TIP3    H117661   1.949   0.428   1.681
 5899TIP3    H217662   1.829   0.353   1.736
 5900TIP3   OH217663   2.860   0.762   5.175
 5900TIP3    H117664   2.772   0.770   5.213
 5900TIP3    H217665   2.917   0.746   5.250
 5901TIP3   OH217666   5.829   1.960   5.211
 5901TIP3    H117667   5.829   2.049   5.175
 5901TIP3    H217668   5.780   1.908   5.148
 5902TIP3   OH217669   2.192   0.229   1.409
 5902TIP3    H117670   2.134   0.205   1.481
 5902TIP3    H217671   2.232   0.311   1.436
 5903TIP3   OH217672   5.760   3.771   0.866
 5903TIP3    H117673   5.754   3.777   0.771
 5903TIP3    H217674   5.854   3.763   0.883
 5904TIP3   OH217675   4.660   3.515   0.781
 5904TIP3    H117676   4.582   3.476   0.742
 5904TIP3    H217677   4.629   3.554   0.863
 5905TIP3   OH217678   1.038   6.305   0.593
 5905TIP3    H117679   1.027   6.251   0.672
 5905TIP3    H217680   0.988   6.259   0.526
 5906TIP3   OH217681   7.001   4.213   3.328
 5906TIP3    H117682   7.005   4.118   3.337
 5906TIP3    H217683   6.929   4.228   3.266
 5907TIP3   OH217684   5.049   0.000   1.565
 5907TIP3    H117685   5.079   0.088   1.541
 5907TIP3    H217686   5.084  -0.057   1.498
 5908TIP3   OH217687   2.173   3.872   0.394
 5908TIP3    H117688   2.096   3.927   0.381
 5908TIP3    H217689   2.248   3.931   0.383
 5909TIP3   OH217690   5.448   4.974   1.747
 5909TIP3    H117691   5.360   4.951   1.777
 5909TIP3    H217692   5.455   5.068   1.764
 5910TIP3   OH217693   3.893   5.362   3.436
 5910TIP3    H117694   3.864   5.288   3.383
 5910TIP3    H217695   3.917   5.429   3.373
 5911TIP3   OH217696   6.758   5.635   1.207
 5911TIP3    H117697   6.803   5.567   1.257
 5911TIP3    H217698   6.785   5.717   1.249
 5912TIP3   OH217699   6.027   4.900   2.954
 5912TIP3    H117700   6.064   4.988   2.959
 5912TIP3    H217701   5.947   4.910   2.902
 5913TIP3   OH217702   1.442   1.480   1.297
 5913TIP3    H117703   1.424   1.454   1.207
 5913TIP3    H217704   1.356   1.499   1.334
 5914TIP3   OH217705   5.566   1.237   4.835
 5914TIP3    H117706   5.575   1.324   4.795
 5914TIP3    H217707   5.656   1.206   4.845
 5915TIP3   OH217708   6.864   5.572   2.799
 5915TIP3    H117709   6.942   5.517   2.797
 5915TIP3    H217710   6.799   5.524   2.748
 5916TIP3   OH217711   1.591   2.826   3.682
 5916TIP3    H117712   1.572   2.866   3.597
 5916TIP3    H217713   1.685   2.811   3.681
 5917TIP3   OH217714   0.729   2.762   5.069
 5917TIP3    H117715   0.788   2.826   5.111
 5917TIP3    H217716   0.641   2.788   5.098
 5918TIP3   OH217717   5.529   0.230   1.194
 5918TIP3    H117718   5.462   0.171   1.227
 5918TIP3    H217719   5.596   0.172   1.156
 5919TIP3   OH217720   2.668   3.665   2.585
 5919TIP3    H117721   2.600   3.684   2.521
 5919TIP3    H217722   2.636   3.702   2.667
 5920TIP3   OH217723   3.742   6.677   3.156
 5920TIP3    H117724   3.816   6.708   3.104
 5920TIP3    H217725   3.774   6.599   3.200
 5921TIP3   OH217726   2.270   2.293   0.671
 5921TIP3    H117727   2.231   2.327   0.752
 5921TIP3    H217728   2.256   2.363   0.607
 5922TIP3   OH217729   3.313   5.834   1.171
 5922TIP3    H117730   3.397   5.793   1.189
 5922TIP3    H217731   3.284   5.794   1.089
 5923TIP3   OH217732   4.088   6.035   5.082
 5923TIP3    H117733   4.181   6.056   5.087
 5923TIP3    H217734   4.085   5.939   5.087
 5924TIP3   OH217735   0.035   5.085   4.189
 5924TIP3    H117736   0.065   5.015   4.131
 5924TIP3    H217737  -0.059   5.091   4.173
 5925TIP3   OH217738   5.675   5.333   0.076
 5925TIP3    H117739   5.626   5.262   0.037
 5925TIP3    H217740   5.722   5.293   0.149
 5926TIP3   OH217741   7.190   4.538   3.327
 5926TIP3    H117742   7.232   4.484   3.260
 5926TIP3    H217743   7.178   4.479   3.401
 5927TIP3   OH217744   4.916   4.787   3.648
 5927TIP3    H117745   4.911   4.735   3.728
 5927TIP3    H217746   4.866   4.866   3.668
 5928TIP3   OH217747   5.297   3.166   4.345
 5928TIP3    H117748   5.345   3.202   4.269
 5928TIP3    H217749   5.266   3.244   4.392
 5929TIP3   OH217750   2.176   3.593   0.917
 5929TIP3    H117751   2.114   3.587   0.990
 5929TIP3    H217752   2.235   3.519   0.930
 5930TIP3   OH217753   2.664   5.749   4.383
 5930TIP3    H117754   2.750   5.747   4.425
 5930TIP3    H217755   2.682   5.777   4.293
 5931TIP3   OH217756   6.342   4.229   2.394
 5931TIP3    H117757   6.343   4.320   2.365
 5931TIP3    H217758   6.255   4.216   2.432
 5932TIP3   OH217759   5.424   3.859   4.256
 5932TIP3    H117760   5.408   3.863   4.350
 5932TIP3    H217761   5.461   3.772   4.241
 5933TIP3   OH217762   1.775   1.817  -0.001
 5933TIP3    H117763   1.711   1.888  -0.004
 5933TIP3    H217764   1.845   1.850   0.056
 5934TIP3   OH217765   5.289   0.618   4.260
 5934TIP3    H117766   5.319   0.608   4.170
 5934TIP3    H217767   5.292   0.712   4.277
 5935TIP3   OH217768   3.900   0.986   5.377
 5935TIP3    H117769   3.936   1.062   5.422
 5935TIP3    H217770   3.833   1.021   5.319
 5936TIP3   OH217771   4.584   2.378   3.256
 5936TIP3    H117772   4.544   2.441   3.316
 5936TIP3    H217773   4.671   2.412   3.239
 5937TIP3   OH217774   4.771   2.050   1.295
 5937TIP3    H117775   4.681   2.031   1.265
 5937TIP3    H217776   4.764   2.135   1.339
 5938TIP3   OH217777   2.426   1.259   2.828
 5938TIP3    H117778   2.410   1.353   2.837
 5938TIP3    H217779   2.471   1.251   2.743
 5939TIP3   OH217780   0.932   0.527   2.902
 5939TIP3    H117781   0.862   0.478   2.946
 5939TIP3    H217782   0.901   0.537   2.812
 5940TIP3   OH217783   4.461   3.813   4.143
 5940TIP3    H117784   4.485   3.723   4.164
 5940TIP3    H217785   4.384   3.830   4.197
 5941TIP3   OH217786   1.374   5.362   4.640
 5941TIP3    H117787   1.398   5.292   4.701
 5941TIP3    H217788   1.419   5.439   4.675
 5942TIP3   OH217789   7.238   0.088   2.536
 5942TIP3    H117790   7.165   0.102   2.597
 5942TIP3    H217791   7.282   0.010   2.570
 5943TIP3   OH217792   5.050   2.403   2.419
 5943TIP3    H117793   5.094   2.417   2.335
 5943TIP3    H217794   4.970   2.356   2.396
 5944TIP3   OH217795   3.184   1.696   1.182
 5944TIP3    H117796   3.264   1.744   1.205
 5944TIP3    H217797   3.145   1.748   1.112
 5945TIP3   OH217798   0.563   4.485   5.490
 5945TIP3    H117799   0.503   4.536   5.436
 5945TIP3    H217800   0.522   4.399   5.497
 5946TIP3   OH217801   1.209   0.016   0.303
 5946TIP3    H117802   1.124   0.019   0.345
 5946TIP3    H217803   1.196   0.056   0.218
 5947TIP3   OH217804   2.581   2.568   3.392
 5947TIP3    H117805   2.527   2.568   3.472
 5947TIP3    H217806   2.662   2.525   3.418
 5948TIP3   OH217807   1.003   0.569   0.147
 5948TIP3    H117808   0.991   0.508   0.220
 5948TIP3    H217809   1.025   0.652   0.189
 5949TIP3   OH217810   4.220   0.327   4.039
 5949TIP3    H117811   4.167   0.331   4.118
 5949TIP3    H217812   4.217   0.415   4.002
 5950TIP3   OH217813   6.555   4.505   2.305
 5950TIP3    H117814   6.461   4.489   2.296
 5950TIP3    H217815   6.566   4.598   2.282
 5951TIP3   OH217816   3.227   6.544   4.749
 5951TIP3    H117817   3.217   6.604   4.675
 5951TIP3    H217818   3.312   6.503   4.736
 5952TIP3   OH217819   5.859   3.994   2.706
 5952TIP3    H117820   5.909   4.035   2.636
 5952TIP3    H217821   5.767   4.015   2.685
 5953TIP3   OH217822   2.884   1.791   0.392
 5953TIP3    H117823   2.844   1.852   0.330
 5953TIP3    H217824   2.963   1.760   0.348
 5954TIP3   OH217825   4.073   4.030   5.271
 5954TIP3    H117826   4.092   4.064   5.359
 5954TIP3    H217827   3.978   4.035   5.264
 5955TIP3   OH217828   6.785   1.641   5.634
 5955TIP3    H117829   6.698   1.682   5.636
 5955TIP3    H217830   6.801   1.623   5.541
 5956TIP3   OH217831   0.296   2.055   4.472
 5956TIP3    H117832   0.213   2.095   4.445
 5956TIP3    H217833   0.274   1.963   4.487
 5957TIP3   OH217834   6.177   2.489   2.158
 5957TIP3    H117835   6.110   2.422   2.176
 5957TIP3    H217836   6.205   2.518   2.245
 5958TIP3   OH217837   4.400   6.034   5.866
 5958TIP3    H117838   4.349   5.977   5.809
 5958TIP3    H217839   4.414   5.983   5.946
 5959TIP3   OH217840   6.601   5.884   0.983
 5959TIP3    H117841   6.549   5.915   0.909
 5959TIP3    H217842   6.670   5.830   0.943
 5960TIP3   OH217843   4.542   4.163   3.612
 5960TIP3    H117844   4.505   4.191   3.696
 5960TIP3    H217845   4.512   4.230   3.550
 5961TIP3   OH217846   7.075   0.911   1.750
 5961TIP3    H117847   7.092   1.004   1.740
 5961TIP3    H217848   7.134   0.883   1.820
 5962TIP3   OH217849   6.610   5.147   5.443
 5962TIP3    H117850   6.539   5.209   5.433
 5962TIP3    H217851   6.665   5.161   5.366
 5963TIP3   OH217852   2.814   5.170   1.623
 5963TIP3    H117853   2.841   5.161   1.532
 5963TIP3    H217854   2.768   5.088   1.643
 5964TIP3   OH217855   5.714   0.555   0.907
 5964TIP3    H117856   5.738   0.627   0.966
 5964TIP3    H217857   5.737   0.476   0.955
 5965TIP3   OH217858   5.379   0.865   2.455
 5965TIP3    H117859   5.361   0.865   2.361
 5965TIP3    H217860   5.472   0.885   2.462
 5966TIP3   OH217861   5.888   5.134   0.732
 5966TIP3    H117862   5.816   5.088   0.688
 5966TIP3    H217863   5.963   5.075   0.721
 5967TIP3   OH217864   3.888   2.518   2.952
 5967TIP3    H117865   3.804   2.525   2.997
 5967TIP3    H217866   3.941   2.462   3.009
 5968TIP3   OH217867   3.762   0.862   4.339
 5968TIP3    H117868   3.850   0.895   4.323
 5968TIP3    H217869   3.735   0.822   4.257
 5969TIP3   OH217870   0.308   1.304   4.150
 5969TIP3    H117871   0.327   1.382   4.202
 5969TIP3    H217872   0.305   1.335   4.060
 5970TIP3   OH217873   2.674   0.782   4.468
 5970TIP3    H117874   2.651   0.689   4.462
 5970TIP3    H217875   2.649   0.807   4.558
 5971TIP3   OH217876   1.830   3.768   4.566
 5971TIP3    H117877   1.788   3.806   4.643
 5971TIP3    H217878   1.819   3.673   4.577
 5972TIP3   OH217879   5.600   6.298   2.519
 5972TIP3    H117880   5.533   6.272   2.456
 5972TIP3    H217881   5.673   6.329   2.466
 5973TIP3   OH217882   3.775   6.405   3.191
 5973TIP3    H117883   3.711   6.384   3.122
 5973TIP3    H217884   3.857   6.417   3.145
 5974TIP3   OH217885   0.224   4.998   1.912
 5974TIP3    H117886   0.206   5.080   1.958
 5974TIP3    H217887   0.192   4.930   1.972
 5975TIP3   OH217888   1.632   0.745   3.913
 5975TIP3    H117889   1.562   0.795   3.872
 5975TIP3    H217890   1.614   0.750   4.007
 5976TIP3   OH217891   6.389   4.199   5.805
 5976TIP3    H117892   6.347   4.231   5.725
 5976TIP3    H217893   6.407   4.278   5.856
 5977TIP3   OH217894   0.068   1.267   5.527
 5977TIP3    H117895   0.029   1.253   5.441
 5977TIP3    H217896   0.154   1.225   5.522
 5978TIP3   OH217897   1.253   3.248   1.362
 5978TIP3    H117898   1.225   3.178   1.303
 5978TIP3    H217899   1.345   3.262   1.340
 5979TIP3   OH217900   5.406   0.427   5.633
 5979TIP3    H117901   5.433   0.482   5.560
 5979TIP3    H217902   5.311   0.421   5.626
 5980TIP3   OH217903   6.612   3.456   5.750
 5980TIP3    H117904   6.590   3.414   5.667
 5980TIP3    H217905   6.695   3.500   5.733
 5981TIP3   OH217906   6.300   3.552   0.053
 5981TIP3    H117907   6.220   3.567   0.002
 5981TIP3    H217908   6.360   3.509  -0.008
 5982TIP3   OH217909   6.471   6.551   5.834
 5982TIP3    H117910   6.560   6.563   5.868
 5982TIP3    H217911   6.430   6.492   5.897
 5983TIP3   OH217912   6.064   1.567   2.246
 5983TIP3    H117913   6.083   1.615   2.165
 5983TIP3    H217914   5.970   1.578   2.259
 5984TIP3   OH217915   4.727   3.551   2.450
 5984TIP3    H117916   4.800   3.508   2.406
 5984TIP3    H217917   4.755   3.643   2.458
 5985TIP3   OH217918   1.097   1.599   5.668
 5985TIP3    H117919   1.081   1.629   5.578
 5985TIP3    H217920   1.191   1.579   5.669
 5986TIP3   OH217921   0.298   0.462   4.284
 5986TIP3    H117922   0.224   0.443   4.341
 5986TIP3    H217923   0.276   0.418   4.201
 5987TIP3   OH217924   6.046   6.033   2.160
 5987TIP3    H117925   5.977   6.043   2.226
 5987TIP3    H217926   6.050   6.119   2.118
 5988TIP3   OH217927   4.870   4.674   3.395
 5988TIP3    H117928   4.900   4.642   3.480
 5988TIP3    H217929   4.901   4.608   3.333
 5989TIP3   OH217930   0.129   3.094   5.218
 5989TIP3    H117931   0.156   3.110   5.128
 5989TIP3    H217932   0.039   3.125   5.222
 5990TIP3   OH217933   1.908   1.884   1.228
 5990TIP3    H117934   1.985   1.895   1.173
 5990TIP3    H217935   1.849   1.828   1.178
 5991TIP3   OH217936   2.859   5.391   5.255
 5991TIP3    H117937   2.834   5.388   5.162
 5991TIP3    H217938   2.916   5.314   5.267
 5992TIP3   OH217939   7.044   0.429   2.758
 5992TIP3    H117940   6.988   0.447   2.833
 5992TIP3    H217941   6.983   0.409   2.686
 5993TIP3   OH217942   6.666   0.911   1.947
 5993TIP3    H117943   6.708   0.905   2.032
 5993TIP3    H217944   6.584   0.959   1.964
 5994TIP3   OH217945   6.913   2.187   0.275
 5994TIP3    H117946   6.843   2.145   0.325
 5994TIP3    H217947   6.904   2.151   0.186
 5995TIP3   OH217948   7.131   3.634   4.994
 5995TIP3    H117949   7.151   3.632   5.087
 5995TIP3    H217950   7.057   3.694   4.986
 5996TIP3   OH217951   5.800   4.558   5.450
 5996TIP3    H117952   5.755   4.612   5.515
 5996TIP3    H217953   5.759   4.581   5.366
 5997TIP3   OH217954   0.311   3.900   2.185
 5997TIP3    H117955   0.369   3.975   2.180
 5997TIP3    H217956   0.238   3.921   2.128
 5998TIP3   OH217957   2.431   1.578   2.520
 5998TIP3    H117958   2.369   1.528   2.573
 5998TIP3    H217959   2.399   1.669   2.526
 5999TIP3   OH217960   1.545   0.047   2.148
 5999TIP3    H117961   1.491  -0.018   2.194
 5999TIP3    H217962   1.498   0.130   2.159
 6000TIP3   OH217963   5.613   2.826   4.558
 6000TIP3    H117964   5.562   2.779   4.492
 6000TIP3    H217965   5.626   2.762   4.628
 6001TIP3   OH217966   0.030   6.302   4.453
 6001TIP3    H117967   0.080   6.229   4.489
 6001TIP3    H217968  -0.052   6.263   4.423
 6002TIP3   OH217969   5.434   1.218   5.727
 6002TIP3    H117970   5.374   1.163   5.676
 6002TIP3    H217971   5.511   1.227   5.671
 6003TIP3   OH217972   5.408   6.399   0.667
 6003TIP3    H117973   5.332   6.409   0.609
 6003TIP3    H217974   5.387   6.452   0.743
 6004TIP3   OH217975   2.369   4.215   1.801
 6004TIP3    H117976   2.443   4.176   1.755
 6004TIP3    H217977   2.349   4.152   1.871
 6005TIP3   OH217978   5.242   1.402   2.074
 6005TIP3    H117979   5.327   1.440   2.052
 6005TIP3    H217980   5.246   1.313   2.039
 6006TIP3   OH217981   7.019   3.169   5.687
 6006TIP3    H117982   6.991   3.078   5.685
 6006TIP3    H217983   6.960   3.214   5.626
 6007TIP3   OH217984   1.060   1.793   0.996
 6007TIP3    H117985   1.115   1.830   0.927
 6007TIP3    H217986   1.123   1.753   1.057
 6008TIP3   OH217987   6.461   2.734   4.354
 6008TIP3    H117988   6.516   2.681   4.296
 6008TIP3    H217989   6.507   2.732   4.438
 6009TIP3   OH217990   4.799   2.673   4.277
 6009TIP3    H117991   4.758   2.637   4.198
 6009TIP3    H217992   4.886   2.634   4.279
 6010TIP3   OH217993   1.717   1.391   0.618
 6010TIP3    H117994   1.717   1.479   0.655
 6010TIP3    H217995   1.646   1.391   0.554
 6011TIP3   OH217996   1.620   5.484   3.930
 6011TIP3    H117997   1.527   5.461   3.931
 6011TIP3    H217998   1.661   5.421   3.989
 6012TIP3   OH217999   5.684   1.529   0.206
 6012TIP3    H118000   5.606   1.493   0.247
 6012TIP3    H218001   5.652   1.573   0.127
 6013TIP3   OH218002   4.982   6.539   0.667
 6013TIP3    H118003   5.006   6.594   0.742
 6013TIP3    H218004   5.002   6.592   0.590
 6014TIP3   OH218005   1.874   2.262   3.533
 6014TIP3    H118006   1.868   2.342   3.481
 6014TIP3    H218007   1.867   2.291   3.624
 6015TIP3   OH218008   2.632   2.905   3.445
 6015TIP3    H118009   2.541   2.899   3.472
 6015TIP3    H218010   2.639   2.845   3.370
 6016TIP3   OH218011   3.277   5.170   5.710
 6016TIP3    H118012   3.246   5.205   5.626
 6016TIP3    H218013   3.249   5.235   5.775
 6017TIP3   OH218014   6.943   4.103   3.935
 6017TIP3    H118015   7.002   4.100   3.859
 6017TIP3    H218016   6.861   4.137   3.899
 6018TIP3   OH218017   1.584   5.672   4.472
 6018TIP3    H118018   1.676   5.661   4.448
 6018TIP3    H218019   1.586   5.692   4.565
 6019TIP3   OH218020   6.395   2.395   4.299
 6019TIP3    H118021   6.469   2.442   4.260
 6019TIP3    H218022   6.318   2.429   4.253
 6020TIP3   OH218023   6.960   3.827   5.168
 6020TIP3    H118024   6.929   3.912   5.137
 6020TIP3    H218025   7.037   3.846   5.220
 6021TIP3   OH218026   4.431   0.523   4.010
 6021TIP3    H118027   4.503   0.466   4.037
 6021TIP3    H218028   4.393   0.553   4.093
 6022TIP3   OH218029   4.083   2.536   2.762
 6022TIP3    H118030   4.095   2.441   2.767
 6022TIP3    H218031   4.013   2.555   2.825
 6023TIP3   OH218032   2.235   1.499   0.919
 6023TIP3    H118033   2.313   1.459   0.957
 6023TIP3    H218034   2.251   1.499   0.825
 6024TIP3   OH218035   2.720   0.157   1.147
 6024TIP3    H118036   2.810   0.138   1.174
 6024TIP3    H218037   2.676   0.072   1.148
 6025TIP3   OH218038   4.921   5.415   0.141
 6025TIP3    H118039   5.015   5.429   0.148
 6025TIP3    H218040   4.910   5.321   0.155
 6026TIP3   OH218041   5.767   4.674   0.818
 6026TIP3    H118042   5.717   4.619   0.879
 6026TIP3    H218043   5.858   4.663   0.846
 6027TIP3   OH218044   5.623   6.031   5.037
 6027TIP3    H118045   5.649   6.112   4.993
 6027TIP3    H218046   5.671   6.033   5.120
 6028TIP3   OH218047   2.731   0.286   0.086
 6028TIP3    H118048   2.682   0.221   0.035
 6028TIP3    H218049   2.716   0.368   0.040
 6029TIP3   OH218050   0.530   1.873   3.462
 6029TIP3    H118051   0.561   1.785   3.442
 6029TIP3    H218052   0.594   1.931   3.423
 6030TIP3   OH218053   1.812   6.437   3.319
 6030TIP3    H118054   1.817   6.342   3.306
 6030TIP3    H218055   1.718   6.456   3.321
 6031TIP3   OH218056   2.786   1.992   5.069
 6031TIP3    H118057   2.758   1.992   4.977
 6031TIP3    H218058   2.704   2.001   5.118
 6032TIP3   OH218059   0.358   4.265   4.938
 6032TIP3    H118060   0.444   4.308   4.945
 6032TIP3    H218061   0.376   4.185   4.887
 6033TIP3   OH218062   4.837   4.590   3.104
 6033TIP3    H118063   4.769   4.607   3.170
 6033TIP3    H218064   4.903   4.539   3.151
 6034TIP3   OH218065   3.950   6.380   0.934
 6034TIP3    H118066   3.860   6.403   0.955
 6034TIP3    H218067   3.992   6.368   1.019
 6035TIP3   OH218068   7.179   6.026   2.259
 6035TIP3    H118069   7.148   6.027   2.350
 6035TIP3    H218070   7.100   6.006   2.208
 6036TIP3   OH218071   0.892   5.183   2.683
 6036TIP3    H118072   0.830   5.110   2.689
 6036TIP3    H218073   0.946   5.175   2.761
 6037TIP3   OH218074   6.710   6.104   2.688
 6037TIP3    H118075   6.696   6.016   2.723
 6037TIP3    H218076   6.797   6.101   2.649
 6038TIP3   OH218077   2.982   1.732   3.586
 6038TIP3    H118078   2.907   1.690   3.544
 6038TIP3    H218079   2.957   1.824   3.594
 6039TIP3   OH218080   5.470   0.318   0.916
 6039TIP3    H118081   5.517   0.328   0.999
 6039TIP3    H218082   5.430   0.231   0.921
 6040TIP3   OH218083   0.932   6.294   3.780
 6040TIP3    H118084   0.875   6.219   3.763
 6040TIP3    H218085   1.003   6.284   3.717
 6041TIP3   OH218086   4.900   0.242   0.180
 6041TIP3    H118087   4.975   0.293   0.150
 6041TIP3    H218088   4.826   0.303   0.178
 6042TIP3   OH218089   0.721   3.287   4.181
 6042TIP3    H118090   0.706   3.193   4.192
 6042TIP3    H218091   0.676   3.309   4.099
 6043TIP3   OH218092   4.842   1.168   0.517
 6043TIP3    H118093   4.900   1.139   0.447
 6043TIP3    H218094   4.775   1.220   0.473
 6044TIP3   OH218095   3.569   2.188   0.604
 6044TIP3    H118096   3.566   2.176   0.699
 6044TIP3    H218097   3.663   2.187   0.583
 6045TIP3   OH218098   1.610   4.902   0.247
 6045TIP3    H118099   1.693   4.856   0.238
 6045TIP3    H218100   1.546   4.844   0.205
 6046TIP3   OH218101   3.974   0.770   1.205
 6046TIP3    H118102   3.983   0.864   1.219
 6046TIP3    H218103   3.889   0.761   1.161
 6047TIP3   OH218104   1.468   2.884   4.667
 6047TIP3    H118105   1.449   2.956   4.726
 6047TIP3    H218106   1.400   2.889   4.599
 6048TIP3   OH218107   2.751   3.151   5.592
 6048TIP3    H118108   2.716   3.148   5.504
 6048TIP3    H218109   2.715   3.074   5.635
 6049TIP3   OH218110   2.759   4.892   3.265
 6049TIP3    H118111   2.828   4.874   3.329
 6049TIP3    H218112   2.693   4.942   3.313
 6050TIP3   OH218113   0.604   5.493   0.173
 6050TIP3    H118114   0.595   5.484   0.267
 6050TIP3    H218115   0.676   5.434   0.149
 6051TIP3   OH218116   0.497   5.640   2.519
 6051TIP3    H118117   0.476   5.570   2.581
 6051TIP3    H218118   0.485   5.599   2.433
 6052TIP3   OH218119   6.571   2.448   0.885
 6052TIP3    H118120   6.524   2.382   0.833
 6052TIP3    H218121   6.504   2.513   0.906
 6053TIP3   OH218122   1.535   6.084   3.938
 6053TIP3    H118123   1.502   6.136   4.012
 6053TIP3    H218124   1.535   6.145   3.864
 6054TIP3   OH218125   1.252   6.175   4.927
 6054TIP3    H118126   1.245   6.133   4.841
 6054TIP3    H218127   1.169   6.155   4.969
 6055TIP3   OH218128   1.068   4.552   5.719
 6055TIP3    H118129   1.022   4.555   5.635
 6055TIP3    H218130   1.008   4.595   5.780
 6056TIP3   OH218131   3.263   3.541   1.973
 6056TIP3    H118132   3.280   3.451   1.945
 6056TIP3    H218133   3.350   3.578   1.987
 6057TIP3   OH218134   2.328   1.302   3.213
 6057TIP3    H118135   2.263   1.329   3.148
 6057TIP3    H218136   2.313   1.362   3.287
 6058TIP3   OH218137   0.436   5.809   3.820
 6058TIP3    H118138   0.443   5.894   3.776
 6058TIP3    H218139   0.371   5.761   3.769
 6059TIP3   OH218140   4.171   3.420   4.535
 6059TIP3    H118141   4.083   3.430   4.571
 6059TIP3    H218142   4.215   3.501   4.558
 6060TIP3   OH218143   4.759   3.170   2.172
 6060TIP3    H118144   4.675   3.129   2.152
 6060TIP3    H218145   4.768   3.162   2.267
 6061TIP3   OH218146   2.275   1.529   0.383
 6061TIP3    H118147   2.254   1.452   0.329
 6061TIP3    H218148   2.222   1.599   0.347
 6062TIP3   OH218149   5.442   5.539   0.604
 6062TIP3    H118150   5.404   5.613   0.651
 6062TIP3    H218151   5.457   5.572   0.515
 6063TIP3   OH218152   3.818   0.710   1.746
 6063TIP3    H118153   3.777   0.645   1.689
 6063TIP3    H218154   3.745   0.762   1.780
 6064TIP3   OH218155   2.710   4.678   2.003
 6064TIP3    H118156   2.645   4.711   1.941
 6064TIP3    H218157   2.778   4.746   2.004
 6065TIP3   OH218158   6.614   5.481   5.609
 6065TIP3    H118159   6.557   5.554   5.635
 6065TIP3    H218160   6.578   5.452   5.525
 6066TIP3   OH218161   3.271   3.282   2.110
 6066TIP3    H118162   3.312   3.366   2.093
 6066TIP3    H218163   3.183   3.304   2.141
 6067TIP3   OH218164   2.559   1.909   1.566
 6067TIP3    H118165   2.530   1.835   1.620
 6067TIP3    H218166   2.626   1.952   1.620
 6068TIP3   OH218167   0.631   3.240   5.538
 6068TIP3    H118168   0.636   3.186   5.460
 6068TIP3    H218169   0.713   3.221   5.585
 6069TIP3   OH218170   6.406   5.386   5.432
 6069TIP3    H118171   6.342   5.443   5.389
 6069TIP3    H218172   6.359   5.351   5.508
 6070TIP3   OH218173   4.719   3.690   5.727
 6070TIP3    H118174   4.675   3.704   5.644
 6070TIP3    H218175   4.728   3.778   5.764
 6071TIP3   OH218176   1.937   0.401   1.448
 6071TIP3    H118177   1.886   0.359   1.379
 6071TIP3    H218178   2.016   0.433   1.404
 6072TIP3   OH218179   3.495   6.165   3.250
 6072TIP3    H118180   3.451   6.209   3.177
 6072TIP3    H218181   3.556   6.104   3.208
 6073TIP3   OH218182   3.732   0.965   1.223
 6073TIP3    H118183   3.700   0.932   1.307
 6073TIP3    H218184   3.738   1.059   1.235
 6074TIP3   OH218185   6.881   6.309   4.879
 6074TIP3    H118186   6.938   6.348   4.812
 6074TIP3    H218187   6.921   6.224   4.897
 6075TIP3   OH218188   2.928   1.720   1.650
 6075TIP3    H118189   2.993   1.675   1.596
 6075TIP3    H218190   2.892   1.788   1.593
 6076TIP3   OH218191   4.975   5.114   1.744
 6076TIP3    H118192   4.883   5.138   1.754
 6076TIP3    H218193   4.991   5.116   1.650
 6077TIP3   OH218194   2.298   5.539   3.908
 6077TIP3    H118195   2.360   5.610   3.925
 6077TIP3    H218196   2.212   5.581   3.914
 6078TIP3   OH218197   0.061   4.756   0.550
 6078TIP3    H118198   0.065   4.837   0.601
 6078TIP3    H218199  -0.029   4.725   0.560
 6079TIP3   OH218200   7.096   0.810   5.248
 6079TIP3    H118201   7.036   0.752   5.202
 6079TIP3    H218202   7.092   0.782   5.339
 6080TIP3   OH218203   5.555   2.995   1.382
 6080TIP3    H118204   5.632   3.025   1.430
 6080TIP3    H218205   5.481   3.025   1.434
 6081TIP3   OH218206   6.294   5.508   4.934
 6081TIP3    H118207   6.349   5.502   5.012
 6081TIP3    H218208   6.336   5.450   4.870
 6082TIP3   OH218209   4.061   6.056   2.114
 6082TIP3    H118210   3.979   6.068   2.161
 6082TIP3    H218211   4.039   5.999   2.041
 6083TIP3   OH218212   5.207   0.396   0.653
 6083TIP3    H118213   5.279   0.442   0.610
 6083TIP3    H218214   5.202   0.312   0.607
 6084TIP3   OH218215   1.068   4.408   4.613
 6084TIP3    H118216   1.016   4.350   4.558
 6084TIP3    H218217   1.009   4.437   4.682
 6085TIP3   OH218218   5.030   3.181   3.478
 6085TIP3    H118219   5.007   3.092   3.451
 6085TIP3    H218220   4.952   3.214   3.521
 6086TIP3   OH218221   1.988   4.308   1.384
 6086TIP3    H118222   2.011   4.401   1.383
 6086TIP3    H218223   2.047   4.270   1.450
 6087TIP3   OH218224   5.834   5.396   0.514
 6087TIP3    H118225   5.852   5.400   0.608
 6087TIP3    H218226   5.742   5.368   0.509
 6088TIP3   OH218227   0.089   4.926   1.477
 6088TIP3    H118228   0.157   4.910   1.542
 6088TIP3    H218229   0.009   4.941   1.529
 6089TIP3   OH218230   1.285   0.395   1.883
 6089TIP3    H118231   1.284   0.402   1.788
 6089TIP3    H218232   1.218   0.457   1.912
 6090TIP3   OH218233   0.322   5.801   2.269
 6090TIP3    H118234   0.245   5.823   2.216
 6090TIP3    H218235   0.312   5.708   2.289
 6091TIP3   OH218236   5.577   0.439   4.669
 6091TIP3    H118237   5.545   0.369   4.726
 6091TIP3    H218238   5.608   0.394   4.591
 6092TIP3   OH218239   6.598   2.169   1.600
 6092TIP3    H118240   6.618   2.235   1.667
 6092TIP3    H218241   6.504   2.156   1.608
 6093TIP3   OH218242   0.256   1.792   3.772
 6093TIP3    H118243   0.219   1.709   3.743
 6093TIP3    H218244   0.236   1.854   3.702
 6094TIP3   OH218245   3.491   3.128   2.048
 6094TIP3    H118246   3.425   3.194   2.071
 6094TIP3    H218247   3.565   3.146   2.106
 6095TIP3   OH218248   2.110   5.477   4.710
 6095TIP3    H118249   2.101   5.395   4.662
 6095TIP3    H218250   2.038   5.477   4.773
 6096TIP3   OH218251   1.594   1.416   0.193
 6096TIP3    H118252   1.654   1.362   0.141
 6096TIP3    H218253   1.538   1.457   0.127
 6097TIP3   OH218254   3.701   1.097   4.962
 6097TIP3    H118255   3.639   1.081   4.892
 6097TIP3    H218256   3.786   1.072   4.926
 6098TIP3   OH218257   3.037   4.043   3.160
 6098TIP3    H118258   3.013   4.003   3.243
 6098TIP3    H218259   2.991   4.127   3.159
 6099TIP3   OH218260   4.125   2.841   2.178
 6099TIP3    H118261   4.047   2.896   2.192
 6099TIP3    H218262   4.092   2.766   2.129
 6100TIP3   OH218263   1.769   5.925   2.501
 6100TIP3    H118264   1.807   6.012   2.488
 6100TIP3    H218265   1.783   5.880   2.417
 6101TIP3   OH218266   3.585   2.817   5.750
 6101TIP3    H118267   3.520   2.848   5.812
 6101TIP3    H218268   3.560   2.855   5.666
 6102TIP3   OH218269   6.562   3.657   4.170
 6102TIP3    H118270   6.554   3.731   4.110
 6102TIP3    H218271   6.608   3.693   4.246
 6103TIP3   OH218272   2.113   6.741   3.151
 6103TIP3    H118273   2.030   6.755   3.197
 6103TIP3    H218274   2.092   6.679   3.081
 6104TIP3   OH218275   5.740   1.147   2.588
 6104TIP3    H118276   5.721   1.068   2.538
 6104TIP3    H218277   5.716   1.126   2.678
 6105TIP3   OH218278   6.309   4.011   4.230
 6105TIP3    H118279   6.398   4.026   4.200
 6105TIP3    H218280   6.264   4.095   4.216
 6106TIP3   OH218281   1.373   6.409   3.982
 6106TIP3    H118282   1.391   6.426   4.075
 6106TIP3    H218283   1.359   6.496   3.945
 6107TIP3   OH218284   4.369   5.573   4.566
 6107TIP3    H118285   4.443   5.544   4.514
 6107TIP3    H218286   4.364   5.667   4.551
 6108TIP3   OH218287   7.114   6.611   0.537
 6108TIP3    H118288   7.096   6.654   0.621
 6108TIP3    H218289   7.207   6.625   0.523
 6109TIP3   OH218290   5.941   6.175   2.858
 6109TIP3    H118291   5.976   6.111   2.795
 6109TIP3    H218292   6.015   6.195   2.915
 6110TIP3   OH218293   6.326   1.172   4.407
 6110TIP3    H118294   6.271   1.127   4.471
 6110TIP3    H218295   6.299   1.264   4.414
 6111TIP3   OH218296   1.603   3.562   0.874
 6111TIP3    H118297   1.644   3.611   0.802
 6111TIP3    H218298   1.564   3.629   0.930
 6112TIP3   OH218299   4.280   1.212   3.222
 6112TIP3    H118300   4.221   1.266   3.276
 6112TIP3    H218301   4.367   1.233   3.255
 6113TIP3   OH218302   3.249   0.689   5.040
 6113TIP3    H118303   3.167   0.639   5.045
 6113TIP3    H218304   3.272   0.688   4.947
 6114TIP3   OH218305   3.606   5.174   4.110
 6114TIP3    H118306   3.549   5.236   4.154
 6114TIP3    H218307   3.650   5.225   4.042
 6115TIP3   OH218308   2.442   4.875   1.084
 6115TIP3    H118309   2.497   4.798   1.069
 6115TIP3    H218310   2.412   4.901   0.997
 6116TIP3   OH218311   6.944   1.362   4.709
 6116TIP3    H118312   7.025   1.319   4.681
 6116TIP3    H218313   6.881   1.342   4.640
 6117TIP3   OH218314   6.988   3.335   2.875
 6117TIP3    H118315   6.980   3.416   2.926
 6117TIP3    H218316   7.066   3.293   2.909
 6118TIP3   OH218317   6.305   6.083   0.428
 6118TIP3    H118318   6.355   6.160   0.454
 6118TIP3    H218319   6.222   6.119   0.394
 6119TIP3   OH218320   0.660   4.278   1.386
 6119TIP3    H118321   0.577   4.260   1.343
 6119TIP3    H218322   0.711   4.197   1.376
 6120TIP3   OH218323   1.335   0.983   1.919
 6120TIP3    H118324   1.241   0.985   1.903
 6120TIP3    H218325   1.374   1.008   1.836
 6121TIP3   OH218326   2.308   3.886   1.875
 6121TIP3    H118327   2.338   3.795   1.867
 6121TIP3    H218328   2.235   3.892   1.814
 6122TIP3   OH218329   1.110   6.689   1.565
 6122TIP3    H118330   1.184   6.630   1.580
 6122TIP3    H218331   1.135   6.769   1.611
 6123TIP3   OH218332   3.840   2.337   4.114
 6123TIP3    H118333   3.839   2.251   4.155
 6123TIP3    H218334   3.750   2.370   4.125
 6124TIP3   OH218335   3.957   6.091   5.629
 6124TIP3    H118336   3.985   6.173   5.589
 6124TIP3    H218337   3.894   6.054   5.567
 6125TIP3   OH218338   1.902   1.563   1.770
 6125TIP3    H118339   1.933   1.612   1.693
 6125TIP3    H218340   1.927   1.472   1.752
 6126TIP3   OH218341   4.948   6.814   2.792
 6126TIP3    H118342   4.991   6.730   2.780
 6126TIP3    H218343   4.928   6.817   2.886
 6127TIP3   OH218344   0.838   0.266   3.761
 6127TIP3    H118345   0.879   0.280   3.846
 6127TIP3    H218346   0.899   0.211   3.713
 6128TIP3   OH218347   1.922   1.914   2.588
 6128TIP3    H118348   1.841   1.950   2.624
 6128TIP3    H218349   1.947   1.845   2.650
 6129TIP3   OH218350   1.156   0.267   3.667
 6129TIP3    H118351   1.241   0.269   3.623
 6129TIP3    H218352   1.105   0.203   3.617
 6130TIP3   OH218353   4.705   0.050   4.822
 6130TIP3    H118354   4.708   0.063   4.727
 6130TIP3    H218355   4.635   0.108   4.852
 6131TIP3   OH218356   3.117   1.623   0.762
 6131TIP3    H118357   3.178   1.550   0.760
 6131TIP3    H218358   3.172   1.701   0.768
 6132TIP3   OH218359   5.220   6.662   4.521
 6132TIP3    H118360   5.141   6.701   4.557
 6132TIP3    H218361   5.202   6.568   4.519
 6133TIP3   OH218362   2.661   0.604   0.722
 6133TIP3    H118363   2.603   0.530   0.705
 6133TIP3    H218364   2.647   0.626   0.814
 6134TIP3   OH218365   2.202   1.462   2.051
 6134TIP3    H118366   2.272   1.428   1.996
 6134TIP3    H218367   2.238   1.459   2.140
 6135TIP3   OH218368   2.828   6.549   5.620
 6135TIP3    H118369   2.895   6.580   5.681
 6135TIP3    H218370   2.807   6.461   5.650
 6136TIP3   OH218371   0.510   5.048   4.080
 6136TIP3    H118372   0.474   4.965   4.113
 6136TIP3    H218373   0.450   5.114   4.112
 6137TIP3   OH218374   6.872   4.769   2.051
 6137TIP3    H118375   6.833   4.852   2.022
 6137TIP3    H218376   6.798   4.708   2.054
 6138TIP3   OH218377   4.655   1.110   0.766
 6138TIP3    H118378   4.699   1.117   0.681
 6138TIP3    H218379   4.707   1.047   0.815
 6139TIP3   OH218380   4.280   2.192   1.328
 6139TIP3    H118381   4.350   2.184   1.264
 6139TIP3    H218382   4.215   2.248   1.286
 6140TIP3   OH218383   0.732   1.783   4.856
 6140TIP3    H118384   0.775   1.857   4.813
 6140TIP3    H218385   0.641   1.789   4.829
 6141TIP3   OH218386   5.514   6.086   0.070
 6141TIP3    H118387   5.542   6.163   0.120
 6141TIP3    H218388   5.444   6.047   0.122
 6142TIP3   OH218389   3.402   4.317   4.379
 6142TIP3    H118390   3.409   4.294   4.472
 6142TIP3    H218391   3.317   4.361   4.373
 6143TIP3   OH218392   0.397   3.301   5.141
 6143TIP3    H118393   0.350   3.362   5.084
 6143TIP3    H218394   0.414   3.350   5.221
 6144TIP3   OH218395   6.887   5.280   0.534
 6144TIP3    H118396   6.947   5.266   0.461
 6144TIP3    H218397   6.931   5.344   0.590
 6145TIP3   OH218398   1.135   5.577   0.394
 6145TIP3    H118399   1.072   5.591   0.324
 6145TIP3    H218400   1.203   5.643   0.380
 6146TIP3   OH218401   0.782   0.833   4.164
 6146TIP3    H118402   0.873   0.824   4.194
 6146TIP3    H218403   0.729   0.803   4.237
 6147TIP3   OH218404   1.926   0.933   5.777
 6147TIP3    H118405   1.871   0.944   5.699
 6147TIP3    H218406   1.890   0.995   5.840
 6148TIP3   OH218407   3.815   4.915   2.953
 6148TIP3    H118408   3.815   4.868   3.036
 6148TIP3    H218409   3.722   4.927   2.932
 6149TIP3   OH218410   7.135   5.715   2.787
 6149TIP3    H118411   7.109   5.625   2.769
 6149TIP3    H218412   7.080   5.767   2.728
 6150TIP3   OH218413   0.119   1.304   1.990
 6150TIP3    H118414   0.208   1.317   2.023
 6150TIP3    H218415   0.088   1.226   2.034
 6151TIP3   OH218416   6.844   4.450   4.217
 6151TIP3    H118417   6.874   4.504   4.291
 6151TIP3    H218418   6.921   4.444   4.160
 6152TIP3   OH218419   6.300   4.983   2.375
 6152TIP3    H118420   6.375   4.923   2.374
 6152TIP3    H218421   6.229   4.932   2.335
 6153TIP3   OH218422   2.731   4.254   0.671
 6153TIP3    H118423   2.748   4.172   0.717
 6153TIP3    H218424   2.752   4.322   0.735
 6154TIP3   OH218425   1.161   2.160   3.348
 6154TIP3    H118426   1.206   2.075   3.347
 6154TIP3    H218427   1.170   2.193   3.259
 6155TIP3   OH218428   3.030   3.475   3.274
 6155TIP3    H118429   3.084   3.397   3.262
 6155TIP3    H218430   2.944   3.442   3.299
 6156TIP3   OH218431   0.937   1.245   4.355
 6156TIP3    H118432   0.900   1.324   4.316
 6156TIP3    H218433   0.863   1.183   4.358
 6157TIP3   OH218434   4.318   4.271   0.650
 6157TIP3    H118435   4.373   4.273   0.729
 6157TIP3    H218436   4.364   4.211   0.591
 6158TIP3   OH218437   0.881   4.719   2.227
 6158TIP3    H118438   0.890   4.626   2.208
 6158TIP3    H218439   0.882   4.724   2.323
 6159TIP3   OH218440   5.670   4.307   4.629
 6159TIP3    H118441   5.694   4.399   4.618
 6159TIP3    H218442   5.656   4.275   4.540
 6160TIP3   OH218443   0.874   5.061   4.898
 6160TIP3    H118444   0.969   5.060   4.901
 6160TIP3    H218445   0.851   5.008   4.822
 6161TIP3   OH218446   1.818   4.886   4.685
 6161TIP3    H118447   1.859   4.870   4.600
 6161TIP3    H218448   1.858   4.822   4.743
 6162TIP3   OH218449   1.100   6.447   5.492
 6162TIP3    H118450   1.106   6.352   5.485
 6162TIP3    H218451   1.168   6.480   5.433
 6163TIP3   OH218452   5.925   5.862   1.358
 6163TIP3    H118453   5.919   5.771   1.330
 6163TIP3    H218454   6.018   5.875   1.376
 6164TIP3   OH218455   5.334   0.502   1.226
 6164TIP3    H118456   5.304   0.547   1.146
 6164TIP3    H218457   5.295   0.415   1.220
 6165TIP3   OH218458   6.613   6.352   1.362
 6165TIP3    H118459   6.648   6.281   1.309
 6165TIP3    H218460   6.539   6.314   1.409
 6166TIP3   OH218461   6.735   1.915   4.393
 6166TIP3    H118462   6.734   2.011   4.388
 6166TIP3    H218463   6.785   1.896   4.472
 6167TIP3   OH218464   3.050   4.431   4.648
 6167TIP3    H118465   3.001   4.350   4.634
 6167TIP3    H218466   3.060   4.437   4.743
 6168TIP3   OH218467   0.799   0.254   5.241
 6168TIP3    H118468   0.828   0.163   5.233
 6168TIP3    H218469   0.758   0.274   5.157
 6169TIP3   OH218470   0.310   0.208   3.357
 6169TIP3    H118471   0.242   0.152   3.395
 6169TIP3    H218472   0.270   0.244   3.277
 6170TIP3   OH218473   6.260   5.067   3.803
 6170TIP3    H118474   6.283   4.995   3.862
 6170TIP3    H218475   6.275   5.146   3.856
 6171TIP3   OH218476   7.162  -0.072   0.249
 6171TIP3    H118477   7.172  -0.017   0.326
 6171TIP3    H218478   7.189  -0.016   0.176
 6172TIP3   OH218479   6.277   1.999   5.499
 6172TIP3    H118480   6.285   1.904   5.510
 6172TIP3    H218481   6.351   2.035   5.548
 6173TIP3   OH218482   4.661   6.201   4.052
 6173TIP3    H118483   4.639   6.202   3.959
 6173TIP3    H218484   4.674   6.109   4.073
 6174TIP3   OH218485   3.304   6.266   2.202
 6174TIP3    H118486   3.234   6.260   2.136
 6174TIP3    H218487   3.265   6.319   2.272
 6175TIP3   OH218488   3.082   0.324   2.788
 6175TIP3    H118489   3.097   0.313   2.882
 6175TIP3    H218490   3.129   0.252   2.747
 6176TIP3   OH218491   3.155   5.887   4.232
 6176TIP3    H118492   3.210   5.899   4.309
 6176TIP3    H218493   3.080   5.945   4.246
 6177TIP3   OH218494   4.256   3.501   2.349
 6177TIP3    H118495   4.344   3.466   2.342
 6177TIP3    H218496   4.231   3.522   2.258
 6178TIP3   OH218497   2.442   1.945   3.740
 6178TIP3    H118498   2.512   2.010   3.752
 6178TIP3    H218499   2.366   1.984   3.785
 6179TIP3   OH218500   6.030   1.768   1.789
 6179TIP3    H118501   6.075   1.841   1.748
 6179TIP3    H218502   5.948   1.759   1.739
 6180TIP3   OH218503   0.732   1.071   5.240
 6180TIP3    H118504   0.742   1.060   5.145
 6180TIP3    H218505   0.744   1.165   5.254
 6181TIP3   OH218506   2.534   0.237   3.398
 6181TIP3    H118507   2.615   0.200   3.361
 6181TIP3    H218508   2.510   0.307   3.337
 6182TIP3   OH218509   4.232   4.934   2.666
 6182TIP3    H118510   4.181   4.957   2.589
 6182TIP3    H218511   4.185   4.860   2.705
 6183TIP3   OH218512   3.611   2.718   1.252
 6183TIP3    H118513   3.524   2.755   1.234
 6183TIP3    H218514   3.672   2.787   1.226
 6184TIP3   OH218515   2.129   3.390   5.251
 6184TIP3    H118516   2.181   3.421   5.325
 6184TIP3    H218517   2.138   3.295   5.254
 6185TIP3   OH218518   1.965   0.368   2.458
 6185TIP3    H118519   1.884   0.398   2.500
 6185TIP3    H218520   1.939   0.349   2.367
 6186TIP3   OH218521   3.176   4.779   0.440
 6186TIP3    H118522   3.230   4.850   0.405
 6186TIP3    H218523   3.230   4.700   0.428
 6187TIP3   OH218524   4.008   2.525   4.267
 6187TIP3    H118525   3.969   2.452   4.218
 6187TIP3    H218526   3.935   2.586   4.279
 6188TIP3   OH218527   1.732   5.904   1.196
 6188TIP3    H118528   1.637   5.908   1.180
 6188TIP3    H218529   1.745   5.961   1.271
 6189TIP3   OH218530   3.800   4.814   4.879
 6189TIP3    H118531   3.817   4.896   4.833
 6189TIP3    H218532   3.846   4.748   4.828
 6190TIP3   OH218533   5.492   5.736   4.823
 6190TIP3    H118534   5.451   5.698   4.901
 6190TIP3    H218535   5.462   5.827   4.823
 6191TIP3   OH218536   1.468   1.446   1.570
 6191TIP3    H118537   1.539   1.509   1.560
 6191TIP3    H218538   1.441   1.426   1.480
 6192TIP3   OH218539   2.111   1.773   1.613
 6192TIP3    H118540   2.077   1.843   1.668
 6192TIP3    H218541   2.035   1.743   1.563
 6193TIP3   OH218542   1.310   4.002   3.069
 6193TIP3    H118543   1.357   4.065   3.123
 6193TIP3    H218544   1.266   4.055   3.002
 6194TIP3   OH218545   3.572   3.173   4.530
 6194TIP3    H118546   3.532   3.091   4.503
 6194TIP3    H218547   3.661   3.169   4.495
 6195TIP3   OH218548   0.517   3.794   5.801
 6195TIP3    H118549   0.568   3.827   5.727
 6195TIP3    H218550   0.579   3.791   5.874
 6196TIP3   OH218551   3.633   1.722   2.070
 6196TIP3    H118552   3.659   1.814   2.063
 6196TIP3    H218553   3.555   1.715   2.014
 6197TIP3   OH218554   2.200   0.350   5.459
 6197TIP3    H118555   2.218   0.367   5.366
 6197TIP3    H218556   2.215   0.256   5.469
 6198TIP3   OH218557   4.505   5.586   3.437
 6198TIP3    H118558   4.505   5.516   3.371
 6198TIP3    H218559   4.590   5.629   3.427
 6199TIP3   OH218560   0.084   4.207   0.556
 6199TIP3    H118561   0.106   4.155   0.634
 6199TIP3    H218562   0.169   4.230   0.519
 6200TIP3   OH218563   5.527   1.149   3.760
 6200TIP3    H118564   5.435   1.133   3.777
 6200TIP3    H218565   5.554   1.210   3.829
 6201TIP3   OH218566   7.129   5.428   5.782
 6201TIP3    H118567   7.164   5.516   5.763
 6201TIP3    H218568   7.123   5.425   5.877
 6202TIP3   OH218569   0.749   6.741   1.395
 6202TIP3    H118570   0.743   6.662   1.448
 6202TIP3    H218571   0.769   6.710   1.306
 6203TIP3   OH218572   1.154   0.437   4.258
 6203TIP3    H118573   1.198   0.447   4.342
 6203TIP3    H218574   1.161   0.343   4.239
 6204TIP3   OH218575   4.243   4.362   2.563
 6204TIP3    H118576   4.292   4.308   2.625
 6204TIP3    H218577   4.295   4.441   2.552
 6205TIP3   OH218578   2.483  -0.046   0.245
 6205TIP3    H118579   2.569  -0.076   0.216
 6205TIP3    H218580   2.462   0.028   0.187
 6206TIP3   OH218581   1.891   2.316   0.210
 6206TIP3    H118582   1.893   2.327   0.305
 6206TIP3    H218583   1.963   2.370   0.178
 6207TIP3   OH218584   6.168   2.343   3.788
 6207TIP3    H118585   6.146   2.291   3.711
 6207TIP3    H218586   6.236   2.403   3.758
 6208TIP3   OH218587   6.266   3.263   2.411
 6208TIP3    H118588   6.306   3.192   2.361
 6208TIP3    H218589   6.250   3.332   2.347
 6209TIP3   OH218590   0.841   6.075   2.010
 6209TIP3    H118591   0.807   6.055   1.922
 6209TIP3    H218592   0.907   6.007   2.026
 6210TIP3   OH218593   5.589   4.161   2.652
 6210TIP3    H118594   5.580   4.188   2.744
 6210TIP3    H218595   5.569   4.240   2.602
 6211TIP3   OH218596   6.678   6.171   5.192
 6211TIP3    H118597   6.675   6.126   5.107
 6211TIP3    H218598   6.604   6.135   5.241
 6212TIP3   OH218599   6.193   4.594   5.243
 6212TIP3    H118600   6.288   4.600   5.249
 6212TIP3    H218601   6.161   4.622   5.329
 6213TIP3   OH218602   4.678   0.747   5.634
 6213TIP3    H118603   4.619   0.783   5.568
 6213TIP3    H218604   4.751   0.809   5.639
 6214TIP3   OH218605   0.725   0.533   5.753
 6214TIP3    H118606   0.791   0.471   5.722
 6214TIP3    H218607   0.674   0.555   5.675
 6215TIP3   OH218608   0.133   3.736   3.286
 6215TIP3    H118609   0.208   3.755   3.229
 6215TIP3    H218610   0.074   3.686   3.230
 6216TIP3   OH218611   2.654   2.491   4.419
 6216TIP3    H118612   2.718   2.530   4.478
 6216TIP3    H218613   2.678   2.524   4.332
 6217TIP3   OH218614   0.435   1.581   0.172
 6217TIP3    H118615   0.378   1.506   0.154
 6217TIP3    H218616   0.513   1.564   0.120
 6218TIP3   OH218617   1.478   0.631   1.830
 6218TIP3    H118618   1.562   0.669   1.804
 6218TIP3    H218619   1.484   0.539   1.802
 6219TIP3   OH218620   5.935   6.416   1.496
 6219TIP3    H118621   5.932   6.345   1.561
 6219TIP3    H218622   5.929   6.496   1.548
 6220TIP3   OH218623   6.009   5.493   2.557
 6220TIP3    H118624   6.026   5.545   2.636
 6220TIP3    H218625   6.061   5.413   2.568
 6221TIP3   OH218626   2.293   0.248   0.444
 6221TIP3    H118627   2.251   0.286   0.367
 6221TIP3    H218628   2.220   0.231   0.504
 6222TIP3   OH218629   4.290   2.612   5.699
 6222TIP3    H118630   4.378   2.650   5.696
 6222TIP3    H218631   4.232   2.686   5.682
 6223TIP3   OH218632   4.266   3.424   3.308
 6223TIP3    H118633   4.184   3.471   3.296
 6223TIP3    H218634   4.297   3.407   3.219
 6224TIP3   OH218635   4.084   3.113   1.228
 6224TIP3    H118636   4.001   3.128   1.273
 6224TIP3    H218637   4.142   3.183   1.258
 6225TIP3   OH218638   3.125   0.596   5.298
 6225TIP3    H118639   3.047   0.540   5.304
 6225TIP3    H218640   3.193   0.540   5.261
 6226TIP3   OH218641   1.307   1.655   1.811
 6226TIP3    H118642   1.366   1.581   1.797
 6226TIP3    H218643   1.240   1.645   1.742
 6227TIP3   OH218644   3.535   3.913   0.106
 6227TIP3    H118645   3.540   3.829   0.151
 6227TIP3    H218646   3.488   3.970   0.167
 6228TIP3   OH218647   1.473   2.003   0.707
 6228TIP3    H118648   1.526   1.952   0.646
 6228TIP3    H218649   1.491   2.094   0.683
 6229TIP3   OH218650   2.067   1.806   5.410
 6229TIP3    H118651   2.050   1.891   5.370
 6229TIP3    H218652   1.986   1.783   5.455
 6230TIP3   OH218653   5.298   1.514   2.967
 6230TIP3    H118654   5.358   1.441   2.953
 6230TIP3    H218655   5.354   1.589   2.986
 6231TIP3   OH218656   4.448   2.203   1.087
 6231TIP3    H118657   4.395   2.276   1.054
 6231TIP3    H218658   4.528   2.206   1.035
 6232TIP3   OH218659   2.571   5.615   5.400
 6232TIP3    H118660   2.550   5.673   5.327
 6232TIP3    H218661   2.551   5.667   5.478
 6233TIP3   OH218662   2.387   3.094   4.876
 6233TIP3    H118663   2.404   3.134   4.961
 6233TIP3    H218664   2.399   3.165   4.813
 6234TIP3   OH218665   5.709   2.170   3.997
 6234TIP3    H118666   5.776   2.232   3.968
 6234TIP3    H218667   5.699   2.109   3.924
 6235TIP3   OH218668   1.399   0.039   1.748
 6235TIP3    H118669   1.349   0.013   1.826
 6235TIP3    H218670   1.463   0.102   1.781
 6236TIP3   OH218671   6.441   6.062   1.146
 6236TIP3    H118672   6.478   6.012   1.073
 6236TIP3    H218673   6.490   6.144   1.147
 6237TIP3   OH218674   5.560   0.324   5.157
 6237TIP3    H118675   5.524   0.264   5.092
 6237TIP3    H218676   5.483   0.365   5.197
 6238TIP3   OH218677   3.093   5.182   1.441
 6238TIP3    H118678   3.072   5.187   1.348
 6238TIP3    H218679   3.084   5.272   1.473
 6239TIP3   OH218680   0.259   5.599   0.266
 6239TIP3    H118681   0.173   5.594   0.308
 6239TIP3    H218682   0.294   5.510   0.274
 6240TIP3   OH218683   5.840   5.607   1.316
 6240TIP3    H118684   5.853   5.525   1.364
 6240TIP3    H218685   5.748   5.630   1.333
 6241TIP3   OH218686   0.398   4.858   3.447
 6241TIP3    H118687   0.430   4.845   3.536
 6241TIP3    H218688   0.418   4.950   3.427
 6242TIP3   OH218689   4.224   5.657   0.404
 6242TIP3    H118690   4.223   5.744   0.364
 6242TIP3    H218691   4.215   5.596   0.331
 6243TIP3   OH218692   3.411   2.791   2.318
 6243TIP3    H118693   3.503   2.792   2.291
 6243TIP3    H218694   3.372   2.866   2.274
 6244TIP3   OH218695   3.033   6.157   1.143
 6244TIP3    H118696   2.963   6.094   1.162
 6244TIP3    H218697   3.095   6.109   1.088
 6245TIP3   OH218698   3.244   3.905   5.806
 6245TIP3    H118699   3.162   3.953   5.824
 6245TIP3    H218700   3.301   3.928   5.880
 6246TIP3   OH218701   3.753   3.661   2.953
 6246TIP3    H118702   3.677   3.682   2.897
 6246TIP3    H218703   3.747   3.724   3.025
 6247TIP3   OH218704   2.708   0.783   4.172
 6247TIP3    H118705   2.664   0.789   4.258
 6247TIP3    H218706   2.715   0.689   4.156
 6248TIP3   OH218707   1.397   0.607   2.453
 6248TIP3    H118708   1.462   0.540   2.433
 6248TIP3    H218709   1.438   0.689   2.426
 6249TIP3   OH218710   1.936   0.016   3.731
 6249TIP3    H118711   1.991  -0.015   3.660
 6249TIP3    H218712   1.906   0.102   3.702
 6250TIP3   OH218713   0.618   5.861   0.773
 6250TIP3    H118714   0.639   5.931   0.836
 6250TIP3    H218715   0.640   5.780   0.820
 6251TIP3   OH218716   2.135   3.243   0.738
 6251TIP3    H118717   2.075   3.316   0.723
 6251TIP3    H218718   2.214   3.266   0.689
 6252TIP3   OH218719   1.774   3.432   4.066
 6252TIP3    H118720   1.832   3.384   4.125
 6252TIP3    H218721   1.815   3.423   3.979
 6253TIP3   OH218722   0.212   1.276   1.688
 6253TIP3    H118723   0.214   1.239   1.776
 6253TIP3    H218724   0.295   1.323   1.680
 6254TIP3   OH218725   1.868   3.915   3.236
 6254TIP3    H118726   1.773   3.924   3.238
 6254TIP3    H218727   1.883   3.821   3.238
 6255TIP3   OH218728   6.031   4.122   4.541
 6255TIP3    H118729   5.997   4.092   4.626
 6255TIP3    H218730   6.105   4.065   4.524
 6256TIP3   OH218731   1.688   0.893   1.364
 6256TIP3    H118732   1.695   0.950   1.441
 6256TIP3    H218733   1.778   0.876   1.338
 6257TIP3   OH218734   3.605   0.979   2.061
 6257TIP3    H118735   3.526   1.027   2.086
 6257TIP3    H218736   3.646   0.955   2.144
 6258TIP3   OH218737   2.225   6.722   3.484
 6258TIP3    H118738   2.147   6.687   3.440
 6258TIP3    H218739   2.247   6.657   3.550
 6259TIP3   OH218740   0.609   1.075   0.414
 6259TIP3    H118741   0.540   1.015   0.442
 6259TIP3    H218742   0.576   1.114   0.333
 6260TIP3   OH218743   3.234   1.865   5.671
 6260TIP3    H118744   3.284   1.920   5.731
 6260TIP3    H218745   3.191   1.926   5.612
 6261TIP3   OH218746   1.050   5.157   2.931
 6261TIP3    H118747   0.977   5.107   2.968
 6261TIP3    H218748   1.124   5.138   2.989
 6262TIP3   OH218749   1.835   6.381   1.977
 6262TIP3    H118750   1.836   6.321   2.052
 6262TIP3    H218751   1.776   6.340   1.914
 6263TIP3   OH218752   0.532   6.198   4.921
 6263TIP3    H118753   0.594   6.207   4.994
 6263TIP3    H218754   0.586   6.172   4.847
 6264TIP3   OH218755   4.570   4.308   5.578
 6264TIP3    H118756   4.563   4.334   5.670
 6264TIP3    H218757   4.662   4.283   5.567
 6265TIP3   OH218758   2.738   6.185   0.724
 6265TIP3    H118759   2.677   6.116   0.698
 6265TIP3    H218760   2.700   6.265   0.686
 6266TIP3   OH218761   3.637   0.254   2.658
 6266TIP3    H118762   3.629   0.303   2.740
 6266TIP3    H218763   3.655   0.164   2.685
 6267TIP3   OH218764   3.224   3.470   0.712
 6267TIP3    H118765   3.229   3.408   0.639
 6267TIP3    H218766   3.272   3.427   0.783
 6268TIP3   OH218767   3.641   3.065   1.818
 6268TIP3    H118768   3.583   3.083   1.892
 6268TIP3    H218769   3.696   2.993   1.847
 6269TIP3   OH218770   1.576   3.251   1.838
 6269TIP3    H118771   1.659   3.292   1.812
 6269TIP3    H218772   1.576   3.257   1.933
 6270TIP3   OH218773   1.263   1.863   0.812
 6270TIP3    H118774   1.322   1.937   0.797
 6270TIP3    H218775   1.296   1.795   0.754
 6271TIP3   OH218776   5.047   4.049   1.181
 6271TIP3    H118777   5.013   3.975   1.131
 6271TIP3    H218778   5.140   4.030   1.192
 6272TIP3   OH218779   4.832  -0.019   0.246
 6272TIP3    H118780   4.869   0.069   0.248
 6272TIP3    H218781   4.796  -0.028   0.158
 6273TIP3   OH218782   0.275   6.673   1.239
 6273TIP3    H118783   0.310   6.607   1.299
 6273TIP3    H218784   0.317   6.654   1.155
 6274TIP3   OH218785   6.992   2.154   2.259
 6274TIP3    H118786   7.041   2.229   2.293
 6274TIP3    H218787   7.047   2.118   2.189
 6275TIP3   OH218788   0.722   0.504   3.059
 6275TIP3    H118789   0.651   0.475   3.116
 6275TIP3    H218790   0.698   0.593   3.033
 6276TIP3   OH218791   2.839   5.338   1.402
 6276TIP3    H118792   2.750   5.348   1.438
 6276TIP3    H218793   2.890   5.406   1.446
 6277TIP3   OH218794   0.150   1.546   3.769
 6277TIP3    H118795   0.154   1.476   3.703
 6277TIP3    H218796   0.062   1.537   3.807
 6278TIP3   OH218797   5.422   1.877   4.347
 6278TIP3    H118798   5.345   1.927   4.373
 6278TIP3    H218799   5.436   1.900   4.255
 6279TIP3   OH218800   4.354   4.022   2.713
 6279TIP3    H118801   4.403   3.954   2.759
 6279TIP3    H218802   4.421   4.076   2.671
 6280TIP3   OH218803   3.703   3.777   4.862
 6280TIP3    H118804   3.735   3.763   4.951
 6280TIP3    H218805   3.654   3.698   4.841
 6281TIP3   OH218806   5.904   6.311   0.608
 6281TIP3    H118807   5.934   6.269   0.689
 6281TIP3    H218808   5.837   6.373   0.637
 6282TIP3   OH218809   2.083   3.388   4.468
 6282TIP3    H118810   2.145   3.459   4.484
 6282TIP3    H218811   2.136   3.309   4.471
 6283TIP3   OH218812   0.990   4.370   2.429
 6283TIP3    H118813   0.959   4.460   2.442
 6283TIP3    H218814   1.057   4.358   2.496
 6284TIP3   OH218815   0.831   3.735   1.790
 6284TIP3    H118816   0.825   3.643   1.763
 6284TIP3    H218817   0.898   3.772   1.732
 6285TIP3   OH218818   4.641   0.279   0.840
 6285TIP3    H118819   4.665   0.352   0.783
 6285TIP3    H218820   4.624   0.320   0.925
 6286TIP3   OH218821   5.744   1.799   2.218
 6286TIP3    H118822   5.823   1.842   2.185
 6286TIP3    H218823   5.768   1.765   2.304
 6287TIP3   OH218824   3.179   0.541   0.056
 6287TIP3    H118825   3.122   0.464   0.057
 6287TIP3    H218826   3.268   0.505   0.051
 6288TIP3   OH218827   5.319   6.678   0.268
 6288TIP3    H118828   5.312   6.627   0.187
 6288TIP3    H218829   5.409   6.710   0.269
 6289TIP3   OH218830   6.093   3.274   2.642
 6289TIP3    H118831   6.168   3.274   2.582
 6289TIP3    H218832   6.039   3.201   2.613
 6290TIP3   OH218833   5.227   0.617   2.008
 6290TIP3    H118834   5.288   0.684   1.979
 6290TIP3    H218835   5.244   0.542   1.950
 6291TIP3   OH218836   5.594   2.694   4.813
 6291TIP3    H118837   5.527   2.737   4.865
 6291TIP3    H218838   5.584   2.601   4.833
 6292TIP3   OH218839   2.770   0.249   5.771
 6292TIP3    H118840   2.694   0.217   5.820
 6292TIP3    H218841   2.734   0.317   5.713
 6293TIP3   OH218842   3.451   4.603   3.825
 6293TIP3    H118843   3.469   4.540   3.895
 6293TIP3    H218844   3.496   4.567   3.749
 6294TIP3   OH218845   1.365   1.493   3.514
 6294TIP3    H118846   1.440   1.490   3.574
 6294TIP3    H218847   1.289   1.473   3.569
 6295TIP3   OH218848   1.111   3.797   1.021
 6295TIP3    H118849   1.053   3.723   1.002
 6295TIP3    H218850   1.129   3.790   1.115
 6296TIP3   OH218851   2.639   3.903   0.357
 6296TIP3    H118852   2.700   3.903   0.430
 6296TIP3    H218853   2.607   3.813   0.351
 6297TIP3   OH218854   3.759   1.914   3.587
 6297TIP3    H118855   3.755   1.819   3.585
 6297TIP3    H218856   3.757   1.940   3.494
 6298TIP3   OH218857   0.945   3.013   3.532
 6298TIP3    H118858   0.884   2.940   3.546
 6298TIP3    H218859   0.917   3.079   3.596
 6299TIP3   OH218860   5.281   0.646   2.594
 6299TIP3    H118861   5.321   0.730   2.572
 6299TIP3    H218862   5.189   0.667   2.611
 6300TIP3   OH218863   3.450   2.529   3.518
 6300TIP3    H118864   3.360   2.563   3.513
 6300TIP3    H218865   3.478   2.548   3.607
 6301TIP3   OH218866   1.025   2.830   0.596
 6301TIP3    H118867   0.989   2.870   0.518
 6301TIP3    H218868   0.953   2.778   0.632
 6302TIP3   OH218869   3.092   6.197   5.446
 6302TIP3    H118870   3.114   6.266   5.508
 6302TIP3    H218871   2.997   6.188   5.451
 6303TIP3   OH218872   3.963   1.706   4.049
 6303TIP3    H118873   3.989   1.627   4.096
 6303TIP3    H218874   3.906   1.752   4.111
 6304TIP3   OH218875   2.204   0.224   2.825
 6304TIP3    H118876   2.202   0.306   2.775
 6304TIP3    H218877   2.121   0.182   2.803
 6305TIP3   OH218878   3.268   4.364   5.449
 6305TIP3    H118879   3.269   4.280   5.494
 6305TIP3    H218880   3.176   4.389   5.448
 6306TIP3   OH218881   5.756   5.782   3.217
 6306TIP3    H118882   5.794   5.843   3.280
 6306TIP3    H218883   5.728   5.708   3.269
 6307TIP3   OH218884   0.464   2.152   0.648
 6307TIP3    H118885   0.523   2.227   0.658
 6307TIP3    H218886   0.502   2.102   0.575
 6308TIP3   OH218887   5.377   5.524   2.299
 6308TIP3    H118888   5.371   5.463   2.373
 6308TIP3    H218889   5.443   5.587   2.326
 6309TIP3   OH218890   3.814   5.342   5.182
 6309TIP3    H118891   3.821   5.259   5.229
 6309TIP3    H218892   3.843   5.321   5.093
 6310TIP3   OH218893   5.665   3.917   5.318
 6310TIP3    H118894   5.652   4.011   5.333
 6310TIP3    H218895   5.679   3.881   5.405
 6311TIP3   OH218896   3.229   5.242   2.824
 6311TIP3    H118897   3.282   5.321   2.832
 6311TIP3    H218898   3.230   5.203   2.911
 6312TIP3   OH218899   3.757   3.834   3.711
 6312TIP3    H118900   3.769   3.900   3.780
 6312TIP3    H218901   3.670   3.851   3.677
 6313TIP3   OH218902   0.201   0.902   1.763
 6313TIP3    H118903   0.184   0.929   1.673
 6313TIP3    H218904   0.283   0.945   1.787
 6314TIP3   OH218905   1.371   3.177   3.781
 6314TIP3    H118906   1.403   3.222   3.859
 6314TIP3    H218907   1.286   3.218   3.763
 6315TIP3   OH218908   5.566   2.917   4.224
 6315TIP3    H118909   5.637   2.860   4.194
 6315TIP3    H218910   5.610   2.991   4.265
 6316TIP3   OH218911   5.095   2.138   3.307
 6316TIP3    H118912   5.088   2.045   3.330
 6316TIP3    H218913   5.010   2.160   3.268
 6317TIP3   OH218914   6.757   2.458   4.755
 6317TIP3    H118915   6.696   2.396   4.795
 6317TIP3    H218916   6.751   2.441   4.662
 6318TIP3   OH218917   1.539   2.007   0.062
 6318TIP3    H118918   1.589   2.088   0.049
 6318TIP3    H218919   1.459   2.035   0.106
 6319TIP3   OH218920   3.085   1.546   2.975
 6319TIP3    H118921   3.058   1.629   3.014
 6319TIP3    H218922   3.135   1.503   3.044
 6320TIP3   OH218923   4.922   3.689   5.388
 6320TIP3    H118924   4.909   3.776   5.426
 6320TIP3    H218925   4.858   3.683   5.317
 6321TIP3   OH218926   4.501   3.138   2.098
 6321TIP3    H118927   4.460   3.222   2.117
 6321TIP3    H218928   4.431   3.084   2.063
 6322TIP3   OH218929   2.229   1.482   4.686
 6322TIP3    H118930   2.163   1.413   4.678
 6322TIP3    H218931   2.195   1.540   4.754
 6323TIP3   OH218932   5.946   5.894   1.938
 6323TIP3    H118933   6.018   5.915   1.997
 6323TIP3    H218934   5.879   5.855   1.994
 6324TIP3   OH218935   3.966   3.309   2.170
 6324TIP3    H118936   3.972   3.295   2.265
 6324TIP3    H218937   4.049   3.276   2.136
 6325TIP3   OH218938   4.208   6.106   1.552
 6325TIP3    H118939   4.157   6.058   1.486
 6325TIP3    H218940   4.289   6.130   1.506
 6326TIP3   OH218941   2.942   0.450   0.633
 6326TIP3    H118942   2.932   0.530   0.582
 6326TIP3    H218943   2.857   0.440   0.677
 6327TIP3   OH218944   1.651   0.522   3.207
 6327TIP3    H118945   1.684   0.610   3.230
 6327TIP3    H218946   1.600   0.536   3.128
 6328TIP3   OH218947   6.931   3.071   0.641
 6328TIP3    H118948   6.875   3.049   0.566
 6328TIP3    H218949   6.882   3.137   0.690
 6329TIP3   OH218950   3.569   6.170   3.930
 6329TIP3    H118951   3.580   6.096   3.870
 6329TIP3    H218952   3.529   6.131   4.007
 6330TIP3   OH218953   4.702   3.606   3.655
 6330TIP3    H118954   4.612   3.606   3.621
 6330TIP3    H218955   4.691   3.609   3.750
 6331TIP3   OH218956   1.565   3.277   2.383
 6331TIP3    H118957   1.565   3.282   2.479
 6331TIP3    H218958   1.509   3.202   2.363
 6332TIP3   OH218959   0.764   2.593   0.317
 6332TIP3    H118960   0.674   2.567   0.335
 6332TIP3    H218961   0.817   2.539   0.375
 6333TIP3   OH218962   5.266   1.965   4.840
 6333TIP3    H118963   5.244   1.970   4.933
 6333TIP3    H218964   5.361   1.955   4.838
 6334TIP3   OH218965   6.191   3.353   0.731
 6334TIP3    H118966   6.143   3.273   0.756
 6334TIP3    H218967   6.173   3.363   0.638
 6335TIP3   OH218968   3.278   6.226   5.235
 6335TIP3    H118969   3.258   6.316   5.213
 6335TIP3    H218970   3.216   6.203   5.304
 6336TIP3   OH218971   1.365   1.447   0.876
 6336TIP3    H118972   1.350   1.522   0.818
 6336TIP3    H218973   1.382   1.374   0.817
 6337TIP3   OH218974   1.706   5.102   3.107
 6337TIP3    H118975   1.713   5.009   3.130
 6337TIP3    H218976   1.634   5.107   3.045
 6338TIP3   OH218977   3.929   4.924   2.233
 6338TIP3    H118978   3.873   4.892   2.304
 6338TIP3    H218979   3.877   4.911   2.154
 6339TIP3   OH218980   5.065   4.265   0.123
 6339TIP3    H118981   5.000   4.228   0.182
 6339TIP3    H218982   5.015   4.320   0.063
 6340TIP3   OH218983   1.702   1.119   1.522
 6340TIP3    H118984   1.721   1.198   1.471
 6340TIP3    H218985   1.785   1.099   1.565
 6341TIP3   OH218986   4.483   6.514   3.986
 6341TIP3    H118987   4.445   6.493   4.071
 6341TIP3    H218988   4.554   6.576   4.006
 6342TIP3   OH218989   7.287   5.701   3.032
 6342TIP3    H118990   7.242   5.721   2.950
 6342TIP3    H218991   7.237   5.629   3.070
 6343TIP3   OH218992   2.100   0.910   0.769
 6343TIP3    H118993   2.098   1.006   0.776
 6343TIP3    H218994   2.194   0.888   0.770
 6344TIP3   OH218995   4.392   6.512   2.558
 6344TIP3    H118996   4.297   6.510   2.569
 6344TIP3    H218997   4.409   6.461   2.479
 6345TIP3   OH218998   7.197   6.418   3.516
 6345TIP3    H118999   7.176   6.510   3.501
 6345TIP3    H219000   7.159   6.372   3.441
 6346TIP3   OH219001   0.020   2.802   1.050
 6346TIP3    H119002  -0.029   2.866   0.998
 6346TIP3    H219003   0.112   2.824   1.035
 6347TIP3   OH219004   0.827   0.079   3.354
 6347TIP3    H119005   0.819   0.102   3.262
 6347TIP3    H219006   0.749   0.116   3.395
 6348TIP3   OH219007   1.389   3.083   2.302
 6348TIP3    H119008   1.412   3.011   2.360
 6348TIP3    H219009   1.368   3.042   2.218
 6349TIP3   OH219010   2.014   0.248   3.234
 6349TIP3    H119011   2.006   0.342   3.221
 6349TIP3    H219012   1.924   0.216   3.236
 6350TIP3   OH219013   1.708   5.952   5.344
 6350TIP3    H119014   1.792   5.905   5.343
 6350TIP3    H219015   1.728   6.037   5.383
 6351TIP3   OH219016   1.551   6.848   1.552
 6351TIP3    H119017   1.546   6.815   1.462
 6351TIP3    H219018   1.559   6.769   1.606
 6352TIP3   OH219019   1.136   2.093   1.835
 6352TIP3    H119020   1.087   2.176   1.836
 6352TIP3    H219021   1.072   2.028   1.806
 6353TIP3   OH219022   4.179   2.854   1.065
 6353TIP3    H119023   4.241   2.926   1.071
 6353TIP3    H219024   4.213   2.788   1.126
 6354TIP3   OH219025   6.935   0.283   1.130
 6354TIP3    H119026   6.845   0.295   1.099
 6354TIP3    H219027   6.926   0.246   1.217
 6355TIP3   OH219028   3.503   5.174   2.719
 6355TIP3    H119029   3.437   5.158   2.786
 6355TIP3    H219030   3.528   5.087   2.688
 6356TIP3   OH219031   3.382   1.370   1.777
 6356TIP3    H119032   3.361   1.463   1.765
 6356TIP3    H219033   3.311   1.324   1.733
 6357TIP3   OH219034   3.047   1.129   3.839
 6357TIP3    H119035   3.130   1.159   3.803
 6357TIP3    H219036   3.064   1.040   3.869
 6358TIP3   OH219037   1.022   2.661   4.595
 6358TIP3    H119038   0.956   2.717   4.636
 6358TIP3    H219039   1.052   2.712   4.519
 6359TIP3   OH219040   0.361   0.689   3.947
 6359TIP3    H119041   0.327   0.606   3.980
 6359TIP3    H219042   0.283   0.743   3.933
 6360TIP3   OH219043   0.668   3.331   2.206
 6360TIP3    H119044   0.656   3.324   2.111
 6360TIP3    H219045   0.580   3.348   2.239
 6361TIP3   OH219046   1.064   4.578   0.305
 6361TIP3    H119047   1.096   4.585   0.215
 6361TIP3    H219048   1.144   4.571   0.358
 6362TIP3   OH219049   0.694   0.490   3.689
 6362TIP3    H119050   0.761   0.427   3.717
 6362TIP3    H219051   0.662   0.528   3.770
 6363TIP3   OH219052   4.767   4.407   1.652
 6363TIP3    H119053   4.769   4.397   1.747
 6363TIP3    H219054   4.700   4.346   1.622
 6364TIP3   OH219055   2.064   0.921   0.462
 6364TIP3    H119056   2.074   0.881   0.548
 6364TIP3    H219057   2.057   1.014   0.479
 6365TIP3   OH219058   2.767   1.449   4.809
 6365TIP3    H119059   2.806   1.370   4.848
 6365TIP3    H219060   2.688   1.417   4.765
 6366TIP3   OH219061   3.942   6.709   3.889
 6366TIP3    H119062   3.913   6.793   3.855
 6366TIP3    H219063   3.926   6.647   3.818
 6367TIP3   OH219064   5.798   4.829   2.537
 6367TIP3    H119065   5.752   4.885   2.475
 6367TIP3    H219066   5.883   4.872   2.549
 6368TIP3   OH219067   1.281   2.329   4.349
 6368TIP3    H119068   1.288   2.404   4.409
 6368TIP3    H219069   1.369   2.320   4.311
 6369TIP3   OH219070   1.611   4.354   5.793
 6369TIP3    H119071   1.606   4.274   5.845
 6369TIP3    H219072   1.659   4.329   5.714
 6370TIP3   OH219073   1.939   4.916   3.257
 6370TIP3    H119074   1.984   4.834   3.279
 6370TIP3    H219075   1.943   4.920   3.161
 6371TIP3   OH219076   0.393   3.095   2.102
 6371TIP3    H119077   0.364   3.137   2.183
 6371TIP3    H219078   0.319   3.104   2.042
 6372TIP3   OH219079   5.936   4.163   3.402
 6372TIP3    H119080   5.986   4.166   3.320
 6372TIP3    H219081   5.848   4.190   3.377
 6373TIP3   OH219082   5.863   6.335   5.143
 6373TIP3    H119083   5.958   6.334   5.133
 6373TIP3    H219084   5.845   6.271   5.212
 6374TIP3   OH219085   5.153   1.562   1.798
 6374TIP3    H119086   5.178   1.492   1.858
 6374TIP3    H219087   5.070   1.595   1.833
 6375TIP3   OH219088   5.809   5.145   4.562
 6375TIP3    H119089   5.764   5.179   4.485
 6375TIP3    H219090   5.740   5.131   4.626
 6376TIP3   OH219091   5.840   1.545   4.883
 6376TIP3    H119092   5.842   1.628   4.835
 6376TIP3    H219093   5.776   1.492   4.837
 6377TIP3   OH219094   4.289   1.065   1.185
 6377TIP3    H119095   4.224   1.023   1.129
 6377TIP3    H219096   4.364   1.081   1.128
 6378TIP3   OH219097   3.779   2.085   2.886
 6378TIP3    H119098   3.844   2.095   2.955
 6378TIP3    H219099   3.751   1.994   2.893
 6379TIP3   OH219100   4.275   2.402   1.883
 6379TIP3    H119101   4.262   2.355   1.801
 6379TIP3    H219102   4.225   2.351   1.947
 6380TIP3   OH219103   4.380   5.659   1.836
 6380TIP3    H119104   4.393   5.720   1.763
 6380TIP3    H219105   4.460   5.607   1.838
 6381TIP3   OH219106   4.885   5.742   3.065
 6381TIP3    H119107   4.854   5.812   3.123
 6381TIP3    H219108   4.805   5.710   3.023
 6382TIP3   OH219109   7.027   4.947   5.086
 6382TIP3    H119110   6.977   5.007   5.030
 6382TIP3    H219111   6.989   4.861   5.068
 6383TIP3   OH219112   0.478   4.574   4.872
 6383TIP3    H119113   0.398   4.563   4.924
 6383TIP3    H219114   0.513   4.659   4.899
 6384TIP3   OH219115   2.752   1.472   1.401
 6384TIP3    H119116   2.739   1.380   1.378
 6384TIP3    H219117   2.742   1.476   1.496
 6385TIP3   OH219118   3.196   0.242   2.250
 6385TIP3    H119119   3.173   0.150   2.267
 6385TIP3    H219120   3.115   0.282   2.218
 6386TIP3   OH219121   1.764   3.484   5.434
 6386TIP3    H119122   1.717   3.406   5.464
 6386TIP3    H219123   1.698   3.553   5.435
 6387TIP3   OH219124   5.780   1.653   3.534
 6387TIP3    H119125   5.793   1.748   3.534
 6387TIP3    H219126   5.753   1.633   3.624
 6388TIP3   OH219127   4.571   0.988   4.946
 6388TIP3    H119128   4.550   0.902   4.983
 6388TIP3    H219129   4.492   1.040   4.962
 6389TIP3   OH219130   6.635   3.931   5.336
 6389TIP3    H119131   6.685   3.870   5.391
 6389TIP3    H219132   6.702   3.978   5.286
 6390TIP3   OH219133   1.865   0.157   5.710
 6390TIP3    H119134   1.880   0.130   5.619
 6390TIP3    H219135   1.918   0.236   5.721
 6391TIP3   OH219136   3.514   2.719   4.260
 6391TIP3    H119137   3.520   2.701   4.354
 6391TIP3    H219138   3.451   2.655   4.227
 6392TIP3   OH219139   7.178   4.680   0.006
 6392TIP3    H119140   7.221   4.682   0.091
 6392TIP3    H219141   7.193   4.591  -0.026
 6393TIP3   OH219142   1.608   1.200   0.993
 6393TIP3    H119143   1.520   1.172   1.020
 6393TIP3    H219144   1.617   1.166   0.904
 6394TIP3   OH219145   5.268   0.199   5.764
 6394TIP3    H119146   5.281   0.180   5.671
 6394TIP3    H219147   5.175   0.181   5.780
 6395TIP3   OH219148   6.798   4.046   4.180
 6395TIP3    H119149   6.857   4.075   4.110
 6395TIP3    H219150   6.813   3.952   4.186
 6396TIP3   OH219151   5.185   4.922   1.853
 6396TIP3    H119152   5.117   4.857   1.838
 6396TIP3    H219153   5.157   4.999   1.803
 6397TIP3   OH219154   0.127   2.422   5.252
 6397TIP3    H119155   0.148   2.441   5.343
 6397TIP3    H219156   0.199   2.368   5.220
 6398TIP3   OH219157   4.910   5.242   1.082
 6398TIP3    H119158   4.922   5.150   1.102
 6398TIP3    H219159   4.920   5.248   0.987
 6399TIP3   OH219160   2.973   4.086   5.526
 6399TIP3    H119161   2.965   4.056   5.435
 6399TIP3    H219162   2.929   4.018   5.578
 6400TIP3   OH219163   4.652   6.291   2.663
 6400TIP3    H119164   4.621   6.265   2.576
 6400TIP3    H219165   4.670   6.384   2.655
 6401TIP3   OH219166   2.866   0.030   0.262
 6401TIP3    H119167   2.938  -0.029   0.239
 6401TIP3    H219168   2.790  -0.006   0.216
 6402TIP3   OH219169   2.854   0.858   0.124
 6402TIP3    H119170   2.843   0.852   0.219
 6402TIP3    H219171   2.765   0.863   0.090
 6403TIP3   OH219172   0.247   5.545   1.550
 6403TIP3    H119173   0.251   5.466   1.496
 6403TIP3    H219174   0.298   5.610   1.502
 6404TIP3   OH219175   5.758   0.553   2.022
 6404TIP3    H119176   5.724   0.474   2.064
 6404TIP3    H219177   5.823   0.522   1.960
 6405TIP3   OH219178   3.417   2.623   0.997
 6405TIP3    H119179   3.394   2.531   1.012
 6405TIP3    H219180   3.512   2.625   1.001
 6406TIP3   OH219181   2.613   2.231   4.304
 6406TIP3    H119182   2.629   2.312   4.352
 6406TIP3    H219183   2.519   2.219   4.309
 6407TIP3   OH219184   4.821   1.958   4.884
 6407TIP3    H119185   4.777   1.945   4.800
 6407TIP3    H219186   4.914   1.959   4.863
 6408TIP3   OH219187   2.793   2.375   0.830
 6408TIP3    H119188   2.741   2.348   0.906
 6408TIP3    H219189   2.744   2.447   0.791
 6409TIP3   OH219190   1.455   2.217   1.400
 6409TIP3    H119191   1.505   2.169   1.333
 6409TIP3    H219192   1.398   2.152   1.440
 6410TIP3   OH219193   3.578   6.360   3.575
 6410TIP3    H119194   3.518   6.404   3.515
 6410TIP3    H219195   3.665   6.379   3.539
 6411TIP3   OH219196   0.193   3.300   4.643
 6411TIP3    H119197   0.171   3.382   4.598
 6411TIP3    H219198   0.261   3.325   4.706
 6412TIP3   OH219199   3.184   0.747   2.414
 6412TIP3    H119200   3.211   0.751   2.506
 6412TIP3    H219201   3.105   0.801   2.410
 6413TIP3   OH219202   3.663   2.488   0.701
 6413TIP3    H119203   3.662   2.537   0.783
 6413TIP3    H219204   3.682   2.398   0.726
 6414TIP3   OH219205   0.655   6.000   4.761
 6414TIP3    H119206   0.661   6.011   4.666
 6414TIP3    H219207   0.738   5.959   4.786
 6415TIP3   OH219208   3.798   1.607   3.583
 6415TIP3    H119209   3.745   1.622   3.661
 6415TIP3    H219210   3.877   1.660   3.597
 6416TIP3   OH219211   2.006   5.954   5.339
 6416TIP3    H119212   1.967   5.939   5.425
 6416TIP3    H219213   2.099   5.934   5.351
 6417TIP3   OH219214   6.246   6.416   2.926
 6417TIP3    H119215   6.330   6.378   2.900
 6417TIP3    H219216   6.209   6.352   2.987
 6418TIP3   OH219217   6.262   0.745   2.272
 6418TIP3    H119218   6.227   0.689   2.341
 6418TIP3    H219219   6.348   0.773   2.304
 6419TIP3   OH219220   6.500   3.505   4.889
 6419TIP3    H119221   6.514   3.596   4.863
 6419TIP3    H219222   6.540   3.453   4.819
 6420TIP3   OH219223   6.166   1.386   4.539
 6420TIP3    H119224   6.174   1.475   4.504
 6420TIP3    H219225   6.151   1.398   4.633
 6421TIP3   OH219226   2.967   1.356   1.034
 6421TIP3    H119227   2.894   1.415   1.016
 6421TIP3    H219228   2.926   1.269   1.040
 6422TIP3   OH219229   5.586   3.942   1.340
 6422TIP3    H119230   5.596   3.862   1.393
 6422TIP3    H219231   5.632   3.922   1.258
 6423TIP3   OH219232   3.337   5.636   0.490
 6423TIP3    H119233   3.412   5.581   0.468
 6423TIP3    H219234   3.376   5.718   0.521
 6424TIP3   OH219235   5.705   3.283   4.018
 6424TIP3    H119236   5.749   3.240   3.945
 6424TIP3    H219237   5.721   3.377   4.003
 6425TIP3   OH219238   4.663   2.141   4.036
 6425TIP3    H119239   4.706   2.099   4.110
 6425TIP3    H219240   4.726   2.206   4.005
 6426TIP3   OH219241   5.766   1.934   0.179
 6426TIP3    H119242   5.822   2.005   0.149
 6426TIP3    H219243   5.783   1.863   0.117
 6427TIP3   OH219244   6.615   3.315   3.331
 6427TIP3    H119245   6.550   3.340   3.398
 6427TIP3    H219246   6.574   3.243   3.283
 6428TIP3   OH219247   1.981   2.986   3.715
 6428TIP3    H119248   2.034   3.064   3.732
 6428TIP3    H219249   1.901   3.000   3.766
 6429TIP3   OH219250   3.573   1.960   1.812
 6429TIP3    H119251   3.638   1.956   1.743
 6429TIP3    H219252   3.489   1.949   1.767
 6430TIP3   OH219253   5.905   1.044   4.531
 6430TIP3    H119254   5.812   1.034   4.553
 6430TIP3    H219255   5.905   1.106   4.458
 6431TIP3   OH219256   5.356   0.133   1.420
 6431TIP3    H119257   5.447   0.149   1.446
 6431TIP3    H219258   5.305   0.158   1.498
 6432TIP3   OH219259   2.898   2.165   5.379
 6432TIP3    H119260   2.845   2.241   5.401
 6432TIP3    H219261   2.878   2.147   5.287
 6433TIP3   OH219262   1.616   1.955   1.679
 6433TIP3    H119263   1.643   1.975   1.768
 6433TIP3    H219264   1.682   1.996   1.623
 6434TIP3   OH219265   1.206   4.871   5.086
 6434TIP3    H119266   1.260   4.865   5.165
 6434TIP3    H219267   1.243   4.805   5.027
 6435TIP3   OH219268   5.447   2.600   4.427
 6435TIP3    H119269   5.516   2.557   4.478
 6435TIP3    H219270   5.369   2.547   4.444
 6436TIP3   OH219271   6.521   2.677   0.676
 6436TIP3    H119272   6.447   2.721   0.635
 6436TIP3    H219273   6.572   2.642   0.602
 6437TIP3   OH219274   0.459   3.475   1.803
 6437TIP3    H119275   0.366   3.468   1.821
 6437TIP3    H219276   0.485   3.558   1.843
 6438TIP3   OH219277   3.810   1.734   4.687
 6438TIP3    H119278   3.773   1.795   4.751
 6438TIP3    H219279   3.749   1.737   4.613
 6439TIP3   OH219280   0.869   6.391   5.809
 6439TIP3    H119281   0.824   6.411   5.727
 6439TIP3    H219282   0.901   6.302   5.799
 6440TIP3   OH219283   2.914   0.466   2.602
 6440TIP3    H119284   2.897   0.545   2.654
 6440TIP3    H219285   2.958   0.407   2.663
 6441TIP3   OH219286   6.171   5.951   2.798
 6441TIP3    H119287   6.252   5.981   2.839
 6441TIP3    H219288   6.122   5.909   2.870
 6442TIP3   OH219289   0.393   3.852   5.334
 6442TIP3    H119290   0.369   3.905   5.410
 6442TIP3    H219291   0.468   3.800   5.363
 6443TIP3   OH219292   0.245   3.393   2.883
 6443TIP3    H119293   0.267   3.301   2.896
 6443TIP3    H219294   0.195   3.394   2.801
 6444TIP3   OH219295   5.129   6.518   1.778
 6444TIP3    H119296   5.198   6.566   1.732
 6444TIP3    H219297   5.068   6.586   1.807
 6445TIP3   OH219298   5.399   4.891   3.159
 6445TIP3    H119299   5.306   4.891   3.185
 6445TIP3    H219300   5.407   4.968   3.103
 6446TIP3   OH219301   7.249   3.859   1.212
 6446TIP3    H119302   7.211   3.822   1.292
 6446TIP3    H219303   7.191   3.932   1.190
 6447TIP3   OH219304   3.839   4.879   5.540
 6447TIP3    H119305   3.824   4.791   5.505
 6447TIP3    H219306   3.931   4.879   5.566
 6448TIP3   OH219307   5.459   4.250   0.722
 6448TIP3    H119308   5.463   4.283   0.812
 6448TIP3    H219309   5.518   4.307   0.672
 6449TIP3   OH219310   2.458   4.430   0.144
 6449TIP3    H119311   2.466   4.382   0.226
 6449TIP3    H219312   2.481   4.365   0.077
 6450TIP3   OH219313   0.444   1.787   4.312
 6450TIP3    H119314   0.532   1.822   4.316
 6450TIP3    H219315   0.398   1.844   4.250
 6451TIP3   OH219316   1.651   5.669   0.389
 6451TIP3    H119317   1.641   5.575   0.405
 6451TIP3    H219318   1.737   5.678   0.348
 6452TIP3   OH219319   0.592   5.946   4.296
 6452TIP3    H119320   0.545   5.863   4.287
 6452TIP3    H219321   0.676   5.932   4.252
 6453TIP3   OH219322   6.094   0.289   2.995
 6453TIP3    H119323   6.034   0.328   2.932
 6453TIP3    H219324   6.043   0.283   3.076
 6454TIP3   OH219325   4.179   1.454   1.053
 6454TIP3    H119326   4.157   1.547   1.056
 6454TIP3    H219327   4.268   1.452   1.017
 6455TIP3   OH219328   6.783   3.487   1.588
 6455TIP3    H119329   6.751   3.577   1.596
 6455TIP3    H219330   6.707   3.433   1.610
 6456TIP3   OH219331   3.029   0.645   2.886
 6456TIP3    H119332   2.999   0.574   2.944
 6456TIP3    H219333   3.119   0.622   2.864
 6457TIP3   OH219334   4.890   0.469   2.605
 6457TIP3    H119335   4.824   0.401   2.589
 6457TIP3    H219336   4.936   0.439   2.684
 6458TIP3   OH219337   4.650   3.996   1.187
 6458TIP3    H119338   4.594   3.983   1.110
 6458TIP3    H219339   4.704   3.917   1.191
 6459TIP3   OH219340   2.480   5.600   3.327
 6459TIP3    H119341   2.511   5.523   3.374
 6459TIP3    H219342   2.473   5.572   3.236
 6460TIP3   OH219343   0.142   0.812   1.071
 6460TIP3    H119344   0.216   0.751   1.080
 6460TIP3    H219345   0.179   0.898   1.093
 6461TIP3   OH219346   6.201   0.144   1.296
 6461TIP3    H119347   6.161   0.231   1.299
 6461TIP3    H219348   6.134   0.087   1.259
 6462TIP3   OH219349   2.887   4.528   1.881
 6462TIP3    H119350   2.944   4.593   1.841
 6462TIP3    H219351   2.814   4.578   1.917
 6463TIP3   OH219352   5.465   5.139   3.529
 6463TIP3    H119353   5.486   5.095   3.611
 6463TIP3    H219354   5.370   5.131   3.521
 6464TIP3   OH219355   6.127   5.114   4.938
 6464TIP3    H119356   6.033   5.098   4.949
 6464TIP3    H219357   6.146   5.081   4.850
 6465TIP3   OH219358   0.522   6.362   3.338
 6465TIP3    H119359   0.450   6.402   3.388
 6465TIP3    H219360   0.504   6.268   3.341
 6466TIP3   OH219361   2.483   3.081   2.851
 6466TIP3    H119362   2.520   3.065   2.764
 6466TIP3    H219363   2.533   3.156   2.884
 6467TIP3   OH219364   4.512   4.283   3.193
 6467TIP3    H119365   4.602   4.273   3.160
 6467TIP3    H219366   4.479   4.361   3.148
 6468TIP3   OH219367   1.798   6.160   5.490
 6468TIP3    H119368   1.780   6.109   5.569
 6468TIP3    H219369   1.838   6.241   5.523
 6469TIP3   OH219370   3.598   0.195   2.315
 6469TIP3    H119371   3.527   0.226   2.372
 6469TIP3    H219372   3.569   0.110   2.284
 6470TIP3   OH219373   0.234   2.865   2.273
 6470TIP3    H119374   0.190   2.894   2.193
 6470TIP3    H219375   0.300   2.803   2.243
 6471TIP3   OH219376   0.811   3.119   3.930
 6471TIP3    H119377   0.860   3.038   3.942
 6471TIP3    H219378   0.719   3.092   3.927
 6472TIP3   OH219379   1.061   4.178   1.014
 6472TIP3    H119380   1.120   4.243   0.977
 6472TIP3    H219381   1.094   4.162   1.102
 6473TIP3   OH219382   0.897   3.451   2.284
 6473TIP3    H119383   0.827   3.390   2.262
 6473TIP3    H219384   0.973   3.395   2.301
 6474TIP3   OH219385   3.696   4.461   0.248
 6474TIP3    H119386   3.678   4.537   0.194
 6474TIP3    H219387   3.641   4.392   0.213
 6475TIP3   OH219388   1.783   6.121   0.735
 6475TIP3    H119389   1.810   6.187   0.799
 6475TIP3    H219390   1.759   6.044   0.787
 6476TIP3   OH219391   1.959   5.166   3.383
 6476TIP3    H119392   2.035   5.154   3.327
 6476TIP3    H219393   1.895   5.103   3.351
 6477TIP3   OH219394   3.670   6.366   4.950
 6477TIP3    H119395   3.739   6.301   4.935
 6477TIP3    H219396   3.710   6.450   4.926
 6478TIP3   OH219397   6.079   0.174   4.301
 6478TIP3    H119398   6.089   0.238   4.372
 6478TIP3    H219399   5.993   0.192   4.265
 6479TIP3   OH219400   6.223   2.396   5.648
 6479TIP3    H119401   6.159   2.467   5.641
 6479TIP3    H219402   6.174   2.325   5.690
 6480TIP3   OH219403   6.355   1.803   1.734
 6480TIP3    H119404   6.287   1.867   1.712
 6480TIP3    H219405   6.371   1.818   1.827
 6481TIP3   OH219406   0.272   1.199   2.954
 6481TIP3    H119407   0.273   1.196   2.859
 6481TIP3    H219408   0.244   1.112   2.981
 6482TIP3   OH219409   3.787   4.114   2.042
 6482TIP3    H119410   3.767   4.154   2.127
 6482TIP3    H219411   3.868   4.066   2.057
 6483TIP3   OH219412   6.113   0.717   3.812
 6483TIP3    H119413   6.098   0.750   3.723
 6483TIP3    H219414   6.035   0.744   3.861
 6484TIP3   OH219415   0.898   5.080   3.250
 6484TIP3    H119416   0.878   4.986   3.246
 6484TIP3    H219417   0.852   5.117   3.174
 6485TIP3   OH219418   6.345   6.015   3.015
 6485TIP3    H119419   6.373   6.105   3.036
 6485TIP3    H219420   6.269   6.000   3.071
 6486TIP3   OH219421   6.956   4.440   3.526
 6486TIP3    H119422   6.938   4.377   3.457
 6486TIP3    H219423   6.869   4.468   3.555
 6487TIP3   OH219424   5.316   6.615   0.832
 6487TIP3    H119425   5.372   6.689   0.855
 6487TIP3    H219426   5.227   6.648   0.841
 6488TIP3   OH219427   0.745   5.235   0.990
 6488TIP3    H119428   0.772   5.294   0.919
 6488TIP3    H219429   0.824   5.223   1.043
 6489TIP3   OH219430   4.306   6.222   1.875
 6489TIP3    H119431   4.268   6.150   1.825
 6489TIP3    H219432   4.383   6.248   1.824
 6490TIP3   OH219433   1.298   1.937   3.273
 6490TIP3    H119434   1.242   1.884   3.217
 6490TIP3    H219435   1.377   1.885   3.285
 6491TIP3   OH219436   0.481   0.123   4.168
 6491TIP3    H119437   0.570   0.138   4.136
 6491TIP3    H219438   0.467   0.029   4.155
 6492TIP3   OH219439   1.647   0.060   2.816
 6492TIP3    H119440   1.635  -0.022   2.865
 6492TIP3    H219441   1.564   0.107   2.827
 6493TIP3   OH219442   2.602   6.487   2.387
 6493TIP3    H119443   2.537   6.492   2.317
 6493TIP3    H219444   2.617   6.393   2.400
 6494TIP3   OH219445   5.502   4.587   4.254
 6494TIP3    H119446   5.473   4.521   4.317
 6494TIP3    H219447   5.497   4.542   4.169
 6495TIP3   OH219448   3.415   2.301   0.418
 6495TIP3    H119449   3.440   2.231   0.479
 6495TIP3    H219450   3.429   2.382   0.467
 6496TIP3   OH219451   0.516   4.765   3.680
 6496TIP3    H119452   0.461   4.717   3.741
 6496TIP3    H219453   0.539   4.845   3.727
 6497TIP3   OH219454   6.242   3.519   5.007
 6497TIP3    H119455   6.292   3.481   4.935
 6497TIP3    H219456   6.276   3.476   5.085
 6498TIP3   OH219457   1.800   4.115   4.769
 6498TIP3    H119458   1.878   4.080   4.812
 6498TIP3    H219459   1.755   4.038   4.733
 6499TIP3   OH219460   3.421   2.521   0.132
 6499TIP3    H119461   3.339   2.566   0.154
 6499TIP3    H219462   3.457   2.493   0.217
 6500TIP3   OH219463   1.296   5.453   2.960
 6500TIP3    H119464   1.364   5.463   3.028
 6500TIP3    H219465   1.345   5.433   2.880
 6501TIP3   OH219466   0.012   0.172   4.501
 6501TIP3    H119467  -0.022   0.224   4.428
 6501TIP3    H219468   0.094   0.136   4.467
 6502TIP3   OH219469   4.460   0.352   2.568
 6502TIP3    H119470   4.388   0.289   2.566
 6502TIP3    H219471   4.447   0.399   2.651
 6503TIP3   OH219472   6.144   1.981   1.672
 6503TIP3    H119473   6.059   2.025   1.673
 6503TIP3    H219474   6.207   2.048   1.699
 6504TIP3   OH219475   3.131   0.780   1.088
 6504TIP3    H119476   3.083   0.702   1.116
 6504TIP3    H219477   3.196   0.795   1.156
 6505TIP3   OH219478   1.992   1.351   4.045
 6505TIP3    H119479   1.995   1.328   3.952
 6505TIP3    H219480   1.918   1.412   4.052
 6506TIP3   OH219481   0.428   4.036   4.724
 6506TIP3    H119482   0.334   4.033   4.705
 6506TIP3    H219483   0.467   4.063   4.641
 6507TIP3   OH219484   2.188   2.832   4.029
 6507TIP3    H119485   2.163   2.922   4.008
 6507TIP3    H219486   2.184   2.785   3.946
 6508TIP3   OH219487   7.041   0.962   3.647
 6508TIP3    H119488   6.965   1.004   3.605
 6508TIP3    H219489   7.043   0.874   3.609
 6509TIP3   OH219490   5.724   6.092   2.994
 6509TIP3    H119491   5.806   6.102   2.946
 6509TIP3    H219492   5.751   6.079   3.085
 6510TIP3   OH219493   4.192   6.615   5.672
 6510TIP3    H119494   4.150   6.658   5.747
 6510TIP3    H219495   4.280   6.595   5.703
 6511TIP3   OH219496   2.970   4.634   3.355
 6511TIP3    H119497   3.016   4.558   3.390
 6511TIP3    H219498   3.038   4.685   3.311
 6512TIP3   OH219499   3.861   3.461   4.356
 6512TIP3    H119500   3.933   3.522   4.370
 6512TIP3    H219501   3.856   3.410   4.437
 6513TIP3   OH219502   2.475   0.169   2.760
 6513TIP3    H119503   2.508   0.171   2.849
 6513TIP3    H219504   2.380   0.168   2.769
 6514TIP3   OH219505   2.928   0.462   5.808
 6514TIP3    H119506   2.900   0.371   5.818
 6514TIP3    H219507   2.850   0.514   5.825
 6515TIP3   OH219508   2.283   2.474   5.787
 6515TIP3    H119509   2.302   2.400   5.729
 6515TIP3    H219510   2.343   2.462   5.860
 6516TIP3   OH219511   4.741   5.612   4.553
 6516TIP3    H119512   4.749   5.681   4.618
 6516TIP3    H219513   4.726   5.532   4.604
 6517TIP3   OH219514   5.794   1.764   4.689
 6517TIP3    H119515   5.880   1.794   4.659
 6517TIP3    H219516   5.732   1.817   4.639
 6518TIP3   OH219517   4.441   2.794   1.611
 6518TIP3    H119518   4.508   2.845   1.567
 6518TIP3    H219519   4.481   2.708   1.625
 6519TIP3   OH219520   4.570   5.951   2.298
 6519TIP3    H119521   4.516   5.873   2.287
 6519TIP3    H219522   4.604   5.970   2.210
 6520TIP3   OH219523   6.347   5.225   3.362
 6520TIP3    H119524   6.320   5.138   3.393
 6520TIP3    H219525   6.430   5.209   3.317
 6521TIP3   OH219526   0.968   0.318   4.014
 6521TIP3    H119527   0.954   0.407   4.045
 6521TIP3    H219528   1.063   0.310   4.005
 6522TIP3   OH219529   7.193   5.360   5.418
 6522TIP3    H119530   7.111   5.348   5.369
 6522TIP3    H219531   7.259   5.371   5.350
 6523TIP3   OH219532   2.251   2.740   0.011
 6523TIP3    H119533   2.191   2.681  -0.033
 6523TIP3    H219534   2.198   2.785   0.077
 6524TIP3   OH219535   1.502   1.460   3.263
 6524TIP3    H119536   1.459   1.384   3.225
 6524TIP3    H219537   1.475   1.459   3.355
 6525TIP3   OH219538   0.063  -0.020   3.147
 6525TIP3    H119539  -0.013  -0.047   3.094
 6525TIP3    H219540   0.084  -0.097   3.199
 6526TIP3   OH219541   2.628   4.990   2.019
 6526TIP3    H119542   2.601   5.001   2.110
 6526TIP3    H219543   2.545   4.993   1.970
 6527TIP3   OH219544   4.620   5.913   5.394
 6527TIP3    H119545   4.566   5.879   5.465
 6527TIP3    H219546   4.654   5.835   5.350
 6528TIP3   OH219547   6.603   6.016   5.713
 6528TIP3    H119548   6.528   5.978   5.667
 6528TIP3    H219549   6.568   6.095   5.755
 6529TIP3   OH219550   1.156   1.760   5.310
 6529TIP3    H119551   1.231   1.819   5.314
 6529TIP3    H219552   1.080   1.818   5.303
 6530TIP3   OH219553   6.008   6.309   3.386
 6530TIP3    H119554   6.027   6.394   3.426
 6530TIP3    H219555   6.058   6.246   3.438
 6531TIP3   OH219556   6.557   4.336   1.284
 6531TIP3    H119557   6.494   4.388   1.235
 6531TIP3    H219558   6.509   4.257   1.309
 6532TIP3   OH219559   1.022   2.894   1.364
 6532TIP3    H119560   0.975   2.957   1.310
 6532TIP3    H219561   1.058   2.946   1.436
 6533TIP3   OH219562   1.987   6.698   0.392
 6533TIP3    H119563   2.075   6.737   0.398
 6533TIP3    H219564   1.943   6.750   0.324
 6534TIP3   OH219565   0.884   2.421   5.359
 6534TIP3    H119566   0.903   2.332   5.330
 6534TIP3    H219567   0.827   2.457   5.292
 6535TIP3   OH219568   3.602   2.159   3.335
 6535TIP3    H119569   3.639   2.076   3.302
 6535TIP3    H219570   3.665   2.189   3.400
 6536TIP3   OH219571   1.553   3.745   0.198
 6536TIP3    H119572   1.532   3.802   0.124
 6536TIP3    H219573   1.571   3.660   0.158
 6537TIP3   OH219574   4.838   6.621   2.459
 6537TIP3    H119575   4.779   6.603   2.532
 6537TIP3    H219576   4.780   6.639   2.385
 6538TIP3   OH219577   1.038   1.867   1.756
 6538TIP3    H119578   0.995   1.830   1.833
 6538TIP3    H219579   1.055   1.791   1.700
 6539TIP3   OH219580   5.236   1.851   0.730
 6539TIP3    H119581   5.320   1.847   0.684
 6539TIP3    H219582   5.259   1.875   0.820
 6540TIP3   OH219583   1.219   0.772   2.040
 6540TIP3    H119584   1.213   0.825   2.120
 6540TIP3    H219585   1.299   0.803   1.997
 6541TIP3   OH219586   1.137   3.621   4.284
 6541TIP3    H119587   1.215   3.659   4.246
 6541TIP3    H219588   1.102   3.563   4.216
 6542TIP3   OH219589   0.911   5.074   1.762
 6542TIP3    H119590   0.870   4.988   1.768
 6542TIP3    H219591   0.839   5.136   1.773
 6543TIP3   OH219592   2.331   2.938   2.413
 6543TIP3    H119593   2.310   2.849   2.383
 6543TIP3    H219594   2.246   2.978   2.432
 6544TIP3   OH219595   5.247   2.187   2.776
 6544TIP3    H119596   5.256   2.265   2.721
 6544TIP3    H219597   5.290   2.117   2.726
 6545TIP3   OH219598   1.784   1.348   3.584
 6545TIP3    H119599   1.769   1.259   3.614
 6545TIP3    H219600   1.803   1.339   3.490
 6546TIP3   OH219601   6.420   5.525   3.890
 6546TIP3    H119602   6.381   5.580   3.958
 6546TIP3    H219603   6.421   5.581   3.812
 6547TIP3   OH219604   6.473   1.146   0.124
 6547TIP3    H119605   6.453   1.078   0.060
 6547TIP3    H219606   6.417   1.220   0.098
 6548TIP3   OH219607   3.033   1.859   2.580
 6548TIP3    H119608   2.968   1.790   2.570
 6548TIP3    H219609   3.041   1.872   2.674
 6549TIP3   OH219610   6.509   4.880   4.779
 6549TIP3    H119611   6.552   4.910   4.860
 6549TIP3    H219612   6.530   4.948   4.715
 6550TIP3   OH219613   2.209   2.737   2.688
 6550TIP3    H119614   2.215   2.818   2.738
 6550TIP3    H219615   2.298   2.723   2.654
 6551TIP3   OH219616   6.809   4.802   0.511
 6551TIP3    H119617   6.856   4.883   0.531
 6551TIP3    H219618   6.806   4.799   0.415
 6552TIP3   OH219619   7.012   0.163   1.671
 6552TIP3    H119620   6.983   0.207   1.591
 6552TIP3    H219621   7.002   0.070   1.653
 6553TIP3   OH219622   4.080   4.126   5.577
 6553TIP3    H119623   4.072   4.054   5.638
 6553TIP3    H219624   4.168   4.117   5.540
 6554TIP3   OH219625   5.101   5.522   4.408
 6554TIP3    H119626   5.083   5.430   4.428
 6554TIP3    H219627   5.046   5.570   4.470
 6555TIP3   OH219628   5.312   2.837   1.615
 6555TIP3    H119629   5.299   2.925   1.579
 6555TIP3    H219630   5.364   2.850   1.693
 6556TIP3   OH219631   5.792   5.743   3.691
 6556TIP3    H119632   5.789   5.772   3.600
 6556TIP3    H219633   5.859   5.799   3.731
 6557TIP3   OH219634   5.962   5.002   1.241
 6557TIP3    H119635   5.912   5.027   1.319
 6557TIP3    H219636   5.904   5.024   1.168
 6558TIP3   OH219637   4.067   2.556   4.003
 6558TIP3    H119638   3.982   2.597   3.985
 6558TIP3    H219639   4.067   2.543   4.098
 6559TIP3   OH219640   5.117   2.896   3.706
 6559TIP3    H119641   5.077   2.928   3.786
 6559TIP3    H219642   5.166   2.971   3.672
 6560TIP3   OH219643   2.573   5.406   1.436
 6560TIP3    H119644   2.595   5.468   1.367
 6560TIP3    H219645   2.503   5.353   1.399
 6561TIP3   OH219646   0.420   6.245   3.716
 6561TIP3    H119647   0.425   6.301   3.793
 6561TIP3    H219648   0.366   6.293   3.654
 6562TIP3   OH219649   2.288   0.233   2.247
 6562TIP3    H119650   2.229   0.197   2.182
 6562TIP3    H219651   2.263   0.325   2.255
 6563TIP3   OH219652   0.867   1.180   5.598
 6563TIP3    H119653   0.818   1.146   5.674
 6563TIP3    H219654   0.954   1.200   5.633
 6564TIP3   OH219655   5.648   4.558   3.836
 6564TIP3    H119656   5.573   4.499   3.847
 6564TIP3    H219657   5.651   4.577   3.742
 6565TIP3   OH219658   6.441   5.672   5.724
 6565TIP3    H119659   6.386   5.749   5.710
 6565TIP3    H219660   6.380   5.601   5.743
 6566TIP3   OH219661   5.860   6.681   3.297
 6566TIP3    H119662   5.910   6.763   3.301
 6566TIP3    H219663   5.793   6.697   3.230
 6567TIP3   OH219664   5.901  -0.006   1.830
 6567TIP3    H119665   5.924   0.012   1.921
 6567TIP3    H219666   5.949   0.061   1.780
 6568TIP3   OH219667   1.503   6.333   1.359
 6568TIP3    H119668   1.441   6.273   1.316
 6568TIP3    H219669   1.587   6.316   1.315
 6569TIP3   OH219670   6.334   4.940   3.493
 6569TIP3    H119671   6.296   4.927   3.580
 6569TIP3    H219672   6.271   4.900   3.433
 6570TIP3   OH219673   1.253   1.250   0.252
 6570TIP3    H119674   1.246   1.345   0.243
 6570TIP3    H219675   1.164   1.221   0.272
 6571TIP3   OH219676   2.641   5.505   4.745
 6571TIP3    H119677   2.690   5.578   4.783
 6571TIP3    H219678   2.552   5.517   4.778
 6572TIP3   OH219679   5.974   3.967   5.535
 6572TIP3    H119680   6.041   3.939   5.472
 6572TIP3    H219681   5.924   4.034   5.489
 6573TIP3   OH219682   4.088   0.707   1.674
 6573TIP3    H119683   4.092   0.628   1.621
 6573TIP3    H219684   4.000   0.706   1.712
 6574TIP3   OH219685   5.964   1.867   2.037
 6574TIP3    H119686   5.977   1.945   1.984
 6574TIP3    H219687   5.994   1.795   1.982
 6575TIP3   OH219688   1.270   5.801   2.907
 6575TIP3    H119689   1.209   5.821   2.977
 6575TIP3    H219690   1.340   5.751   2.949
 6576TIP3   OH219691   2.543   0.478   5.395
 6576TIP3    H119692   2.488   0.547   5.433
 6576TIP3    H219693   2.632   0.513   5.399
 6577TIP3   OH219694   2.326   0.782   4.130
 6577TIP3    H119695   2.381   0.860   4.123
 6577TIP3    H219696   2.244   0.813   4.168
 6578TIP3   OH219697   5.278   0.459   2.253
 6578TIP3    H119698   5.273   0.532   2.192
 6578TIP3    H219699   5.189   0.447   2.284
 6579TIP3   OH219700   6.438   6.405   4.812
 6579TIP3    H119701   6.486   6.472   4.860
 6579TIP3    H219702   6.376   6.453   4.757
 6580TIP3   OH219703   3.287   3.041   4.067
 6580TIP3    H119704   3.305   3.122   4.116
 6580TIP3    H219705   3.202   3.056   4.026
 6581TIP3   OH219706   2.612   4.630   2.874
 6581TIP3    H119707   2.642   4.550   2.831
 6581TIP3    H219708   2.683   4.653   2.935
 6582TIP3   OH219709   4.505   2.423   1.500
 6582TIP3    H119710   4.476   2.333   1.512
 6582TIP3    H219711   4.563   2.440   1.574
 6583TIP3   OH219712   3.586   4.463   4.232
 6583TIP3    H119713   3.549   4.547   4.204
 6583TIP3    H219714   3.547   4.448   4.318
 6584TIP3   OH219715   4.218   0.239   5.399
 6584TIP3    H119716   4.182   0.166   5.348
 6584TIP3    H219717   4.169   0.315   5.367
 6585TIP3   OH219718   3.828   4.596   2.610
 6585TIP3    H119719   3.887   4.550   2.669
 6585TIP3    H219720   3.754   4.621   2.665
 6586TIP3   OH219721   1.144   4.141   0.677
 6586TIP3    H119722   1.075   4.078   0.701
 6586TIP3    H219723   1.225   4.096   0.700
 6587TIP3   OH219724   3.329   4.999   4.075
 6587TIP3    H119725   3.249   5.017   4.026
 6587TIP3    H219726   3.337   5.074   4.135
 6588TIP3   OH219727   5.065   0.270   2.047
 6588TIP3    H119728   5.066   0.316   1.963
 6588TIP3    H219729   5.142   0.304   2.093
 6589TIP3   OH219730   2.710   2.057   2.590
 6589TIP3    H119731   2.700   2.088   2.680
 6589TIP3    H219732   2.787   2.104   2.557
 6590TIP3   OH219733   1.504   0.212   1.493
 6590TIP3    H119734   1.464   0.137   1.450
 6590TIP3    H219735   1.432   0.274   1.508
 6591TIP3   OH219736   3.158   0.097   2.977
 6591TIP3    H119737   3.184   0.004   2.975
 6591TIP3    H219738   3.129   0.112   3.067
 6592TIP3   OH219739   3.110   6.483   2.972
 6592TIP3    H119740   3.177   6.524   2.917
 6592TIP3    H219741   3.110   6.391   2.946
 6593TIP3   OH219742   2.471   1.459   5.466
 6593TIP3    H119743   2.398   1.446   5.527
 6593TIP3    H219744   2.518   1.535   5.502
 6594TIP3   OH219745   4.207   3.343   1.340
 6594TIP3    H119746   4.281   3.403   1.339
 6594TIP3    H219747   4.130   3.400   1.347
 6595TIP3   OH219748   2.155   4.439   0.144
 6595TIP3    H119749   2.246   4.442   0.113
 6595TIP3    H219750   2.161   4.411   0.235
 6596TIP3   OH219751   2.232   4.231   1.515
 6596TIP3    H119752   2.221   4.280   1.596
 6596TIP3    H219753   2.295   4.281   1.464
 6597TIP3   OH219754   2.039   1.380   0.000
 6597TIP3    H119755   2.019   1.417   0.086
 6597TIP3    H219756   2.032   1.286   0.012
 6598TIP3   OH219757   5.668   1.449   2.509
 6598TIP3    H119758   5.694   1.371   2.558
 6598TIP3    H219759   5.651   1.418   2.420
 6599TIP3   OH219760   4.808   5.625   1.245
 6599TIP3    H119761   4.896   5.631   1.283
 6599TIP3    H219762   4.824   5.603   1.154
 6600TIP3   OH219763   1.734   3.284   0.054
 6600TIP3    H119764   1.790   3.286   0.132
 6600TIP3    H219765   1.665   3.222   0.076
 6601TIP3   OH219766   2.204   6.767   1.176
 6601TIP3    H119767   2.198   6.835   1.243
 6601TIP3    H219768   2.170   6.809   1.097
 6602TIP3   OH219769   0.130   3.959   2.824
 6602TIP3    H119770   0.196   4.028   2.828
 6602TIP3    H219771   0.176   3.884   2.786
 6603TIP3   OH219772   6.202   3.075   3.927
 6603TIP3    H119773   6.117   3.030   3.931
 6603TIP3    H219774   6.208   3.122   4.010
 6604TIP3   OH219775   1.111   1.398   3.601
 6604TIP3    H119776   1.072   1.311   3.590
 6604TIP3    H219777   1.106   1.415   3.695
 6605TIP3   OH219778   5.148   4.513   3.633
 6605TIP3    H119779   5.191   4.474   3.709
 6605TIP3    H219780   5.054   4.506   3.652
 6606TIP3   OH219781   5.652   1.570   5.585
 6606TIP3    H119782   5.651   1.610   5.672
 6606TIP3    H219783   5.736   1.598   5.548
 6607TIP3   OH219784   1.217   2.788   4.827
 6607TIP3    H119785   1.159   2.819   4.759
 6607TIP3    H219786   1.160   2.767   4.901
 6608TIP3   OH219787   1.929   0.783   1.279
 6608TIP3    H119788   1.981   0.706   1.300
 6608TIP3    H219789   1.990   0.842   1.234
 6609TIP3   OH219790   2.450   0.084   1.707
 6609TIP3    H119791   2.435  -0.001   1.748
 6609TIP3    H219792   2.463   0.064   1.614
 6610TIP3   OH219793   0.170   0.545   5.055
 6610TIP3    H119794   0.153   0.511   4.967
 6610TIP3    H219795   0.138   0.635   5.052
 6611TIP3   OH219796   3.333   0.205   0.820
 6611TIP3    H119797   3.307   0.152   0.745
 6611TIP3    H219798   3.275   0.281   0.817
 6612TIP3   OH219799   2.963   2.187   3.126
 6612TIP3    H119800   2.938   2.172   3.035
 6612TIP3    H219801   3.018   2.113   3.149
 6613TIP3   OH219802   1.899   4.536   1.678
 6613TIP3    H119803   1.826   4.594   1.656
 6613TIP3    H219804   1.945   4.523   1.595
 6614TIP3   OH219805   7.024   4.847   4.122
 6614TIP3    H119806   7.067   4.877   4.202
 6614TIP3    H219807   6.945   4.900   4.115
 6615TIP3   OH219808   2.487   4.161   4.338
 6615TIP3    H119809   2.499   4.226   4.407
 6615TIP3    H219810   2.393   4.147   4.334
 6616TIP3   OH219811   4.148   0.281   2.780
 6616TIP3    H119812   4.060   0.245   2.794
 6616TIP3    H219813   4.139   0.334   2.701
 6617TIP3   OH219814   0.610   4.504   1.215
 6617TIP3    H119815   0.658   4.431   1.254
 6617TIP3    H219816   0.667   4.536   1.145
 6618TIP3   OH219817   4.410   0.080   5.222
 6618TIP3    H119818   4.432  -0.009   5.195
 6618TIP3    H219819   4.325   0.071   5.265
 6619TIP3   OH219820   6.481   1.959   3.427
 6619TIP3    H119821   6.395   1.940   3.390
 6619TIP3    H219822   6.462   2.010   3.506
 6620TIP3   OH219823   0.632   2.917   0.295
 6620TIP3    H119824   0.684   2.941   0.218
 6620TIP3    H219825   0.593   2.832   0.272
 6621TIP3   OH219826   4.506   3.554   3.331
 6621TIP3    H119827   4.521   3.623   3.395
 6621TIP3    H219828   4.430   3.506   3.365
 6622TIP3   OH219829   2.143   2.421   4.894
 6622TIP3    H119830   2.207   2.473   4.846
 6622TIP3    H219831   2.126   2.346   4.837
 6623TIP3   OH219832   2.299   3.935   4.747
 6623TIP3    H119833   2.238   3.889   4.689
 6623TIP3    H219834   2.248   4.007   4.782
 6624TIP3   OH219835   4.894   4.771   1.272
 6624TIP3    H119836   4.825   4.705   1.280
 6624TIP3    H219837   4.873   4.836   1.339
 6625TIP3   OH219838   1.727   0.798   2.191
 6625TIP3    H119839   1.700   0.846   2.270
 6625TIP3    H219840   1.694   0.852   2.118
 6626TIP3   OH219841   0.047   1.977   4.881
 6626TIP3    H119842   0.057   1.893   4.835
 6626TIP3    H219843   0.104   2.037   4.834
 6627TIP3   OH219844   7.165   1.078   5.313
 6627TIP3    H119845   7.133   0.993   5.280
 6627TIP3    H219846   7.256   1.062   5.335
 6628TIP3   OH219847   4.388   5.042   0.689
 6628TIP3    H119848   4.377   5.085   0.773
 6628TIP3    H219849   4.373   4.949   0.707
 6629TIP3   OH219850   1.117   5.175   0.026
 6629TIP3    H119851   1.041   5.145   0.076
 6629TIP3    H219852   1.191   5.129   0.066
 6630TIP3   OH219853   0.678   1.213   3.316
 6630TIP3    H119854   0.600   1.191   3.266
 6630TIP3    H219855   0.654   1.292   3.365
 6631TIP3   OH219856   1.692   4.263   0.618
 6631TIP3    H119857   1.763   4.199   0.630
 6631TIP3    H219858   1.614   4.219   0.651
 6632TIP3   OH219859   2.711   5.784   1.630
 6632TIP3    H119860   2.740   5.832   1.553
 6632TIP3    H219861   2.772   5.711   1.638
 6633TIP3   OH219862   3.938   5.227   0.636
 6633TIP3    H119863   3.992   5.270   0.701
 6633TIP3    H219864   3.848   5.247   0.662
 6634TIP3   OH219865   1.773   3.407   3.057
 6634TIP3    H119866   1.865   3.387   3.078
 6634TIP3    H219867   1.733   3.425   3.142
 6635TIP3   OH219868   4.773   0.431   3.843
 6635TIP3    H119869   4.748   0.365   3.908
 6635TIP3    H219870   4.821   0.382   3.776
 6636TIP3   OH219871   1.916   2.083   4.387
 6636TIP3    H119872   1.830   2.079   4.427
 6636TIP3    H219873   1.921   2.003   4.334
 6637TIP3   OH219874   2.801   5.163   4.299
 6637TIP3    H119875   2.716   5.191   4.267
 6637TIP3    H219876   2.853   5.148   4.220
 6638TIP3   OH219877   1.407   2.122   2.850
 6638TIP3    H119878   1.432   2.167   2.769
 6638TIP3    H219879   1.367   2.190   2.904
 6639TIP3   OH219880   5.646   0.524   3.154
 6639TIP3    H119881   5.564   0.517   3.104
 6639TIP3    H219882   5.715   0.527   3.087
 6640TIP3   OH219883   4.096   3.055   3.867
 6640TIP3    H119884   4.090   3.113   3.791
 6640TIP3    H219885   4.117   3.113   3.940
 6641TIP3   OH219886   1.515   4.752   0.974
 6641TIP3    H119887   1.487   4.805   0.899
 6641TIP3    H219888   1.511   4.812   1.049
 6642TIP3   OH219889   3.991   3.820   3.150
 6642TIP3    H119890   4.042   3.841   3.229
 6642TIP3    H219891   4.039   3.862   3.079
 6643TIP3   OH219892   5.248   1.338   5.400
 6643TIP3    H119893   5.297   1.361   5.478
 6643TIP3    H219894   5.313   1.298   5.342
 6644TIP3   OH219895   0.839   5.692   3.846
 6644TIP3    H119896   0.851   5.647   3.763
 6644TIP3    H219897   0.813   5.781   3.822
 6645TIP3   OH219898   2.878   0.614   3.834
 6645TIP3    H119899   2.878   0.548   3.765
 6645TIP3    H219900   2.871   0.698   3.787
 6646TIP3   OH219901   6.924   5.031   2.944
 6646TIP3    H119902   6.837   5.047   2.979
 6646TIP3    H219903   6.938   4.937   2.954
 6647TIP3   OH219904   4.059   1.787   3.591
 6647TIP3    H119905   4.106   1.844   3.651
 6647TIP3    H219906   4.125   1.760   3.527
 6648TIP3   OH219907   5.177   3.925   5.777
 6648TIP3    H119908   5.248   3.949   5.718
 6648TIP3    H219909   5.102   3.907   5.720
 6649TIP3   OH219910   2.043   2.376   5.518
 6649TIP3    H119911   2.047   2.432   5.596
 6649TIP3    H219912   2.118   2.405   5.465
 6650TIP3   OH219913   3.087   3.012   3.232
 6650TIP3    H119914   3.158   3.074   3.244
 6650TIP3    H219915   3.053   2.997   3.320
 6651TIP3   OH219916   6.342   4.310   1.909
 6651TIP3    H119917   6.405   4.333   1.978
 6651TIP3    H219918   6.293   4.390   1.893
 6652TIP3   OH219919   5.990   5.383   0.282
 6652TIP3    H119920   5.925   5.372   0.351
 6652TIP3    H219921   6.011   5.476   0.283
 6653TIP3   OH219922   0.414   1.627   3.164
 6653TIP3    H119923   0.330   1.664   3.135
 6653TIP3    H219924   0.468   1.625   3.085
 6654TIP3   OH219925   6.450   2.336   0.377
 6654TIP3    H119926   6.381   2.383   0.331
 6654TIP3    H219927   6.405   2.264   0.421
 6655TIP3   OH219928   0.919   5.581   0.186
 6655TIP3    H119929   0.864   5.567   0.263
 6655TIP3    H219930   0.901   5.672   0.161
 6656TIP3   OH219931   3.310   1.669   3.976
 6656TIP3    H119932   3.327   1.577   3.993
 6656TIP3    H219933   3.246   1.695   4.041
 6657TIP3   OH219934   1.573   3.185   0.568
 6657TIP3    H119935   1.524   3.107   0.541
 6657TIP3    H219936   1.536   3.208   0.653
 6658TIP3   OH219937   4.931   1.116   4.105
 6658TIP3    H119938   4.934   1.105   4.200
 6658TIP3    H219939   4.950   1.209   4.091
 6659TIP3   OH219940   5.817   3.477   0.109
 6659TIP3    H119941   5.903   3.485   0.150
 6659TIP3    H219942   5.783   3.566   0.105
 6660TIP3   OH219943   7.178   3.744   4.408
 6660TIP3    H119944   7.273   3.753   4.407
 6660TIP3    H219945   7.146   3.832   4.429
 6661TIP3   OH219946   5.535   3.361   4.667
 6661TIP3    H119947   5.608   3.348   4.728
 6661TIP3    H219948   5.524   3.276   4.625
 6662TIP3   OH219949   5.777   6.281   3.607
 6662TIP3    H119950   5.839   6.307   3.539
 6662TIP3    H219951   5.748   6.364   3.646
 6663TIP3   OH219952   6.070   2.020   4.601
 6663TIP3    H119953   6.080   1.925   4.593
 6663TIP3    H219954   6.001   2.042   4.538
 6664TIP3   OH219955   1.687   1.649   0.717
 6664TIP3    H119956   1.731   1.682   0.795
 6664TIP3    H219957   1.683   1.724   0.658
 6665TIP3   OH219958   6.049   2.774   2.577
 6665TIP3    H119959   6.059   2.699   2.518
 6665TIP3    H219960   6.008   2.737   2.656
 6666TIP3   OH219961   0.919   3.686   2.446
 6666TIP3    H119962   0.878   3.682   2.533
 6666TIP3    H219963   0.906   3.598   2.410
 6667TIP3   OH219964   0.938   0.641   3.895
 6667TIP3    H119965   0.921   0.635   3.989
 6667TIP3    H219966   0.852   0.647   3.855
 6668TIP3   OH219967   0.124   5.881   2.765
 6668TIP3    H119968   0.208   5.836   2.766
 6668TIP3    H219969   0.059   5.811   2.773
 6669TIP3   OH219970   4.358   4.228   4.634
 6669TIP3    H119971   4.291   4.161   4.649
 6669TIP3    H219972   4.390   4.210   4.545
 6670TIP3   OH219973   1.690   2.986   1.716
 6670TIP3    H119974   1.776   2.996   1.675
 6670TIP3    H219975   1.660   3.076   1.732
 6671TIP3   OH219976   0.019   2.909   1.552
 6671TIP3    H119977   0.082   2.907   1.624
 6671TIP3    H219978   0.047   2.840   1.493
 6672TIP3   OH219979   4.657   0.880   0.124
 6672TIP3    H119980   4.693   0.817   0.061
 6672TIP3    H219981   4.564   0.887   0.101
 6673TIP3   OH219982   1.167   1.491   1.371
 6673TIP3    H119983   1.170   1.396   1.373
 6673TIP3    H219984   1.086   1.512   1.323
 6674TIP3   OH219985   5.135   1.949   1.538
 6674TIP3    H119986   5.197   2.004   1.489
 6674TIP3    H219987   5.094   2.009   1.600
 6675TIP3   OH219988   4.696  -0.049   1.535
 6675TIP3    H119989   4.635   0.016   1.500
 6675TIP3    H219990   4.783  -0.012   1.516
 6676TIP3   OH219991   4.611   4.543   5.774
 6676TIP3    H119992   4.594   4.572   5.685
 6676TIP3    H219993   4.703   4.564   5.790
 6677TIP3   OH219994   7.008   1.283   0.106
 6677TIP3    H119995   6.954   1.349   0.149
 6677TIP3    H219996   7.061   1.245   0.176
 6678TIP3   OH219997   5.836   6.290   0.142
 6678TIP3    H119998   5.860   6.373   0.182
 6678TIP3    H219999   5.746   6.275   0.171
 6679TIP3   OH220000   1.324   2.955   4.439
 6679TIP3    H120001   1.265   2.921   4.372
 6679TIP3    H220002   1.304   3.048   4.444
 6680TIP3   OH220003   4.822   4.826   2.660
 6680TIP3    H120004   4.760   4.800   2.728
 6680TIP3    H220005   4.883   4.884   2.704
 6681TIP3   OH220006   4.609   1.636   5.438
 6681TIP3    H120007   4.660   1.581   5.498
 6681TIP3    H220008   4.668   1.708   5.416
 6682TIP3   OH220009   3.640   5.365   1.065
 6682TIP3    H120010   3.699   5.383   1.138
 6682TIP3    H220011   3.577   5.302   1.099
 6683TIP3   OH220012   0.305   0.932   4.821
 6683TIP3    H120013   0.373   0.864   4.824
 6683TIP3    H220014   0.353   1.013   4.805
 6684TIP3   OH220015   4.271   3.840   5.133
 6684TIP3    H120016   4.200   3.901   5.150
 6684TIP3    H220017   4.309   3.869   5.050
 6685TIP3   OH220018   1.936   5.517   2.172
 6685TIP3    H120019   1.966   5.559   2.091
 6685TIP3    H220020   1.844   5.496   2.156
 6686TIP3   OH220021   1.710   5.805   1.596
 6686TIP3    H120022   1.704   5.784   1.689
 6686TIP3    H220023   1.798   5.777   1.570
 6687TIP3   OH220024   4.581   5.160   1.039
 6687TIP3    H120025   4.613   5.077   1.004
 6687TIP3    H220026   4.623   5.168   1.125
 6688TIP3   OH220027   2.082   4.262   3.305
 6688TIP3    H120028   2.013   4.206   3.269
 6688TIP3    H220029   2.134   4.289   3.229
 6689TIP3   OH220030   4.782   3.295   0.138
 6689TIP3    H120031   4.766   3.350   0.061
 6689TIP3    H220032   4.754   3.207   0.111
 6690TIP3   OH220033   3.036   1.188   3.020
 6690TIP3    H120034   3.051   1.130   3.095
 6690TIP3    H220035   2.943   1.178   3.001
 6691TIP3   OH220036   4.045   1.661   4.871
 6691TIP3    H120037   4.033   1.571   4.901
 6691TIP3    H220038   3.958   1.687   4.840
 6692TIP3   OH220039   2.881   0.855   2.523
 6692TIP3    H120040   2.804   0.826   2.572
 6692TIP3    H220041   2.850   0.864   2.433
 6693TIP3   OH220042   0.778   1.106   1.330
 6693TIP3    H120043   0.795   1.030   1.386
 6693TIP3    H220044   0.863   1.130   1.295
 6694TIP3   OH220045   5.838   6.718   4.152
 6694TIP3    H120046   5.761   6.735   4.206
 6694TIP3    H220047   5.808   6.655   4.087
 6695TIP3   OH220048   3.568   2.980   3.395
 6695TIP3    H120049   3.638   3.042   3.413
 6695TIP3    H220050   3.515   2.980   3.475
 6696TIP3   OH220051   5.252   0.125   0.971
 6696TIP3    H120052   5.231   0.114   0.878
 6696TIP3    H220053   5.248   0.037   1.007
 6697TIP3   OH220054   5.893   2.831   3.444
 6697TIP3    H120055   5.920   2.740   3.460
 6697TIP3    H220056   5.973   2.875   3.416
 6698TIP3   OH220057   6.102   1.121   2.733
 6698TIP3    H120058   6.056   1.177   2.671
 6698TIP3    H220059   6.053   1.129   2.815
 6699TIP3   OH220060   4.487   2.524   4.380
 6699TIP3    H120061   4.525   2.436   4.371
 6699TIP3    H220062   4.439   2.537   4.298
 6700TIP3   OH220063   3.013   0.805   0.567
 6700TIP3    H120064   2.984   0.895   0.556
 6700TIP3    H220065   2.969   0.757   0.497
 6701TIP3   OH220066   3.574   2.005   1.433
 6701TIP3    H120067   3.578   1.932   1.372
 6701TIP3    H220068   3.637   1.983   1.501
 6702TIP3   OH220069   2.531   4.247   2.262
 6702TIP3    H120070   2.567   4.324   2.216
 6702TIP3    H220071   2.466   4.212   2.201
 6703TIP3   OH220072   1.305   0.395   3.222
 6703TIP3    H120073   1.282   0.488   3.227
 6703TIP3    H220074   1.221   0.350   3.217
 6704TIP3   OH220075   3.061   3.245   3.597
 6704TIP3    H120076   3.003   3.174   3.568
 6704TIP3    H220077   3.137   3.200   3.635
 6705TIP3   OH220078   1.243   2.331   2.312
 6705TIP3    H120079   1.196   2.360   2.389
 6705TIP3    H220080   1.335   2.332   2.339
 6706TIP3   OH220081   5.453   1.588   4.347
 6706TIP3    H120082   5.450   1.683   4.344
 6706TIP3    H220083   5.536   1.568   4.390
 6707TIP3   OH220084   6.608   5.957   2.454
 6707TIP3    H120085   6.644   5.903   2.524
 6707TIP3    H220086   6.516   5.969   2.478
 6708TIP3   OH220087   2.801   5.738   1.351
 6708TIP3    H120088   2.808   5.834   1.353
 6708TIP3    H220089   2.707   5.721   1.353
 6709TIP3   OH220090   0.096   4.889   4.772
 6709TIP3    H120091   0.025   4.952   4.783
 6709TIP3    H220092   0.126   4.870   4.861
 6710TIP3   OH220093   6.867   3.716   4.832
 6710TIP3    H120094   6.819   3.795   4.858
 6710TIP3    H220095   6.845   3.705   4.739
 6711TIP3   OH220096   4.669   1.689   3.127
 6711TIP3    H120097   4.693   1.765   3.074
 6711TIP3    H220098   4.661   1.618   3.063
 6712TIP3   OH220099   5.887   4.138   5.149
 6712TIP3    H120100   5.857   4.178   5.231
 6712TIP3    H220101   5.972   4.180   5.132
 6713TIP3   OH220102   3.069   5.724   3.243
 6713TIP3    H120103   3.113   5.737   3.159
 6713TIP3    H220104   3.129   5.762   3.307
 6714TIP3   OH220105   6.521   2.882   5.043
 6714TIP3    H120106   6.559   2.803   5.002
 6714TIP3    H220107   6.464   2.918   4.975
 6715TIP3   OH220108   0.098   4.181   2.617
 6715TIP3    H120109   0.114   4.248   2.683
 6715TIP3    H220110   0.124   4.099   2.658
 6716TIP3   OH220111   4.173   4.141   4.217
 6716TIP3    H120112   4.179   4.131   4.122
 6716TIP3    H220113   4.144   4.231   4.229
 6717TIP3   OH220114   1.949   1.904   2.304
 6717TIP3    H120115   1.903   1.987   2.290
 6717TIP3    H220116   1.952   1.893   2.399
 6718TIP3   OH220117   4.897   2.519   1.990
 6718TIP3    H120118   4.968   2.519   2.055
 6718TIP3    H220119   4.819   2.541   2.040
 6719TIP3   OH220120   0.355   5.328   0.220
 6719TIP3    H120121   0.438   5.340   0.266
 6719TIP3    H220122   0.367   5.248   0.169
 6720TIP3   OH220123   6.914   6.542   3.348
 6720TIP3    H120124   6.845   6.531   3.282
 6720TIP3    H220125   6.905   6.466   3.405
 6721TIP3   OH220126   0.797   3.841   5.020
 6721TIP3    H120127   0.825   3.758   4.981
 6721TIP3    H220128   0.705   3.849   4.994
 6722TIP3   OH220129   1.499   3.909   1.397
 6722TIP3    H120130   1.509   4.003   1.412
 6722TIP3    H220131   1.513   3.898   1.303
 6723TIP3   OH220132   4.284   5.743   0.753
 6723TIP3    H120133   4.271   5.836   0.733
 6723TIP3    H220134   4.216   5.699   0.703
 6724TIP3   OH220135   6.088   6.164   3.885
 6724TIP3    H120136   6.017   6.189   3.944
 6724TIP3    H220137   6.078   6.069   3.874
 6725TIP3   OH220138   5.429   5.825   2.138
 6725TIP3    H120139   5.336   5.815   2.158
 6725TIP3    H220140   5.473   5.809   2.222
 6726TIP3   OH220141   4.634   2.869   2.224
 6726TIP3    H120142   4.540   2.868   2.239
 6726TIP3    H220143   4.670   2.913   2.301
 6727TIP3   OH220144   2.296   4.398   3.451
 6727TIP3    H120145   2.354   4.472   3.434
 6727TIP3    H220146   2.211   4.425   3.418
 6728TIP3   OH220147   6.402   6.118   4.783
 6728TIP3    H120148   6.362   6.186   4.837
 6728TIP3    H220149   6.496   6.131   4.793
 6729TIP3   OH220150   6.593   3.587   3.258
 6729TIP3    H120151   6.616   3.580   3.350
 6729TIP3    H220152   6.542   3.508   3.240
 6730TIP3   OH220153   5.992   4.402   5.628
 6730TIP3    H120154   6.065   4.462   5.640
 6730TIP3    H220155   5.996   4.344   5.704
 6731TIP3   OH220156   6.017   2.200   3.013
 6731TIP3    H120157   6.109   2.225   3.011
 6731TIP3    H220158   5.972   2.271   2.968
 6732TIP3   OH220159   4.476   4.862   0.387
 6732TIP3    H120160   4.458   4.952   0.416
 6732TIP3    H220161   4.495   4.814   0.467
 6733TIP3   OH220162   0.395   3.079   3.318
 6733TIP3    H120163   0.421   3.095   3.409
 6733TIP3    H220164   0.355   3.161   3.290
 6734TIP3   OH220165   4.642   4.624   1.532
 6734TIP3    H120166   4.653   4.539   1.576
 6734TIP3    H220167   4.696   4.684   1.583
 6735TIP3   OH220168   4.062   2.095   1.453
 6735TIP3    H120169   4.127   2.125   1.389
 6735TIP3    H220170   4.011   2.173   1.474
 6736TIP3   OH220171   6.690   0.725   2.687
 6736TIP3    H120172   6.737   0.739   2.605
 6736TIP3    H220173   6.600   0.749   2.668
 6737TIP3   OH220174   0.174   2.194   4.726
 6737TIP3    H120175   0.240   2.259   4.747
 6737TIP3    H220176   0.123   2.232   4.655
 6738TIP3   OH220177   1.195   6.333   2.499
 6738TIP3    H120178   1.243   6.251   2.511
 6738TIP3    H220179   1.181   6.365   2.588
 6739TIP3   OH220180   5.226   0.048   2.830
 6739TIP3    H120181   5.269   0.044   2.744
 6739TIP3    H220182   5.184   0.134   2.832
 6740TIP3   OH220183   1.624   0.834   0.758
 6740TIP3    H120184   1.701   0.778   0.768
 6740TIP3    H220185   1.630   0.896   0.830
 6741TIP3   OH220186   3.103   5.231   2.582
 6741TIP3    H120187   3.145   5.226   2.668
 6741TIP3    H220188   3.114   5.322   2.555
 6742TIP3   OH220189   5.062   6.398   3.211
 6742TIP3    H120190   5.156   6.417   3.205
 6742TIP3    H220191   5.027   6.470   3.263
 6743TIP3   OH220192   6.421   3.333   2.613
 6743TIP3    H120193   6.441   3.253   2.660
 6743TIP3    H220194   6.395   3.304   2.525
 6744TIP3   OH220195   7.201   6.701   4.192
 6744TIP3    H120196   7.269   6.664   4.249
 6744TIP3    H220197   7.209   6.796   4.205
 6745TIP3   OH220198   4.572   2.743   5.612
 6745TIP3    H120199   4.630   2.668   5.626
 6745TIP3    H220200   4.592   2.802   5.684
 6746TIP3   OH220201   1.170   5.555   2.129
 6746TIP3    H120202   1.178   5.526   2.038
 6746TIP3    H220203   1.088   5.517   2.160
 6747TIP3   OH220204   1.094   5.627   2.519
 6747TIP3    H120205   1.064   5.640   2.609
 6747TIP3    H220206   1.129   5.538   2.518
 6748TIP3   OH220207   6.540   0.508   2.308
 6748TIP3    H120208   6.629   0.543   2.301
 6748TIP3    H220209   6.484   0.586   2.312
 6749TIP3   OH220210   0.445   2.355   4.101
 6749TIP3    H120211   0.389   2.355   4.179
 6749TIP3    H220212   0.385   2.374   4.029
 6750TIP3   OH220213   3.835   2.341   0.171
 6750TIP3    H120214   3.799   2.341   0.083
 6750TIP3    H220215   3.911   2.399   0.167
 6751TIP3   OH220216   3.648   3.474   1.859
 6751TIP3    H120217   3.585   3.541   1.882
 6751TIP3    H220218   3.631   3.456   1.766
 6752TIP3   OH220219   5.787   4.176   1.615
 6752TIP3    H120220   5.799   4.212   1.527
 6752TIP3    H220221   5.870   4.190   1.659
 6753TIP3   OH220222   4.530   4.237   3.892
 6753TIP3    H120223   4.442   4.259   3.921
 6753TIP3    H220224   4.559   4.168   3.952
 6754TIP3   OH220225   5.800   0.481   5.294
 6754TIP3    H120226   5.811   0.575   5.288
 6754TIP3    H220227   5.759   0.467   5.380
 6755TIP3   OH220228   3.272   1.988   2.894
 6755TIP3    H120229   3.268   2.066   2.839
 6755TIP3    H220230   3.188   1.944   2.879
 6756TIP3   OH220231   4.737   6.727   4.675
 6756TIP3    H120232   4.826   6.754   4.699
 6756TIP3    H220233   4.686   6.808   4.679
 6757TIP3   OH220234   2.759   1.458   1.944
 6757TIP3    H120235   2.835   1.477   1.998
 6757TIP3    H220236   2.685   1.495   1.993
 6758TIP3   OH220237   1.934   2.821   0.948
 6758TIP3    H120238   2.003   2.825   1.014
 6758TIP3    H220239   1.967   2.875   0.876
 6759TIP3   OH220240   3.133   3.429   5.837
 6759TIP3    H120241   3.191   3.501   5.863
 6759TIP3    H220242   3.179   3.350   5.865
 6760TIP3   OH220243   6.862   6.329   2.847
 6760TIP3    H120244   6.880   6.422   2.853
 6760TIP3    H220245   6.801   6.321   2.773
 6761TIP3   OH220246   6.343   4.760   0.531
 6761TIP3    H120247   6.410   4.743   0.596
 6761TIP3    H220248   6.386   4.814   0.464
 6762TIP3   OH220249   4.226   5.897   4.056
 6762TIP3    H120250   4.226   5.972   3.997
 6762TIP3    H220251   4.293   5.838   4.020
 6763TIP3   OH220252   1.603   0.997   4.793
 6763TIP3    H120253   1.554   0.934   4.846
 6763TIP3    H220254   1.563   1.082   4.814
 6764TIP3   OH220255   3.578   3.375   5.306
 6764TIP3    H120256   3.560   3.469   5.314
 6764TIP3    H220257   3.492   3.335   5.289
 6765TIP3   OH220258   4.559   1.379   2.913
 6765TIP3    H120259   4.469   1.369   2.881
 6765TIP3    H220260   4.573   1.304   2.971
 6766TIP3   OH220261   6.521   4.155   4.737
 6766TIP3    H120262   6.439   4.203   4.749
 6766TIP3    H220263   6.509   4.106   4.655
 6767TIP3   OH220264   5.901   5.431   4.611
 6767TIP3    H120265   5.870   5.367   4.547
 6767TIP3    H220266   5.882   5.516   4.571
 6768TIP3   OH220267   1.352   6.673   5.825
 6768TIP3    H120268   1.270   6.630   5.803
 6768TIP3    H220269   1.411   6.650   5.754
 6769TIP3   OH220270   0.795   0.613   0.535
 6769TIP3    H120271   0.748   0.663   0.469
 6769TIP3    H220272   0.838   0.543   0.486
 6770TIP3   OH220273   6.360   5.724   1.882
 6770TIP3    H120274   6.285   5.713   1.823
 6770TIP3    H220275   6.369   5.639   1.925
 6771TIP3   OH220276   0.440   2.907   1.908
 6771TIP3    H120277   0.535   2.898   1.919
 6771TIP3    H220278   0.415   2.973   1.973
 6772TIP3   OH220279   4.703   5.112   0.642
 6772TIP3    H120280   4.650   5.033   0.647
 6772TIP3    H220281   4.788   5.083   0.609
 6773TIP3   OH220282   5.141   0.401   5.517
 6773TIP3    H120283   5.085   0.399   5.440
 6773TIP3    H220284   5.112   0.478   5.566
 6774TIP3   OH220285   6.311   5.714   4.082
 6774TIP3    H120286   6.363   5.778   4.130
 6774TIP3    H220287   6.221   5.746   4.088
 6775TIP3   OH220288   6.414   3.508   4.486
 6775TIP3    H120289   6.409   3.445   4.557
 6775TIP3    H220290   6.364   3.584   4.517
 6776TIP3   OH220291   2.839   1.497   5.249
 6776TIP3    H120292   2.861   1.588   5.228
 6776TIP3    H220293   2.744   1.496   5.258
 6777TIP3   OH220294   5.383   2.510   3.753
 6777TIP3    H120295   5.441   2.557   3.693
 6777TIP3    H220296   5.442   2.469   3.816
 6778TIP3   OH220297   6.724   2.606   1.747
 6778TIP3    H120298   6.813   2.643   1.752
 6778TIP3    H220299   6.668   2.675   1.783
 6779TIP3   OH220300   6.981   6.678   5.666
 6779TIP3    H120301   6.920   6.688   5.740
 6779TIP3    H220302   6.946   6.604   5.617
 6780TIP3   OH220303   2.672   2.615   3.928
 6780TIP3    H120304   2.578   2.609   3.945
 6780TIP3    H220305   2.713   2.589   4.010
 6781TIP3   OH220306   2.856   3.630   2.167
 6781TIP3    H120307   2.922   3.682   2.121
 6781TIP3    H220308   2.776   3.641   2.115
 6782TIP3   OH220309   3.938   5.171   3.011
 6782TIP3    H120310   4.008   5.179   3.075
 6782TIP3    H220311   3.935   5.078   2.988
 6783TIP3   OH220312   5.024   1.635   3.658
 6783TIP3    H120313   5.008   1.707   3.719
 6783TIP3    H220314   4.941   1.587   3.655
 6784TIP3   OH220315   6.583   1.646   1.311
 6784TIP3    H120316   6.581   1.551   1.298
 6784TIP3    H220317   6.548   1.659   1.400
 6785TIP3   OH220318   1.588   3.611   1.619
 6785TIP3    H120319   1.525   3.606   1.691
 6785TIP3    H220320   1.535   3.606   1.540
 6786TIP3   OH220321   2.682   5.537   0.444
 6786TIP3    H120322   2.690   5.472   0.374
 6786TIP3    H220323   2.718   5.494   0.521
 6787TIP3   OH220324   0.871   1.974   2.080
 6787TIP3    H120325   0.879   1.998   2.172
 6787TIP3    H220326   0.804   2.033   2.046
 6788TIP3   OH220327   4.683   5.384   0.874
 6788TIP3    H120328   4.652   5.304   0.917
 6788TIP3    H220329   4.606   5.418   0.829
 6789TIP3   OH220330   3.651   4.099   0.864
 6789TIP3    H120331   3.635   4.192   0.877
 6789TIP3    H220332   3.706   4.074   0.939
 6790TIP3   OH220333   6.096   5.458   2.838
 6790TIP3    H120334   6.042   5.380   2.824
 6790TIP3    H220335   6.186   5.426   2.830
 6791TIP3   OH220336   1.725   0.231   1.312
 6791TIP3    H120337   1.733   0.152   1.366
 6791TIP3    H220338   1.645   0.272   1.341
 6792TIP3   OH220339   4.231   0.428   3.012
 6792TIP3    H120340   4.152   0.467   3.048
 6792TIP3    H220341   4.202   0.381   2.934
 6793TIP3   OH220342   1.081   1.048   1.837
 6793TIP3    H120343   0.998   1.000   1.831
 6793TIP3    H220344   1.075   1.096   1.920
 6794TIP3   OH220345   4.565   5.627   3.064
 6794TIP3    H120346   4.534   5.589   3.145
 6794TIP3    H220347   4.567   5.721   3.081
 6795TIP3   OH220348   5.967   0.194   3.231
 6795TIP3    H120349   5.874   0.177   3.249
 6795TIP3    H220350   5.995   0.249   3.304
 6796TIP3   OH220351   2.554   0.759   1.411
 6796TIP3    H120352   2.579   0.704   1.486
 6796TIP3    H220353   2.522   0.697   1.346
 6797TIP3   OH220354   2.592   4.564   5.834
 6797TIP3    H120355   2.498   4.545   5.827
 6797TIP3    H220356   2.634   4.498   5.780
 6798TIP3   OH220357   3.907   2.048   4.117
 6798TIP3    H120358   3.874   2.018   4.033
 6798TIP3    H220359   3.874   1.985   4.180
 6799TIP3   OH220360   1.128   0.165   3.149
 6799TIP3    H120361   1.095   0.100   3.087
 6799TIP3    H220362   1.223   0.151   3.150
 6800TIP3   OH220363   2.193   0.389   2.602
 6800TIP3    H120364   2.105   0.392   2.564
 6800TIP3    H220365   2.251   0.414   2.530
 6801TIP3   OH220366   0.389   1.723   0.392
 6801TIP3    H120367   0.360   1.679   0.312
 6801TIP3    H220368   0.308   1.740   0.441
 6802TIP3   OH220369   1.670   5.751   0.646
 6802TIP3    H120370   1.671   5.750   0.550
 6802TIP3    H220371   1.759   5.775   0.671
 6803TIP3   OH220372   5.263   6.462   5.357
 6803TIP3    H120373   5.220   6.378   5.343
 6803TIP3    H220374   5.204   6.527   5.319
 6804TIP3   OH220375   2.317   4.731   0.724
 6804TIP3    H120376   2.222   4.739   0.717
 6804TIP3    H220377   2.331   4.672   0.798
 6805TIP3   OH220378   1.887   1.902   2.031
 6805TIP3    H120379   1.961   1.844   2.013
 6805TIP3    H220380   1.882   1.907   2.126
 6806TIP3   OH220381   4.844   3.906   3.336
 6806TIP3    H120382   4.880   3.863   3.414
 6806TIP3    H220383   4.750   3.915   3.355
 6807TIP3   OH220384   6.368   2.882   4.043
 6807TIP3    H120385   6.328   2.969   4.040
 6807TIP3    H220386   6.296   2.824   4.067
 6808TIP3   OH220387   3.832   3.434   5.216
 6808TIP3    H120388   3.850   3.486   5.295
 6808TIP3    H220389   3.744   3.398   5.231
 6809TIP3   OH220390   3.056   6.249   2.013
 6809TIP3    H120391   3.074   6.192   1.938
 6809TIP3    H220392   3.032   6.333   1.974
 6810TIP3   OH220393   0.348   4.479   1.476
 6810TIP3    H120394   0.365   4.573   1.477
 6810TIP3    H220395   0.308   4.462   1.391
 6811TIP3   OH220396   5.688   2.870   3.256
 6811TIP3    H120397   5.595   2.888   3.272
 6811TIP3    H220398   5.730   2.885   3.341
 6812TIP3   OH220399   0.586   0.671   5.539
 6812TIP3    H120400   0.555   0.622   5.462
 6812TIP3    H220401   0.583   0.762   5.511
 6813TIP3   OH220402   6.813   4.181   4.429
 6813TIP3    H120403   6.812   4.170   4.334
 6813TIP3    H220404   6.760   4.259   4.445
 6814TIP3   OH220405   5.569   4.867   4.638
 6814TIP3    H120406   5.616   4.812   4.575
 6814TIP3    H220407   5.524   4.932   4.584
 6815TIP3   OH220408   1.744   3.871   5.622
 6815TIP3    H120409   1.720   3.846   5.711
 6815TIP3    H220410   1.839   3.884   5.625
 6816TIP3   OH220411   6.577   0.042   4.466
 6816TIP3    H120412   6.493   0.075   4.497
 6816TIP3    H220413   6.636   0.117   4.472
 6817TIP3   OH220414   0.594   6.803   1.752
 6817TIP3    H120415   0.552   6.719   1.735
 6817TIP3    H220416   0.677   6.799   1.705
 6818TIP3   OH220417   4.044   2.443   5.567
 6818TIP3    H120418   4.054   2.507   5.637
 6818TIP3    H220419   3.972   2.477   5.514
 6819TIP3   OH220420   1.279   5.839   0.960
 6819TIP3    H120421   1.309   5.770   1.020
 6819TIP3    H220422   1.359   5.867   0.915
 6820TIP3   OH220423   6.751   0.381   4.911
 6820TIP3    H120424   6.685   0.326   4.871
 6820TIP3    H220425   6.774   0.444   4.842
 6821TIP3   OH220426   3.244   6.417   2.421
 6821TIP3    H120427   3.216   6.506   2.400
 6821TIP3    H220428   3.174   6.382   2.477
 6822TIP3   OH220429   6.530   6.639   1.171
 6822TIP3    H120430   6.586   6.655   1.247
 6822TIP3    H220431   6.498   6.726   1.146
 6823TIP3   OH220432   5.272   6.601   3.847
 6823TIP3    H120433   5.248   6.509   3.857
 6823TIP3    H220434   5.365   6.603   3.870
 6824TIP3   OH220435   6.890   1.489   1.814
 6824TIP3    H120436   6.972   1.477   1.862
 6824TIP3    H220437   6.822   1.460   1.875
 6825TIP3   OH220438   0.759   4.478   3.885
 6825TIP3    H120439   0.774   4.568   3.859
 6825TIP3    H220440   0.787   4.473   3.976
 6826TIP3   OH220441   2.195   3.176   1.682
 6826TIP3    H120442   2.249   3.098   1.666
 6826TIP3    H220443   2.137   3.181   1.606
 6827TIP3   OH220444   5.027   1.779   4.766
 6827TIP3    H120445   4.974   1.704   4.739
 6827TIP3    H220446   5.077   1.803   4.688
 6828TIP3   OH220447   4.124   0.305   0.788
 6828TIP3    H120448   4.156   0.318   0.878
 6828TIP3    H220449   4.032   0.281   0.799
 6829TIP3   OH220450   4.212   5.384   3.415
 6829TIP3    H120451   4.294   5.336   3.431
 6829TIP3    H220452   4.221   5.464   3.467
 6830TIP3   OH220453   5.741   3.234   3.481
 6830TIP3    H120454   5.668   3.293   3.502
 6830TIP3    H220455   5.751   3.179   3.558
 6831TIP3   OH220456   4.932   5.091   2.719
 6831TIP3    H120457   4.904   5.106   2.629
 6831TIP3    H220458   5.026   5.077   2.713
 6832TIP3   OH220459   6.763   0.702   0.771
 6832TIP3    H120460   6.699   0.773   0.767
 6832TIP3    H220461   6.841   0.742   0.808
 6833TIP3   OH220462   1.348   1.609   5.137
 6833TIP3    H120463   1.441   1.631   5.134
 6833TIP3    H220464   1.317   1.647   5.219
 6834TIP3   OH220465   1.254   2.993   0.567
 6834TIP3    H120466   1.318   2.932   0.532
 6834TIP3    H220467   1.175   2.940   0.581
 6835TIP3   OH220468   3.443   3.416   4.634
 6835TIP3    H120469   3.465   3.398   4.725
 6835TIP3    H220470   3.437   3.330   4.592
 6836TIP3   OH220471   2.218   0.934   4.903
 6836TIP3    H120472   2.222   0.996   4.976
 6836TIP3    H220473   2.262   0.978   4.831
 6837TIP3   OH220474   0.172   1.707   1.187
 6837TIP3    H120475   0.147   1.664   1.269
 6837TIP3    H220476   0.268   1.708   1.189
 6838TIP3   OH220477   6.595   1.084   1.512
 6838TIP3    H120478   6.648   1.026   1.566
 6838TIP3    H220479   6.627   1.172   1.533
 6839TIP3   OH220480   3.187   1.161   2.790
 6839TIP3    H120481   3.112   1.165   2.849
 6839TIP3    H220482   3.228   1.247   2.797
 6840TIP3   OH220483   1.644   0.305   0.156
 6840TIP3    H120484   1.697   0.226   0.149
 6840TIP3    H220485   1.563   0.284   0.110
 6841TIP3   OH220486   0.670   4.991   1.078
 6841TIP3    H120487   0.660   4.944   0.995
 6841TIP3    H220488   0.696   5.080   1.053
 6842TIP3   OH220489   1.704   3.544   5.083
 6842TIP3    H120490   1.651   3.510   5.155
 6842TIP3    H220491   1.788   3.565   5.123
 6843TIP3   OH220492   6.335   2.664   1.487
 6843TIP3    H120493   6.424   2.630   1.495
 6843TIP3    H220494   6.341   2.731   1.419
 6844TIP3   OH220495   3.288   0.086   3.856
 6844TIP3    H120496   3.288   0.018   3.923
 6844TIP3    H220497   3.342   0.050   3.786
 6845TIP3   OH220498   3.618   1.629   5.449
 6845TIP3    H120499   3.676   1.666   5.516
 6845TIP3    H220500   3.530   1.658   5.475
 6846TIP3   OH220501   6.865   5.599   4.119
 6846TIP3    H120502   6.939   5.632   4.171
 6846TIP3    H220503   6.850   5.666   4.053
 6847TIP3   OH220504   2.415   0.642   3.895
 6847TIP3    H120505   2.477   0.713   3.886
 6847TIP3    H220506   2.363   0.665   3.972
 6848TIP3   OH220507   3.731   6.388   4.642
 6848TIP3    H120508   3.795   6.430   4.584
 6848TIP3    H220509   3.782   6.325   4.693
 6849TIP3   OH220510   5.903   3.112   4.213
 6849TIP3    H120511   5.976   3.131   4.273
 6849TIP3    H220512   5.843   3.186   4.223
 6850TIP3   OH220513   7.235   4.810   3.945
 6850TIP3    H120514   7.147   4.827   3.978
 6850TIP3    H220515   7.238   4.855   3.860
 6851TIP3   OH220516   5.964   1.441   4.171
 6851TIP3    H120517   5.909   1.465   4.097
 6851TIP3    H220518   6.040   1.398   4.131
 6852TIP3   OH220519   6.382   3.201   4.886
 6852TIP3    H120520   6.426   3.207   4.971
 6852TIP3    H220521   6.447   3.163   4.827
 6853TIP3   OH220522   0.964   6.420   4.068
 6853TIP3    H120523   1.030   6.435   4.135
 6853TIP3    H220524   0.979   6.330   4.039
 6854TIP3   OH220525   3.530   4.971   0.157
 6854TIP3    H120526   3.456   5.017   0.115
 6854TIP3    H220527   3.534   4.887   0.113
 6855TIP3   OH220528   1.315   2.912   1.824
 6855TIP3    H120529   1.367   2.841   1.786
 6855TIP3    H220530   1.348   2.991   1.781
 6856TIP3   OH220531   0.469   1.863   0.761
 6856TIP3    H120532   0.376   1.882   0.768
 6856TIP3    H220533   0.508   1.943   0.727
 6857TIP3   OH220534   1.508   5.429   1.140
 6857TIP3    H120535   1.432   5.383   1.105
 6857TIP3    H220536   1.575   5.418   1.072
 6858TIP3   OH220537   0.592   1.725   2.280
 6858TIP3    H120538   0.544   1.656   2.324
 6858TIP3    H220539   0.665   1.679   2.237
 6859TIP3   OH220540   7.128   1.477   1.920
 6859TIP3    H120541   7.157   1.504   1.833
 6859TIP3    H220542   7.208   1.443   1.962
 6860TIP3   OH220543   6.447   6.154   4.423
 6860TIP3    H120544   6.499   6.173   4.501
 6860TIP3    H220545   6.495   6.197   4.351
 6861TIP3   OH220546   3.588   1.260   2.469
 6861TIP3    H120547   3.573   1.330   2.533
 6861TIP3    H220548   3.682   1.263   2.453
 6862TIP3   OH220549   2.729   6.562   0.834
 6862TIP3    H120550   2.698   6.652   0.835
 6862TIP3    H220551   2.742   6.542   0.741
 6863TIP3   OH220552   0.070   1.024   2.058
 6863TIP3    H120553   0.043   0.955   1.997
 6863TIP3    H220554   0.164   1.033   2.044
 6864TIP3   OH220555   1.649   4.818   3.251
 6864TIP3    H120556   1.727   4.844   3.299
 6864TIP3    H220557   1.588   4.788   3.319
 6865TIP3   OH220558   3.060   2.436   2.956
 6865TIP3    H120559   3.146   2.395   2.943
 6865TIP3    H220560   3.062   2.467   3.047
 6866TIP3   OH220561   5.110   2.084   5.136
 6866TIP3    H120562   5.062   2.012   5.178
 6866TIP3    H220563   5.051   2.159   5.144
 6867TIP3   OH220564   2.173   5.683   0.217
 6867TIP3    H120565   2.147   5.647   0.132
 6867TIP3    H220566   2.258   5.725   0.200
 6868TIP3   OH220567   3.480   6.598   2.802
 6868TIP3    H120568   3.394   6.638   2.796
 6868TIP3    H220569   3.537   6.669   2.831
 6869TIP3   OH220570   4.962   4.604   5.092
 6869TIP3    H120571   4.985   4.682   5.143
 6869TIP3    H220572   4.918   4.638   5.014
 6870TIP3   OH220573   2.116   4.837   0.282
 6870TIP3    H120574   2.136   4.905   0.218
 6870TIP3    H220575   2.195   4.831   0.335
 6871TIP3   OH220576   4.503   0.955   2.395
 6871TIP3    H120577   4.545   1.004   2.466
 6871TIP3    H220578   4.481   1.022   2.330
 6872TIP3   OH220579   0.056   6.157   0.388
 6872TIP3    H120580  -0.036   6.175   0.407
 6872TIP3    H220581   0.075   6.077   0.437
 6873TIP3   OH220582   6.993   4.783   1.336
 6873TIP3    H120583   6.937   4.860   1.330
 6873TIP3    H220584   7.027   4.772   1.247
 6874TIP3   OH220585   7.087   2.837   4.726
 6874TIP3    H120586   7.090   2.808   4.817
 6874TIP3    H220587   7.139   2.918   4.726
 6875TIP3   OH220588   5.486   2.144   1.520
 6875TIP3    H120589   5.495   2.056   1.556
 6875TIP3    H220590   5.492   2.201   1.596
 6876TIP3   OH220591   5.773   4.495   5.770
 6876TIP3    H120592   5.805   4.445   5.846
 6876TIP3    H220593   5.826   4.464   5.697
 6877TIP3   OH220594   0.193   1.321   5.161
 6877TIP3    H120595   0.192   1.240   5.211
 6877TIP3    H220596   0.284   1.330   5.132
 6878TIP3   OH220597   4.217   4.054   2.440
 6878TIP3    H120598   4.286   4.095   2.388
 6878TIP3    H220599   4.246   4.064   2.530
 6879TIP3   OH220600   1.282   1.018   4.061
 6879TIP3    H120601   1.283   1.104   4.020
 6879TIP3    H220602   1.306   0.957   3.991
 6880TIP3   OH220603   3.014   5.621   4.947
 6880TIP3    H120604   2.964   5.700   4.926
 6880TIP3    H220605   3.025   5.624   5.042
 6881TIP3   OH220606   5.244   4.765   0.359
 6881TIP3    H120607   5.321   4.806   0.398
 6881TIP3    H220608   5.169   4.810   0.400
 6882TIP3   OH220609   0.969   1.810   2.808
 6882TIP3    H120610   0.976   1.735   2.867
 6882TIP3    H220611   0.919   1.875   2.858
 6883TIP3   OH220612   7.207   2.823   3.893
 6883TIP3    H120613   7.140   2.890   3.908
 6883TIP3    H220614   7.266   2.830   3.968
 6884TIP3   OH220615   2.507   3.161   5.172
 6884TIP3    H120616   2.564   3.125   5.240
 6884TIP3    H220617   2.464   3.236   5.214
 6885TIP3   OH220618   3.282   0.271   5.820
 6885TIP3    H120619   3.301   0.299   5.910
 6885TIP3    H220620   3.187   0.277   5.813
 6886TIP3   OH220621   2.009   1.986   1.797
 6886TIP3    H120622   1.914   1.987   1.810
 6886TIP3    H220623   2.040   2.066   1.840
 6887TIP3   OH220624   1.922   4.523   0.016
 6887TIP3    H120625   1.884   4.445  -0.024
 6887TIP3    H220626   2.016   4.506   0.019
 6888TIP3   OH220627   0.083   5.035   5.760
 6888TIP3    H120628   0.030   5.010   5.685
 6888TIP3    H220629   0.022   5.040   5.833
 6889TIP3   OH220630   0.197   4.215   4.427
 6889TIP3    H120631   0.130   4.274   4.461
 6889TIP3    H220632   0.212   4.244   4.337
 6890TIP3   OH220633   4.484   2.348   4.916
 6890TIP3    H120634   4.554   2.398   4.874
 6890TIP3    H220635   4.526   2.308   4.992
 6891TIP3   OH220636   0.844   2.010   0.526
 6891TIP3    H120637   0.856   2.042   0.615
 6891TIP3    H220638   0.762   1.961   0.529
 6892TIP3   OH220639   3.550   3.863   2.902
 6892TIP3    H120640   3.460   3.894   2.912
 6892TIP3    H220641   3.595   3.893   2.981
 6893TIP3   OH220642   4.964   2.144   0.704
 6893TIP3    H120643   4.906   2.087   0.653
 6893TIP3    H220644   4.946   2.121   0.795
 6894TIP3   OH220645   7.015   3.375   5.222
 6894TIP3    H120646   7.060   3.318   5.160
 6894TIP3    H220647   7.061   3.459   5.214
 6895TIP3   OH220648   5.898   5.197   2.001
 6895TIP3    H120649   5.982   5.231   1.970
 6895TIP3    H220650   5.875   5.129   1.938
 6896TIP3   OH220651   0.891   4.736   0.426
 6896TIP3    H120652   0.953   4.756   0.496
 6896TIP3    H220653   0.939   4.682   0.365
 6897TIP3   OH220654   4.874   3.146   3.786
 6897TIP3    H120655   4.863   3.200   3.708
 6897TIP3    H220656   4.802   3.172   3.843
 6898TIP3   OH220657   5.580   0.292   4.103
 6898TIP3    H120658   5.565   0.362   4.040
 6898TIP3    H220659   5.607   0.217   4.050
 6899TIP3   OH220660   3.668   5.364   2.618
 6899TIP3    H120661   3.613   5.293   2.651
 6899TIP3    H220662   3.606   5.430   2.587
 6900TIP3   OH220663   6.714   0.540   3.937
 6900TIP3    H120664   6.804   0.510   3.922
 6900TIP3    H220665   6.721   0.636   3.935
 6901TIP3   OH220666   1.853   0.116   5.430
 6901TIP3    H120667   1.925   0.087   5.373
 6901TIP3    H220668   1.826   0.200   5.393
 6902TIP3   OH220669   3.645   1.796   4.455
 6902TIP3    H120670   3.566   1.848   4.470
 6902TIP3    H220671   3.615   1.720   4.406
 6903TIP3   OH220672   5.291   0.882   4.303
 6903TIP3    H120673   5.287   0.958   4.244
 6903TIP3    H220674   5.356   0.906   4.369
 6904TIP3   OH220675   3.876   5.549   2.530
 6904TIP3    H120676   3.821   5.611   2.483
 6904TIP3    H220677   3.820   5.473   2.544
 6905TIP3   OH220678   5.894   2.051   1.601
 6905TIP3    H120679   5.852   2.022   1.682
 6905TIP3    H220680   5.869   1.986   1.536
 6906TIP3   OH220681   3.676   4.376   2.507
 6906TIP3    H120682   3.735   4.444   2.539
 6906TIP3    H220683   3.618   4.358   2.581
 6907TIP3   OH220684   3.835   0.771   2.052
 6907TIP3    H120685   3.743   0.744   2.053
 6907TIP3    H220686   3.879   0.705   1.999
 6908TIP3   OH220687   2.583   6.690   1.828
 6908TIP3    H120688   2.637   6.744   1.769
 6908TIP3    H220689   2.647   6.647   1.885
 6909TIP3   OH220690   0.088   4.592   2.633
 6909TIP3    H120691   0.024   4.648   2.677
 6909TIP3    H220692   0.050   4.573   2.548
 6910TIP3   OH220693   1.866   0.602   0.609
 6910TIP3    H120694   1.863   0.508   0.595
 6910TIP3    H220695   1.859   0.613   0.703
 6911TIP3   OH220696   2.971   3.097   2.358
 6911TIP3    H120697   2.876   3.096   2.372
 6911TIP3    H220698   3.007   3.065   2.441
 6912TIP3   OH220699   2.905   0.687   1.319
 6912TIP3    H120700   2.856   0.628   1.375
 6912TIP3    H220701   2.980   0.715   1.372
 6913TIP3   OH220702   7.097   6.261   1.488
 6913TIP3    H120703   7.069   6.173   1.462
 6913TIP3    H220704   7.175   6.278   1.437
 6914TIP3   OH220705   5.665   5.327   3.507
 6914TIP3    H120706   5.673   5.374   3.591
 6914TIP3    H220707   5.592   5.266   3.521
 6915TIP3   OH220708   6.888   2.938   1.378
 6915TIP3    H120709   6.900   2.854   1.333
 6915TIP3    H220710   6.965   2.989   1.353
 6916TIP3   OH220711   1.524   5.095   2.588
 6916TIP3    H120712   1.433   5.098   2.619
 6916TIP3    H220713   1.530   5.014   2.537
 6917TIP3   OH220714   3.806   0.318   2.437
 6917TIP3    H120715   3.757   0.281   2.363
 6917TIP3    H220716   3.751   0.301   2.513
 6918TIP3   OH220717   4.665   3.410   4.612
 6918TIP3    H120718   4.615   3.475   4.662
 6918TIP3    H220719   4.739   3.388   4.669
 6919TIP3   OH220720   6.498   1.704   4.026
 6919TIP3    H120721   6.476   1.697   4.119
 6919TIP3    H220722   6.578   1.652   4.016
 6920TIP3   OH220723   5.107   3.137   1.225
 6920TIP3    H120724   5.200   3.161   1.222
 6920TIP3    H220725   5.096   3.095   1.311
 6921TIP3   OH220726   3.908   5.326   2.776
 6921TIP3    H120727   3.817   5.339   2.750
 6921TIP3    H220728   3.902   5.273   2.856
 6922TIP3   OH220729   6.900   4.107   0.950
 6922TIP3    H120730   6.876   4.082   0.861
 6922TIP3    H220731   6.838   4.060   1.006
 6923TIP3   OH220732   5.907   3.475   4.656
 6923TIP3    H120733   5.885   3.499   4.566
 6923TIP3    H220734   5.882   3.552   4.708
 6924TIP3   OH220735   5.773   2.825   5.416
 6924TIP3    H120736   5.802   2.734   5.409
 6924TIP3    H220737   5.725   2.841   5.334
 6925TIP3   OH220738   1.975   0.768   4.029
 6925TIP3    H120739   2.003   0.803   4.114
 6925TIP3    H220740   1.983   0.842   3.969
 6926TIP3   OH220741   5.771   2.730   4.247
 6926TIP3    H120742   5.837   2.676   4.203
 6926TIP3    H220743   5.818   2.768   4.322
 6927TIP3   OH220744   1.083   5.989   1.825
 6927TIP3    H120745   1.167   5.990   1.778
 6927TIP3    H220746   1.102   6.030   1.909
 6928TIP3   OH220747   5.821   3.679   4.826
 6928TIP3    H120748   5.740   3.731   4.832
 6928TIP3    H220749   5.881   3.723   4.886
 6929TIP3   OH220750   3.940   0.847   0.823
 6929TIP3    H120751   3.879   0.906   0.779
 6929TIP3    H220752   3.884   0.792   0.879
 6930TIP3   OH220753   4.489  -0.004   3.778
 6930TIP3    H120754   4.455   0.075   3.736
 6930TIP3    H220755   4.536  -0.050   3.708
 6931TIP3   OH220756   5.480   2.177   4.500
 6931TIP3    H120757   5.525   2.258   4.525
 6931TIP3    H220758   5.530   2.144   4.425
 6932TIP3   OH220759   5.246   3.837   5.204
 6932TIP3    H120760   5.235   3.826   5.299
 6932TIP3    H220761   5.215   3.754   5.167
 6933TIP3   OH220762   6.742   3.536   0.428
 6933TIP3    H120763   6.687   3.532   0.350
 6933TIP3    H220764   6.810   3.469   0.413
 6934TIP3   OH220765   6.128   5.022   0.612
 6934TIP3    H120766   6.177   5.014   0.531
 6934TIP3    H220767   6.151   5.108   0.646
 6935TIP3   OH220768   2.063   4.416   5.775
 6935TIP3    H120769   2.005   4.488   5.750
 6935TIP3    H220770   2.023   4.380   5.855
 6936TIP3   OH220771   2.037   1.346   4.899
 6936TIP3    H120772   2.054   1.312   4.986
 6936TIP3    H220773   2.067   1.277   4.840
 6937TIP3   OH220774   3.367   2.714   1.570
 6937TIP3    H120775   3.285   2.733   1.524
 6937TIP3    H220776   3.383   2.792   1.624
 6938TIP3   OH220777   6.717   6.193   2.198
 6938TIP3    H120778   6.668   6.171   2.120
 6938TIP3    H220779   6.652   6.193   2.269
 6939TIP3   OH220780   0.310   4.353   5.196
 6939TIP3    H120781   0.217   4.373   5.188
 6939TIP3    H220782   0.331   4.303   5.117
 6940TIP3   OH220783   4.355   1.784   5.494
 6940TIP3    H120784   4.373   1.840   5.570
 6940TIP3    H220785   4.438   1.742   5.476
 6941TIP3   OH220786   6.851   1.692   1.372
 6941TIP3    H120787   6.768   1.659   1.336
 6941TIP3    H220788   6.832   1.708   1.465
 6942TIP3   OH220789   5.437   6.193   3.761
 6942TIP3    H120790   5.498   6.144   3.816
 6942TIP3    H220791   5.429   6.141   3.681
 6943TIP3   OH220792   3.442   5.470   0.880
 6943TIP3    H120793   3.489   5.516   0.810
 6943TIP3    H220794   3.509   5.449   0.945
 6944TIP3   OH220795   5.691   6.203   0.948
 6944TIP3    H120796   5.717   6.187   0.858
 6944TIP3    H220797   5.596   6.218   0.943
 6945TIP3   OH220798   3.116   1.206   1.221
 6945TIP3    H120799   3.088   1.272   1.157
 6945TIP3    H220800   3.205   1.182   1.194
 6946TIP3   OH220801   6.027   3.539   2.433
 6946TIP3    H120802   6.104   3.584   2.467
 6946TIP3    H220803   5.954   3.578   2.480
 6947TIP3   OH220804   6.109   3.206   1.705
 6947TIP3    H120805   6.028   3.176   1.747
 6947TIP3    H220806   6.153   3.125   1.679
 6948TIP3   OH220807   3.849   6.606   1.403
 6948TIP3    H120808   3.868   6.564   1.319
 6948TIP3    H220809   3.753   6.616   1.403
 6949TIP3   OH220810   2.843   6.575   3.401
 6949TIP3    H120811   2.858   6.503   3.462
 6949TIP3    H220812   2.771   6.545   3.346
 6950TIP3   OH220813   1.991   3.370   1.814
 6950TIP3    H120814   1.916   3.391   1.757
 6950TIP3    H220815   2.052   3.324   1.757
 6951TIP3   OH220816   2.412   3.763   4.065
 6951TIP3    H120817   2.490   3.818   4.055
 6951TIP3    H220818   2.386   3.776   4.157
 6952TIP3   OH220819   1.706   4.562   2.736
 6952TIP3    H120820   1.638   4.549   2.671
 6952TIP3    H220821   1.785   4.580   2.685
 6953TIP3   OH220822   6.393   0.187   1.858
 6953TIP3    H120823   6.345   0.269   1.868
 6953TIP3    H220824   6.333   0.119   1.892
 6954TIP3   OH220825   2.597   4.282   1.960
 6954TIP3    H120826   2.540   4.355   1.985
 6954TIP3    H220827   2.609   4.292   1.866
 6955TIP3   OH220828   3.002   4.398   0.351
 6955TIP3    H120829   2.939   4.347   0.299
 6955TIP3    H220830   3.087   4.376   0.312
 6956TIP3   OH220831   3.114   3.683   4.337
 6956TIP3    H120832   3.150   3.646   4.256
 6956TIP3    H220833   3.039   3.735   4.308
 6957TIP3   OH220834   0.044   3.991   3.093
 6957TIP3    H120835   0.117   4.027   3.144
 6957TIP3    H220836   0.084   3.964   3.010
 6958TIP3   OH220837   5.016   0.777   3.264
 6958TIP3    H120838   4.936   0.725   3.260
 6958TIP3    H220839   5.003   0.837   3.336
 6959TIP3   OH220840   1.646   3.120   0.978
 6959TIP3    H120841   1.585   3.124   0.904
 6959TIP3    H220842   1.699   3.199   0.969
 6960TIP3   OH220843   0.803   1.126   2.642
 6960TIP3    H120844   0.760   1.149   2.560
 6960TIP3    H220845   0.738   1.147   2.710
 6961TIP3   OH220846   6.693   2.432   4.479
 6961TIP3    H120847   6.711   2.490   4.404
 6961TIP3    H220848   6.702   2.344   4.444
 6962TIP3   OH220849   6.888   6.698   4.346
 6962TIP3    H120850   6.803   6.743   4.354
 6962TIP3    H220851   6.938   6.753   4.285
 6963TIP3   OH220852   5.236   0.768   4.691
 6963TIP3    H120853   5.183   0.689   4.700
 6963TIP3    H220854   5.325   0.735   4.679
 6964TIP3   OH220855   1.189   3.085   2.859
 6964TIP3    H120856   1.142   3.078   2.943
 6964TIP3    H220857   1.226   2.998   2.845
 6965TIP3   OH220858   0.591   3.564   5.110
 6965TIP3    H120859   0.548   3.604   5.186
 6965TIP3    H220860   0.609   3.474   5.137
 6966TIP3   OH220861   4.893   1.007   5.075
 6966TIP3    H120862   4.814   0.990   5.024
 6966TIP3    H220863   4.923   0.921   5.103
 6967TIP3   OH220864   0.607   4.352   4.670
 6967TIP3    H120865   0.555   4.410   4.726
 6967TIP3    H220866   0.549   4.330   4.598
 6968TIP3   OH220867   6.151   3.560   3.309
 6968TIP3    H120868   6.109   3.605   3.236
 6968TIP3    H220869   6.078   3.529   3.363
 6969TIP3   OH220870   4.337   1.153   3.604
 6969TIP3    H120871   4.382   1.070   3.587
 6969TIP3    H220872   4.403   1.220   3.590
 6970TIP3   OH220873   4.010   3.039   1.764
 6970TIP3    H120874   3.977   3.115   1.812
 6970TIP3    H220875   4.087   3.011   1.814
 6971TIP3   OH220876   3.715   0.198   4.417
 6971TIP3    H120877   3.780   0.251   4.464
 6971TIP3    H220878   3.646   0.183   4.482
 6972TIP3   OH220879   4.795   2.115   5.496
 6972TIP3    H120880   4.851   2.038   5.492
 6972TIP3    H220881   4.746   2.114   5.414
 6973TIP3   OH220882   0.909   3.726   5.866
 6973TIP3    H120883   0.919   3.798   5.803
 6973TIP3    H220884   0.938   3.648   5.819
 6974TIP3   OH220885   2.914   4.318   5.139
 6974TIP3    H120886   2.962   4.358   5.066
 6974TIP3    H220887   2.832   4.288   5.101
 6975TIP3   OH220888   0.210   3.092   2.938
 6975TIP3    H120889   0.178   3.127   2.854
 6975TIP3    H220890   0.222   2.999   2.921
 6976TIP3   OH220891   0.798   6.718   2.740
 6976TIP3    H120892   0.886   6.684   2.726
 6976TIP3    H220893   0.760   6.660   2.806
 6977TIP3   OH220894   5.103   2.466   3.704
 6977TIP3    H120895   5.188   2.511   3.700
 6977TIP3    H220896   5.098   2.418   3.621
 6978TIP3   OH220897   4.750   5.946   0.351
 6978TIP3    H120898   4.714   5.857   0.354
 6978TIP3    H220899   4.815   5.948   0.421
 6979TIP3   OH220900   4.404   0.667   3.434
 6979TIP3    H120901   4.319   0.674   3.476
 6979TIP3    H220902   4.450   0.599   3.483
 6980TIP3   OH220903   1.231   2.741   1.503
 6980TIP3    H120904   1.172   2.806   1.465
 6980TIP3    H220905   1.314   2.787   1.513
 6981TIP3   OH220906   0.169   3.371   5.382
 6981TIP3    H120907   0.132   3.312   5.448
 6981TIP3    H220908   0.231   3.317   5.333
 6982TIP3   OH220909   0.437   4.745   1.513
 6982TIP3    H120910   0.392   4.823   1.546
 6982TIP3    H220911   0.502   4.780   1.452
 6983TIP3   OH220912   6.761   1.306   2.362
 6983TIP3    H120913   6.758   1.270   2.450
 6983TIP3    H220914   6.734   1.397   2.372
 6984TIP3   OH220915   2.739   6.332   2.878
 6984TIP3    H120916   2.696   6.417   2.876
 6984TIP3    H220917   2.800   6.337   2.952
 6985TIP3   OH220918   5.369   6.262   4.229
 6985TIP3    H120919   5.407   6.324   4.292
 6985TIP3    H220920   5.389   6.176   4.265
 6986TIP3   OH220921   1.358   4.297   4.270
 6986TIP3    H120922   1.399   4.237   4.332
 6986TIP3    H220923   1.326   4.240   4.199
 6987TIP3   OH220924   1.525   1.023   1.718
 6987TIP3    H120925   1.564   1.110   1.708
 6987TIP3    H220926   1.573   0.968   1.657
 6988TIP3   OH220927   6.403   1.562   5.178
 6988TIP3    H120928   6.400   1.522   5.092
 6988TIP3    H220929   6.494   1.551   5.207
 6989TIP3   OH220930   3.274   1.145   3.714
 6989TIP3    H120931   3.356   1.096   3.725
 6989TIP3    H220932   3.302   1.237   3.706
 6990TIP3   OH220933   2.403   6.181   1.604
 6990TIP3    H120934   2.443   6.268   1.607
 6990TIP3    H220935   2.415   6.146   1.692
 6991TIP3   OH220936   5.041   2.708   5.229
 6991TIP3    H120937   5.042   2.694   5.134
 6991TIP3    H220938   4.979   2.644   5.262
 6992TIP3   OH220939   0.557   5.407   2.672
 6992TIP3    H120940   0.541   5.343   2.603
 6992TIP3    H220941   0.651   5.425   2.667
 6993TIP3   OH220942   0.791   0.058   4.938
 6993TIP3    H120943   0.743  -0.021   4.911
 6993TIP3    H220944   0.873   0.025   4.974
 6994TIP3   OH220945  -0.003   5.773   0.198
 6994TIP3    H120946   0.005   5.695   0.143
 6994TIP3    H220947  -0.066   5.828   0.152
 6995TIP3   OH220948   1.905   1.975   1.487
 6995TIP3    H120949   1.978   2.037   1.481
 6995TIP3    H220950   1.889   1.948   1.396
 6996TIP3   OH220951   1.552   2.416   4.454
 6996TIP3    H120952   1.564   2.476   4.380
 6996TIP3    H220953   1.535   2.473   4.529
 6997TIP3   OH220954   2.706   1.946   4.261
 6997TIP3    H120955   2.649   2.022   4.250
 6997TIP3    H220956   2.646   1.871   4.265
 6998TIP3   OH220957   0.501   5.144   2.922
 6998TIP3    H120958   0.478   5.237   2.928
 6998TIP3    H220959   0.417   5.098   2.930
 6999TIP3   OH220960   5.758   0.220   3.737
 6999TIP3    H120961   5.853   0.208   3.728
 6999TIP3    H220962   5.745   0.315   3.732
 7000TIP3   OH220963   5.007   5.355   1.306
 7000TIP3    H120964   4.948   5.333   1.234
 7000TIP3    H220965   5.088   5.381   1.263
 7001TIP3   OH220966   7.105   5.916   5.419
 7001TIP3    H120967   7.044   5.988   5.404
 7001TIP3    H220968   7.111   5.909   5.514
 7002TIP3   OH220969   1.025   6.714   3.176
 7002TIP3    H120970   1.037   6.791   3.232
 7002TIP3    H220971   1.108   6.668   3.181
 7003TIP3   OH220972   2.768   6.641   2.536
 7003TIP3    H120973   2.796   6.583   2.607
 7003TIP3    H220974   2.732   6.581   2.470
 7004TIP3   OH220975   4.231   6.572   2.032
 7004TIP3    H120976   4.196   6.519   1.961
 7004TIP3    H220977   4.326   6.565   2.022
 7005TIP3   OH220978   3.382   1.118   1.163
 7005TIP3    H120979   3.435   1.164   1.229
 7005TIP3    H220980   3.422   1.143   1.080
 7006TIP3   OH220981   0.272   2.902   1.658
 7006TIP3    H120982   0.302   2.986   1.622
 7006TIP3    H220983   0.308   2.900   1.747
 7007TIP3   OH220984   2.603   3.286   4.469
 7007TIP3    H120985   2.547   3.300   4.545
 7007TIP3    H220986   2.683   3.335   4.489
 7008TIP3   OH220987   0.410   0.377   2.117
 7008TIP3    H120988   0.336   0.320   2.099
 7008TIP3    H220989   0.479   0.346   2.058
 7009TIP3   OH220990   0.643   2.051   5.779
 7009TIP3    H120991   0.613   1.961   5.771
 7009TIP3    H220992   0.646   2.068   5.873
 7010TIP3   OH220993   2.482   1.770   4.068
 7010TIP3    H120994   2.498   1.739   4.157
 7010TIP3    H220995   2.565   1.810   4.041
 7011TIP3   OH220996   6.833   6.441   1.942
 7011TIP3    H120997   6.744   6.473   1.932
 7011TIP3    H220998   6.887   6.506   1.896
 7012TIP3   OH220999   6.554   3.847   0.201
 7012TIP3    H121000   6.629   3.858   0.143
 7012TIP3    H221001   6.585   3.872   0.288
 7013TIP3   OH221002   4.782   4.824   2.945
 7013TIP3    H121003   4.832   4.860   3.019
 7013TIP3    H221004   4.792   4.729   2.954
 7014TIP3   OH221005   4.654   1.645   3.927
 7014TIP3    H121006   4.690   1.647   3.838
 7014TIP3    H221007   4.728   1.617   3.982
 7015TIP3   OH221008   1.987   4.047   3.026
 7015TIP3    H121009   1.990   4.017   3.117
 7015TIP3    H221010   1.924   3.989   2.983
 7016TIP3   OH221011   6.404   1.465   4.229
 7016TIP3    H121012   6.352   1.542   4.249
 7016TIP3    H221013   6.409   1.463   4.133
 7017TIP3   OH221014   2.136   5.840   1.731
 7017TIP3    H121015   2.089   5.830   1.648
 7017TIP3    H221016   2.108   5.925   1.765
 7018TIP3   OH221017   2.696   0.975   1.279
 7018TIP3    H121018   2.644   0.920   1.338
 7018TIP3    H221019   2.762   0.916   1.244
 7019TIP3   OH221020   1.315   3.377   0.543
 7019TIP3    H121021   1.376   3.405   0.475
 7019TIP3    H221022   1.366   3.383   0.624
 7020TIP3   OH221023   1.832   0.730   3.185
 7020TIP3    H121024   1.781   0.743   3.106
 7020TIP3    H221025   1.885   0.810   3.193
 7021TIP3   OH221026   5.284   2.578   1.954
 7021TIP3    H121027   5.312   2.669   1.960
 7021TIP3    H221028   5.229   2.564   2.031
 7022TIP3   OH221029   0.317   2.098   4.997
 7022TIP3    H121030   0.281   2.072   5.082
 7022TIP3    H221031   0.272   2.179   4.975
 7023TIP3   OH221032   4.389   0.625   4.259
 7023TIP3    H121033   4.455   0.670   4.313
 7023TIP3    H221034   4.343   0.568   4.320
 7024TIP3   OH221035   2.878   0.843   0.842
 7024TIP3    H121036   2.863   0.775   0.907
 7024TIP3    H221037   2.837   0.811   0.762
 7025TIP3   OH221038   4.920   0.050   3.011
 7025TIP3    H121039   4.970  -0.031   3.021
 7025TIP3    H221040   4.866   0.055   3.089
 7026TIP3   OH221041   4.629   0.366   4.107
 7026TIP3    H121042   4.645   0.352   4.200
 7026TIP3    H221043   4.589   0.284   4.077
 7027TIP3   OH221044   4.085   1.118   5.689
 7027TIP3    H121045   4.150   1.174   5.732
 7027TIP3    H221046   4.080   1.151   5.600
 7028TIP3   OH221047   2.216   2.861   4.917
 7028TIP3    H121048   2.280   2.791   4.929
 7028TIP3    H221049   2.267   2.937   4.891
 7029TIP3   OH221050   5.015   3.182   0.238
 7029TIP3    H121051   5.089   3.235   0.208
 7029TIP3    H221052   4.938   3.229   0.205
 7030TIP3   OH221053   0.164   4.682   1.803
 7030TIP3    H121054   0.117   4.764   1.821
 7030TIP3    H221055   0.095   4.619   1.782
 7031TIP3   OH221056   6.704   3.072   4.789
 7031TIP3    H121057   6.779   3.121   4.821
 7031TIP3    H221058   6.716   2.984   4.824
 7032TIP3   OH221059   3.853   5.233   2.415
 7032TIP3    H121060   3.874   5.210   2.506
 7032TIP3    H221061   3.776   5.290   2.422
 7033TIP3   OH221062   3.779   4.309   3.375
 7033TIP3    H121063   3.791   4.385   3.433
 7033TIP3    H221064   3.865   4.268   3.372
 7034TIP3   OH221065   4.794   0.924   4.513
 7034TIP3    H121066   4.888   0.918   4.530
 7034TIP3    H221067   4.779   0.869   4.436
 7035TIP3   OH221068   2.380   5.419   0.194
 7035TIP3    H121069   2.356   5.368   0.117
 7035TIP3    H221070   2.416   5.500   0.158
 7036TIP3   OH221071   5.021   5.506   2.820
 7036TIP3    H121072   4.930   5.534   2.823
 7036TIP3    H221073   5.053   5.519   2.909
 7037TIP3   OH221074   0.290   4.634   3.337
 7037TIP3    H121075   0.333   4.715   3.366
 7037TIP3    H221076   0.329   4.566   3.392
 7038TIP3   OH221077   4.742   0.730   5.235
 7038TIP3    H121078   4.761   0.638   5.214
 7038TIP3    H221079   4.660   0.749   5.190
 7039TIP3   OH221080   0.927   4.389   0.496
 7039TIP3    H121081   0.993   4.436   0.446
 7039TIP3    H221082   0.963   4.384   0.585
 7040TIP3   OH221083   4.817   3.598   4.192
 7040TIP3    H121084   4.738   3.587   4.247
 7040TIP3    H221085   4.838   3.691   4.199
 7041TIP3   OH221086   6.668   1.649   3.075
 7041TIP3    H121087   6.584   1.688   3.096
 7041TIP3    H221088   6.649   1.586   3.006
 7042TIP3   OH221089   5.354   5.859   1.868
 7042TIP3    H121090   5.345   5.820   1.955
 7042TIP3    H221091   5.314   5.796   1.808
 7043TIP3   OH221092   4.283   1.711   1.624
 7043TIP3    H121093   4.204   1.764   1.632
 7043TIP3    H221094   4.326   1.742   1.545
 7044TIP3   OH221095   6.792   4.424   2.374
 7044TIP3    H121096   6.820   4.515   2.371
 7044TIP3    H221097   6.697   4.427   2.362
 7045TIP3   OH221098   1.458   3.976   2.303
 7045TIP3    H121099   1.449   4.069   2.284
 7045TIP3    H221100   1.374   3.952   2.343
 7046TIP3   OH221101   4.858   2.443   3.051
 7046TIP3    H121102   4.863   2.347   3.056
 7046TIP3    H221103   4.878   2.464   2.960
 7047TIP3   OH221104   5.432   1.303   3.054
 7047TIP3    H121105   5.517   1.297   3.009
 7047TIP3    H221106   5.383   1.227   3.023
 7048TIP3   OH221107   0.358   1.797   5.302
 7048TIP3    H121108   0.277   1.818   5.349
 7048TIP3    H221109   0.339   1.818   5.211
 7049TIP3   OH221110   2.980   5.193   4.826
 7049TIP3    H121111   3.049   5.130   4.808
 7049TIP3    H221112   3.016   5.277   4.799
 7050TIP3   OH221113   0.785   1.559   2.194
 7050TIP3    H121114   0.842   1.494   2.152
 7050TIP3    H221115   0.831   1.585   2.273
 7051TIP3   OH221116   3.651   5.481   4.626
 7051TIP3    H121117   3.694   5.469   4.541
 7051TIP3    H221118   3.666   5.573   4.648
 7052TIP3   OH221119   4.859   1.587   4.657
 7052TIP3    H121120   4.879   1.503   4.617
 7052TIP3    H221121   4.764   1.593   4.654
 7053TIP3   OH221122   6.259   5.803   0.442
 7053TIP3    H121123   6.255   5.898   0.443
 7053TIP3    H221124   6.223   5.777   0.527
 7054TIP3   OH221125   0.040   5.637   5.503
 7054TIP3    H121126  -0.048   5.644   5.539
 7054TIP3    H221127   0.038   5.560   5.447
 7055TIP3   OH221128   1.074   2.988   2.098
 7055TIP3    H121129   1.005   2.923   2.108
 7055TIP3    H221130   1.154   2.937   2.088
 7056TIP3   OH221131   3.838   5.020   4.693
 7056TIP3    H121132   3.878   4.962   4.628
 7056TIP3    H221133   3.865   5.108   4.667
 7057TIP3   OH221134   4.024   4.131   1.675
 7057TIP3    H121135   3.962   4.072   1.630
 7057TIP3    H221136   4.058   4.078   1.747
 7058TIP3   OH221137   2.622   5.370   3.369
 7058TIP3    H121138   2.644   5.319   3.291
 7058TIP3    H221139   2.700   5.364   3.424
 7059TIP3   OH221140   4.399   2.633   5.405
 7059TIP3    H121141   4.402   2.726   5.381
 7059TIP3    H221142   4.437   2.630   5.493
 7060TIP3   OH221143   0.780   0.280   0.808
 7060TIP3    H121144   0.726   0.263   0.731
 7060TIP3    H221145   0.859   0.321   0.773
 7061TIP3   OH221146   5.366   5.448   5.422
 7061TIP3    H121147   5.454   5.421   5.396
 7061TIP3    H221148   5.377   5.489   5.508
 7062TIP3   OH221149   2.530   5.228   0.330
 7062TIP3    H121150   2.600   5.280   0.293
 7062TIP3    H221151   2.460   5.230   0.264
 7063TIP3   OH221152   2.165   4.146   0.189
 7063TIP3    H121153   2.128   4.192   0.114
 7063TIP3    H221154   2.241   4.100   0.155
 7064TIP3   OH221155   6.233   0.867   0.350
 7064TIP3    H121156   6.198   0.811   0.280
 7064TIP3    H221157   6.172   0.854   0.423
 7065TIP3   OH221158   6.137   2.006   0.531
 7065TIP3    H121159   6.153   2.030   0.622
 7065TIP3    H221160   6.047   2.034   0.514
 7066TIP3   OH221161   4.618   5.885   3.055
 7066TIP3    H121162   4.617   5.920   2.966
 7066TIP3    H221163   4.612   5.963   3.111
 7067TIP3   OH221164   3.755   0.583   2.412
 7067TIP3    H121165   3.796   0.592   2.326
 7067TIP3    H221166   3.776   0.494   2.439
 7068TIP3   OH221167   0.437   3.113   1.479
 7068TIP3    H121168   0.487   3.192   1.503
 7068TIP3    H221169   0.404   3.132   1.391
 7069TIP3   OH221170   2.804   5.399   4.982
 7069TIP3    H121171   2.858   5.477   4.971
 7069TIP3    H221172   2.814   5.350   4.901
 7070TIP3   OH221173   4.092   0.512   1.904
 7070TIP3    H121174   3.997   0.510   1.894
 7070TIP3    H221175   4.121   0.567   1.831
 7071TIP3   OH221176   6.663   2.841   4.122
 7071TIP3    H121177   6.658   2.746   4.124
 7071TIP3    H221178   6.573   2.870   4.110
 7072TIP3   OH221179   4.163   2.428   0.669
 7072TIP3    H121180   4.139   2.483   0.744
 7072TIP3    H221181   4.094   2.443   0.605
 7073TIP3   OH221182   6.293   0.143   3.284
 7073TIP3    H121183   6.293   0.121   3.191
 7073TIP3    H221184   6.225   0.210   3.293
 7074TIP3   OH221185   0.922   1.162   3.468
 7074TIP3    H121186   0.857   1.170   3.399
 7074TIP3    H221187   0.873   1.132   3.545
 7075TIP3   OH221188   2.606   3.297   2.971
 7075TIP3    H121189   2.642   3.331   2.889
 7075TIP3    H221190   2.682   3.277   3.024
 7076TIP3   OH221191   3.292   2.179   4.703
 7076TIP3    H121192   3.318   2.250   4.645
 7076TIP3    H221193   3.371   2.126   4.714
 7077TIP3   OH221194   5.577   6.677   1.486
 7077TIP3    H121195   5.624   6.742   1.539
 7077TIP3    H221196   5.575   6.715   1.398
 7078TIP3   OH221197   6.025   6.642   1.857
 7078TIP3    H121198   6.063   6.554   1.863
 7078TIP3    H221199   5.944   6.637   1.907
 7079TIP3   OH221200   6.767   6.510   0.268
 7079TIP3    H121201   6.694   6.538   0.324
 7079TIP3    H221202   6.840   6.566   0.295
 7080TIP3   OH221203   1.753   4.247   1.022
 7080TIP3    H121204   1.802   4.165   1.027
 7080TIP3    H221205   1.661   4.221   1.024
 7081TIP3   OH221206   6.917   3.265   5.440
 7081TIP3    H121207   6.963   3.311   5.370
 7081TIP3    H221208   6.851   3.212   5.395
 7082TIP3   OH221209   3.757   1.921   1.244
 7082TIP3    H121210   3.839   1.955   1.209
 7082TIP3    H221211   3.689   1.955   1.185
 7083TIP3   OH221212   6.693   2.943   3.647
 7083TIP3    H121213   6.690   2.872   3.711
 7083TIP3    H221214   6.786   2.955   3.628
 7084TIP3   OH221215   6.392   3.509   0.866
 7084TIP3    H121216   6.323   3.540   0.924
 7084TIP3    H221217   6.347   3.452   0.803
 7085TIP3   OH221218   5.324   1.984   4.081
 7085TIP3    H121219   5.356   1.959   3.995
 7085TIP3    H221220   5.287   2.072   4.069
 7086TIP3   OH221221   6.418   3.763   3.068
 7086TIP3    H121222   6.459   3.691   3.116
 7086TIP3    H221223   6.342   3.723   3.025
 7087TIP3   OH221224   5.155   3.334   2.712
 7087TIP3    H121225   5.112   3.417   2.732
 7087TIP3    H221226   5.201   3.349   2.630
 7088TIP3   OH221227   0.487   1.056   3.182
 7088TIP3    H121228   0.422   0.986   3.193
 7088TIP3    H221229   0.513   1.050   3.090
 7089TIP3   OH221230   1.026   3.667   3.708
 7089TIP3    H121231   1.068   3.734   3.654
 7089TIP3    H221232   1.086   3.654   3.781
 7090TIP3   OH221233   2.150   6.205   3.806
 7090TIP3    H121234   2.236   6.193   3.766
 7090TIP3    H221235   2.119   6.116   3.826
 7091TIP3   OH221236   3.014   2.474   0.462
 7091TIP3    H121237   2.996   2.542   0.526
 7091TIP3    H221238   2.998   2.392   0.508
 7092TIP3   OH221239   1.954   0.784   2.469
 7092TIP3    H121240   1.996   0.728   2.535
 7092TIP3    H221241   2.005   0.768   2.389
 7093TIP3   OH221242   5.606   6.123   4.029
 7093TIP3    H121243   5.590   6.047   3.972
 7093TIP3    H221244   5.541   6.115   4.099
 7094TIP3   OH221245   2.720   4.228   4.941
 7094TIP3    H121246   2.665   4.304   4.958
 7094TIP3    H221247   2.670   4.154   4.975
 7095TIP3   OH221248   5.240   0.104   3.223
 7095TIP3    H121249   5.162   0.049   3.225
 7095TIP3    H221250   5.297   0.062   3.158
 7096TIP3   OH221251   3.364   2.857   1.826
 7096TIP3    H121252   3.288   2.817   1.867
 7096TIP3    H221253   3.438   2.827   1.879
 7097TIP3   OH221254   0.550   0.219   4.783
 7097TIP3    H121255   0.593   0.150   4.731
 7097TIP3    H221256   0.518   0.281   4.718
 7098TIP3   OH221257   5.942   4.493   3.392
 7098TIP3    H121258   5.957   4.529   3.480
 7098TIP3    H221259   5.897   4.410   3.407
 7099TIP3   OH221260   2.176   1.388   2.992
 7099TIP3    H121261   2.255   1.393   2.938
 7099TIP3    H221262   2.106   1.366   2.931
 7100TIP3   OH221263   3.201   4.969   2.190
 7100TIP3    H121264   3.288   4.957   2.152
 7100TIP3    H221265   3.188   4.893   2.246
 7101TIP3   OH221266   6.150   6.323   1.309
 7101TIP3    H121267   6.146   6.410   1.349
 7101TIP3    H221268   6.059   6.293   1.310
 7102TIP3   OH221269   4.920   0.704   1.570
 7102TIP3    H121270   4.963   0.690   1.486
 7102TIP3    H221271   4.991   0.703   1.634
 7103TIP3   OH221272   2.702   0.061   3.055
 7103TIP3    H121273   2.757   0.028   2.985
 7103TIP3    H221274   2.617   0.020   3.041
 7104TIP3   OH221275   0.554   6.486   2.241
 7104TIP3    H121276   0.545   6.478   2.336
 7104TIP3    H221277   0.606   6.409   2.216
 7105TIP3   OH221278   3.203   3.355   1.301
 7105TIP3    H121279   3.216   3.374   1.208
 7105TIP3    H221280   3.135   3.416   1.328
 7106TIP3   OH221281   4.400   6.349   1.333
 7106TIP3    H121282   4.409   6.387   1.420
 7106TIP3    H221283   4.342   6.409   1.286
 7107TIP3   OH221284   7.208   0.463   0.357
 7107TIP3    H121285   7.139   0.528   0.371
 7107TIP3    H221286   7.199   0.439   0.265
 7108TIP3   OH221287   0.927   0.812   1.990
 7108TIP3    H121288   0.889   0.725   1.987
 7108TIP3    H221289   1.021   0.797   1.985
 7109TIP3   OH221290   3.708   2.635   0.924
 7109TIP3    H121291   3.679   2.716   0.882
 7109TIP3    H221292   3.769   2.663   0.992
 7110TIP3   OH221293   2.772   0.057   5.083
 7110TIP3    H121294   2.741   0.035   5.171
 7110TIP3    H221295   2.865   0.037   5.084
 7111TIP3   OH221296   5.469   4.131   5.380
 7111TIP3    H121297   5.465   4.094   5.468
 7111TIP3    H221298   5.502   4.220   5.392
 7112TIP3   OH221299   6.704   5.679   1.903
 7112TIP3    H121300   6.630   5.729   1.934
 7112TIP3    H221301   6.748   5.649   1.982
 7113TIP3   OH221302   1.520   6.741   4.194
 7113TIP3    H121303   1.477   6.825   4.180
 7113TIP3    H221304   1.573   6.728   4.116
 7114TIP3   OH221305   6.301   0.571   4.591
 7114TIP3    H121306   6.320   0.620   4.511
 7114TIP3    H221307   6.267   0.487   4.560
 7115TIP3   OH221308   3.744   6.482   1.735
 7115TIP3    H121309   3.817   6.542   1.749
 7115TIP3    H221310   3.666   6.535   1.756
 7116TIP3   OH221311   6.669   3.179   0.997
 7116TIP3    H121312   6.758   3.173   0.961
 7116TIP3    H221313   6.646   3.272   0.986
 7117TIP3   OH221314   2.358   3.339   3.064
 7117TIP3    H121315   2.451   3.332   3.040
 7117TIP3    H221316   2.332   3.426   3.034
 7118TIP3   OH221317   5.208   2.320   4.844
 7118TIP3    H121318   5.263   2.263   4.898
 7118TIP3    H221319   5.173   2.261   4.776
 7119TIP3   OH221320   2.150   5.067   3.914
 7119TIP3    H121321   2.189   5.116   3.842
 7119TIP3    H221322   2.166   5.121   3.991
 7120TIP3   OH221323   2.664   2.493   0.441
 7120TIP3    H121324   2.725   2.559   0.408
 7120TIP3    H221325   2.624   2.533   0.518
 7121TIP3   OH221326   5.789   3.016   3.648
 7121TIP3    H121327   5.873   2.990   3.611
 7121TIP3    H221328   5.725   2.959   3.605
 7122TIP3   OH221329   1.585   4.458   3.342
 7122TIP3    H121330   1.558   4.395   3.408
 7122TIP3    H221331   1.543   4.540   3.367
 7123TIP3   OH221332   4.288   6.260   2.966
 7123TIP3    H121333   4.320   6.281   2.878
 7123TIP3    H221334   4.229   6.332   2.988
 7124TIP3   OH221335   1.337   4.584   5.714
 7124TIP3    H121336   1.242   4.575   5.719
 7124TIP3    H221337   1.370   4.534   5.788
 7125TIP3   OH221338   6.390   0.672   5.424
 7125TIP3    H121339   6.374   0.587   5.383
 7125TIP3    H221340   6.412   0.652   5.515
 7126TIP3   OH221341   4.875   1.777   1.218
 7126TIP3    H121342   4.971   1.782   1.223
 7126TIP3    H221343   4.846   1.868   1.230
 7127TIP3   OH221344   4.651   1.524   1.707
 7127TIP3    H121345   4.592   1.572   1.765
 7127TIP3    H221346   4.729   1.506   1.760
 7128TIP3   OH221347   0.612   3.344   0.624
 7128TIP3    H121348   0.588   3.403   0.695
 7128TIP3    H221349   0.707   3.336   0.631
 7129TIP3   OH221350   6.847   4.468   5.742
 7129TIP3    H121351   6.857   4.414   5.820
 7129TIP3    H221352   6.826   4.555   5.775
 7130TIP3   OH221353   5.907   6.468   4.846
 7130TIP3    H121354   5.955   6.387   4.865
 7130TIP3    H221355   5.845   6.443   4.777
 7131TIP3   OH221356   5.961   2.108   1.917
 7131TIP3    H121357   5.872   2.133   1.943
 7131TIP3    H221358   6.004   2.192   1.898
 7132TIP3   OH221359   3.658   5.492   2.926
 7132TIP3    H121360   3.700   5.480   3.011
 7132TIP3    H221361   3.719   5.548   2.877
 7133TIP3   OH221362   4.428   4.160   4.366
 7133TIP3    H121363   4.373   4.118   4.299
 7133TIP3    H221364   4.490   4.214   4.316
 7134TIP3   OH221365   3.234   3.552   0.118
 7134TIP3    H121366   3.234   3.635   0.165
 7134TIP3    H221367   3.267   3.573   0.031
 7135TIP3   OH221368   2.181   1.114   5.701
 7135TIP3    H121369   2.193   1.087   5.792
 7135TIP3    H221370   2.112   1.057   5.667
 7136TIP3   OH221371   1.534   2.496   1.368
 7136TIP3    H121372   1.593   2.464   1.299
 7136TIP3    H221373   1.446   2.473   1.336
 7137TIP3   OH221374   2.243   6.024   4.262
 7137TIP3    H121375   2.253   6.070   4.346
 7137TIP3    H221376   2.167   6.065   4.221
 7138TIP3   OH221377   4.046   4.631   1.469
 7138TIP3    H121378   4.106   4.557   1.465
 7138TIP3    H221379   3.968   4.601   1.423
 7139TIP3   OH221380   6.947   1.928   1.270
 7139TIP3    H121381   6.930   1.859   1.334
 7139TIP3    H221382   6.883   1.997   1.290
 7140TIP3   OH221383   3.588   1.500   0.056
 7140TIP3    H121384   3.614   1.550   0.133
 7140TIP3    H221385   3.630   1.415   0.067
 7141TIP3   OH221386   3.160   5.840   2.407
 7141TIP3    H121387   3.110   5.805   2.333
 7141TIP3    H221388   3.096   5.887   2.460
 7142TIP3   OH221389   2.198   3.107   5.285
 7142TIP3    H121390   2.142   3.104   5.363
 7142TIP3    H221391   2.172   3.029   5.235
 7143TIP3   OH221392   1.571   6.037   1.527
 7143TIP3    H121393   1.602   6.127   1.513
 7143TIP3    H221394   1.647   5.990   1.561
 7144TIP3   OH221395   2.310   2.316   2.883
 7144TIP3    H121396   2.335   2.287   2.971
 7144TIP3    H221397   2.246   2.386   2.897
 7145TIP3   OH221398   0.458   4.726   4.146
 7145TIP3    H121399   0.537   4.767   4.182
 7145TIP3    H221400   0.472   4.632   4.157
 7146TIP3   OH221401   6.299   6.070   0.837
 7146TIP3    H121402   6.227   6.081   0.899
 7146TIP3    H221403   6.256   6.065   0.751
 7147TIP3   OH221404   3.929   3.707   2.196
 7147TIP3    H121405   3.916   3.772   2.265
 7147TIP3    H221406   3.842   3.697   2.156
 7148TIP3   OH221407   2.916   6.650   3.127
 7148TIP3    H121408   2.979   6.579   3.110
 7148TIP3    H221409   2.919   6.662   3.222
 7149TIP3   OH221410   3.265   1.407   0.205
 7149TIP3    H121411   3.173   1.383   0.219
 7149TIP3    H221412   3.283   1.383   0.114
 7150TIP3   OH221413   1.020   6.782   2.248
 7150TIP3    H121414   0.976   6.734   2.178
 7150TIP3    H221415   0.956   6.786   2.319
 7151TIP3   OH221416   7.143   0.696   0.639
 7151TIP3    H121417   7.237   0.708   0.651
 7151TIP3    H221418   7.107   0.694   0.728
 7152TIP3   OH221419   5.331   5.747   0.736
 7152TIP3    H121420   5.239   5.743   0.764
 7152TIP3    H221421   5.380   5.761   0.816
 7153TIP3   OH221422   3.669   5.148   2.226
 7153TIP3    H121423   3.735   5.213   2.249
 7153TIP3    H221424   3.665   5.089   2.301
 7154TIP3   OH221425   5.389   2.299   3.580
 7154TIP3    H121426   5.294   2.293   3.569
 7154TIP3    H221427   5.401   2.362   3.652
 7155TIP3   OH221428   1.121   0.499   0.515
 7155TIP3    H121429   1.056   0.516   0.584
 7155TIP3    H221430   1.071   0.457   0.445
 7156TIP3   OH221431   3.587   2.184   4.246
 7156TIP3    H121432   3.561   2.102   4.203
 7156TIP3    H221433   3.587   2.249   4.175
 7157TIP3   OH221434   4.019   6.698   4.159
 7157TIP3    H121435   4.100   6.696   4.209
 7157TIP3    H221436   4.045   6.681   4.069
 7158TIP3   OH221437   0.164   3.916   2.460
 7158TIP3    H121438   0.217   3.935   2.537
 7158TIP3    H221439   0.224   3.927   2.386
 7159TIP3   OH221440   5.528   5.329   1.050
 7159TIP3    H121441   5.484   5.330   0.965
 7159TIP3    H221442   5.493   5.405   1.096
 7160TIP3   OH221443   1.238   6.486   1.705
 7160TIP3    H121444   1.300   6.506   1.775
 7160TIP3    H221445   1.160   6.455   1.751
 7161TIP3   OH221446   4.305   6.382   3.799
 7161TIP3    H121447   4.322   6.448   3.732
 7161TIP3    H221448   4.371   6.398   3.866
 7162TIP3   OH221449   6.733   5.126   4.385
 7162TIP3    H121450   6.784   5.203   4.412
 7162TIP3    H221451   6.654   5.163   4.347
 7163TIP3   OH221452   3.877   2.476   2.314
 7163TIP3    H121453   3.968   2.492   2.336
 7163TIP3    H221454   3.877   2.463   2.219
 7164TIP3   OH221455   0.797   2.372   2.422
 7164TIP3    H121456   0.851   2.294   2.422
 7164TIP3    H221457   0.859   2.445   2.416
 7165TIP3   OH221458   2.103   3.036   2.550
 7165TIP3    H121459   2.033   3.096   2.575
 7165TIP3    H221460   2.155   3.026   2.630
 7166TIP3   OH221461   0.973   2.288   3.544
 7166TIP3    H121462   0.880   2.267   3.550
 7166TIP3    H221463   1.002   2.245   3.464
 7167TIP3   OH221464   2.354   6.166   4.852
 7167TIP3    H121465   2.443   6.190   4.827
 7167TIP3    H221466   2.339   6.213   4.934
 7168TIP3   OH221467   6.267   6.399   0.804
 7168TIP3    H121468   6.202   6.338   0.838
 7168TIP3    H221469   6.304   6.441   0.882
 7169TIP3   OH221470   5.956   2.893   1.127
 7169TIP3    H121471   5.905   2.829   1.177
 7169TIP3    H221472   6.036   2.846   1.104
 7170TIP3   OH221473   5.895   2.459   0.051
 7170TIP3    H121474   5.905   2.452  -0.044
 7170TIP3    H221475   5.970   2.512   0.079
 7171TIP3   OH221476   7.197   3.223   3.012
 7171TIP3    H121477   7.286   3.192   2.997
 7171TIP3    H221478   7.204   3.284   3.085
 7172TIP3   OH221479   5.204   2.396   1.747
 7172TIP3    H121480   5.281   2.398   1.690
 7172TIP3    H221481   5.226   2.456   1.819
 7173TIP3   OH221482   0.985   0.075   3.582
 7173TIP3    H121483   0.930   0.078   3.504
 7173TIP3    H221484   1.053   0.010   3.562
 7174TIP3   OH221485   0.337   4.248   0.431
 7174TIP3    H121486   0.429   4.224   0.445
 7174TIP3    H221487   0.341   4.325   0.374
 7175TIP3   OH221488   1.742   5.674   3.758
 7175TIP3    H121489   1.710   5.744   3.815
 7175TIP3    H221490   1.717   5.593   3.803
 7176TIP3   OH221491   0.716   5.260   4.049
 7176TIP3    H121492   0.702   5.339   4.101
 7176TIP3    H221493   0.640   5.205   4.068
 7177TIP3   OH221494   5.951   5.219   5.492
 7177TIP3    H121495   5.974   5.257   5.407
 7177TIP3    H221496   5.960   5.125   5.479
 7178TIP3   OH221497   3.199   5.707   2.991
 7178TIP3    H121498   3.199   5.700   2.895
 7178TIP3    H221499   3.152   5.629   3.020
 7179TIP3   OH221500   5.217   5.978   3.744
 7179TIP3    H121501   5.213   6.014   3.833
 7179TIP3    H221502   5.281   5.907   3.749
 7180TIP3   OH221503   4.296   6.317   4.842
 7180TIP3    H121504   4.277   6.392   4.787
 7180TIP3    H221505   4.311   6.354   4.929
 7181TIP3   OH221506   0.749   6.294   2.172
 7181TIP3    H121507   0.814   6.301   2.242
 7181TIP3    H221508   0.769   6.211   2.129
 7182TIP3   OH221509   1.826   5.645   5.442
 7182TIP3    H121510   1.816   5.702   5.518
 7182TIP3    H221511   1.877   5.571   5.474
 7183TIP3   OH221512   2.587   3.860   1.425
 7183TIP3    H121513   2.662   3.804   1.404
 7183TIP3    H221514   2.574   3.847   1.519
 7184TIP3   OH221515   6.937   2.721   1.225
 7184TIP3    H121516   6.989   2.645   1.250
 7184TIP3    H221517   6.870   2.686   1.166
 7185TIP3   OH221518   4.928   2.745   3.144
 7185TIP3    H121519   4.905   2.678   3.079
 7185TIP3    H221520   5.000   2.793   3.103
 7186TIP3   OH221521   2.486   5.757   1.342
 7186TIP3    H121522   2.392   5.743   1.353
 7186TIP3    H221523   2.500   5.847   1.369
 7187TIP3   OH221524   4.057   1.741   0.946
 7187TIP3    H121525   3.975   1.691   0.948
 7187TIP3    H221526   4.067   1.775   1.036
 7188TIP3   OH221527   0.913   3.627   0.956
 7188TIP3    H121528   0.865   3.624   0.873
 7188TIP3    H221529   0.846   3.613   1.023
 7189TIP3   OH221530   4.060   4.950   3.328
 7189TIP3    H121531   3.973   4.941   3.367
 7189TIP3    H221532   4.119   4.915   3.394
 7190TIP3   OH221533   2.264   2.102   3.875
 7190TIP3    H121534   2.277   2.196   3.888
 7190TIP3    H221535   2.169   2.092   3.863
 7191TIP3   OH221536   7.028   5.977   0.277
 7191TIP3    H121537   7.085   5.907   0.308
 7191TIP3    H221538   6.942   5.937   0.269
 7192TIP3   OH221539   3.293   3.952   2.939
 7192TIP3    H121540   3.206   3.918   2.920
 7192TIP3    H221541   3.292   3.973   3.032
 7193TIP3   OH221542   1.509   5.348   1.575
 7193TIP3    H121543   1.554   5.385   1.651
 7193TIP3    H221544   1.461   5.422   1.537
 7194TIP3   OH221545   4.223   0.107   1.501
 7194TIP3    H121546   4.234   0.089   1.594
 7194TIP3    H221547   4.142   0.158   1.496
 7195TIP3   OH221548   5.476   2.160   1.817
 7195TIP3    H121549   5.470   2.241   1.867
 7195TIP3    H221550   5.412   2.102   1.858
 7196TIP3   OH221551   4.238   2.641   2.576
 7196TIP3    H121552   4.184   2.593   2.639
 7196TIP3    H221553   4.189   2.721   2.557
 7197TIP3   OH221554   0.760   0.421   1.598
 7197TIP3    H121555   0.700   0.391   1.667
 7197TIP3    H221556   0.837   0.451   1.646
 7198TIP3   OH221557   5.091   1.242   5.650
 7198TIP3    H121558   5.096   1.302   5.724
 7198TIP3    H221559   4.997   1.228   5.637
 7199TIP3   OH221560   6.963   1.365   2.676
 7199TIP3    H121561   6.870   1.351   2.658
 7199TIP3    H221562   7.004   1.280   2.659
 7200TIP3   OH221563   5.788   6.668   2.698
 7200TIP3    H121564   5.810   6.583   2.736
 7200TIP3    H221565   5.872   6.714   2.694
 7201TIP3   OH221566   0.818   4.565   5.570
 7201TIP3    H121567   0.801   4.622   5.645
 7201TIP3    H221568   0.735   4.561   5.524
 7202TIP3   OH221569   5.282   3.202   5.517
 7202TIP3    H121570   5.229   3.219   5.439
 7202TIP3    H221571   5.363   3.249   5.502
 7203TIP3   OH221572   1.442   6.480   4.222
 7203TIP3    H121573   1.402   6.457   4.305
 7203TIP3    H221574   1.460   6.574   4.229
 7204TIP3   OH221575   0.841   0.009   5.513
 7204TIP3    H121576   0.768  -0.049   5.533
 7204TIP3    H221577   0.830   0.032   5.421
 7205TIP3   OH221578   2.483   1.706   0.593
 7205TIP3    H121579   2.486   1.698   0.688
 7205TIP3    H221580   2.522   1.792   0.576
 7206TIP3   OH221581   4.651   5.913   4.030
 7206TIP3    H121582   4.723   5.863   3.992
 7206TIP3    H221583   4.579   5.850   4.034
 7207TIP3   OH221584   3.470   4.616   2.298
 7207TIP3    H121585   3.424   4.683   2.246
 7207TIP3    H221586   3.553   4.603   2.252
 7208TIP3   OH221587   6.127   2.658   3.767
 7208TIP3    H121588   6.212   2.622   3.741
 7208TIP3    H221589   6.117   2.737   3.715
 7209TIP3   OH221590   3.519   4.506   5.484
 7209TIP3    H121591   3.519   4.523   5.579
 7209TIP3    H221592   3.441   4.454   5.469
 7210TIP3   OH221593   6.264   3.697   2.089
 7210TIP3    H121594   6.236   3.624   2.144
 7210TIP3    H221595   6.188   3.755   2.088
 7211TIP3   OH221596   5.658   2.426   1.118
 7211TIP3    H121597   5.588   2.361   1.117
 7211TIP3    H221598   5.664   2.454   1.209
 7212TIP3   OH221599   1.992   1.999   3.821
 7212TIP3    H121600   1.985   1.909   3.853
 7212TIP3    H221601   1.902   2.023   3.797
 7213TIP3   OH221602   1.175   2.917   3.397
 7213TIP3    H121603   1.101   2.973   3.423
 7213TIP3    H221604   1.194   2.865   3.475
 7214TIP3   OH221605   2.650   0.506   2.462
 7214TIP3    H121606   2.633   0.600   2.472
 7214TIP3    H221607   2.720   0.488   2.524
 7215TIP3   OH221608   1.785   3.915   3.711
 7215TIP3    H121609   1.772   3.847   3.645
 7215TIP3    H221610   1.814   3.992   3.662
 7216TIP3   OH221611   1.218   1.824   5.828
 7216TIP3    H121612   1.176   1.836   5.743
 7216TIP3    H221613   1.214   1.910   5.869
 7217TIP3   OH221614   3.278   1.409   4.592
 7217TIP3    H121615   3.253   1.367   4.509
 7217TIP3    H221616   3.253   1.345   4.659
 7218TIP3   OH221617   2.209   4.209   4.308
 7218TIP3    H121618   2.221   4.225   4.214
 7218TIP3    H221619   2.137   4.266   4.333
 7219TIP3   OH221620   4.413   3.955   1.705
 7219TIP3    H121621   4.453   3.874   1.737
 7219TIP3    H221622   4.324   3.952   1.738
 7220TIP3   OH221623   1.050   1.221   3.923
 7220TIP3    H121624   0.984   1.269   3.872
 7220TIP3    H221625   1.017   1.131   3.925
 7221TIP3   OH221626   1.210   0.890   4.728
 7221TIP3    H121627   1.142   0.911   4.792
 7221TIP3    H221628   1.230   0.974   4.686
 7222TIP3   OH221629   0.870   2.851   2.250
 7222TIP3    H121630   0.859   2.930   2.196
 7222TIP3    H221631   0.792   2.850   2.307
 7223TIP3   OH221632   0.124   1.747   3.430
 7223TIP3    H121633   0.062   1.756   3.502
 7223TIP3    H221634   0.073   1.708   3.359
 7224TIP3   OH221635   6.370   1.045   1.083
 7224TIP3    H121636   6.322   1.010   1.008
 7224TIP3    H221637   6.449   1.084   1.045
 7225TIP3   OH221638   1.376   0.821   3.329
 7225TIP3    H121639   1.299   0.765   3.321
 7225TIP3    H221640   1.361   0.892   3.266
 7226TIP3   OH221641   5.591   2.000   5.383
 7226TIP3    H121642   5.632   1.916   5.360
 7226TIP3    H221643   5.565   2.038   5.299
 7227TIP3   OH221644   3.109   4.170   1.193
 7227TIP3    H121645   3.020   4.156   1.224
 7227TIP3    H221646   3.115   4.265   1.179
 7228TIP3   OH221647   0.189   4.579   4.954
 7228TIP3    H121648   0.224   4.657   4.997
 7228TIP3    H221649   0.128   4.542   5.018
 7229TIP3   OH221650   5.361   1.983   0.334
 7229TIP3    H121651   5.391   1.963   0.423
 7229TIP3    H221652   5.417   2.056   0.307
 7230TIP3   OH221653   5.189   3.544   5.133
 7230TIP3    H121654   5.226   3.456   5.129
 7230TIP3    H221655   5.116   3.542   5.072
 7231TIP3   OH221656   4.914   1.794   4.470
 7231TIP3    H121657   5.004   1.760   4.473
 7231TIP3    H221658   4.863   1.732   4.523
 7232TIP3   OH221659   4.251   3.893   4.294
 7232TIP3    H121660   4.231   3.986   4.301
 7232TIP3    H221661   4.208   3.854   4.370
 7233TIP3   OH221662   6.577   4.548   0.343
 7233TIP3    H121663   6.511   4.482   0.363
 7233TIP3    H221664   6.559   4.619   0.405
 7234TIP3   OH221665   0.134   5.742   4.391
 7234TIP3    H121666   0.165   5.759   4.480
 7234TIP3    H221667   0.168   5.815   4.340
 7235TIP3   OH221668   4.076   3.726   3.562
 7235TIP3    H121669   4.014   3.772   3.505
 7235TIP3    H221670   4.121   3.796   3.610
 7236TIP3   OH221671   5.774   3.032   0.797
 7236TIP3    H121672   5.691   3.074   0.819
 7236TIP3    H221673   5.751   2.940   0.780
 7237TIP3   OH221674   2.590   3.387   5.406
 7237TIP3    H121675   2.615   3.444   5.478
 7237TIP3    H221676   2.525   3.328   5.444
 7238TIP3   OH221677   3.722   0.660   2.780
 7238TIP3    H121678   3.794   0.638   2.720
 7238TIP3    H221679   3.703   0.752   2.762
 7239TIP3   OH221680   4.850   6.533   1.476
 7239TIP3    H121681   4.816   6.462   1.423
 7239TIP3    H221682   4.793   6.535   1.553
 7240TIP3   OH221683   4.922   4.715   4.609
 7240TIP3    H121684   5.012   4.690   4.630
 7240TIP3    H221685   4.873   4.700   4.690
 7241TIP3   OH221686   7.101   5.156   3.555
 7241TIP3    H121687   7.046   5.130   3.481
 7241TIP3    H221688   7.052   5.127   3.633
 7242TIP3   OH221689   6.713   6.263   0.536
 7242TIP3    H121690   6.731   6.250   0.629
 7242TIP3    H221691   6.681   6.353   0.530
 7243TIP3   OH221692   3.834   1.304   0.047
 7243TIP3    H121693   3.816   1.245   0.120
 7243TIP3    H221694   3.896   1.368   0.082
 7244TIP3   OH221695   4.348   6.175   0.162
 7244TIP3    H121696   4.396   6.093   0.164
 7244TIP3    H221697   4.381   6.220   0.084
 7245TIP3   OH221698   5.787   5.351   1.386
 7245TIP3    H121699   5.786   5.276   1.445
 7245TIP3    H221700   5.702   5.394   1.400
 7246TIP3   OH221701   1.892   4.173   5.458
 7246TIP3    H121702   1.819   4.126   5.497
 7246TIP3    H221703   1.858   4.262   5.444
 7247TIP3   OH221704   1.986   0.167   1.700
 7247TIP3    H121705   2.020   0.081   1.676
 7247TIP3    H221706   1.891   0.156   1.698
 7248TIP3   OH221707   1.449   2.900   1.191
 7248TIP3    H121708   1.477   2.874   1.279
 7248TIP3    H221709   1.528   2.891   1.137
 7249TIP3   OH221710   3.883   1.663   0.050
 7249TIP3    H121711   3.816   1.656   0.118
 7249TIP3    H221712   3.922   1.575   0.047
 7250TIP3   OH221713   4.217   0.357   0.006
 7250TIP3    H121714   4.144   0.376  -0.054
 7250TIP3    H221715   4.175   0.325   0.085
 7251TIP3   OH221716   0.957   4.266   1.573
 7251TIP3    H121717   1.041   4.228   1.550
 7251TIP3    H221718   0.978   4.336   1.634
 7252TIP3   OH221719   1.759   1.498   4.035
 7252TIP3    H121720   1.754   1.558   3.960
 7252TIP3    H221721   1.668   1.474   4.053
 7253TIP3   OH221722   1.926   1.110   5.390
 7253TIP3    H121723   1.862   1.164   5.437
 7253TIP3    H221724   2.006   1.162   5.390
 7254TIP3   OH221725   2.609   3.779   2.054
 7254TIP3    H121726   2.654   3.862   2.067
 7254TIP3    H221727   2.522   3.792   2.092
 7255TIP3   OH221728   2.173   3.686   1.634
 7255TIP3    H121729   2.250   3.651   1.589
 7255TIP3    H221730   2.187   3.780   1.637
 7256TIP3   OH221731   4.647   1.799   0.610
 7256TIP3    H121732   4.707   1.802   0.684
 7256TIP3    H221733   4.655   1.885   0.568
 7257TIP3   OH221734   7.074   6.144   3.759
 7257TIP3    H121735   7.114   6.087   3.693
 7257TIP3    H221736   7.030   6.212   3.708
 7258TIP3   OH221737   4.329   4.117   5.483
 7258TIP3    H121738   4.387   4.183   5.445
 7258TIP3    H221739   4.387   4.062   5.536
 7259TIP3   OH221740   5.080   1.623   5.175
 7259TIP3    H121741   5.062   1.577   5.257
 7259TIP3    H221742   5.002   1.678   5.162
 7260TIP3   OH221743   2.395   3.612   1.862
 7260TIP3    H121744   2.469   3.588   1.917
 7260TIP3    H221745   2.351   3.529   1.844
 7261TIP3   OH221746   1.269   2.424   1.742
 7261TIP3    H121747   1.289   2.492   1.678
 7261TIP3    H221748   1.176   2.405   1.729
 7262TIP3   OH221749   1.816   4.126   3.538
 7262TIP3    H121750   1.802   4.087   3.452
 7262TIP3    H221751   1.765   4.206   3.538
 7263TIP3   OH221752   3.493   4.995   3.347
 7263TIP3    H121753   3.483   5.018   3.255
 7263TIP3    H221754   3.539   5.069   3.385
 7264TIP3   OH221755   1.442   3.598   3.745
 7264TIP3    H121756   1.369   3.614   3.805
 7264TIP3    H221757   1.463   3.505   3.758
 7265TIP3   OH221758   0.835   2.251   1.804
 7265TIP3    H121759   0.911   2.299   1.772
 7265TIP3    H221760   0.821   2.284   1.892
 7266TIP3   OH221761   1.467   6.445   0.929
 7266TIP3    H121762   1.464   6.510   0.860
 7266TIP3    H221763   1.376   6.429   0.952
 7267TIP3   OH221764   1.140   0.424   4.961
 7267TIP3    H121765   1.203   0.449   4.894
 7267TIP3    H221766   1.128   0.330   4.949
 7268TIP3   OH221767   1.832   6.761   4.381
 7268TIP3    H121768   1.843   6.856   4.381
 7268TIP3    H221769   1.843   6.735   4.289
 7269TIP3   OH221770   6.032   1.210   3.382
 7269TIP3    H121771   6.071   1.268   3.317
 7269TIP3    H221772   5.970   1.265   3.430
 7270TIP3   OH221773   2.510   4.482   2.141
 7270TIP3    H121774   2.542   4.570   2.122
 7270TIP3    H221775   2.417   4.484   2.119
 7271TIP3   OH221776   7.242   5.802   1.395
 7271TIP3    H121777   7.275   5.875   1.343
 7271TIP3    H221778   7.297   5.728   1.369
 7272TIP3   OH221779   5.177   5.808  -0.003
 7272TIP3    H121780   5.264   5.791  -0.038
 7272TIP3    H221781   5.178   5.770   0.085
 7273TIP3   OH221782   2.760   2.887   2.336
 7273TIP3    H121783   2.736   2.882   2.429
 7273TIP3    H221784   2.716   2.812   2.296
 7274TIP3   OH221785   6.197   4.229   0.708
 7274TIP3    H121786   6.210   4.173   0.632
 7274TIP3    H221787   6.259   4.196   0.773
 7275TIP3   OH221788   0.962   5.730   0.938
 7275TIP3    H121789   1.017   5.808   0.946
 7275TIP3    H221790   0.892   5.744   1.001
 7276TIP3   OH221791   2.399   5.451   5.603
 7276TIP3    H121792   2.426   5.397   5.529
 7276TIP3    H221793   2.393   5.390   5.676
 7277TIP3   OH221794   3.118   0.808   2.152
 7277TIP3    H121795   3.200   0.796   2.200
 7277TIP3    H221796   3.145   0.817   2.061
 7278TIP3   OH221797   5.711   4.098   0.765
 7278TIP3    H121798   5.792   4.062   0.728
 7278TIP3    H221799   5.726   4.192   0.767
 7279TIP3   OH221800   4.278   1.302   2.900
 7279TIP3    H121801   4.316   1.223   2.861
 7279TIP3    H221802   4.206   1.269   2.954
 7280TIP3   OH221803   1.278   2.015   1.591
 7280TIP3    H121804   1.220   2.008   1.667
 7280TIP3    H221805   1.362   1.982   1.622
 7281TIP3   OH221806   0.169   2.500   4.052
 7281TIP3    H121807   0.164   2.596   4.059
 7281TIP3    H221808   0.225   2.484   3.976
 7282TIP3   OH221809   2.863   3.835   5.577
 7282TIP3    H121810   2.934   3.785   5.618
 7282TIP3    H221811   2.803   3.769   5.543
 7283TIP3   OH221812   3.467   4.800   0.919
 7283TIP3    H121813   3.402   4.768   0.981
 7283TIP3    H221814   3.528   4.850   0.973
 7284TIP3   OH221815   3.981   3.712   4.386
 7284TIP3    H121816   3.927   3.789   4.368
 7284TIP3    H221817   3.995   3.713   4.480
 7285TIP3   OH221818   4.941   1.648   1.547
 7285TIP3    H121819   4.887   1.727   1.543
 7285TIP3    H221820   4.888   1.585   1.597
 7286TIP3   OH221821   1.547   2.723   4.940
 7286TIP3    H121822   1.607   2.648   4.935
 7286TIP3    H221823   1.604   2.799   4.939
 7287TIP3   OH221824   1.974   2.016   0.386
 7287TIP3    H121825   1.962   2.049   0.475
 7287TIP3    H221826   1.901   1.956   0.373
 7288TIP3   OH221827   4.486   4.629   3.291
 7288TIP3    H121828   4.476   4.609   3.198
 7288TIP3    H221829   4.459   4.720   3.299
 7289TIP3   OH221830   3.801   2.967   5.232
 7289TIP3    H121831   3.736   2.976   5.162
 7289TIP3    H221832   3.846   2.885   5.212
 7290TIP3   OH221833   6.679   6.213   1.124
 7290TIP3    H121834   6.775   6.214   1.127
 7290TIP3    H221835   6.658   6.232   1.032
 7291TIP3   OH221836   1.702   3.888   2.342
 7291TIP3    H121837   1.614   3.927   2.347
 7291TIP3    H221838   1.687   3.797   2.315
 7292TIP3   OH221839   2.272   5.268   2.074
 7292TIP3    H121840   2.241   5.354   2.104
 7292TIP3    H221841   2.366   5.279   2.063
 7293TIP3   OH221842   4.090   1.553   4.268
 7293TIP3    H121843   4.143   1.475   4.249
 7293TIP3    H221844   4.044   1.532   4.349
 7294TIP3   OH221845   1.178   3.919   4.377
 7294TIP3    H121846   1.198   3.860   4.304
 7294TIP3    H221847   1.127   3.990   4.337
 7295TIP3   OH221848   4.347   4.746   2.372
 7295TIP3    H121849   4.269   4.756   2.318
 7295TIP3    H221850   4.387   4.834   2.373
 7296TIP3   OH221851   1.873   0.719   0.216
 7296TIP3    H121852   1.883   0.635   0.172
 7296TIP3    H221853   1.840   0.696   0.303
 7297TIP3   OH221854   7.248   1.667   2.897
 7297TIP3    H121855   7.187   1.624   2.956
 7297TIP3    H221856   7.194   1.699   2.825
 7298TIP3   OH221857   2.404   3.913   3.184
 7298TIP3    H121858   2.413   3.894   3.277
 7298TIP3    H221859   2.492   3.898   3.148
 7299TIP3   OH221860   5.319   2.073   0.986
 7299TIP3    H121861   5.362   2.153   1.018
 7299TIP3    H221862   5.384   2.004   1.000
 7300TIP3   OH221863   4.848   2.390   2.785
 7300TIP3    H121864   4.809   2.456   2.728
 7300TIP3    H221865   4.932   2.369   2.744
 7301TIP3   OH221866   1.659   2.100   1.230
 7301TIP3    H121867   1.595   2.099   1.159
 7301TIP3    H221868   1.740   2.130   1.188
 7302TIP3   OH221869   0.454   3.245   3.835
 7302TIP3    H121870   0.371   3.234   3.883
 7302TIP3    H221871   0.516   3.188   3.880
 7303TIP3   OH221872   2.430   1.258   1.387
 7303TIP3    H121873   2.446   1.342   1.345
 7303TIP3    H221874   2.423   1.196   1.314
 7304TIP3   OH221875   1.258   4.915   0.522
 7304TIP3    H121876   1.328   4.903   0.586
 7304TIP3    H221877   1.183   4.867   0.559
 7305TIP3   OH221878   0.368   4.402   3.898
 7305TIP3    H121879   0.311   4.357   3.959
 7305TIP3    H221880   0.364   4.494   3.925
 7306TIP3   OH221881   2.926   2.637   2.138
 7306TIP3    H121882   2.974   2.645   2.221
 7306TIP3    H221883   2.899   2.727   2.117
 7307TIP3   OH221884   4.480   1.622   5.166
 7307TIP3    H121885   4.460   1.555   5.101
 7307TIP3    H221886   4.557   1.588   5.212
 7308TIP3   OH221887   0.807   0.834   3.605
 7308TIP3    H121888   0.783   0.906   3.663
 7308TIP3    H221889   0.724   0.798   3.575
 7309TIP3   OH221890   4.014   5.596   4.557
 7309TIP3    H121891   4.026   5.646   4.638
 7309TIP3    H221892   4.045   5.508   4.578
 7310TIP3   OH221893   1.900   6.652   2.270
 7310TIP3    H121894   1.939   6.623   2.353
 7310TIP3    H221895   1.969   6.704   2.229
 7311TIP3   OH221896   2.562   3.780   1.680
 7311TIP3    H121897   2.652   3.768   1.711
 7311TIP3    H221898   2.512   3.715   1.728
 7312TIP3   OH221899   1.728   0.987   4.098
 7312TIP3    H121900   1.786   0.931   4.046
 7312TIP3    H221901   1.663   0.927   4.134
 7313TIP3   OH221902   4.533   1.802   5.707
 7313TIP3    H121903   4.513   1.890   5.739
 7313TIP3    H221904   4.517   1.746   5.783
 7314TIP3   OH221905   3.502   3.509   5.587
 7314TIP3    H121906   3.459   3.582   5.542
 7314TIP3    H221907   3.444   3.434   5.573
 7315TIP3   OH221908   2.551   1.996   5.223
 7315TIP3    H121909   2.588   1.940   5.291
 7315TIP3    H221910   2.456   1.981   5.228
 7316TIP3   OH221911   2.211   0.880   3.666
 7316TIP3    H121912   2.300   0.898   3.635
 7316TIP3    H221913   2.183   0.803   3.615
 7317TIP3   OH221914   4.320   6.212   4.125
 7317TIP3    H121915   4.247   6.252   4.171
 7317TIP3    H221916   4.282   6.174   4.046
 7318TIP3   OH221917   6.259   2.414   1.583
 7318TIP3    H121918   6.288   2.499   1.552
 7318TIP3    H221919   6.261   2.358   1.505
 7319TIP3   OH221920   3.713   2.570   1.470
 7319TIP3    H121921   3.802   2.568   1.435
 7319TIP3    H221922   3.661   2.617   1.404
 7320TIP3   OH221923   5.207   4.521   1.533
 7320TIP3    H121924   5.262   4.472   1.472
 7320TIP3    H221925   5.145   4.457   1.567
 7321TIP3   OH221926   5.119   3.752   2.288
 7321TIP3    H121927   5.115   3.704   2.206
 7321TIP3    H221928   5.088   3.840   2.266
 7322TIP3   OH221929   6.644   2.800   5.312
 7322TIP3    H121930   6.592   2.794   5.391
 7322TIP3    H221931   6.593   2.856   5.253
 7323TIP3   OH221932   5.098   5.126   3.781
 7323TIP3    H121933   5.163   5.081   3.835
 7323TIP3    H221934   5.014   5.098   3.817
 7324TIP3   OH221935   6.783   0.564   3.397
 7324TIP3    H121936   6.725   0.628   3.439
 7324TIP3    H221937   6.820   0.612   3.322
 7325TIP3   OH221938   4.563   5.252   2.334
 7325TIP3    H121939   4.528   5.323   2.388
 7325TIP3    H221940   4.658   5.267   2.334
 7326TIP3   OH221941   3.284   5.596   5.702
 7326TIP3    H121942   3.307   5.666   5.764
 7326TIP3    H221943   3.243   5.528   5.755
 7327TIP3   OH221944   5.278   1.247   0.511
 7327TIP3    H121945   5.254   1.243   0.603
 7327TIP3    H221946   5.217   1.187   0.468
 7328TIP3   OH221947   0.228   6.561   4.330
 7328TIP3    H121948   0.183   6.617   4.393
 7328TIP3    H221949   0.305   6.529   4.376
 7329TIP3   OH221950   2.334   2.901   3.469
 7329TIP3    H121951   2.331   2.926   3.562
 7329TIP3    H221952   2.301   2.811   3.467
 7330TIP3   OH221953   6.355   1.428   2.689
 7330TIP3    H121954   6.398   1.387   2.614
 7330TIP3    H221955   6.367   1.365   2.760
 7331TIP3   OH221956   2.975   4.713   0.624
 7331TIP3    H121957   3.041   4.664   0.675
 7331TIP3    H221958   3.027   4.773   0.571
 7332TIP3   OH221959   0.678   1.676   1.182
 7332TIP3    H121960   0.730   1.728   1.243
 7332TIP3    H221961   0.588   1.683   1.215
 7333TIP3   OH221962   2.145   4.762   1.593
 7333TIP3    H121963   2.216   4.817   1.561
 7333TIP3    H221964   2.116   4.712   1.516
 7334TIP3   OH221965   3.134   2.589   2.700
 7334TIP3    H121966   3.220   2.619   2.670
 7334TIP3    H221967   3.154   2.521   2.765
 7335TIP3   OH221968   3.456   1.424   0.691
 7335TIP3    H121969   3.474   1.330   0.700
 7335TIP3    H221970   3.366   1.428   0.660
 7336TIP3   OH221971   2.970   6.513   2.281
 7336TIP3    H121972   3.027   6.556   2.218
 7336TIP3    H221973   2.957   6.578   2.350
 7337TIP3   OH221974   4.729   5.592   3.688
 7337TIP3    H121975   4.665   5.533   3.648
 7337TIP3    H221976   4.814   5.550   3.673
 7338TIP3   OH221977   4.915   6.223   1.180
 7338TIP3    H121978   4.837   6.248   1.230
 7338TIP3    H221979   4.958   6.305   1.160
 7339TIP3   OH221980   6.130   6.595   1.384
 7339TIP3    H121981   6.161   6.683   1.362
 7339TIP3    H221982   6.039   6.608   1.412
 7340TIP3   OH221983   5.869   0.376   1.830
 7340TIP3    H121984   5.785   0.403   1.793
 7340TIP3    H221985   5.934   0.422   1.778
 7341TIP3   OH221986   5.800   4.171   3.658
 7341TIP3    H121987   5.845   4.160   3.575
 7341TIP3    H221988   5.870   4.172   3.723
 7342TIP3   OH221989   4.980   6.518   0.221
 7342TIP3    H121990   5.016   6.473   0.145
 7342TIP3    H221991   4.897   6.554   0.191
 7343TIP3   OH221992   2.910   2.263   0.602
 7343TIP3    H121993   2.895   2.309   0.684
 7343TIP3    H221994   2.926   2.172   0.628
 7344TIP3   OH221995   2.963   4.756   5.814
 7344TIP3    H121996   3.034   4.709   5.771
 7344TIP3    H221997   3.005   4.832   5.854
 7345TIP3   OH221998   0.227   5.453   3.724
 7345TIP3    H121999   0.188   5.410   3.648
 7345TIP3    H222000   0.253   5.539   3.693
 7346TIP3   OH222001   0.895   2.250   3.903
 7346TIP3    H122002   0.830   2.218   3.966
 7346TIP3    H222003   0.974   2.199   3.922
 7347TIP3   OH222004   1.994   2.615   0.299
 7347TIP3    H122005   1.902   2.630   0.277
 7347TIP3    H222006   2.038   2.698   0.277
 7348TIP3   OH222007   6.527   0.814   2.335
 7348TIP3    H122008   6.554   0.905   2.349
 7348TIP3    H222009   6.590   0.779   2.272
 7349TIP3   OH222010   4.169   1.767   2.733
 7349TIP3    H122011   4.212   1.685   2.757
 7349TIP3    H222012   4.208   1.791   2.649
 7350TIP3   OH222013   1.547   2.077   2.219
 7350TIP3    H122014   1.548   1.984   2.195
 7350TIP3    H222015   1.633   2.091   2.260
 7351TIP3   OH222016   1.676   2.011   2.725
 7351TIP3    H122017   1.593   2.039   2.686
 7351TIP3    H222018   1.677   2.050   2.812
 7352TIP3   OH222019   1.548   6.830   1.147
 7352TIP3    H122020   1.627   6.877   1.174
 7352TIP3    H222021   1.539   6.759   1.210
 7353TIP3   OH222022   4.367   6.087   5.033
 7353TIP3    H122023   4.355   6.182   5.043
 7353TIP3    H222024   4.439   6.066   5.092
 7354TIP3   OH222025   5.458   0.439   3.472
 7354TIP3    H122026   5.527   0.482   3.522
 7354TIP3    H222027   5.478   0.346   3.478
 7355TIP3   OH222028   0.220   3.206   1.643
 7355TIP3    H122029   0.306   3.217   1.601
 7355TIP3    H222030   0.157   3.233   1.576
 7356TIP3   OH222031   3.032   6.714   2.497
 7356TIP3    H122032   2.939   6.692   2.505
 7356TIP3    H222033   3.038   6.804   2.529
 7357TIP3   OH222034   0.065   5.083   0.103
 7357TIP3    H122035   0.089   5.063   0.012
 7357TIP3    H222036  -0.029   5.064   0.108
 7358TIP3   OH222037   1.021   1.252   1.528
 7358TIP3    H122038   0.993   1.160   1.525
 7358TIP3    H222039   1.114   1.249   1.509
 7359TIP3   OH222040   5.951   3.115   3.310
 7359TIP3    H122041   6.002   3.193   3.292
 7359TIP3    H222042   5.877   3.145   3.361
 7360TIP3   OH222043   5.460   6.517   1.792
 7360TIP3    H122044   5.438   6.512   1.699
 7360TIP3    H222045   5.488   6.428   1.815
 7361TIP3   OH222046   4.083   4.927   5.266
 7361TIP3    H122047   4.030   4.985   5.321
 7361TIP3    H222048   4.080   4.969   5.179
 7362TIP3   OH222049   1.730   2.249   0.846
 7362TIP3    H122050   1.763   2.338   0.845
 7362TIP3    H222051   1.665   2.248   0.917
 7363TIP3   OH222052   1.588   5.466   4.798
 7363TIP3    H122053   1.590   5.560   4.778
 7363TIP3    H222054   1.625   5.460   4.886
 7364TIP3   OH222055   2.382   3.356   1.698
 7364TIP3    H122056   2.463   3.331   1.742
 7364TIP3    H222057   2.336   3.273   1.682
 7365TIP3   OH222058   6.908   3.383   4.532
 7365TIP3    H122059   6.853   3.317   4.489
 7365TIP3    H222060   6.847   3.444   4.572
 7366TIP3   OH222061   2.378   0.885   0.762
 7366TIP3    H122062   2.449   0.950   0.769
 7366TIP3    H222063   2.392   0.845   0.676
 7367TIP3   OH222064   6.218   0.380   1.869
 7367TIP3    H122065   6.240   0.445   1.936
 7367TIP3    H222066   6.173   0.429   1.801
 7368TIP3   OH222067   1.923   0.321   3.841
 7368TIP3    H122068   2.018   0.313   3.843
 7368TIP3    H222069   1.901   0.330   3.749
 7369TIP3   OH222070   2.821   1.111   2.697
 7369TIP3    H122071   2.831   1.016   2.693
 7369TIP3    H222072   2.823   1.131   2.791
 7370TIP3   OH222073   1.500   4.801   3.812
 7370TIP3    H122074   1.578   4.830   3.764
 7370TIP3    H222075   1.522   4.715   3.846
 7371TIP3   OH222076   3.911   3.853   0.271
 7371TIP3    H122077   3.861   3.876   0.193
 7371TIP3    H222078   3.974   3.788   0.242
 7372TIP3   OH222079   3.239   0.562   4.588
 7372TIP3    H122080   3.268   0.486   4.538
 7372TIP3    H222081   3.291   0.559   4.669
 7373TIP3   OH222082   0.459   0.317   0.034
 7373TIP3    H122083   0.385   0.258   0.018
 7373TIP3    H222084   0.518   0.266   0.089
 7374TIP3   OH222085   4.598   3.825   5.518
 7374TIP3    H122086   4.532   3.788   5.459
 7374TIP3    H222087   4.660   3.868   5.459
 7375TIP3   OH222088   5.748   3.232   2.602
 7375TIP3    H122089   5.816   3.164   2.600
 7375TIP3    H222090   5.667   3.184   2.621
 7376TIP3   OH222091   4.217   5.430   4.095
 7376TIP3    H122092   4.165   5.436   4.175
 7376TIP3    H222093   4.202   5.514   4.051
 7377TIP3   OH222094   0.299   2.846   0.078
 7377TIP3    H122095   0.254   2.762   0.069
 7377TIP3    H222096   0.388   2.824   0.106
 7378TIP3   OH222097   7.092   5.262   4.567
 7378TIP3    H122098   7.086   5.357   4.579
 7378TIP3    H222099   7.008   5.228   4.596
 7379TIP3   OH222100   2.132   4.733   2.786
 7379TIP3    H122101   2.131   4.827   2.769
 7379TIP3    H222102   2.077   4.722   2.864
 7380TIP3   OH222103   5.734   4.413   0.750
 7380TIP3    H122104   5.814   4.410   0.698
 7380TIP3    H222105   5.723   4.505   0.773
 7381TIP3   OH222106   2.048   5.797   4.746
 7381TIP3    H122107   2.136   5.832   4.759
 7381TIP3    H222108   2.020   5.773   4.834
 7382TIP3   OH222109   2.335   5.169   1.026
 7382TIP3    H122110   2.427   5.152   1.046
 7382TIP3    H222111   2.329   5.158   0.931
 7383TIP3   OH222112   6.300   3.252   0.443
 7383TIP3    H122113   6.209   3.259   0.469
 7383TIP3    H222114   6.297   3.226   0.351
 7384TIP3   OH222115   0.597   3.172   1.147
 7384TIP3    H122116   0.681   3.216   1.134
 7384TIP3    H222117   0.532   3.241   1.136
 7385TIP3   OH222118   2.069   0.673   4.343
 7385TIP3    H122119   2.026   0.604   4.293
 7385TIP3    H222120   2.136   0.627   4.394
 7386TIP3   OH222121   2.180   2.755   5.798
 7386TIP3    H122122   2.252   2.774   5.858
 7386TIP3    H222123   2.166   2.661   5.807
 7387TIP3   OH222124   2.835   4.715   1.166
 7387TIP3    H122125   2.768   4.743   1.105
 7387TIP3    H222126   2.902   4.784   1.161
 7388TIP3   OH222127   4.850   0.847   2.175
 7388TIP3    H122128   4.873   0.789   2.248
 7388TIP3    H222129   4.814   0.925   2.217
 7389TIP3   OH222130   4.127   5.173   3.208
 7389TIP3    H122131   4.164   5.233   3.273
 7389TIP3    H222132   4.120   5.089   3.255
 7390TIP3   OH222133   3.488   2.192   1.269
 7390TIP3    H122134   3.520   2.125   1.329
 7390TIP3    H222135   3.567   2.229   1.229
 7391TIP3   OH222136   4.365   5.075   1.640
 7391TIP3    H122137   4.422   5.008   1.602
 7391TIP3    H222138   4.278   5.053   1.608
 7392TIP3   OH222139   2.966   1.768   3.852
 7392TIP3    H122140   2.939   1.828   3.783
 7392TIP3    H222141   2.999   1.691   3.806
 7393TIP3   OH222142   3.028   2.061   4.719
 7393TIP3    H122143   2.979   2.123   4.665
 7393TIP3    H222144   3.116   2.098   4.723
 7394TIP3   OH222145   6.935   5.712   3.037
 7394TIP3    H122146   6.921   5.663   3.119
 7394TIP3    H222147   6.874   5.672   2.975
 7395TIP3   OH222148   4.761   3.291   3.374
 7395TIP3    H122149   4.842   3.271   3.327
 7395TIP3    H222150   4.693   3.246   3.324
 7396TIP3   OH222151   3.687   6.780   3.456
 7396TIP3    H122152   3.716   6.856   3.406
 7396TIP3    H222153   3.634   6.729   3.394
 7397TIP3   OH222154   1.667   3.957   2.055
 7397TIP3    H122155   1.698   3.939   2.144
 7397TIP3    H222156   1.709   3.891   2.000
 7398TIP3   OH222157   0.332   5.010   2.676
 7398TIP3    H122158   0.333   4.918   2.648
 7398TIP3    H222159   0.311   5.006   2.770
 7399TIP3   OH222160   0.235   4.415   2.869
 7399TIP3    H122161   0.241   4.475   2.794
 7399TIP3    H222162   0.144   4.384   2.867
 7400TIP3   OH222163   0.653   2.328   1.253
 7400TIP3    H122164   0.735   2.366   1.284
 7400TIP3    H222165   0.589   2.397   1.264
 7401TIP3   OH222166   4.818   1.722   5.041
 7401TIP3    H122167   4.763   1.780   5.093
 7401TIP3    H222168   4.836   1.770   4.961
 7402TIP3   OH222169   1.987   1.634   4.125
 7402TIP3    H122170   1.902   1.601   4.156
 7402TIP3    H222171   2.051   1.581   4.172
 7403TIP3   OH222172   2.927   0.578   0.396
 7403TIP3    H122173   2.972   0.608   0.317
 7403TIP3    H222174   2.890   0.493   0.372
 7404TIP3   OH222175   7.025   5.250   3.895
 7404TIP3    H122176   7.108   5.204   3.908
 7404TIP3    H222177   6.973   5.190   3.841
 7405TIP3   OH222178   1.648   5.652   2.791
 7405TIP3    H122179   1.707   5.671   2.864
 7405TIP3    H222180   1.615   5.738   2.764
 7406TIP3   OH222181   3.511   1.566   3.554
 7406TIP3    H122182   3.542   1.637   3.498
 7406TIP3    H222183   3.425   1.544   3.519
 7407TIP3   OH222184   1.416   0.626   0.376
 7407TIP3    H122185   1.448   0.536   0.372
 7407TIP3    H222186   1.321   0.618   0.367
 7408TIP3   OH222187   0.389   5.679   0.671
 7408TIP3    H122188   0.345   5.739   0.730
 7408TIP3    H222189   0.473   5.661   0.713
 7409TIP3   OH222190   2.254   2.970   5.648
 7409TIP3    H122191   2.272   2.883   5.682
 7409TIP3    H222192   2.175   2.960   5.594
 7410TIP3   OH222193   4.415   1.103   4.289
 7410TIP3    H122194   4.416   1.147   4.204
 7410TIP3    H222195   4.445   1.170   4.351
 7411TIP3   OH222196   6.749   6.583   1.361
 7411TIP3    H122197   6.829   6.546   1.400
 7411TIP3    H222198   6.701   6.507   1.328
 7412TIP3   OH222199   2.652   3.429   2.254
 7412TIP3    H122200   2.746   3.446   2.260
 7412TIP3    H222201   2.628   3.456   2.165
 7413TIP3   OH222202   1.346   2.920   0.232
 7413TIP3    H122203   1.289   2.993   0.258
 7413TIP3    H222204   1.320   2.899   0.143
 7414TIP3   OH222205   6.074   0.139   1.704
 7414TIP3    H122206   6.020   0.208   1.664
 7414TIP3    H222207   6.140   0.187   1.755
 7415TIP3   OH222208   5.005   2.783   4.569
 7415TIP3    H122209   5.090   2.780   4.613
 7415TIP3    H222210   5.018   2.843   4.495
 7416TIP3   OH222211   6.714   5.362   2.674
 7416TIP3    H122212   6.699   5.268   2.681
 7416TIP3    H222213   6.674   5.387   2.591
 7417TIP3   OH222214   1.356   3.163   1.636
 7417TIP3    H122215   1.321   3.230   1.577
 7417TIP3    H222216   1.413   3.212   1.696
 7418TIP3   OH222217   3.839   5.597   1.882
 7418TIP3    H122218   3.794   5.567   1.961
 7418TIP3    H222219   3.923   5.551   1.883
 7419TIP3   OH222220   5.428   1.307   1.438
 7419TIP3    H122221   5.360   1.354   1.389
 7419TIP3    H222222   5.414   1.334   1.529
 7420TIP3   OH222223   4.271   3.521   0.350
 7420TIP3    H122224   4.261   3.426   0.348
 7420TIP3    H222225   4.344   3.537   0.409
 7421TIP3   OH222226   5.297   4.239   2.295
 7421TIP3    H122227   5.326   4.289   2.370
 7421TIP3    H222228   5.284   4.304   2.226
 7422TIP3   OH222229   4.594   6.516   0.344
 7422TIP3    H122230   4.680   6.558   0.336
 7422TIP3    H222231   4.545   6.572   0.404
 7423TIP3   OH222232   6.297   1.328   0.060
 7423TIP3    H122233   6.304   1.422   0.077
 7423TIP3    H222234   6.229   1.297   0.121
 7424TIP3   OH222235   1.775   0.268   2.285
 7424TIP3    H122236   1.767   0.174   2.270
 7424TIP3    H222237   1.792   0.305   2.198
 7425TIP3   OH222238   0.878   3.866   2.900
 7425TIP3    H122239   0.796   3.821   2.920
 7425TIP3    H222240   0.936   3.844   2.972
 7426TIP3   OH222241   4.636   1.903   2.832
 7426TIP3    H122242   4.553   1.951   2.821
 7426TIP3    H222243   4.638   1.841   2.760
 7427TIP3   OH222244   5.575   5.929   3.854
 7427TIP3    H122245   5.541   5.878   3.781
 7427TIP3    H222246   5.667   5.943   3.832
 7428TIP3   OH222247   1.961   1.230   0.537
 7428TIP3    H122248   1.901   1.303   0.554
 7428TIP3    H222249   1.908   1.167   0.487
 7429TIP3   OH222250   6.550   0.778   1.044
 7429TIP3    H122251   6.608   0.848   1.073
 7429TIP3    H222252   6.578   0.701   1.094
 7430TIP3   OH222253   0.861   3.837   5.436
 7430TIP3    H122254   0.930   3.771   5.442
 7430TIP3    H222255   0.907   3.920   5.452
 7431TIP3   OH222256   0.473   6.636   2.626
 7431TIP3    H122257   0.520   6.663   2.548
 7431TIP3    H222258   0.449   6.545   2.610
 7432TIP3   OH222259   2.341   0.897   0.305
 7432TIP3    H122260   2.358   0.848   0.225
 7432TIP3    H222261   2.250   0.879   0.326
 7433TIP3   OH222262   6.133   5.008   4.140
 7433TIP3    H122263   6.151   5.102   4.149
 7433TIP3    H222264   6.214   4.971   4.104
 7434TIP3   OH222265   6.051   2.694   0.194
 7434TIP3    H122266   6.077   2.755   0.124
 7434TIP3    H222267   6.053   2.748   0.273
 7435TIP3   OH222268   1.370   3.880   0.511
 7435TIP3    H122269   1.428   3.950   0.541
 7435TIP3    H222270   1.379   3.812   0.578
 7436TIP3   OH222271   0.163   5.222   2.583
 7436TIP3    H122272   0.220   5.293   2.612
 7436TIP3    H222273   0.212   5.143   2.602
 7437TIP3   OH222274   5.960   1.895   2.674
 7437TIP3    H122275   5.905   1.915   2.750
 7437TIP3    H222276   5.904   1.912   2.599
 7438TIP3   OH222277   2.938   5.640   1.665
 7438TIP3    H122278   2.940   5.556   1.711
 7438TIP3    H222279   3.018   5.640   1.612
 7439TIP3   OH222280   2.777   3.704   2.897
 7439TIP3    H122281   2.695   3.702   2.945
 7439TIP3    H222282   2.843   3.678   2.960
 7440TIP3   OH222283   6.225   2.262   0.989
 7440TIP3    H122284   6.154   2.314   1.025
 7440TIP3    H222285   6.295   2.266   1.055
 7441TIP3   OH222286   1.986   6.332   2.811
 7441TIP3    H122287   2.053   6.263   2.807
 7441TIP3    H222288   1.903   6.284   2.811
 7442TIP3   OH222289   4.617   5.402   5.824
 7442TIP3    H122290   4.643   5.312   5.844
 7442TIP3    H222291   4.683   5.456   5.868
 7443TIP3   OH222292   5.790   4.166   1.095
 7443TIP3    H122293   5.841   4.238   1.059
 7443TIP3    H222294   5.754   4.199   1.177
 7444TIP3   OH222295   2.831   3.427   3.563
 7444TIP3    H122296   2.781   3.360   3.609
 7444TIP3    H222297   2.917   3.388   3.550
 7445TIP3   OH222298   0.761   6.254   4.204
 7445TIP3    H122299   0.830   6.224   4.264
 7445TIP3    H222300   0.800   6.328   4.158
 7446TIP3   OH222301   4.448   1.105   2.713
 7446TIP3    H122302   4.522   1.072   2.764
 7446TIP3    H222303   4.485   1.177   2.662
 7447TIP3   OH222304   4.256   2.743   2.877
 7447TIP3    H122305   4.185   2.680   2.863
 7447TIP3    H222306   4.212   2.825   2.896
 7448TIP3   OH222307   1.523   5.555   2.392
 7448TIP3    H122308   1.471   5.635   2.399
 7448TIP3    H222309   1.469   5.488   2.433
 7449TIP3   OH222310   4.968   1.865   3.284
 7449TIP3    H122311   4.931   1.901   3.204
 7449TIP3    H222312   5.035   1.803   3.254
 7450TIP3   OH222313   0.960   1.645   3.016
 7450TIP3    H122314   0.973   1.551   3.005
 7450TIP3    H222315   0.894   1.652   3.086
 7451TIP3   OH222316   6.582   1.610   0.834
 7451TIP3    H122317   6.659   1.634   0.782
 7451TIP3    H222318   6.538   1.693   0.850
 7452TIP3   OH222319   5.531   5.083   0.003
 7452TIP3    H122320   5.600   5.086  -0.063
 7452TIP3    H222321   5.537   4.996   0.040
 7453TIP3   OH222322   1.284   3.225   5.420
 7453TIP3    H122323   1.194   3.244   5.448
 7453TIP3    H222324   1.306   3.295   5.359
 7454TIP3   OH222325   3.035   1.051   0.459
 7454TIP3    H122326   3.034   1.109   0.383
 7454TIP3    H222327   3.124   1.059   0.495
 7455TIP3   OH222328   5.523   1.289   4.175
 7455TIP3    H122329   5.587   1.318   4.109
 7455TIP3    H222330   5.572   1.286   4.257
 7456TIP3   OH222331   4.244   1.740   2.101
 7456TIP3    H122332   4.219   1.821   2.145
 7456TIP3    H222333   4.319   1.764   2.046
 7457TIP3   OH222334   1.420   4.915   0.785
 7457TIP3    H122335   1.367   4.922   0.865
 7457TIP3    H222336   1.449   5.005   0.768
 7458TIP3   OH222337   6.637   2.811   1.887
 7458TIP3    H122338   6.571   2.802   1.956
 7458TIP3    H222339   6.596   2.868   1.822
 7459TIP3   OH222340   4.861   4.772   2.383
 7459TIP3    H122341   4.836   4.790   2.474
 7459TIP3    H222342   4.861   4.858   2.341
 7460TIP3   OH222343   2.150   6.115   2.801
 7460TIP3    H122344   2.181   6.034   2.841
 7460TIP3    H222345   2.191   6.118   2.715
 7461TIP3   OH222346   2.003   0.960   3.850
 7461TIP3    H122347   1.992   1.055   3.837
 7461TIP3    H222348   2.052   0.931   3.772
 7462TIP3   OH222349   6.386   4.943   4.039
 7462TIP3    H122350   6.448   5.011   4.065
 7462TIP3    H222351   6.441   4.871   4.011
 7463TIP3   OH222352   4.554   3.585   4.351
 7463TIP3    H122353   4.526   3.504   4.394
 7463TIP3    H222354   4.570   3.646   4.422
 7464TIP3   OH222355   4.335   1.188   2.228
 7464TIP3    H122356   4.349   1.260   2.166
 7464TIP3    H222357   4.360   1.110   2.179
 7465TIP3   OH222358   1.595   4.233   4.877
 7465TIP3    H122359   1.617   4.238   4.971
 7465TIP3    H222360   1.678   4.207   4.835
 7466TIP3   OH222361   0.097   5.469   4.375
 7466TIP3    H122362   0.159   5.475   4.303
 7466TIP3    H222363   0.105   5.552   4.421
 7467TIP3   OH222364   1.115   2.567   2.231
 7467TIP3    H122365   1.181   2.499   2.240
 7467TIP3    H222366   1.165   2.646   2.209
 7468TIP3   OH222367   1.034   6.630   2.783
 7468TIP3    H122368   1.020   6.601   2.874
 7468TIP3    H222369   1.087   6.709   2.791
 7469TIP3   OH222370   7.017   4.107   1.950
 7469TIP3    H122371   7.005   4.106   2.045
 7469TIP3    H222372   7.086   4.171   1.936
 7470TIP3   OH222373   4.692   3.935   3.644
 7470TIP3    H122374   4.612   3.988   3.638
 7470TIP3    H222375   4.661   3.844   3.642
 7471TIP3   OH222376   6.261   5.836   1.090
 7471TIP3    H122377   6.326   5.775   1.124
 7471TIP3    H222378   6.295   5.922   1.114
 7472TIP3   OH222379   6.463   1.956   3.068
 7472TIP3    H122380   6.544   1.966   3.018
 7472TIP3    H222381   6.397   1.934   3.002
 7473TIP3   OH222382   5.916   0.867   5.943
 7473TIP3    H122383   6.008   0.845   5.929
 7473TIP3    H222384   5.868   0.808   5.886
 7474TIP3   OH222385   4.371   4.571   3.604
 7474TIP3    H122386   4.461   4.602   3.613
 7474TIP3    H222387   4.380   4.479   3.577
 7475TIP3   OH222388   0.954   4.005   4.751
 7475TIP3    H122389   1.039   3.979   4.717
 7475TIP3    H222390   0.934   4.087   4.706
 7476TIP3   OH222391   7.028   6.638   0.271
 7476TIP3    H122392   7.105   6.690   0.247
 7476TIP3    H222393   7.046   6.608   0.360
 7477TIP3   OH222394   2.589   4.530   0.720
 7477TIP3    H122395   2.617   4.621   0.715
 7477TIP3    H222396   2.584   4.501   0.629
 7478TIP3   OH222397   6.491   4.713   3.910
 7478TIP3    H122398   6.407   4.743   3.875
 7478TIP3    H222399   6.474   4.623   3.939
 7479TIP3   OH222400   7.179   5.424   3.139
 7479TIP3    H122401   7.229   5.365   3.082
 7479TIP3    H222402   7.089   5.414   3.110
 7480TIP3   OH222403   0.193   1.432   4.746
 7480TIP3    H122404   0.186   1.383   4.664
 7480TIP3    H222405   0.119   1.493   4.744
 7481TIP3   OH222406   5.535   4.001   3.929
 7481TIP3    H122407   5.477   4.013   4.005
 7481TIP3    H222408   5.498   3.927   3.882
 7482TIP3   OH222409   1.419   6.068   3.398
 7482TIP3    H122410   1.482   5.999   3.421
 7482TIP3    H222411   1.426   6.075   3.303
 7483TIP3   OH222412   1.212   0.926   1.242
 7483TIP3    H122413   1.194   0.832   1.244
 7483TIP3    H222414   1.216   0.952   1.334
 7484TIP3   OH222415   4.185   0.556   3.607
 7484TIP3    H122416   4.137   0.478   3.579
 7484TIP3    H222417   4.136   0.629   3.570
 7485TIP3   OH222418   0.308   5.207   3.809
 7485TIP3    H122419   0.387   5.173   3.767
 7485TIP3    H222420   0.305   5.299   3.781
 7486TIP3   OH222421   1.782   2.388   2.345
 7486TIP3    H122422   1.860   2.401   2.400
 7486TIP3    H222423   1.792   2.450   2.273
 7487TIP3   OH222424   4.204   6.441   0.170
 7487TIP3    H122425   4.259   6.421   0.094
 7487TIP3    H222426   4.179   6.356   0.205
 7488TIP3   OH222427   1.146   4.519   2.022
 7488TIP3    H122428   1.223   4.554   1.976
 7488TIP3    H222429   1.082   4.590   2.018
 7489TIP3   OH222430   1.852   2.732   1.556
 7489TIP3    H122431   1.850   2.752   1.649
 7489TIP3    H222432   1.802   2.650   1.548
 7490TIP3   OH222433   0.448   5.691   4.298
 7490TIP3    H122434   0.427   5.675   4.206
 7490TIP3    H222435   0.411   5.617   4.345
 7491TIP3   OH222436   7.028   2.611   3.457
 7491TIP3    H122437   7.016   2.599   3.551
 7491TIP3    H222438   7.123   2.612   3.445
 7492TIP3   OH222439   0.610   2.716   2.046
 7492TIP3    H122440   0.600   2.716   1.951
 7492TIP3    H222441   0.688   2.662   2.062
 7493TIP3   OH222442   3.605   1.199   4.689
 7493TIP3    H122443   3.547   1.264   4.727
 7493TIP3    H222444   3.689   1.244   4.680
 7494TIP3   OH222445   3.577   4.887   3.945
 7494TIP3    H122446   3.632   4.958   3.977
 7494TIP3    H222447   3.487   4.917   3.959
 7495TIP3   OH222448   3.260   2.594   2.189
 7495TIP3    H122449   3.310   2.512   2.196
 7495TIP3    H222450   3.300   2.652   2.255
 7496TIP3   OH222451   3.075   5.428   1.523
 7496TIP3    H122452   3.163   5.456   1.547
 7496TIP3    H222453   3.036   5.397   1.605
 7497TIP3   OH222454   4.492   6.076   4.317
 7497TIP3    H122455   4.432   6.099   4.247
 7497TIP3    H222456   4.488   6.150   4.378
 7498TIP3   OH222457   5.489   0.727   0.875
 7498TIP3    H122458   5.539   0.645   0.868
 7498TIP3    H222459   5.555   0.793   0.895
 7499TIP3   OH222460   0.093   5.052   3.417
 7499TIP3    H122461   0.095   4.956   3.419
 7499TIP3    H222462   0.044   5.077   3.496
 7500TIP3   OH222463   4.119   3.307   5.431
 7500TIP3    H122464   4.190   3.363   5.463
 7500TIP3    H222465   4.039   3.354   5.452
 7501TIP3   OH222466   5.594   4.365   5.446
 7501TIP3    H122467   5.593   4.422   5.369
 7501TIP3    H222468   5.687   4.346   5.459
 7502TIP3   OH222469   5.307   0.194   2.243
 7502TIP3    H122470   5.247   0.177   2.315
 7502TIP3    H222471   5.345   0.280   2.264
 7503TIP3   OH222472   2.780   4.978   4.730
 7503TIP3    H122473   2.767   4.974   4.635
 7503TIP3    H222474   2.847   5.045   4.742
 7504TIP3   OH222475   4.638   1.378   4.631
 7504TIP3    H122476   4.550   1.381   4.668
 7504TIP3    H222477   4.682   1.306   4.677
 7505TIP3   OH222478   7.114   3.367   1.845
 7505TIP3    H122479   7.201   3.384   1.881
 7505TIP3    H222480   7.094   3.445   1.793
 7506TIP3   OH222481   6.660   1.780   3.518
 7506TIP3    H122482   6.631   1.842   3.452
 7506TIP3    H222483   6.590   1.715   3.523
 7507TIP3   OH222484   3.286   4.920   5.569
 7507TIP3    H122485   3.294   5.004   5.614
 7507TIP3    H222486   3.374   4.901   5.537
 7508TIP3   OH222487   6.517   1.344   3.667
 7508TIP3    H122488   6.602   1.303   3.651
 7508TIP3    H222489   6.525   1.431   3.629
 7509TIP3   OH222490   2.451   3.023   0.740
 7509TIP3    H122491   2.388   2.990   0.804
 7509TIP3    H222492   2.427   3.114   0.727
 7510TIP3   OH222493   1.436   6.174   5.574
 7510TIP3    H122494   1.406   6.191   5.485
 7510TIP3    H222495   1.495   6.099   5.566
 7511TIP3   OH222496   5.906   4.407   1.040
 7511TIP3    H122497   5.989   4.394   0.994
 7511TIP3    H222498   5.926   4.477   1.104
 7512TIP3   OH222499   0.190   0.490   3.448
 7512TIP3    H122500   0.254   0.421   3.469
 7512TIP3    H222501   0.194   0.549   3.524
 7513TIP3   OH222502   5.340   6.702   3.481
 7513TIP3    H122503   5.399   6.747   3.542
 7513TIP3    H222504   5.264   6.677   3.535
 7514TIP3   OH222505   6.861   6.519   2.217
 7514TIP3    H122506   6.829   6.436   2.252
 7514TIP3    H222507   6.878   6.500   2.125
 7515TIP3   OH222508   3.935   3.595   2.491
 7515TIP3    H122509   4.011   3.654   2.497
 7515TIP3    H222510   3.897   3.615   2.405
 7516TIP3   OH222511   5.606   4.625   2.683
 7516TIP3    H122512   5.608   4.693   2.751
 7516TIP3    H222513   5.616   4.673   2.601
 7517TIP3   OH222514   0.713   2.484   5.164
 7517TIP3    H122515   0.626   2.445   5.177
 7517TIP3    H222516   0.695   2.572   5.129
 7518TIP3   OH222517   7.002   5.300   0.264
 7518TIP3    H122518   7.087   5.339   0.285
 7518TIP3    H222519   7.023   5.211   0.236
 7519TIP3   OH222520   3.259   1.439   3.775
 7519TIP3    H122521   3.173   1.455   3.814
 7519TIP3    H222522   3.318   1.433   3.850
 7520TIP3   OH222523   3.062   5.316   4.118
 7520TIP3    H122524   2.979   5.296   4.075
 7520TIP3    H222525   3.059   5.411   4.132
 7521TIP3   OH222526   6.474   4.626   3.362
 7521TIP3    H122527   6.405   4.662   3.306
 7521TIP3    H222528   6.428   4.596   3.440
 7522TIP3   OH222529   2.470   2.758   5.241
 7522TIP3    H122530   2.544   2.700   5.260
 7522TIP3    H222531   2.412   2.748   5.316
 7523TIP3   OH222532   2.249   4.674   1.820
 7523TIP3    H122533   2.191   4.682   1.745
 7523TIP3    H222534   2.213   4.736   1.885
 7524TIP3   OH222535   1.389   4.294   0.502
 7524TIP3    H122536   1.306   4.265   0.539
 7524TIP3    H222537   1.434   4.338   0.574
 7525TIP3   OH222538   5.037   3.795   3.536
 7525TIP3    H122539   5.015   3.806   3.628
 7525TIP3    H222540   4.980   3.724   3.506
 7526TIP3   OH222541   6.666   3.679   1.910
 7526TIP3    H122542   6.658   3.586   1.930
 7526TIP3    H222543   6.591   3.698   1.854
 7527TIP3   OH222544   6.063   0.387   0.703
 7527TIP3    H122545   6.051   0.459   0.765
 7527TIP3    H222546   6.023   0.418   0.622
 7528TIP3   OH222547   3.054   1.477   5.437
 7528TIP3    H122548   2.980   1.464   5.377
 7528TIP3    H222549   3.052   1.570   5.457
 7529TIP3   OH222550   5.785   5.654   1.637
 7529TIP3    H122551   5.751   5.607   1.712
 7529TIP3    H222552   5.733   5.735   1.633
 7530TIP3   OH222553   1.541   2.921   2.941
 7530TIP3    H122554   1.507   2.915   2.852
 7530TIP3    H222555   1.591   3.003   2.942
 7531TIP3   OH222556   6.802   6.230   1.615
 7531TIP3    H122557   6.716   6.259   1.645
 7531TIP3    H222558   6.799   6.241   1.520
 7532TIP3   OH222559   0.932   4.314   2.982
 7532TIP3    H122560   0.924   4.262   3.063
 7532TIP3    H222561   0.921   4.250   2.912
 7533TIP3   OH222562   6.150   0.047   5.114
 7533TIP3    H122563   6.071   0.094   5.090
 7533TIP3    H222564   6.145   0.038   5.209
 7534TIP3   OH222565   2.130   2.128   1.136
 7534TIP3    H122566   2.125   2.042   1.093
 7534TIP3    H222567   2.102   2.190   1.068
 7535TIP3   OH222568   3.601   6.035   1.349
 7535TIP3    H122569   3.667   5.995   1.405
 7535TIP3    H222570   3.623   6.004   1.261
 7536TIP3   OH222571   0.608   6.461   1.212
 7536TIP3    H122572   0.624   6.438   1.120
 7536TIP3    H222573   0.664   6.537   1.227
 7537TIP3   OH222574   3.839   6.771   4.687
 7537TIP3    H122575   3.862   6.827   4.614
 7537TIP3    H222576   3.763   6.721   4.657
 7538TIP3   OH222577   1.452   0.148   4.073
 7538TIP3    H122578   1.538   0.165   4.036
 7538TIP3    H222579   1.457   0.058   4.106
 7539TIP3   OH222580   6.414   6.499  -0.044
 7539TIP3    H122581   6.361   6.546   0.021
 7539TIP3    H222582   6.501   6.536  -0.035
 7540TIP3   OH222583   6.023   3.530   0.839
 7540TIP3    H122584   5.982   3.486   0.913
 7540TIP3    H222585   6.075   3.462   0.796
 7541TIP3   OH222586   5.612   3.590   5.546
 7541TIP3    H122587   5.587   3.599   5.454
 7541TIP3    H222588   5.702   3.556   5.543
 7542TIP3   OH222589   1.524   2.966   3.901
 7542TIP3    H122590   1.463   3.033   3.870
 7542TIP3    H222591   1.541   2.912   3.824
 7543TIP3   OH222592   5.387   5.473   2.788
 7543TIP3    H122593   5.337   5.457   2.868
 7543TIP3    H222594   5.359   5.560   2.759
 7544TIP3   OH222595   6.245   2.033   4.002
 7544TIP3    H122596   6.261   1.985   4.084
 7544TIP3    H222597   6.212   2.118   4.031
 7545TIP3   OH222598   6.409   3.092   3.277
 7545TIP3    H122599   6.427   3.079   3.370
 7545TIP3    H222600   6.485   3.055   3.233
 7546TIP3   OH222601   3.006   1.327   0.265
 7546TIP3    H122602   2.969   1.325   0.353
 7546TIP3    H222603   2.931   1.343   0.208
 7547TIP3   OH222604   1.426   1.281   2.783
 7547TIP3    H122605   1.485   1.206   2.784
 7547TIP3    H222606   1.369   1.266   2.707
 7548TIP3   OH222607   6.435   1.348   3.348
 7548TIP3    H122608   6.440   1.432   3.393
 7548TIP3    H222609   6.523   1.333   3.315
 7549TIP3   OH222610   1.545   2.079   4.744
 7549TIP3    H122611   1.607   2.010   4.767
 7549TIP3    H222612   1.553   2.088   4.649
 7550TIP3   OH222613   5.825   4.400   0.051
 7550TIP3    H122614   5.799   4.363  -0.033
 7550TIP3    H222615   5.812   4.494   0.041
 7551TIP3   OH222616   4.088   0.806   0.222
 7551TIP3    H122617   4.010   0.755   0.244
 7551TIP3    H222618   4.054   0.883   0.177
 7552TIP3   OH222619   1.585   0.114   5.744
 7552TIP3    H122620   1.679   0.098   5.743
 7552TIP3    H222621   1.575   0.205   5.714
 7553TIP3   OH222622   3.138   6.358   5.678
 7553TIP3    H122623   3.201   6.412   5.630
 7553TIP3    H222624   3.099   6.419   5.741
 7554TIP3   OH222625   3.599   4.174   4.175
 7554TIP3    H122626   3.600   4.148   4.267
 7554TIP3    H222627   3.579   4.267   4.177
 7555TIP3   OH222628   2.290   1.457   3.446
 7555TIP3    H122629   2.371   1.441   3.496
 7555TIP3    H222630   2.312   1.528   3.387
 7556TIP3   OH222631   4.268   6.828   2.157
 7556TIP3    H122632   4.267   6.903   2.099
 7556TIP3    H222633   4.259   6.752   2.099
 7557TIP3   OH222634   5.367   3.096   4.835
 7557TIP3    H122635   5.344   3.051   4.754
 7557TIP3    H222636   5.393   3.184   4.807
 7558TIP3   OH222637   6.879   4.596   4.660
 7558TIP3    H122638   6.888   4.690   4.675
 7558TIP3    H222639   6.965   4.560   4.680
 7559TIP3   OH222640   1.578   0.026   3.208
 7559TIP3    H122641   1.652   0.034   3.267
 7559TIP3    H222642   1.606  -0.038   3.142
 7560TIP3   OH222643   5.505   2.201   2.455
 7560TIP3    H122644   5.577   2.185   2.517
 7560TIP3    H222645   5.458   2.118   2.451
 7561TIP3   OH222646   0.760   3.955   3.629
 7561TIP3    H122647   0.697   3.890   3.600
 7561TIP3    H222648   0.781   3.929   3.719
 7562TIP3   OH222649   1.559   3.393   0.365
 7562TIP3    H122650   1.586   3.344   0.288
 7562TIP3    H222651   1.552   3.327   0.434
 7563TIP3   OH222652   2.359   3.534   2.599
 7563TIP3    H122653   2.269   3.534   2.631
 7563TIP3    H222654   2.408   3.584   2.664
 7564TIP3   OH222655   3.488   0.514   2.648
 7564TIP3    H122656   3.492   0.450   2.577
 7564TIP3    H222657   3.579   0.530   2.671
 7565TIP3   OH222658   2.885   1.081   3.541
 7565TIP3    H122659   2.853   1.124   3.462
 7565TIP3    H222660   2.861   1.140   3.612
 7566TIP3   OH222661   5.943   0.090   0.984
 7566TIP3    H122662   6.029   0.129   0.967
 7566TIP3    H222663   5.959   0.025   1.052
 7567TIP3   OH222664   0.851   6.656   0.464
 7567TIP3    H122665   0.779   6.644   0.401
 7567TIP3    H222666   0.927   6.619   0.420
 7568TIP3   OH222667   1.753   2.667   4.391
 7568TIP3    H122668   1.708   2.690   4.472
 7568TIP3    H222669   1.792   2.582   4.408
 7569TIP3   OH222670   1.509   3.583   5.735
 7569TIP3    H122671   1.586   3.527   5.734
 7569TIP3    H222672   1.463   3.558   5.816
 7570TIP3   OH222673   2.113   3.526   2.711
 7570TIP3    H122674   2.073   3.543   2.797
 7570TIP3    H222675   2.040   3.501   2.655
 7571TIP3   OH222676   6.862   0.931   1.023
 7571TIP3    H122677   6.787   0.990   1.014
 7571TIP3    H222678   6.862   0.906   1.116
 7572TIP3   OH222679   2.354   2.560   0.225
 7572TIP3    H122680   2.336   2.623   0.156
 7572TIP3    H222681   2.361   2.612   0.304
 7573TIP3   OH222682   2.335   5.639   3.556
 7573TIP3    H122683   2.379   5.658   3.473
 7573TIP3    H222684   2.264   5.579   3.533
 7574TIP3   OH222685   0.062   4.354   3.166
 7574TIP3    H122686   0.012   4.281   3.130
 7574TIP3    H222687   0.131   4.314   3.218
 7575TIP3   OH222688   4.863   5.367   2.442
 7575TIP3    H122689   4.821   5.339   2.524
 7575TIP3    H222690   4.939   5.418   2.469
 7576TIP3   OH222691   3.092   2.577   4.408
 7576TIP3    H122692   3.091   2.482   4.395
 7576TIP3    H222693   3.184   2.598   4.425
 7577TIP3   OH222694   4.139   2.956   0.809
 7577TIP3    H122695   4.153   2.910   0.892
 7577TIP3    H222696   4.066   3.016   0.827
 7578TIP3   OH222697   4.666   5.748   1.459
 7578TIP3    H122698   4.579   5.773   1.428
 7578TIP3    H222699   4.717   5.734   1.379
 7579TIP3   OH222700   6.518   4.587   1.499
 7579TIP3    H122701   6.528   4.499   1.536
 7579TIP3    H222702   6.601   4.603   1.453
 7580TIP3   OH222703   5.008   4.332   5.704
 7580TIP3    H122704   5.001   4.295   5.791
 7580TIP3    H222705   5.033   4.424   5.718
 7581TIP3   OH222706   0.493   3.648   3.776
 7581TIP3    H122707   0.415   3.702   3.778
 7581TIP3    H222708   0.491   3.600   3.859
 7582TIP3   OH222709   0.890   4.017   1.920
 7582TIP3    H122710   0.833   3.942   1.903
 7582TIP3    H222711   0.889   4.067   1.838
 7583TIP3   OH222712   0.250   3.550   2.535
 7583TIP3    H122713   0.242   3.602   2.455
 7583TIP3    H222714   0.166   3.506   2.543
 7584TIP3   OH222715   5.111   6.354   3.848
 7584TIP3    H122716   5.070   6.317   3.769
 7584TIP3    H222717   5.040   6.359   3.912
 7585TIP3   OH222718   0.471   5.148   0.872
 7585TIP3    H122719   0.400   5.087   0.854
 7585TIP3    H222720   0.550   5.094   0.880
 7586TIP3   OH222721   6.681   1.371   1.043
 7586TIP3    H122722   6.605   1.418   1.009
 7586TIP3    H222723   6.755   1.406   0.993
 7587TIP3   OH222724   2.886   4.273   1.984
 7587TIP3    H122725   2.906   4.365   1.970
 7587TIP3    H222726   2.794   4.272   2.010
 7588TIP3   OH222727   2.265   0.603   5.879
 7588TIP3    H122728   2.177   0.624   5.847
 7588TIP3    H222729   2.256   0.514   5.913
 7589TIP3   OH222730   5.331   3.832   4.495
 7589TIP3    H122731   5.245   3.793   4.477
 7589TIP3    H222732   5.383   3.759   4.530
 7590TIP3   OH222733   0.566   0.902   3.825
 7590TIP3    H122734   0.607   0.985   3.852
 7590TIP3    H222735   0.583   0.843   3.898
 7591TIP3   OH222736   1.869   6.147   3.247
 7591TIP3    H122737   1.834   6.154   3.158
 7591TIP3    H222738   1.806   6.093   3.294
 7592TIP3   OH222739   4.210   4.289   5.238
 7592TIP3    H122740   4.298   4.288   5.276
 7592TIP3    H222741   4.189   4.197   5.223
 7593TIP3   OH222742   0.629   5.699   4.012
 7593TIP3    H122743   0.563   5.732   3.952
 7593TIP3    H222744   0.710   5.697   3.960
 7594TIP3   OH222745   2.728   1.479   0.982
 7594TIP3    H122746   2.700   1.430   0.904
 7594TIP3    H222747   2.703   1.569   0.963
 7595TIP3   OH222748   3.472   0.786   5.195
 7595TIP3    H122749   3.444   0.872   5.226
 7595TIP3    H222750   3.392   0.745   5.161
 7596TIP3   OH222751   4.071   3.655   0.196
 7596TIP3    H122752   4.104   3.652   0.106
 7596TIP3    H222753   4.146   3.627   0.249
 7597TIP3   OH222754   3.867   3.721   1.759
 7597TIP3    H122755   3.956   3.722   1.794
 7597TIP3    H222756   3.813   3.755   1.830
 7598TIP3   OH222757   6.193   0.067   0.347
 7598TIP3    H122758   6.274   0.018   0.365
 7598TIP3    H222759   6.143   0.010   0.289
 7599TIP3   OH222760   3.350   1.654   1.753
 7599TIP3    H122761   3.304   1.725   1.797
 7599TIP3    H222762   3.343   1.675   1.660
 7600TIP3   OH222763   5.580   0.955   5.678
 7600TIP3    H122764   5.556   0.865   5.655
 7600TIP3    H222765   5.521   0.978   5.749
 7601TIP3   OH222766   2.450   0.981   1.536
 7601TIP3    H122767   2.482   1.049   1.476
 7601TIP3    H222768   2.499   0.902   1.509
 7602TIP3   OH222769   6.555   6.501   2.857
 7602TIP3    H122770   6.524   6.440   2.790
 7602TIP3    H222771   6.633   6.542   2.818
 7603TIP3   OH222772   3.919   3.503   4.950
 7603TIP3    H122773   3.923   3.490   5.045
 7603TIP3    H222774   3.995   3.558   4.930
 7604TIP3   OH222775   0.757   0.763   1.278
 7604TIP3    H122776   0.696   0.702   1.320
 7604TIP3    H222777   0.802   0.806   1.351
 7605TIP3   OH222778   2.587   3.666   4.956
 7605TIP3    H122779   2.537   3.670   5.038
 7605TIP3    H222780   2.678   3.680   4.983
 7606TIP3   OH222781   2.983   5.356   0.767
 7606TIP3    H122782   2.997   5.268   0.731
 7606TIP3    H222783   3.064   5.403   0.747
 7607TIP3   OH222784   5.271   5.891   4.474
 7607TIP3    H122785   5.176   5.900   4.464
 7607TIP3    H222786   5.282   5.803   4.513
 7608TIP3   OH222787   3.298   5.111   3.502
 7608TIP3    H122788   3.357   5.076   3.435
 7608TIP3    H222789   3.347   5.100   3.584
 7609TIP3   OH222790   2.087   0.321   1.910
 7609TIP3    H122791   2.043   0.270   1.841
 7609TIP3    H222792   2.145   0.380   1.862
 7610TIP3   OH222793   1.113   3.003   1.596
 7610TIP3    H122794   1.185   3.060   1.622
 7610TIP3    H222795   1.043   3.022   1.658
 7611TIP3   OH222796   7.094   1.451   3.468
 7611TIP3    H122797   7.071   1.526   3.413
 7611TIP3    H222798   7.014   1.400   3.475
 7612TIP3   OH222799   5.427   5.324   3.310
 7612TIP3    H122800   5.450   5.263   3.380
 7612TIP3    H222801   5.496   5.313   3.245
 7613TIP3   OH222802   2.063   0.255   0.641
 7613TIP3    H122803   1.980   0.229   0.599
 7613TIP3    H222804   2.037   0.312   0.713
 7614TIP3   OH222805   2.183   6.740   2.814
 7614TIP3    H122806   2.161   6.731   2.907
 7614TIP3    H222807   2.106   6.779   2.774
 7615TIP3   OH222808   4.984   1.946   2.296
 7615TIP3    H122809   4.901   1.980   2.262
 7615TIP3    H222810   5.000   1.867   2.244
 7616TIP3   OH222811   4.585   3.171   1.798
 7616TIP3    H122812   4.598   3.087   1.843
 7616TIP3    H222813   4.520   3.217   1.852
 7617TIP3   OH222814   4.211   3.285   2.066
 7617TIP3    H122815   4.236   3.194   2.049
 7617TIP3    H222816   4.293   3.334   2.057
 7618TIP3   OH222817   4.226   0.871   1.490
 7618TIP3    H122818   4.195   0.961   1.506
 7618TIP3    H222819   4.186   0.820   1.560
 7619TIP3   OH222820   0.944   2.806   5.339
 7619TIP3    H122821   0.963   2.886   5.290
 7619TIP3    H222822   1.009   2.743   5.308
 7620TIP3   OH222823   0.005   6.822   4.970
 7620TIP3    H122824   0.085   6.786   4.931
 7620TIP3    H222825   0.028   6.912   4.992
 7621TIP3   OH222826   4.334   3.633   1.000
 7621TIP3    H122827   4.311   3.594   0.916
 7621TIP3    H222828   4.350   3.725   0.980
 7622TIP3   OH222829   2.668   3.207   1.048
 7622TIP3    H122830   2.753   3.212   1.092
 7622TIP3    H222831   2.666   3.282   0.989
 7623TIP3   OH222832   1.409   2.392   3.808
 7623TIP3    H122833   1.356   2.362   3.734
 7623TIP3    H222834   1.379   2.339   3.881
 7624TIP3   OH222835   4.044   2.324   1.262
 7624TIP3    H122836   3.998   2.359   1.338
 7624TIP3    H222837   3.997   2.360   1.187
 7625TIP3   OH222838   0.774   0.083   1.289
 7625TIP3    H122839   0.790   0.053   1.199
 7625TIP3    H222840   0.858   0.120   1.316
 7626TIP3   OH222841   4.369   6.255   5.680
 7626TIP3    H122842   4.358   6.204   5.761
 7626TIP3    H222843   4.415   6.335   5.708
 7627TIP3   OH222844   0.323   3.837   0.467
 7627TIP3    H122845   0.381   3.781   0.414
 7627TIP3    H222846   0.294   3.780   0.539
 7628TIP3   OH222847   2.461   6.626   2.175
 7628TIP3    H122848   2.442   6.626   2.081
 7628TIP3    H222849   2.480   6.717   2.197
 7629TIP3   OH222850   2.838   5.833   5.731
 7629TIP3    H122851   2.920   5.825   5.780
 7629TIP3    H222852   2.864   5.870   5.646
 7630TIP3   OH222853   3.518   3.064   1.541
 7630TIP3    H122854   3.613   3.055   1.538
 7630TIP3    H222855   3.497   3.066   1.635
 7631TIP3   OH222856   7.010   2.843   0.830
 7631TIP3    H122857   7.017   2.925   0.781
 7631TIP3    H222858   6.929   2.803   0.797
 7632TIP3   OH222859   6.184   1.912   1.385
 7632TIP3    H122860   6.230   1.943   1.464
 7632TIP3    H222861   6.202   1.818   1.383
 7633TIP3   OH222862   5.757   6.283   2.309
 7633TIP3    H122863   5.748   6.187   2.305
 7633TIP3    H222864   5.839   6.297   2.357
 7634TIP3   OH222865   3.860   6.139   0.774
 7634TIP3    H122866   3.826   6.226   0.753
 7634TIP3    H222867   3.804   6.108   0.845
 7635TIP3   OH222868   2.948   5.931   1.577
 7635TIP3    H122869   2.961   5.863   1.642
 7635TIP3    H222870   3.036   5.967   1.562
 7636TIP3   OH222871   0.213   1.951   1.651
 7636TIP3    H122872   0.254   1.867   1.672
 7636TIP3    H222873   0.204   1.951   1.556
 7637TIP3   OH222874   5.931   4.865   4.567
 7637TIP3    H122875   5.889   4.949   4.586
 7637TIP3    H222876   6.011   4.866   4.620
 7638TIP3   OH222877   6.629   3.901   0.444
 7638TIP3    H122878   6.608   3.977   0.499
 7638TIP3    H222879   6.690   3.850   0.498
 7639TIP3   OH222880   4.183   1.797   0.440
 7639TIP3    H122881   4.203   1.785   0.347
 7639TIP3    H222882   4.265   1.777   0.485
 7640TIP3   OH222883   2.105   5.656   2.923
 7640TIP3    H122884   2.135   5.743   2.899
 7640TIP3    H222885   2.061   5.623   2.844
 7641TIP3   OH222886   5.902   6.266   1.710
 7641TIP3    H122887   5.902   6.170   1.699
 7641TIP3    H222888   5.831   6.283   1.772
 7642TIP3   OH222889   0.493   5.960   5.351
 7642TIP3    H122890   0.406   5.963   5.392
 7642TIP3    H222891   0.495   6.037   5.294
 7643TIP3   OH222892   7.203   5.715   3.881
 7643TIP3    H122893   7.133   5.671   3.833
 7643TIP3    H222894   7.256   5.643   3.916
 7644TIP3   OH222895   0.088   0.422   5.809
 7644TIP3    H122896   0.017   0.437   5.747
 7644TIP3    H222897   0.163   0.467   5.771
 7645TIP3   OH222898   0.194   4.563   4.065
 7645TIP3    H122899   0.235   4.517   4.138
 7645TIP3    H222900   0.104   4.578   4.093
 7646TIP3   OH222901   2.335   1.068   4.400
 7646TIP3    H122902   2.300   1.121   4.328
 7646TIP3    H222903   2.290   0.984   4.391
 7647TIP3   OH222904   4.439   5.483   0.801
 7647TIP3    H122905   4.425   5.564   0.751
 7647TIP3    H222906   4.352   5.447   0.814
 7648TIP3   OH222907   1.300   1.301   3.091
 7648TIP3    H122908   1.375   1.268   3.041
 7648TIP3    H222909   1.293   1.241   3.166
 7649TIP3   OH222910   6.087   5.623   2.336
 7649TIP3    H122911   6.051   5.558   2.396
 7649TIP3    H222912   6.052   5.598   2.250
 7650TIP3   OH222913   1.469   2.019   5.554
 7650TIP3    H122914   1.451   2.052   5.642
 7650TIP3    H222915   1.472   1.924   5.564
 7651TIP3   OH222916   3.385   5.025   3.745
 7651TIP3    H122917   3.356   5.069   3.825
 7651TIP3    H222918   3.362   4.933   3.759
 7652TIP3   OH222919   3.548   1.277   1.011
 7652TIP3    H122920   3.589   1.231   0.939
 7652TIP3    H222921   3.463   1.306   0.977
 7653TIP3   OH222922   6.568   1.913   4.929
 7653TIP3    H122923   6.614   1.961   4.998
 7653TIP3    H222924   6.626   1.839   4.910
 7654TIP3   OH222925   6.121   0.988   2.176
 7654TIP3    H122926   6.170   1.055   2.224
 7654TIP3    H222927   6.165   0.906   2.198
 7655TIP3   OH222928   4.724   5.333   2.689
 7655TIP3    H122929   4.657   5.398   2.712
 7655TIP3    H222930   4.778   5.325   2.768
 7656TIP3   OH222931   6.027   4.944   5.459
 7656TIP3    H122932   6.076   4.869   5.492
 7656TIP3    H222933   6.094   5.006   5.430
 7657TIP3   OH222934   2.762   1.780   2.547
 7657TIP3    H122935   2.800   1.782   2.459
 7657TIP3    H222936   2.733   1.870   2.563
 7658TIP3   OH222937   1.945   0.649   2.155
 7658TIP3    H122938   1.941   0.640   2.060
 7658TIP3    H222939   1.871   0.705   2.177
 7659TIP3   OH222940   3.620   0.192   0.836
 7659TIP3    H122941   3.525   0.194   0.835
 7659TIP3    H222942   3.643   0.130   0.906
 7660TIP3   OH222943   1.530   0.216   4.762
 7660TIP3    H122944   1.531   0.198   4.668
 7660TIP3    H222945   1.620   0.202   4.790
 7661TIP3   OH222946   2.082   3.677   4.293
 7661TIP3    H122947   2.068   3.771   4.286
 7661TIP3    H222948   2.104   3.649   4.204
 7662TIP3   OH222949   3.326   1.656   2.518
 7662TIP3    H122950   3.288   1.607   2.591
 7662TIP3    H222951   3.253   1.668   2.457
 7663TIP3   OH222952   3.172   0.614   1.699
 7663TIP3    H122953   3.143   0.685   1.755
 7663TIP3    H222954   3.177   0.538   1.757
 7664TIP3   OH222955   3.951   6.624   0.348
 7664TIP3    H122956   4.045   6.613   0.356
 7664TIP3    H222957   3.934   6.617   0.254
 7665TIP3   OH222958   1.979   2.762   2.429
 7665TIP3    H122959   2.005   2.719   2.511
 7665TIP3    H222960   2.027   2.844   2.428
 7666TIP3   OH222961   4.895  -0.034   5.214
 7666TIP3    H122962   4.987  -0.047   5.192
 7666TIP3    H222963   4.885   0.061   5.222
 7667TIP3   OH222964   1.531   2.187   0.309
 7667TIP3    H122965   1.532   2.098   0.343
 7667TIP3    H222966   1.602   2.231   0.356
 7668TIP3   OH222967   4.547   0.691   1.580
 7668TIP3    H122968   4.567   0.721   1.491
 7668TIP3    H222969   4.633   0.682   1.622
 7669TIP3   OH222970   6.805   5.407   4.746
 7669TIP3    H122971   6.839   5.351   4.816
 7669TIP3    H222972   6.710   5.404   4.758
 7670TIP3   OH222973   3.224   3.215   4.525
 7670TIP3    H122974   3.282   3.249   4.457
 7670TIP3    H222975   3.224   3.120   4.512
 7671TIP3   OH222976   0.993   1.284   0.857
 7671TIP3    H122977   1.034   1.275   0.771
 7671TIP3    H222978   0.938   1.362   0.850
 7672TIP3   OH222979   1.984   4.831   0.723
 7672TIP3    H122980   1.997   4.785   0.806
 7672TIP3    H222981   1.982   4.923   0.747
 7673TIP3   OH222982   2.612   2.697   2.219
 7673TIP3    H122983   2.523   2.690   2.251
 7673TIP3    H222984   2.606   2.675   2.126
 7674TIP3   OH222985   1.537   5.741   4.747
 7674TIP3    H122986   1.562   5.790   4.825
 7674TIP3    H222987   1.445   5.765   4.733
 7675TIP3   OH222988   6.662   2.721   3.789
 7675TIP3    H122989   6.751   2.692   3.808
 7675TIP3    H222990   6.606   2.654   3.827
 7676TIP3   OH222991   5.047   6.718   0.854
 7676TIP3    H122992   5.036   6.725   0.949
 7676TIP3    H222993   4.997   6.792   0.819
 7677TIP3   OH222994   6.603   4.439   0.097
 7677TIP3    H122995   6.531   4.375   0.098
 7677TIP3    H222996   6.592   4.488   0.179
 7678TIP3   OH222997   4.458   3.837   3.852
 7678TIP3    H122998   4.532   3.889   3.885
 7678TIP3    H222999   4.416   3.803   3.931
 7679TIP3   OH223000   6.290   4.030   0.528
 7679TIP3    H123001   6.282   3.936   0.543
 7679TIP3    H223002   6.381   4.049   0.552
 7680TIP3   OH223003   5.584   0.054   3.868
 7680TIP3    H123004   5.500   0.099   3.877
 7680TIP3    H223005   5.644   0.121   3.837
 7681TIP3   OH223006   3.999   3.055   3.237
 7681TIP3    H123007   3.970   3.046   3.328
 7681TIP3    H223008   3.964   3.140   3.209
 7682TIP3   OH223009   5.820   3.450   0.533
 7682TIP3    H123010   5.752   3.413   0.477
 7682TIP3    H223011   5.790   3.433   0.622
 7683TIP3   OH223012   4.869   0.190   1.741
 7683TIP3    H123013   4.924   0.137   1.683
 7683TIP3    H223014   4.859   0.137   1.820
 7684TIP3   OH223015   3.794   0.433   4.014
 7684TIP3    H123016   3.717   0.461   3.963
 7684TIP3    H223017   3.847   0.512   4.023
 7685TIP3   OH223018   0.362   0.502   2.346
 7685TIP3    H123019   0.445   0.512   2.394
 7685TIP3    H223020   0.378   0.430   2.285
 7686TIP3   OH223021   6.296   3.822   1.012
 7686TIP3    H123022   6.237   3.747   1.025
 7686TIP3    H223023   6.380   3.793   1.046
 7687TIP3   OH223024   5.175   5.430   0.226
 7687TIP3    H123025   5.162   5.374   0.303
 7687TIP3    H223026   5.254   5.395   0.185
 7688TIP3   OH223027   1.871   2.352   5.323
 7688TIP3    H123028   1.948   2.366   5.377
 7688TIP3    H223029   1.849   2.259   5.336
 7689TIP3   OH223030   0.026   1.826   0.980
 7689TIP3    H123031   0.073   1.790   1.055
 7689TIP3    H223032  -0.033   1.755   0.953
 7690TIP3   OH223033   0.630   2.923   5.719
 7690TIP3    H123034   0.708   2.974   5.697
 7690TIP3    H223035   0.600   2.889   5.635
 7691TIP3   OH223036   3.112   4.375   2.626
 7691TIP3    H123037   3.028   4.421   2.617
 7691TIP3    H223038   3.174   4.427   2.575
 7692TIP3   OH223039   6.329   5.087   1.791
 7692TIP3    H123040   6.279   5.144   1.734
 7692TIP3    H223041   6.385   5.035   1.733
 7693TIP3   OH223042   0.106   0.540   2.439
 7693TIP3    H123043   0.190   0.540   2.392
 7693TIP3    H223044   0.117   0.474   2.507
 7694TIP3   OH223045   7.187   4.378   2.860
 7694TIP3    H123046   7.151   4.296   2.894
 7694TIP3    H223047   7.110   4.428   2.833
 7695TIP3   OH223048   4.780   2.222   1.639
 7695TIP3    H123049   4.739   2.308   1.646
 7695TIP3    H223050   4.712   2.161   1.669
 7696TIP3   OH223051   4.858   0.186   1.112
 7696TIP3    H123052   4.924   0.169   1.045
 7696TIP3    H223053   4.800   0.252   1.073
 7697TIP3   OH223054   6.871   1.631   2.099
 7697TIP3    H123055   6.932   1.625   2.173
 7697TIP3    H223056   6.912   1.693   2.039
 7698TIP3   OH223057   2.457   4.064   1.279
 7698TIP3    H123058   2.453   4.149   1.324
 7698TIP3    H223059   2.521   4.014   1.329
 7699TIP3   OH223060   2.921   2.147   2.181
 7699TIP3    H123061   2.992   2.211   2.187
 7699TIP3    H223062   2.849   2.195   2.140
 7700TIP3   OH223063   3.015   0.025   3.741
 7700TIP3    H123064   3.101   0.013   3.782
 7700TIP3    H223065   3.008  -0.049   3.680
 7701TIP3   OH223066   3.413   3.735   1.662
 7701TIP3    H123067   3.430   3.647   1.630
 7701TIP3    H223068   3.318   3.746   1.653
 7702TIP3   OH223069   0.728   6.544   1.976
 7702TIP3    H123070   0.760   6.632   1.995
 7702TIP3    H223071   0.716   6.503   2.062
 7703TIP3   OH223072   0.254   1.104   5.338
 7703TIP3    H123073   0.322   1.045   5.304
 7703TIP3    H223074   0.282   1.123   5.427
 7704TIP3   OH223075   0.843   4.926   3.943
 7704TIP3    H123076   0.931   4.957   3.921
 7704TIP3    H223077   0.829   4.957   4.033
 7705TIP3   OH223078   6.900   6.447   4.226
 7705TIP3    H123079   6.905   6.530   4.273
 7705TIP3    H223080   6.930   6.467   4.138
 7706TIP3   OH223081   2.625   0.831   3.907
 7706TIP3    H123082   2.709   0.854   3.867
 7706TIP3    H223083   2.648   0.804   3.996
 7707TIP3   OH223084   5.725   2.869   2.796
 7707TIP3    H123085   5.747   2.960   2.819
 7707TIP3    H223086   5.637   2.874   2.760
 7708TIP3   OH223087   4.882   3.232   1.857
 7708TIP3    H123088   4.796   3.190   1.859
 7708TIP3    H223089   4.938   3.173   1.908
 7709TIP3   OH223090   4.464   4.771   5.608
 7709TIP3    H123091   4.449   4.782   5.702
 7709TIP3    H223092   4.399   4.827   5.566
 7710TIP3   OH223093   4.913   6.113   2.907
 7710TIP3    H123094   4.883   6.087   2.994
 7710TIP3    H223095   4.833   6.119   2.855
 7711TIP3   OH223096   5.418   3.683   1.360
 7711TIP3    H123097   5.342   3.640   1.398
 7711TIP3    H223098   5.488   3.618   1.366
 7712TIP3   OH223099   2.950   6.069   5.104
 7712TIP3    H123100   2.933   6.156   5.140
 7712TIP3    H223101   3.043   6.054   5.122
 7713TIP3   OH223102   4.943   4.201   4.584
 7713TIP3    H123103   4.851   4.204   4.557
 7713TIP3    H223104   4.968   4.109   4.574
 7714TIP3   OH223105   1.933   6.552   4.915
 7714TIP3    H123106   1.919   6.457   4.921
 7714TIP3    H223107   1.945   6.569   4.822
 7715TIP3   OH223108   4.053   6.472   1.830
 7715TIP3    H123109   4.092   6.525   1.761
 7715TIP3    H223110   4.048   6.384   1.792
 7716TIP3   OH223111   2.069   3.101   1.448
 7716TIP3    H123112   2.088   3.179   1.396
 7716TIP3    H223113   1.982   3.073   1.418
 7717TIP3   OH223114   6.182   5.839   0.025
 7717TIP3    H123115   6.122   5.844  -0.049
 7717TIP3    H223116   6.130   5.864   0.101
 7718TIP3   OH223117   6.977   5.859   5.683
 7718TIP3    H123118   7.038   5.830   5.750
 7718TIP3    H223119   6.934   5.779   5.652
 7719TIP3   OH223120   3.542   4.150   1.489
 7719TIP3    H123121   3.589   4.109   1.562
 7719TIP3    H223122   3.514   4.077   1.434
 7720TIP3   OH223123   4.718   5.966   2.539
 7720TIP3    H123124   4.764   5.883   2.540
 7720TIP3    H223125   4.681   5.972   2.451
 7721TIP3   OH223126   0.375   2.347   5.452
 7721TIP3    H123127   0.451   2.386   5.495
 7721TIP3    H223128   0.304   2.409   5.468
 7722TIP3   OH223129   4.948   2.095   0.101
 7722TIP3    H123130   4.862   2.071   0.136
 7722TIP3    H223131   4.929   2.129   0.014
 7723TIP3   OH223132   5.685   3.807   0.578
 7723TIP3    H123133   5.680   3.903   0.581
 7723TIP3    H223134   5.593   3.779   0.583
 7724TIP3   OH223135   5.809   3.786   4.180
 7724TIP3    H123136   5.756   3.761   4.256
 7724TIP3    H223137   5.897   3.797   4.215
 7725TIP3   OH223138   4.682   0.426   4.626
 7725TIP3    H123139   4.645   0.512   4.641
 7725TIP3    H223140   4.736   0.409   4.704
 7726TIP3   OH223141   0.662   5.422   1.538
 7726TIP3    H123142   0.628   5.416   1.448
 7726TIP3    H223143   0.693   5.512   1.546
 7727TIP3   OH223144   2.470   5.841   1.706
 7727TIP3    H123145   2.552   5.806   1.672
 7727TIP3    H223146   2.404   5.777   1.680
 7728TIP3   OH223147   5.504   3.931   0.829
 7728TIP3    H123148   5.562   4.001   0.800
 7728TIP3    H223149   5.558   3.852   0.826
 7729TIP3   OH223150   2.523   4.860   5.752
 7729TIP3    H123151   2.593   4.925   5.758
 7729TIP3    H223152   2.547   4.792   5.816
 7730TIP3   OH223153   4.404   1.440   5.508
 7730TIP3    H123154   4.454   1.513   5.472
 7730TIP3    H223155   4.336   1.422   5.443
 7731TIP3   OH223156   6.416   5.468   2.023
 7731TIP3    H123157   6.507   5.437   2.028
 7731TIP3    H223158   6.390   5.481   2.114
 7732TIP3   OH223159   6.980   2.597   2.499
 7732TIP3    H123160   7.058   2.544   2.520
 7732TIP3    H223161   6.988   2.673   2.556
 7733TIP3   OH223162   4.407   5.150   5.063
 7733TIP3    H123163   4.438   5.126   4.975
 7733TIP3    H223164   4.391   5.244   5.058
 7734TIP3   OH223165   3.060   5.571   0.379
 7734TIP3    H123166   3.145   5.606   0.405
 7734TIP3    H223167   3.000   5.597   0.448
 7735TIP3   OH223168   3.637   5.597   0.705
 7735TIP3    H123169   3.701   5.644   0.759
 7735TIP3    H223170   3.574   5.665   0.678
 7736TIP3   OH223171   4.448   2.904   0.028
 7736TIP3    H123172   4.370   2.932  -0.021
 7736TIP3    H223173   4.423   2.820   0.065
 7737TIP3   OH223174   6.166   5.241   0.789
 7737TIP3    H123175   6.245   5.216   0.838
 7737TIP3    H223176   6.096   5.240   0.855
 7738TIP3   OH223177   4.861   4.417   0.926
 7738TIP3    H123178   4.837   4.343   0.981
 7738TIP3    H223179   4.946   4.393   0.888
 7739TIP3   OH223180   3.630   0.008   2.855
 7739TIP3    H123181   3.571   0.061   2.909
 7739TIP3    H223182   3.679  -0.044   2.918
 7740TIP3   OH223183   2.821   5.293   3.133
 7740TIP3    H123184   2.865   5.239   3.067
 7740TIP3    H223185   2.735   5.311   3.095
 7741TIP3   OH223186   2.150   1.676   4.871
 7741TIP3    H123187   2.063   1.659   4.833
 7741TIP3    H223188   2.132   1.733   4.946
 7742TIP3   OH223189   6.112   6.161   3.586
 7742TIP3    H123190   6.185   6.101   3.569
 7742TIP3    H223191   6.120   6.184   3.679
 7743TIP3   OH223192   5.047   1.207   0.309
 7743TIP3    H123193   5.105   1.131   0.309
 7743TIP3    H223194   4.962   1.171   0.284
 7744TIP3   OH223195   5.914   2.930   1.975
 7744TIP3    H123196   5.956   2.928   1.889
 7744TIP3    H223197   5.958   2.861   2.025
 7745TIP3   OH223198   3.705   2.296   4.480
 7745TIP3    H123199   3.684   2.251   4.398
 7745TIP3    H223200   3.767   2.238   4.523
 7746TIP3   OH223201   4.452   2.112   5.475
 7746TIP3    H123202   4.448   2.022   5.506
 7746TIP3    H223203   4.361   2.135   5.455
 7747TIP3   OH223204   1.152   3.951   3.669
 7747TIP3    H123205   1.218   4.014   3.699
 7747TIP3    H223206   1.070   3.983   3.705
 7748TIP3   OH223207   0.201   6.230   5.796
 7748TIP3    H123208   0.283   6.223   5.845
 7748TIP3    H223209   0.218   6.298   5.731
 7749TIP3   OH223210   2.539   6.142   2.866
 7749TIP3    H123211   2.617   6.196   2.853
 7749TIP3    H223212   2.474   6.203   2.901
 7750TIP3   OH223213   3.446   4.521   0.780
 7750TIP3    H123214   3.452   4.582   0.854
 7750TIP3    H223215   3.520   4.462   0.793
 7751TIP3   OH223216   1.913   2.373   3.083
 7751TIP3    H123217   1.917   2.411   2.995
 7751TIP3    H223218   1.962   2.290   3.075
 7752TIP3   OH223219   6.510   2.419   3.260
 7752TIP3    H123220   6.490   2.326   3.263
 7752TIP3    H223221   6.579   2.431   3.324
 7753TIP3   OH223222   0.675   3.671   2.156
 7753TIP3    H123223   0.704   3.590   2.198
 7753TIP3    H223224   0.652   3.729   2.229
 7754TIP3   OH223225   5.454   4.978   3.740
 7754TIP3    H123226   5.438   4.884   3.731
 7754TIP3    H223227   5.386   5.008   3.800
 7755TIP3   OH223228   2.116   5.544   1.268
 7755TIP3    H123229   2.199   5.517   1.228
 7755TIP3    H223230   2.110   5.492   1.348
 7756TIP3   OH223231   4.696   0.274   2.878
 7756TIP3    H123232   4.628   0.341   2.887
 7756TIP3    H223233   4.673   0.227   2.798
 7757TIP3   OH223234   1.228   6.681   3.663
 7757TIP3    H123235   1.249   6.666   3.755
 7757TIP3    H223236   1.182   6.764   3.662
 7758TIP3   OH223237   5.655   5.643   2.684
 7758TIP3    H123238   5.685   5.719   2.734
 7758TIP3    H223239   5.561   5.640   2.698
 7759TIP3   OH223240   6.265   1.358   2.221
 7759TIP3    H123241   6.308   1.311   2.149
 7759TIP3    H223242   6.210   1.423   2.178
 7760TIP3   OH223243   3.562   0.797   0.635
 7760TIP3    H123244   3.491   0.847   0.594
 7760TIP3    H223245   3.583   0.729   0.571
 7761TIP3   OH223246   1.756   5.250   4.377
 7761TIP3    H123247   1.703   5.329   4.369
 7761TIP3    H223248   1.777   5.244   4.470
 7762TIP3   OH223249   6.374   1.863   2.009
 7762TIP3    H123250   6.349   1.952   2.035
 7762TIP3    H223251   6.469   1.860   2.025
 7763TIP3   OH223252   4.989   5.518   5.359
 7763TIP3    H123253   4.954   5.497   5.446
 7763TIP3    H223254   4.912   5.536   5.306
 7764TIP3   OH223255   3.448   6.173   5.686
 7764TIP3    H123256   3.445   6.079   5.673
 7764TIP3    H223257   3.508   6.205   5.619
 7765TIP3   OH223258   2.597   4.250   2.517
 7765TIP3    H123259   2.598   4.227   2.424
 7765TIP3    H223260   2.562   4.172   2.560
 7766TIP3   OH223261   0.707   6.072   5.795
 7766TIP3    H123262   0.635   6.127   5.824
 7766TIP3    H223263   0.760   6.057   5.873
 7767TIP3   OH223264   6.089   6.279   3.098
 7767TIP3    H123265   6.000   6.312   3.103
 7767TIP3    H223266   6.085   6.193   3.139
 7768TIP3   OH223267   1.814   6.519   5.409
 7768TIP3    H123268   1.825   6.483   5.497
 7768TIP3    H223269   1.904   6.537   5.380
 7769TIP3   OH223270   4.552   0.087   4.038
 7769TIP3    H123271   4.530   0.024   3.969
 7769TIP3    H223272   4.645   0.071   4.057
 7770TIP3   OH223273   1.037   4.622   5.087
 7770TIP3    H123274   1.060   4.715   5.078
 7770TIP3    H223275   1.119   4.579   5.110
 7771TIP3   OH223276   4.758   4.761   4.223
 7771TIP3    H123277   4.706   4.841   4.231
 7771TIP3    H223278   4.835   4.777   4.276
 7772TIP3   OH223279   2.028   5.146   5.542
 7772TIP3    H123280   2.062   5.060   5.519
 7772TIP3    H223281   1.978   5.131   5.623
 7773TIP3   OH223282   5.441   0.066   4.444
 7773TIP3    H123283   5.504   0.137   4.435
 7773TIP3    H223284   5.423   0.038   4.355
 7774TIP3   OH223285   3.160   3.531   1.608
 7774TIP3    H123286   3.119   3.519   1.522
 7774TIP3    H223287   3.160   3.444   1.647
 7775TIP3   OH223288   2.212   0.039   4.791
 7775TIP3    H123289   2.152   0.099   4.835
 7775TIP3    H223290   2.288   0.035   4.850
 7776TIP3   OH223291   2.070   4.165   3.670
 7776TIP3    H123292   1.986   4.125   3.647
 7776TIP3    H223293   2.130   4.133   3.603
 7777TIP3   OH223294   5.697   1.604   4.452
 7777TIP3    H123295   5.743   1.661   4.514
 7777TIP3    H223296   5.743   1.617   4.369
 7778TIP3   OH223297   5.707   3.781   1.756
 7778TIP3    H123298   5.789   3.736   1.734
 7778TIP3    H223299   5.698   3.768   1.850
 7779TIP3   OH223300   1.802   6.537   0.077
 7779TIP3    H123301   1.867   6.597   0.042
 7779TIP3    H223302   1.719   6.584   0.069
 7780TIP3   OH223303   2.602   5.142   5.100
 7780TIP3    H123304   2.557   5.141   5.015
 7780TIP3    H223305   2.642   5.055   5.107
 7781TIP3   OH223306   7.000   1.329   0.595
 7781TIP3    H123307   7.001   1.249   0.648
 7781TIP3    H223308   6.908   1.339   0.569
 7782TIP3   OH223309   0.991   0.772   1.704
 7782TIP3    H123310   1.074   0.747   1.664
 7782TIP3    H223311   0.956   0.690   1.739
 7783TIP3   OH223312   3.930   3.362   4.053
 7783TIP3    H123313   3.860   3.372   4.118
 7783TIP3    H223314   3.988   3.295   4.092
 7784TIP3   OH223315   1.355   4.311   4.622
 7784TIP3    H123316   1.378   4.247   4.555
 7784TIP3    H223317   1.267   4.340   4.598
 7785TIP3   OH223318   0.998   5.080   0.811
 7785TIP3    H123319   0.910   5.087   0.773
 7785TIP3    H223320   0.988   5.113   0.901
 7786TIP3   OH223321   2.734   3.196   2.498
 7786TIP3    H123322   2.758   3.222   2.586
 7786TIP3    H223323   2.697   3.276   2.459
 7787TIP3   OH223324   2.391   3.739   3.383
 7787TIP3    H123325   2.324   3.761   3.448
 7787TIP3    H223326   2.451   3.680   3.428
 7788TIP3   OH223327   5.511   3.374   3.494
 7788TIP3    H123328   5.476   3.463   3.502
 7788TIP3    H223329   5.434   3.318   3.486
 7789TIP3   OH223330   0.247   4.559   2.069
 7789TIP3    H123331   0.221   4.575   1.979
 7789TIP3    H223332   0.318   4.622   2.085
 7790TIP3   OH223333   1.883   0.585   5.580
 7790TIP3    H123334   1.821   0.525   5.539
 7790TIP3    H223335   1.872   0.667   5.533
 7791TIP3   OH223336   2.668   5.747   2.664
 7791TIP3    H123337   2.595   5.809   2.672
 7791TIP3    H223338   2.645   5.692   2.589
 7792TIP3   OH223339   2.647   4.389   0.464
 7792TIP3    H123340   2.563   4.344   0.474
 7792TIP3    H223341   2.703   4.351   0.532
 7793TIP3   OH223342   2.227   2.225   0.340
 7793TIP3    H123343   2.208   2.316   0.363
 7793TIP3    H223344   2.142   2.187   0.321
 7794TIP3   OH223345   4.876   5.755   2.535
 7794TIP3    H123346   4.875   5.662   2.559
 7794TIP3    H223347   4.961   5.787   2.566
 7795TIP3   OH223348   6.294   5.962   4.565
 7795TIP3    H123349   6.321   6.015   4.640
 7795TIP3    H223350   6.347   5.995   4.492
 7796TIP3   OH223351   6.536   1.587   1.632
 7796TIP3    H123352   6.468   1.646   1.663
 7796TIP3    H223353   6.618   1.629   1.659
 7797TIP3   OH223354   3.849   1.019   5.811
 7797TIP3    H123355   3.938   1.040   5.783
 7797TIP3    H223356   3.858   0.939   5.862
 7798TIP3   OH223357   2.756   4.396   4.332
 7798TIP3    H123358   2.677   4.401   4.386
 7798TIP3    H223359   2.795   4.311   4.353
 7799TIP3   OH223360   4.079   3.857   1.459
 7799TIP3    H123361   4.150   3.797   1.483
 7799TIP3    H223362   4.123   3.928   1.413
 7800TIP3   OH223363   2.577   5.039   5.461
 7800TIP3    H123364   2.529   5.079   5.534
 7800TIP3    H223365   2.514   4.980   5.421
 7801TIP3   OH223366   3.845   1.984   5.680
 7801TIP3    H123367   3.837   2.079   5.682
 7801TIP3    H223368   3.759   1.953   5.652
 7802TIP3   OH223369   5.792   0.475   3.839
 7802TIP3    H123370   5.841   0.405   3.883
 7802TIP3    H223371   5.806   0.552   3.893
 7803TIP3   OH223372   6.244   0.460   5.838
 7803TIP3    H123373   6.165   0.509   5.817
 7803TIP3    H223374   6.315   0.513   5.801
 7804TIP3   OH223375   3.194   1.761   4.212
 7804TIP3    H123376   3.190   1.743   4.306
 7804TIP3    H223377   3.102   1.768   4.185
 7805TIP3   OH223378   3.955   2.967   2.793
 7805TIP3    H123379   3.871   3.005   2.767
 7805TIP3    H223380   3.933   2.908   2.865
 7806TIP3   OH223381   4.417   3.259   3.484
 7806TIP3    H123382   4.374   3.320   3.425
 7806TIP3    H223383   4.466   3.200   3.426
 7807TIP3   OH223384   4.229   6.655   3.875
 7807TIP3    H123385   4.268   6.599   3.808
 7807TIP3    H223386   4.145   6.681   3.838
 7808TIP3   OH223387   3.376   2.278   3.839
 7808TIP3    H123388   3.442   2.268   3.771
 7808TIP3    H223389   3.296   2.242   3.800
 7809TIP3   OH223390   4.751   3.523   3.069
 7809TIP3    H123391   4.784   3.586   3.005
 7809TIP3    H223392   4.687   3.572   3.120
 7810TIP3   OH223393   5.704   4.306   3.352
 7810TIP3    H123394   5.640   4.289   3.282
 7810TIP3    H223395   5.651   4.338   3.425
 7811TIP3   OH223396   0.226   1.331   2.448
 7811TIP3    H123397   0.207   1.258   2.390
 7811TIP3    H223398   0.141   1.365   2.474
 7812TIP3   OH223399  -0.004   1.448   5.743
 7812TIP3    H123400   0.038   1.391   5.679
 7812TIP3    H223401   0.056   1.523   5.750
 7813TIP3   OH223402   6.082   0.864   0.568
 7813TIP3    H123403   5.997   0.837   0.603
 7813TIP3    H223404   6.080   0.960   0.573
 7814TIP3   OH223405   5.934   0.257   2.107
 7814TIP3    H123406   5.915   0.285   2.017
 7814TIP3    H223407   5.849   0.260   2.151
 7815TIP3   OH223408   2.733   3.097   1.523
 7815TIP3    H123409   2.786   3.177   1.530
 7815TIP3    H223410   2.796   3.026   1.521
 7816TIP3   OH223411   0.533   4.265   2.375
 7816TIP3    H123412   0.571   4.213   2.446
 7816TIP3    H223413   0.463   4.316   2.418
 7817TIP3   OH223414   0.861   0.857   0.638
 7817TIP3    H123415   0.861   0.776   0.587
 7817TIP3    H223416   0.869   0.827   0.729
 7818TIP3   OH223417   0.845   4.696   3.773
 7818TIP3    H123418   0.916   4.717   3.712
 7818TIP3    H223419   0.840   4.772   3.832
 7819TIP3   OH223420   5.699   1.718   1.961
 7819TIP3    H123421   5.700   1.805   1.922
 7819TIP3    H223422   5.712   1.734   2.055
 7820TIP3   OH223423   4.246   1.932   4.256
 7820TIP3    H123424   4.230   1.907   4.165
 7820TIP3    H223425   4.188   2.007   4.271
 7821TIP3   OH223426   3.146   5.001   4.800
 7821TIP3    H123427   3.201   4.985   4.877
 7821TIP3    H223428   3.189   4.952   4.730
 7822TIP3   OH223429   0.573   0.486   2.517
 7822TIP3    H123430   0.580   0.447   2.604
 7822TIP3    H223431   0.638   0.439   2.465
 7823TIP3   OH223432   1.135   1.713   4.369
 7823TIP3    H123433   1.217   1.724   4.416
 7823TIP3    H223434   1.155   1.737   4.279
 7824TIP3   OH223435   4.359   3.249   0.465
 7824TIP3    H123436   4.440   3.256   0.415
 7824TIP3    H223437   4.389   3.229   0.554
 7825TIP3   OH223438   2.409   1.737   5.799
 7825TIP3    H123439   2.451   1.815   5.765
 7825TIP3    H223440   2.321   1.738   5.761
 7826TIP3   OH223441   1.347   2.552   4.861
 7826TIP3    H123442   1.429   2.596   4.884
 7826TIP3    H223443   1.286   2.624   4.842
 7827TIP3   OH223444   3.361   0.097   0.096
 7827TIP3    H123445   3.285   0.067   0.046
 7827TIP3    H223446   3.326   0.120   0.182
 7828TIP3   OH223447   6.889   5.057   1.584
 7828TIP3    H123448   6.874   5.125   1.650
 7828TIP3    H223449   6.885   4.975   1.633
 7829TIP3   OH223450   5.767   2.086   3.149
 7829TIP3    H123451   5.718   2.164   3.175
 7829TIP3    H223452   5.835   2.119   3.090
 7830TIP3   OH223453   5.951   3.870   1.203
 7830TIP3    H123454   5.860   3.901   1.202
 7830TIP3    H223455   5.968   3.845   1.113
 7831TIP3   OH223456   2.404   4.059   5.852
 7831TIP3    H123457   2.396   4.143   5.808
 7831TIP3    H223458   2.494   4.057   5.886
 7832TIP3   OH223459   4.113   4.732   5.668
 7832TIP3    H123460   4.118   4.709   5.760
 7832TIP3    H223461   4.136   4.825   5.665
 7833TIP3   OH223462   6.521   2.948   4.621
 7833TIP3    H123463   6.581   2.886   4.579
 7833TIP3    H223464   6.574   2.989   4.689
 7834TIP3   OH223465   4.853   0.346   4.816
 7834TIP3    H123466   4.940   0.341   4.856
 7834TIP3    H223467   4.821   0.256   4.816
 7835TIP3   OH223468   2.162   6.134   2.432
 7835TIP3    H123469   2.197   6.221   2.453
 7835TIP3    H223470   2.148   6.136   2.338
 7836TIP3   OH223471   0.782   6.532   3.766
 7836TIP3    H123472   0.848   6.549   3.833
 7836TIP3    H223473   0.802   6.444   3.734
 7837TIP3   OH223474   1.698   2.747   5.395
 7837TIP3    H123475   1.644   2.786   5.327
 7837TIP3    H223476   1.785   2.739   5.356
 7838TIP3   OH223477   5.088   0.769   2.362
 7838TIP3    H123478   5.064   0.838   2.424
 7838TIP3    H223479   5.149   0.811   2.301
 7839TIP3   OH223480   6.047   6.268   0.905
 7839TIP3    H123481   6.022   6.181   0.937
 7839TIP3    H223482   5.986   6.328   0.947
 7840TIP3   OH223483   1.297   6.041   1.307
 7840TIP3    H123484   1.265   6.109   1.248
 7840TIP3    H223485   1.365   5.996   1.257
 7841TIP3   OH223486   1.760   1.216   3.299
 7841TIP3    H123487   1.748   1.163   3.221
 7841TIP3    H223488   1.673   1.219   3.339
 7842TIP3   OH223489   3.211   0.676   3.129
 7842TIP3    H123490   3.193   0.583   3.117
 7842TIP3    H223491   3.179   0.695   3.217
 7843TIP3   OH223492   6.385   1.922   4.713
 7843TIP3    H123493   6.453   1.930   4.780
 7843TIP3    H223494   6.351   2.011   4.702
 7844TIP3   OH223495   3.448   6.437   5.539
 7844TIP3    H123496   3.510   6.372   5.506
 7844TIP3    H223497   3.456   6.510   5.478
 7845TIP3   OH223498   2.382   4.229   3.635
 7845TIP3    H123499   2.472   4.260   3.636
 7845TIP3    H223500   2.335   4.291   3.580
 7846TIP3   OH223501   2.467   6.150  -0.053
 7846TIP3    H123502   2.515   6.180  -0.130
 7846TIP3    H223503   2.491   6.212   0.016
 7847TIP3   OH223504   0.438   4.464   0.300
 7847TIP3    H123505   0.489   4.538   0.267
 7847TIP3    H223506   0.449   4.397   0.233
 7848TIP3   OH223507   3.766   5.369   3.947
 7848TIP3    H123508   3.701   5.440   3.943
 7848TIP3    H223509   3.774   5.339   3.856
 7849TIP3   OH223510   3.955   6.782   1.582
 7849TIP3    H123511   3.872   6.812   1.620
 7849TIP3    H223512   3.930   6.737   1.502
 7850TIP3   OH223513   6.832   5.480   3.526
 7850TIP3    H123514   6.832   5.396   3.479
 7850TIP3    H223515   6.748   5.481   3.571
 7851TIP3   OH223516   5.098   3.257   5.039
 7851TIP3    H123517   5.030   3.203   4.998
 7851TIP3    H223518   5.088   3.343   4.998
 7852TIP3   OH223519   3.044   2.849   3.725
 7852TIP3    H123520   2.958   2.815   3.701
 7852TIP3    H223521   3.025   2.928   3.777
 7853TIP3   OH223522   2.912   4.191   4.726
 7853TIP3    H123523   2.971   4.214   4.798
 7853TIP3    H223524   2.824   4.197   4.764
 7854TIP3   OH223525   5.886   0.440   3.556
 7854TIP3    H123526   5.910   0.477   3.641
 7854TIP3    H223527   5.922   0.351   3.558
 7855TIP3   OH223528   2.958   1.095   0.063
 7855TIP3    H123529   2.884   1.140   0.022
 7855TIP3    H223530   2.921   1.014   0.097
 7856TIP3   OH223531   0.976   2.598   1.027
 7856TIP3    H123532   1.044   2.648   1.072
 7856TIP3    H223533   0.934   2.547   1.097
 7857TIP3   OH223534   3.984   2.978   0.162
 7857TIP3    H123535   3.933   3.042   0.212
 7857TIP3    H223536   4.063   2.963   0.215
 7858TIP3   OH223537   2.462   2.734   1.564
 7858TIP3    H123538   2.541   2.716   1.513
 7858TIP3    H223539   2.458   2.662   1.627
 7859TIP3   OH223540   3.455   4.777   0.589
 7859TIP3    H123541   3.504   4.731   0.520
 7859TIP3    H223542   3.503   4.757   0.670
 7860TIP3   OH223543   0.765   4.866   1.851
 7860TIP3    H123544   0.810   4.785   1.877
 7860TIP3    H223545   0.673   4.841   1.845
 7861TIP3   OH223546   0.135   0.562   2.038
 7861TIP3    H123547   0.048   0.529   2.059
 7861TIP3    H223548   0.180   0.487   1.997
 7862TIP3   OH223549   5.799   0.561   1.436
 7862TIP3    H123550   5.743   0.589   1.364
 7862TIP3    H223551   5.822   0.471   1.415
 7863TIP3   OH223552   4.253   1.083   4.797
 7863TIP3    H123553   4.270   0.994   4.768
 7863TIP3    H223554   4.243   1.133   4.716
 7864TIP3   OH223555   6.040   2.587   5.605
 7864TIP3    H123556   6.103   2.607   5.536
 7864TIP3    H223557   5.955   2.590   5.561
 7865TIP3   OH223558   5.211   6.385   1.330
 7865TIP3    H123559   5.160   6.434   1.266
 7865TIP3    H223560   5.153   6.314   1.358
 7866TIP3   OH223561   5.997   0.433   4.442
 7866TIP3    H123562   5.957   0.504   4.493
 7866TIP3    H223563   5.951   0.434   4.359
 7867TIP3   OH223564   3.687   0.083   1.829
 7867TIP3    H123565   3.740   0.143   1.775
 7867TIP3    H223566   3.603   0.128   1.839
 7868TIP3   OH223567   4.446   2.796   4.800
 7868TIP3    H123568   4.476   2.797   4.709
 7868TIP3    H223569   4.352   2.777   4.793
 7869TIP3   OH223570   4.840   3.848   4.463
 7869TIP3    H123571   4.837   3.906   4.387
 7869TIP3    H223572   4.900   3.892   4.524
 7870TIP3   OH223573   0.063   4.205   0.933
 7870TIP3    H123574   0.027   4.264   0.867
 7870TIP3    H223575   0.118   4.144   0.884
 7871TIP3   OH223576   2.466   5.090   3.240
 7871TIP3    H123577   2.509   5.145   3.175
 7871TIP3    H223578   2.437   5.013   3.191
 7872TIP3   OH223579   3.825   5.820   3.141
 7872TIP3    H123580   3.732   5.802   3.125
 7872TIP3    H223581   3.870   5.783   3.064
 7873TIP3   OH223582   2.089   3.950   4.338
 7873TIP3    H123583   2.171   3.899   4.336
 7873TIP3    H223584   2.118   4.041   4.336
 7874TIP3   OH223585   3.067   2.340   2.284
 7874TIP3    H123586   3.102   2.422   2.248
 7874TIP3    H223587   2.989   2.367   2.334
 7875TIP3   OH223588   0.704   5.258   1.770
 7875TIP3    H123589   0.707   5.313   1.692
 7875TIP3    H223590   0.674   5.316   1.840
 7876TIP3   OH223591   1.457   1.719   4.866
 7876TIP3    H123592   1.379   1.730   4.813
 7876TIP3    H223593   1.439   1.767   4.947
 7877TIP3   OH223594   0.069   4.954   5.443
 7877TIP3    H123595   0.061   4.860   5.456
 7877TIP3    H223596   0.098   4.963   5.352
 7878TIP3   OH223597   5.893   0.508   2.527
 7878TIP3    H123598   5.895   0.572   2.457
 7878TIP3    H223599   5.824   0.538   2.586
 7879TIP3   OH223600   4.010   2.199   4.791
 7879TIP3    H123601   3.968   2.176   4.874
 7879TIP3    H223602   4.094   2.237   4.816
 7880TIP3   OH223603   0.971   0.674   5.514
 7880TIP3    H123604   1.046   0.651   5.571
 7880TIP3    H223605   0.937   0.589   5.486
 7881TIP3   OH223606   3.235   4.481   1.282
 7881TIP3    H123607   3.316   4.463   1.329
 7881TIP3    H223608   3.168   4.481   1.349
 7882TIP3   OH223609   6.986   4.083   3.641
 7882TIP3    H123610   7.072   4.055   3.671
 7882TIP3    H223611   6.959   4.016   3.579
 7883TIP3   OH223612   7.259   2.499   4.793
 7883TIP3    H123613   7.199   2.446   4.740
 7883TIP3    H223614   7.202   2.556   4.844
 7884TIP3   OH223615   4.713   1.915   1.779
 7884TIP3    H123616   4.775   1.901   1.707
 7884TIP3    H223617   4.637   1.861   1.756
 7885TIP3   OH223618   1.643   5.623   3.439
 7885TIP3    H123619   1.657   5.627   3.534
 7885TIP3    H223620   1.719   5.576   3.406
 7886TIP3   OH223621   0.392   5.116   2.237
 7886TIP3    H123622   0.347   5.164   2.168
 7886TIP3    H223623   0.483   5.115   2.210
 7887TIP3   OH223624   3.772   2.800   1.831
 7887TIP3    H123625   3.689   2.754   1.823
 7887TIP3    H223626   3.819   2.780   1.750
 7888TIP3   OH223627   4.270   5.829   3.579
 7888TIP3    H123628   4.287   5.865   3.492
 7888TIP3    H223629   4.210   5.892   3.620
 7889TIP3   OH223630   2.580   6.687   0.465
 7889TIP3    H123631   2.501   6.674   0.413
 7889TIP3    H223632   2.639   6.735   0.407
 7890TIP3   OH223633   4.841   4.694   5.782
 7890TIP3    H123634   4.832   4.740   5.699
 7890TIP3    H223635   4.893   4.616   5.761
 7891TIP3   OH223636   1.092   2.986   3.114
 7891TIP3    H123637   1.023   3.012   3.175
 7891TIP3    H223638   1.169   2.972   3.169
 7892TIP3   OH223639   2.466   6.068   2.403
 7892TIP3    H123640   2.475   5.995   2.464
 7892TIP3    H223641   2.441   6.142   2.458
 7893TIP3   OH223642   2.376   4.683   0.099
 7893TIP3    H123643   2.415   4.596   0.113
 7893TIP3    H223644   2.428   4.742   0.153
 7894TIP3   OH223645   5.803   2.681   3.099
 7894TIP3    H123646   5.745   2.730   3.157
 7894TIP3    H223647   5.850   2.748   3.050
 7895TIP3   OH223648   3.988   3.548   1.410
 7895TIP3    H123649   4.025   3.591   1.488
 7895TIP3    H223650   4.024   3.598   1.337
 7896TIP3   OH223651   2.272   0.819   3.012
 7896TIP3    H123652   2.343   0.804   2.950
 7896TIP3    H223653   2.254   0.913   3.006
 7897TIP3   OH223654   0.931   4.350   4.380
 7897TIP3    H123655   1.006   4.408   4.363
 7897TIP3    H223656   0.933   4.286   4.309
 7898TIP3   OH223657   2.698   6.453   4.140
 7898TIP3    H123658   2.787   6.453   4.174
 7898TIP3    H223659   2.643   6.441   4.218
 7899TIP3   OH223660   5.237   0.175   4.641
 7899TIP3    H123661   5.277   0.142   4.560
 7899TIP3    H223662   5.145   0.189   4.617
 7900TIP3   OH223663   2.363   5.677   5.094
 7900TIP3    H123664   2.450   5.641   5.072
 7900TIP3    H223665   2.325   5.612   5.153
 7901TIP3   OH223666   1.066   3.852   3.127
 7901TIP3    H123667   1.107   3.797   3.194
 7901TIP3    H223668   1.135   3.914   3.103
 7902TIP3   OH223669   5.601   5.895   1.287
 7902TIP3    H123670   5.545   5.973   1.296
 7902TIP3    H223671   5.680   5.928   1.244
 7903TIP3   OH223672   2.011   1.991   0.669
 7903TIP3    H123673   2.051   1.943   0.597
 7903TIP3    H223674   2.085   2.030   0.716
 7904TIP3   OH223675   2.257   0.381   4.098
 7904TIP3    H123676   2.344   0.419   4.115
 7904TIP3    H223677   2.260   0.357   4.005
 7905TIP3   OH223678   5.696   5.912   2.771
 7905TIP3    H123679   5.754   5.960   2.711
 7905TIP3    H223680   5.698   5.964   2.852
 7906TIP3   OH223681   5.013   1.033   3.852
 7906TIP3    H123682   5.005   1.047   3.946
 7906TIP3    H223683   4.925   1.052   3.818
 7907TIP3   OH223684   0.299   4.107   3.180
 7907TIP3    H123685   0.351   4.036   3.218
 7907TIP3    H223686   0.349   4.186   3.200
 7908TIP3   OH223687   5.902   2.075   2.208
 7908TIP3    H123688   5.847   2.106   2.136
 7908TIP3    H223689   5.962   2.012   2.167
 7909TIP3   OH223690   0.944   1.399   1.993
 7909TIP3    H123691   0.916   1.314   2.027
 7909TIP3    H223692   0.985   1.379   1.909
 7910TIP3   OH223693   2.996   1.757   3.116
 7910TIP3    H123694   3.036   1.841   3.139
 7910TIP3    H223695   2.904   1.767   3.138
 7911TIP3   OH223696   0.287   6.373   5.184
 7911TIP3    H123697   0.246   6.342   5.103
 7911TIP3    H223698   0.213   6.399   5.239
 7912TIP3   OH223699   2.457   2.023   3.444
 7912TIP3    H123700   2.545   1.986   3.432
 7912TIP3    H223701   2.434   1.999   3.534
 7913TIP3   OH223702   0.827   2.696   0.816
 7913TIP3    H123703   0.736   2.693   0.847
 7913TIP3    H223704   0.877   2.655   0.887
 7914TIP3   OH223705   2.180   5.717   4.530
 7914TIP3    H123706   2.145   5.755   4.610
 7914TIP3    H223707   2.134   5.634   4.520
 7915TIP3   OH223708   1.818   1.516   4.362
 7915TIP3    H123709   1.802   1.473   4.446
 7915TIP3    H223710   1.803   1.448   4.296
 7916TIP3   OH223711   4.186   5.805   0.090
 7916TIP3    H123712   4.217   5.858   0.164
 7916TIP3    H223713   4.092   5.797   0.104
 7917TIP3   OH223714   4.847   3.018   0.088
 7917TIP3    H123715   4.928   3.031   0.138
 7917TIP3    H223716   4.875   2.972   0.009
 7918TIP3   OH223717   4.322   5.425   0.535
 7918TIP3    H123718   4.247   5.411   0.593
 7918TIP3    H223719   4.299   5.504   0.485
 7919TIP3   OH223720   2.927   1.823   4.168
 7919TIP3    H123721   2.892   1.809   4.080
 7919TIP3    H223722   2.862   1.879   4.211
 7920TIP3   OH223723   0.638   5.292   4.571
 7920TIP3    H123724   0.624   5.242   4.490
 7920TIP3    H223725   0.720   5.338   4.557
 7921TIP3   OH223726   2.115   0.114   0.951
 7921TIP3    H123727   2.103   0.079   1.040
 7921TIP3    H223728   2.170   0.191   0.964
 7922TIP3   OH223729   1.701   2.587   3.287
 7922TIP3    H123730   1.674   2.519   3.226
 7922TIP3    H223731   1.795   2.573   3.299
 7923TIP3   OH223732   0.194   3.098   0.072
 7923TIP3    H123733   0.242   3.015   0.078
 7923TIP3    H223734   0.262   3.163   0.054
 7924TIP3   OH223735   5.363   2.326   2.230
 7924TIP3    H123736   5.341   2.252   2.287
 7924TIP3    H223737   5.457   2.337   2.241
 7925TIP3   OH223738   7.002   6.128   2.657
 7925TIP3    H123739   7.033   6.194   2.596
 7925TIP3    H223740   6.998   6.173   2.742
 7926TIP3   OH223741   2.896   5.554   3.387
 7926TIP3    H123742   2.954   5.594   3.322
 7926TIP3    H223743   2.909   5.607   3.466
 7927TIP3   OH223744   0.557   4.946   4.504
 7927TIP3    H123745   0.576   4.867   4.454
 7927TIP3    H223746   0.462   4.956   4.497
 7928TIP3   OH223747   6.928   1.219   1.997
 7928TIP3    H123748   6.862   1.191   1.932
 7928TIP3    H223749   6.883   1.211   2.081
 7929TIP3   OH223750   3.568   2.081   4.719
 7929TIP3    H123751   3.589   2.153   4.778
 7929TIP3    H223752   3.648   2.067   4.669
 7930TIP3   OH223753   2.698   3.493   1.065
 7930TIP3    H123754   2.792   3.513   1.065
 7930TIP3    H223755   2.666   3.526   0.981
 7931TIP3   OH223756   1.612   4.126   5.197
 7931TIP3    H123757   1.629   4.096   5.286
 7931TIP3    H223758   1.570   4.052   5.154
 7932TIP3   OH223759   3.817   4.516   1.357
 7932TIP3    H123760   3.862   4.449   1.407
 7932TIP3    H223761   3.727   4.513   1.389
 7933TIP3   OH223762   6.621   5.168   3.306
 7933TIP3    H123763   6.667   5.247   3.276
 7933TIP3    H223764   6.633   5.105   3.236
 7934TIP3   OH223765   4.307   4.902   3.692
 7934TIP3    H123766   4.392   4.913   3.650
 7934TIP3    H223767   4.247   4.882   3.620
 7935TIP3   OH223768   4.888   5.268   4.394
 7935TIP3    H123769   4.867   5.281   4.487
 7935TIP3    H223770   4.812   5.219   4.360
 7936TIP3   OH223771   1.690   0.563   4.595
 7936TIP3    H123772   1.649   0.549   4.681
 7936TIP3    H223773   1.694   0.475   4.556
 7937TIP3   OH223774   1.526   5.932   4.920
 7937TIP3    H123775   1.599   5.976   4.963
 7937TIP3    H223776   1.492   5.998   4.859
 7938TIP3   OH223777   4.908   5.390   3.643
 7938TIP3    H123778   4.879   5.357   3.728
 7938TIP3    H223779   5.003   5.385   3.646
 7939TIP3   OH223780   7.080   0.788   0.184
 7939TIP3    H123781   7.171   0.768   0.160
 7939TIP3    H223782   7.055   0.719   0.245
 7940TIP3   OH223783   3.020   5.776   0.180
 7940TIP3    H123784   3.042   5.723   0.257
 7940TIP3    H223785   2.932   5.809   0.198
 7941TIP3   OH223786   0.490   0.718   4.801
 7941TIP3    H123787   0.493   0.639   4.854
 7941TIP3    H223788   0.457   0.688   4.716
 7942TIP3   OH223789   6.908   5.043   3.712
 7942TIP3    H123790   6.932   4.960   3.672
 7942TIP3    H223791   6.814   5.051   3.695
 7943TIP3   OH223792   5.441   6.011   3.530
 7943TIP3    H123793   5.442   5.916   3.543
 7943TIP3    H223794   5.348   6.033   3.527
 7944TIP3   OH223795   0.555   2.997   3.939
 7944TIP3    H123796   0.595   2.949   4.011
 7944TIP3    H223797   0.496   2.933   3.898
 7945TIP3   OH223798   3.613   4.946   1.109
 7945TIP3    H123799   3.639   4.993   1.030
 7945TIP3    H223800   3.695   4.908   1.142
 7946TIP3   OH223801   6.793   6.495   5.037
 7946TIP3    H123802   6.824   6.451   4.958
 7946TIP3    H223803   6.849   6.572   5.046
 7947TIP3   OH223804   2.478   4.053   4.068
 7947TIP3    H123805   2.446   4.135   4.105
 7947TIP3    H223806   2.406   4.022   4.012
 7948TIP3   OH223807   0.947   5.101   3.636
 7948TIP3    H123808   0.900   5.155   3.699
 7948TIP3    H223809   0.962   5.158   3.561
 7949TIP3   OH223810   2.574   0.609   1.668
 7949TIP3    H123811   2.589   0.554   1.744
 7949TIP3    H223812   2.533   0.688   1.703
 7950TIP3   OH223813   0.689   2.360   0.629
 7950TIP3    H123814   0.770   2.370   0.577
 7950TIP3    H223815   0.666   2.449   0.654
 7951TIP3   OH223816   6.318   1.029   5.816
 7951TIP3    H123817   6.378   1.090   5.772
 7951TIP3    H223818   6.236   1.077   5.825
 7952TIP3   OH223819   6.306   5.671   0.796
 7952TIP3    H123820   6.365   5.626   0.857
 7952TIP3    H223821   6.256   5.731   0.851
 7953TIP3   OH223822   5.991   5.497   2.123
 7953TIP3    H123823   5.989   5.539   2.038
 7953TIP3    H223824   6.020   5.408   2.106
 7954TIP3   OH223825   6.759   6.789   4.681
 7954TIP3    H123826   6.829   6.757   4.739
 7954TIP3    H223827   6.702   6.713   4.669
 7955TIP3   OH223828   3.245   6.321   0.574
 7955TIP3    H123829   3.230   6.316   0.480
 7955TIP3    H223830   3.158   6.333   0.612
 7956TIP3   OH223831   4.241   4.791   0.806
 7956TIP3    H123832   4.185   4.869   0.800
 7956TIP3    H223833   4.295   4.806   0.884
 7957TIP3   OH223834   5.210   5.971   5.226
 7957TIP3    H123835   5.225   5.884   5.264
 7957TIP3    H223836   5.278   5.980   5.159
 7958TIP3   OH223837   7.086   5.236   2.582
 7958TIP3    H123838   7.176   5.204   2.574
 7958TIP3    H223839   7.033   5.172   2.535
 7959TIP3   OH223840   6.960   5.777   5.237
 7959TIP3    H123841   6.961   5.844   5.169
 7959TIP3    H223842   7.024   5.807   5.301
 7960TIP3   OH223843   1.639   2.509   5.200
 7960TIP3    H123844   1.670   2.510   5.291
 7960TIP3    H223845   1.718   2.527   5.148
 7961TIP3   OH223846   4.971   0.763   4.176
 7961TIP3    H123847   5.050   0.800   4.138
 7961TIP3    H223848   4.955   0.683   4.126
 7962TIP3   OH223849   5.586   4.030   1.737
 7962TIP3    H123850   5.660   4.082   1.706
 7962TIP3    H223851   5.622   3.942   1.747
 7963TIP3   OH223852   4.644   2.209   4.621
 7963TIP3    H123853   4.558   2.248   4.604
 7963TIP3    H223854   4.683   2.267   4.687
 7964TIP3   OH223855   2.415   5.880   0.078
 7964TIP3    H123856   2.372   5.806   0.034
 7964TIP3    H223857   2.404   5.953   0.018
 7965TIP3   OH223858   5.688   1.666   0.693
 7965TIP3    H123859   5.768   1.717   0.682
 7965TIP3    H223860   5.712   1.578   0.665
 7966TIP3   OH223861   4.939   0.631   3.592
 7966TIP3    H123862   4.938   0.711   3.539
 7966TIP3    H223863   4.989   0.655   3.670
 7967TIP3   OH223864   0.801   1.866   4.121
 7967TIP3    H123865   0.804   1.790   4.063
 7967TIP3    H223866   0.793   1.941   4.061
 7968TIP3   OH223867   4.632   4.272   5.089
 7968TIP3    H123868   4.626   4.346   5.028
 7968TIP3    H223869   4.579   4.203   5.048
 7969TIP3   OH223870   0.517   0.663   4.226
 7969TIP3    H123871   0.446   0.601   4.243
 7969TIP3    H223872   0.478   0.729   4.169
 7970TIP3   OH223873   4.999   4.516   0.630
 7970TIP3    H123874   5.028   4.445   0.687
 7970TIP3    H223875   5.078   4.544   0.585
 7971TIP3   OH223876   2.974   6.063   3.837
 7971TIP3    H123877   3.048   6.057   3.897
 7971TIP3    H223878   2.912   6.121   3.881
 7972TIP3   OH223879   6.487   4.691   1.818
 7972TIP3    H123880   6.420   4.631   1.849
 7972TIP3    H223881   6.464   4.709   1.727
 7973TIP3   OH223882   6.268   1.947   3.252
 7973TIP3    H123883   6.324   1.952   3.175
 7973TIP3    H223884   6.179   1.936   3.216
 7974TIP3   OH223885   4.424   2.632   0.809
 7974TIP3    H123886   4.493   2.615   0.745
 7974TIP3    H223887   4.351   2.665   0.758
 7975TIP3   OH223888   6.073   5.182   3.610
 7975TIP3    H123889   6.140   5.166   3.676
 7975TIP3    H223890   6.008   5.114   3.625
 7976TIP3   OH223891   4.837   3.162   5.178
 7976TIP3    H123892   4.852   3.076   5.139
 7976TIP3    H223893   4.807   3.217   5.106
 7977TIP3   OH223894   2.355   6.138   5.406
 7977TIP3    H123895   2.321   6.225   5.383
 7977TIP3    H223896   2.438   6.132   5.359
 7978TIP3   OH223897   2.049   0.526   2.894
 7978TIP3    H123898   2.003   0.446   2.917
 7978TIP3    H223899   2.090   0.555   2.976
 7979TIP3   OH223900   0.778  -0.050   1.770
 7979TIP3    H123901   0.747   0.010   1.837
 7979TIP3    H223902   0.723  -0.127   1.779
 7980TIP3   OH223903   3.462   1.365   0.379
 7980TIP3    H123904   3.501   1.452   0.382
 7980TIP3    H223905   3.400   1.369   0.306
 7981TIP3   OH223906   6.836   5.434   5.443
 7981TIP3    H123907   6.820   5.386   5.362
 7981TIP3    H223908   6.751   5.433   5.488
 7982TIP3   OH223909   6.316   6.178   1.459
 7982TIP3    H123910   6.274   6.221   1.384
 7982TIP3    H223911   6.342   6.092   1.425
 7983TIP3   OH223912   5.383   3.080   3.653
 7983TIP3    H123913   5.385   3.121   3.567
 7983TIP3    H223914   5.432   3.140   3.709
 7984TIP3   OH223915   1.645   6.792   5.813
 7984TIP3    H123916   1.722   6.750   5.850
 7984TIP3    H223917   1.607   6.727   5.754
 7985TIP3   OH223918   2.989   5.753   2.207
 7985TIP3    H123919   3.003   5.685   2.141
 7985TIP3    H223920   2.894   5.756   2.218
 7986TIP3   OH223921   2.479   2.524   1.766
 7986TIP3    H123922   2.559   2.471   1.764
 7986TIP3    H223923   2.419   2.473   1.821
 7987TIP3   OH223924   2.447   6.655   2.563
 7987TIP3    H123925   2.436   6.593   2.634
 7987TIP3    H223926   2.509   6.613   2.503
 7988TIP3   OH223927   1.337   5.032   3.889
 7988TIP3    H123928   1.291   5.016   3.971
 7988TIP3    H223929   1.413   4.975   3.892
 7989TIP3   OH223930   4.182   6.795   1.808
 7989TIP3    H123931   4.093   6.768   1.787
 7989TIP3    H223932   4.172   6.883   1.843
 7990TIP3   OH223933   6.662   6.491   3.964
 7990TIP3    H123934   6.713   6.409   3.967
 7990TIP3    H223935   6.724   6.556   3.931
 7991TIP3   OH223936  -0.004   0.215   2.256
 7991TIP3    H123937  -0.092   0.183   2.238
 7991TIP3    H223938   0.014   0.187   2.345
 7992TIP3   OH223939   4.529   0.803   3.938
 7992TIP3    H123940   4.533   0.867   4.009
 7992TIP3    H223941   4.499   0.722   3.981
 7993TIP3   OH223942   5.067   4.559   2.741
 7993TIP3    H123943   4.988   4.525   2.784
 7993TIP3    H223944   5.050   4.546   2.647
 7994TIP3   OH223945   2.329   4.480   5.768
 7994TIP3    H123946   2.238   4.459   5.792
 7994TIP3    H223947   2.362   4.399   5.729
 7995TIP3   OH223948   6.706   2.232   3.619
 7995TIP3    H123949   6.726   2.318   3.584
 7995TIP3    H223950   6.627   2.205   3.573
 7996TIP3   OH223951   4.911   3.831   4.108
 7996TIP3    H123952   4.995   3.829   4.062
 7996TIP3    H223953   4.922   3.898   4.175
 7997TIP3   OH223954   2.261   3.898   2.727
 7997TIP3    H123955   2.184   3.889   2.671
 7997TIP3    H223956   2.231   3.875   2.815
 7998TIP3   OH223957   1.857   6.474   4.407
 7998TIP3    H123958   1.899   6.503   4.488
 7998TIP3    H223959   1.860   6.550   4.349
 7999TIP3   OH223960   1.977   6.028   0.105
 7999TIP3    H123961   2.011   6.038   0.194
 7999TIP3    H223962   1.963   6.118   0.074
 8000TIP3   OH223963   2.044   1.908   1.000
 8000TIP3    H123964   2.059   1.833   0.943
 8000TIP3    H223965   1.984   1.965   0.951
 8001TIP3   OH223966   5.885   2.197   0.177
 8001TIP3    H123967   5.913   2.273   0.127
 8001TIP3    H223968   5.858   2.232   0.262
 8002TIP3   OH223969   7.123   0.474   2.143
 8002TIP3    H123970   7.093   0.497   2.231
 8002TIP3    H223971   7.168   0.390   2.155
 8003TIP3   OH223972   3.564   5.150   1.421
 8003TIP3    H123973   3.655   5.144   1.393
 8003TIP3    H223974   3.561   5.225   1.480
 8004TIP3   OH223975   1.834   3.798   3.960
 8004TIP3    H123976   1.756   3.743   3.961
 8004TIP3    H223977   1.829   3.845   3.877
 8005TIP3   OH223978   2.845   2.610   4.557
 8005TIP3    H123979   2.922   2.590   4.504
 8005TIP3    H223980   2.837   2.706   4.553
 8006TIP3   OH223981   3.897   6.303   2.323
 8006TIP3    H123982   3.860   6.261   2.400
 8006TIP3    H223983   3.854   6.259   2.249
 8007TIP3   OH223984   2.227   1.112   2.113
 8007TIP3    H123985   2.214   1.085   2.203
 8007TIP3    H223986   2.273   1.196   2.119
 8008TIP3   OH223987   3.531   1.490   4.521
 8008TIP3    H123988   3.450   1.466   4.567
 8008TIP3    H223989   3.501   1.528   4.438
 8009TIP3   OH223990   2.717   0.502   2.894
 8009TIP3    H123991   2.696   0.511   2.987
 8009TIP3    H223992   2.733   0.408   2.883
 8010TIP3   OH223993   6.180   4.868   3.269
 8010TIP3    H123994   6.162   4.775   3.278
 8010TIP3    H223995   6.211   4.878   3.179
 8011TIP3   OH223996   0.357   1.849   2.226
 8011TIP3    H123997   0.313   1.802   2.155
 8011TIP3    H223998   0.449   1.823   2.218
 8012TIP3   OH223999   4.860   5.384   0.593
 8012TIP3    H124000   4.765   5.370   0.587
 8012TIP3    H224001   4.875   5.404   0.686
 8013TIP3   OH224002   1.487   5.863   5.671
 8013TIP3    H124003   1.572   5.822   5.681
 8013TIP3    H224004   1.475   5.874   5.576
 8014TIP3   OH224005   5.660   2.556   0.139
 8014TIP3    H124006   5.732   2.500   0.111
 8014TIP3    H224007   5.606   2.501   0.195
 8015TIP3   OH224008   2.585   5.795   5.636
 8015TIP3    H124009   2.677   5.802   5.662
 8015TIP3    H224010   2.536   5.818   5.716
 8016TIP3   OH224011   1.390   5.678   1.171
 8016TIP3    H124012   1.430   5.600   1.209
 8016TIP3    H224013   1.412   5.748   1.232
 8017TIP3   OH224014   3.857   0.290   5.389
 8017TIP3    H124015   3.804   0.359   5.430
 8017TIP3    H224016   3.947   0.322   5.393
 8018TIP3   OH224017   3.854   4.868   1.970
 8018TIP3    H124018   3.767   4.883   1.935
 8018TIP3    H224019   3.878   4.781   1.940
 8019TIP3   OH224020   3.662   3.520   4.868
 8019TIP3    H124021   3.750   3.490   4.888
 8019TIP3    H224022   3.605   3.451   4.904
 8020TIP3   OH224023   6.658   0.039   3.158
 8020TIP3    H124024   6.674   0.119   3.208
 8020TIP3    H224025   6.686  -0.032   3.217
 8021TIP3   OH224026   4.597   3.749   4.554
 8021TIP3    H124027   4.681   3.777   4.519
 8021TIP3    H224028   4.606   3.760   4.649
 8022TIP3   OH224029   4.690   2.813   3.696
 8022TIP3    H124030   4.746   2.805   3.620
 8022TIP3    H224031   4.744   2.782   3.769
 8023TIP3   OH224032   3.637   3.831   0.849
 8023TIP3    H124033   3.617   3.923   0.833
 8023TIP3    H224034   3.731   3.830   0.869
 8024TIP3   OH224035   4.262   2.920   3.246
 8024TIP3    H124036   4.207   2.990   3.281
 8024TIP3    H224037   4.248   2.923   3.152
 8025TIP3   OH224038   5.601   0.747   2.134
 8025TIP3    H124039   5.558   0.696   2.203
 8025TIP3    H224040   5.665   0.686   2.096
 8026TIP3   OH224041   4.098   2.199   4.221
 8026TIP3    H124042   4.160   2.239   4.159
 8026TIP3    H224043   4.027   2.166   4.167
 8027TIP3   OH224044   3.424   4.099   0.600
 8027TIP3    H124045   3.499   4.039   0.598
 8027TIP3    H224046   3.463   4.186   0.594
 8028TIP3   OH224047   6.894   3.259   0.048
 8028TIP3    H124048   6.986   3.283   0.059
 8028TIP3    H224049   6.880   3.261  -0.047
 8029TIP3   OH224050   3.916   6.203   4.751
 8029TIP3    H124051   3.965   6.242   4.823
 8029TIP3    H224052   3.982   6.179   4.686
 8030TIP3   OH224053   1.129   1.982   5.613
 8030TIP3    H124054   1.039   1.952   5.622
 8030TIP3    H224055   1.157   1.949   5.527
 8031TIP3   OH224056   6.502   2.395   5.668
 8031TIP3    H124057   6.408   2.387   5.653
 8031TIP3    H224058   6.514   2.483   5.703
 8032TIP3   OH224059   0.855   5.440   2.676
 8032TIP3    H124060   0.869   5.346   2.679
 8032TIP3    H224061   0.925   5.477   2.730
 8033TIP3   OH224062   0.064   3.133   1.031
 8033TIP3    H124063   0.092   3.140   0.940
 8033TIP3    H224064   0.145   3.120   1.080
 8034TIP3   OH224065   3.136   5.635   4.178
 8034TIP3    H124066   3.180   5.604   4.257
 8034TIP3    H224067   3.134   5.730   4.187
 8035TIP3   OH224068   2.521   6.403   4.355
 8035TIP3    H124069   2.438   6.412   4.401
 8035TIP3    H224070   2.573   6.478   4.384
 8036TIP3   OH224071   4.747   4.832   0.323
 8036TIP3    H124072   4.760   4.771   0.395
 8036TIP3    H224073   4.652   4.832   0.309
 8037TIP3   OH224074   0.175   5.595   2.631
 8037TIP3    H124075   0.236   5.625   2.698
 8037TIP3    H224076   0.112   5.541   2.678
 8038TIP3   OH224077   5.146   2.751   0.316
 8038TIP3    H124078   5.146   2.845   0.338
 8038TIP3    H224079   5.133   2.707   0.400
 8039TIP3   OH224080   4.334   5.381   4.932
 8039TIP3    H124081   4.408   5.421   4.886
 8039TIP3    H224082   4.267   5.450   4.935
 8040TIP3   OH224083   2.130   4.457   4.833
 8040TIP3    H124084   2.051   4.414   4.799
 8040TIP3    H224085   2.133   4.434   4.926
 8041TIP3   OH224086   6.360   5.062   5.103
 8041TIP3    H124087   6.286   5.081   5.044
 8041TIP3    H224088   6.436   5.057   5.045
 8042TIP3   OH224089   5.298   3.973   2.214
 8042TIP3    H124090   5.290   3.997   2.121
 8042TIP3    H224091   5.300   4.057   2.260
 8043TIP3   OH224092   3.683   1.663   0.245
 8043TIP3    H124093   3.669   1.757   0.256
 8043TIP3    H224094   3.673   1.627   0.333
 8044TIP3   OH224095   4.003   1.830   2.406
 8044TIP3    H124096   3.967   1.846   2.493
 8044TIP3    H224097   4.062   1.904   2.390
 8045TIP3   OH224098   0.999   4.864   2.985
 8045TIP3    H124099   1.060   4.837   2.917
 8045TIP3    H224100   0.916   4.821   2.963
 8046TIP3   OH224101   2.967   1.466   3.862
 8046TIP3    H124102   2.892   1.420   3.824
 8046TIP3    H224103   2.928   1.525   3.926
 8047TIP3   OH224104  -0.016   5.227   0.522
 8047TIP3    H124105   0.018   5.251   0.436
 8047TIP3    H224106   0.010   5.300   0.579
 8048TIP3   OH224107   4.908   3.202   2.665
 8048TIP3    H124108   4.983   3.256   2.688
 8048TIP3    H224109   4.849   3.209   2.740
 8049TIP3   OH224110   4.466   5.253   5.640
 8049TIP3    H124111   4.440   5.185   5.702
 8049TIP3    H224112   4.518   5.314   5.692
 8050TIP3   OH224113   1.289   3.566   0.283
 8050TIP3    H124114   1.212   3.619   0.261
 8050TIP3    H224115   1.356   3.631   0.307
 8051TIP3   OH224116   5.716   6.127   4.409
 8051TIP3    H124117   5.712   6.109   4.502
 8051TIP3    H224118   5.660   6.204   4.396
 8052TIP3   OH224119   5.691   5.255   4.326
 8052TIP3    H124120   5.734   5.338   4.307
 8052TIP3    H224121   5.606   5.279   4.362
 8053TIP3   OH224122   5.105   0.647   1.034
 8053TIP3    H124123   5.112   0.724   0.977
 8053TIP3    H224124   5.141   0.575   0.983
 8054TIP3   OH224125   4.419   1.328   4.788
 8054TIP3    H124126   4.457   1.355   4.872
 8054TIP3    H224127   4.332   1.295   4.811
 8055TIP3   OH224128   1.648   0.469   5.497
 8055TIP3    H124129   1.597   0.550   5.494
 8055TIP3    H224130   1.621   0.421   5.419
 8056TIP3   OH224131   3.995   6.546   5.331
 8056TIP3    H124132   3.993   6.589   5.246
 8056TIP3    H224133   3.925   6.480   5.326
 8057TIP3   OH224134   4.446   5.751   5.544
 8057TIP3    H124135   4.459   5.675   5.601
 8057TIP3    H224136   4.357   5.781   5.566
 8058TIP3   OH224137   4.439   2.231   2.171
 8058TIP3    H124138   4.491   2.191   2.101
 8058TIP3    H224139   4.382   2.160   2.203
 8059TIP3   OH224140   6.763   5.431   1.411
 8059TIP3    H124141   6.711   5.386   1.477
 8059TIP3    H224142   6.828   5.366   1.383
 8060TIP3   OH224143   0.037   2.352   4.513
 8060TIP3    H124144   0.028   2.377   4.421
 8060TIP3    H224145  -0.040   2.389   4.555
 8061TIP3   OH224146   7.070   2.066   4.381
 8061TIP3    H124147   7.067   2.145   4.326
 8061TIP3    H224148   7.031   2.094   4.464
 8062TIP3   OH224149   4.368   1.291   0.538
 8062TIP3    H124150   4.405   1.290   0.626
 8062TIP3    H224151   4.273   1.284   0.551
 8063TIP3   OH224152   2.696   4.587   0.120
 8063TIP3    H124153   2.637   4.514   0.137
 8063TIP3    H224154   2.741   4.601   0.203
 8064TIP3   OH224155   2.151   6.714   2.088
 8064TIP3    H124156   2.219   6.781   2.080
 8064TIP3    H224157   2.135   6.684   1.999
 8065TIP3   OH224158   1.038   5.449   3.071
 8065TIP3    H124159   1.023   5.364   3.029
 8065TIP3    H224160   1.123   5.477   3.038
 8066TIP3   OH224161   3.726   1.265   5.884
 8066TIP3    H124162   3.713   1.309   5.800
 8066TIP3    H224163   3.772   1.184   5.862
 8067TIP3   OH224164   2.705   0.202   1.683
 8067TIP3    H124165   2.727   0.141   1.753
 8067TIP3    H224166   2.609   0.196   1.676
 8068TIP3   OH224167   2.091   5.375   2.674
 8068TIP3    H124168   2.103   5.444   2.609
 8068TIP3    H224169   2.009   5.397   2.718
 8069TIP3   OH224170   6.574   1.584   4.452
 8069TIP3    H124171   6.568   1.502   4.404
 8069TIP3    H224172   6.551   1.651   4.388
 8070TIP3   OH224173   6.483   2.263   0.692
 8070TIP3    H124174   6.551   2.206   0.656
 8070TIP3    H224175   6.442   2.303   0.615
 8071TIP3   OH224176   7.172   2.002   2.785
 8071TIP3    H124177   7.225   2.004   2.865
 8071TIP3    H224178   7.081   2.007   2.816
 8072TIP3   OH224179   3.914   3.468   4.674
 8072TIP3    H124180   3.888   3.376   4.668
 8072TIP3    H224181   3.903   3.491   4.766
 8073TIP3   OH224182   0.616   2.687   3.368
 8073TIP3    H124183   0.671   2.660   3.440
 8073TIP3    H224184   0.527   2.681   3.402
 8074TIP3   OH224185   0.877   4.520   1.447
 8074TIP3    H124186   0.891   4.437   1.402
 8074TIP3    H224187   0.788   4.512   1.483
 8075TIP3   OH224188   6.133   0.766   4.740
 8075TIP3    H124189   6.109   0.723   4.822
 8075TIP3    H224190   6.194   0.705   4.698
 8076TIP3   OH224191   3.671   3.682   0.494
 8076TIP3    H124192   3.759   3.716   0.509
 8076TIP3    H224193   3.638   3.662   0.582
 8077TIP3   OH224194   0.293   5.995   4.324
 8077TIP3    H124195   0.279   6.004   4.230
 8077TIP3    H224196   0.388   5.988   4.334
 8078TIP3   OH224197   1.277   0.881   3.599
 8078TIP3    H124198   1.194   0.835   3.588
 8078TIP3    H224199   1.310   0.893   3.509
 8079TIP3   OH224200   6.862   2.415   5.046
 8079TIP3    H124201   6.954   2.432   5.067
 8079TIP3    H224202   6.816   2.495   5.069
 8080TIP3   OH224203   0.469   0.127   3.102
 8080TIP3    H124204   0.465   0.073   3.023
 8080TIP3    H224205   0.383   0.169   3.106
 8081TIP3   OH224206   0.880   0.502   2.162
 8081TIP3    H124207   0.813   0.531   2.224
 8081TIP3    H224208   0.957   0.485   2.216
 8082TIP3   OH224209   0.549   3.655   0.388
 8082TIP3    H124210   0.624   3.713   0.404
 8082TIP3    H224211   0.540   3.653   0.293
 8083TIP3   OH224212   7.188   1.229   1.071
 8083TIP3    H124213   7.099   1.243   1.103
 8083TIP3    H224214   7.199   1.295   1.003
 8084TIP3   OH224215   0.174   0.702   4.427
 8084TIP3    H124216   0.097   0.652   4.454
 8084TIP3    H224217   0.181   0.686   4.332
 8085TIP3   OH224218   2.169   5.109   3.177
 8085TIP3    H124219   2.242   5.064   3.134
 8085TIP3    H224220   2.168   5.196   3.137
 8086TIP3   OH224221   5.965   1.057   1.200
 8086TIP3    H124222   5.948   1.049   1.106
 8086TIP3    H224223   6.006   0.974   1.224
 8087TIP3   OH224224   4.627   2.271   0.866
 8087TIP3    H124225   4.554   2.269   0.803
 8087TIP3    H224226   4.692   2.212   0.828
 8088TIP3   OH224227   5.656   5.589   3.375
 8088TIP3    H124228   5.575   5.598   3.324
 8088TIP3    H224229   5.654   5.498   3.405
 8089TIP3   OH224230   6.249   4.568   2.873
 8089TIP3    H124231   6.170   4.517   2.855
 8089TIP3    H224232   6.293   4.520   2.943
 8090TIP3   OH224233   0.735   0.834   2.192
 8090TIP3    H124234   0.772   0.775   2.258
 8090TIP3    H224235   0.646   0.800   2.177
 8091TIP3   OH224236   5.746   2.443   5.772
 8091TIP3    H124237   5.760   2.501   5.847
 8091TIP3    H224238   5.827   2.393   5.766
 8092TIP3   OH224239   5.417   2.524   5.108
 8092TIP3    H124240   5.417   2.612   5.072
 8092TIP3    H224241   5.449   2.534   5.197
 8093TIP3   OH224242   5.477   0.584   1.516
 8093TIP3    H124243   5.540   0.638   1.468
 8093TIP3    H224244   5.439   0.527   1.449
 8094TIP3   OH224245   3.196   1.510   2.735
 8094TIP3    H124246   3.116   1.508   2.683
 8094TIP3    H224247   3.165   1.523   2.825
 8095TIP3   OH224248   0.844   6.171   0.442
 8095TIP3    H124249   0.829   6.187   0.349
 8095TIP3    H224250   0.826   6.077   0.453
 8096TIP3   OH224251   5.377   6.299   4.652
 8096TIP3    H124252   5.398   6.309   4.745
 8096TIP3    H224253   5.291   6.340   4.642
 8097TIP3   OH224254   3.915   4.536   0.436
 8097TIP3    H124255   4.003   4.497   0.435
 8097TIP3    H224256   3.862   4.477   0.383
 8098TIP3   OH224257   1.396   1.249   0.678
 8098TIP3    H124258   1.331   1.286   0.619
 8098TIP3    H224259   1.471   1.230   0.621
 8099TIP3   OH224260   0.485   5.157   1.592
 8099TIP3    H124261   0.544   5.209   1.646
 8099TIP3    H224262   0.541   5.118   1.525
 8100TIP3   OH224263   4.836   4.449   2.853
 8100TIP3    H124264   4.844   4.471   2.946
 8100TIP3    H224265   4.743   4.460   2.834
 8101TIP3   OH224266   5.655   4.785   3.976
 8101TIP3    H124267   5.751   4.791   3.984
 8101TIP3    H224268   5.640   4.697   3.941
 8102TIP3   OH224269   4.109   5.435   1.887
 8102TIP3    H124270   4.176   5.369   1.899
 8102TIP3    H224271   4.027   5.386   1.878
 8103TIP3   OH224272   2.710   5.781   2.153
 8103TIP3    H124273   2.647   5.852   2.148
 8103TIP3    H224274   2.715   5.747   2.064
 8104TIP3   OH224275   2.296   6.480   1.522
 8104TIP3    H124276   2.289   6.575   1.529
 8104TIP3    H224277   2.389   6.461   1.533
 8105TIP3   OH224278   0.474   1.319   4.454
 8105TIP3    H124279   0.458   1.407   4.420
 8105TIP3    H224280   0.538   1.333   4.524
 8106TIP3   OH224281   3.940   2.736   5.252
 8106TIP3    H124282   3.961   2.671   5.319
 8106TIP3    H224283   4.012   2.729   5.188
 8107TIP3   OH224284   3.015   5.674   3.912
 8107TIP3    H124285   3.035   5.639   3.999
 8107TIP3    H224286   3.092   5.654   3.860
 8108TIP3   OH224287   2.773   5.040   5.754
 8108TIP3    H124288   2.823   4.964   5.785
 8108TIP3    H224289   2.826   5.075   5.683
 8109TIP3   OH224290   5.122   5.200   2.098
 8109TIP3    H124291   5.160   5.240   2.021
 8109TIP3    H224292   5.197   5.179   2.154
 8110TIP3   OH224293   2.722   3.804   4.691
 8110TIP3    H124294   2.715   3.710   4.678
 8110TIP3    H224295   2.815   3.823   4.678
 8111TIP3   OH224296   3.895   0.622   3.776
 8111TIP3    H124297   3.854   0.692   3.827
 8111TIP3    H224298   3.878   0.645   3.685
 8112TIP3   OH224299   1.953   2.958   5.816
 8112TIP3    H124300   1.927   2.970   5.725
 8112TIP3    H224301   2.040   2.918   5.812
 8113TIP3   OH224302   1.307   5.347   4.371
 8113TIP3    H124303   1.299   5.340   4.467
 8113TIP3    H224304   1.266   5.268   4.338
 8114TIP3   OH224305   5.441   0.018   4.158
 8114TIP3    H124306   5.405   0.100   4.124
 8114TIP3    H224307   5.395  -0.051   4.108
 8115TIP3   OH224308   1.372   0.378   4.460
 8115TIP3    H124309   1.325   0.399   4.541
 8115TIP3    H224310   1.414   0.294   4.479
 8116TIP3   OH224311   3.463   4.570   5.740
 8116TIP3    H124312   3.460   4.522   5.822
 8116TIP3    H224313   3.518   4.646   5.759
 8117TIP3   OH224314   3.954   0.305   4.589
 8117TIP3    H124315   3.995   0.381   4.546
 8117TIP3    H224316   4.021   0.270   4.647
 8118TIP3   OH224317   5.806   3.739   2.537
 8118TIP3    H124318   5.741   3.796   2.578
 8118TIP3    H224319   5.802   3.658   2.589
 8119TIP3   OH224320   3.768   0.721   5.271
 8119TIP3    H124321   3.678   0.724   5.239
 8119TIP3    H224322   3.783   0.809   5.306
 8120TIP3   OH224323   0.691   6.132   3.106
 8120TIP3    H124324   0.614   6.149   3.161
 8120TIP3    H224325   0.746   6.075   3.160
 8121TIP3   OH224326   5.889   2.273   5.542
 8121TIP3    H124327   5.862   2.189   5.505
 8121TIP3    H224328   5.958   2.250   5.604
 8122TIP3   OH224329   4.579   0.353   2.041
 8122TIP3    H124330   4.612   0.327   1.955
 8122TIP3    H224331   4.657   0.366   2.094
 8123TIP3   OH224332   5.144   3.000   0.415
 8123TIP3    H124333   5.112   3.040   0.496
 8123TIP3    H224334   5.117   3.061   0.346
 8124TIP3   OH224335   6.784   3.800   5.534
 8124TIP3    H124336   6.802   3.835   5.620
 8124TIP3    H224337   6.832   3.717   5.531
 8125TIP3   OH224338   0.969   0.467   0.751
 8125TIP3    H124339   1.025   0.436   0.822
 8125TIP3    H224340   0.962   0.561   0.765
 8126TIP3   OH224341   2.501   2.887   4.032
 8126TIP3    H124342   2.571   2.923   3.978
 8126TIP3    H224343   2.436   2.957   4.036
 8127TIP3   OH224344   6.252   2.996   1.601
 8127TIP3    H124345   6.223   2.980   1.511
 8127TIP3    H224346   6.343   3.025   1.592
 8128TIP3   OH224347   6.357   0.302   0.234
 8128TIP3    H124348   6.266   0.275   0.247
 8128TIP3    H224349   6.401   0.223   0.204
 8129TIP3   OH224350   6.037   5.233   1.050
 8129TIP3    H124351   6.050   5.148   1.093
 8129TIP3    H224352   5.947   5.257   1.073
 8130TIP3   OH224353   0.677   1.967   3.816
 8130TIP3    H124354   0.737   1.958   3.742
 8130TIP3    H224355   0.644   1.878   3.831
 8131TIP3   OH224356   5.340   4.353   3.823
 8131TIP3    H124357   5.310   4.385   3.909
 8131TIP3    H224358   5.431   4.328   3.838
 8132TIP3   OH224359   3.621   1.344   1.672
 8132TIP3    H124360   3.643   1.304   1.756
 8132TIP3    H224361   3.526   1.351   1.672
 8133TIP3   OH224362   2.429   2.372   3.892
 8133TIP3    H124363   2.408   2.462   3.918
 8133TIP3    H224364   2.514   2.355   3.932
 8134TIP3   OH224365   2.534   3.427   1.995
 8134TIP3    H124366   2.457   3.386   2.036
 8134TIP3    H224367   2.554   3.370   1.920
 8135TIP3   OH224368   3.596   5.425   3.350
 8135TIP3    H124369   3.640   5.501   3.389
 8135TIP3    H224370   3.642   5.409   3.268
 8136TIP3   OH224371   3.662   1.621   1.714
 8136TIP3    H124372   3.592   1.600   1.775
 8136TIP3    H224373   3.671   1.542   1.660
 8137TIP3   OH224374   0.436   4.046   5.566
 8137TIP3    H124375   0.519   4.022   5.607
 8137TIP3    H224376   0.447   4.138   5.541
 8138TIP3   OH224377   5.170   5.137   1.207
 8138TIP3    H124378   5.135   5.055   1.173
 8138TIP3    H224379   5.093   5.188   1.231
 8139TIP3   OH224380   3.779   5.297   3.690
 8139TIP3    H124381   3.817   5.373   3.648
 8139TIP3    H224382   3.837   5.225   3.668
 8140TIP3   OH224383   0.819   3.621   0.152
 8140TIP3    H124384   0.729   3.648   0.169
 8140TIP3    H224385   0.834   3.546   0.210
 8141TIP3   OH224386   2.047   1.621   3.023
 8141TIP3    H124387   2.095   1.539   3.015
 8141TIP3    H224388   2.032   1.631   3.117
 8142TIP3   OH224389   2.574   2.449   4.952
 8142TIP3    H124390   2.551   2.367   4.996
 8142TIP3    H224391   2.588   2.424   4.861
 8143TIP3   OH224392   5.365   4.834   2.048
 8143TIP3    H124393   5.296   4.887   2.007
 8143TIP3    H224394   5.431   4.824   1.979
 8144TIP3   OH224395   4.457   2.244   2.945
 8144TIP3    H124396   4.400   2.274   2.875
 8144TIP3    H224397   4.471   2.321   3.000
 8145TIP3   OH224398   1.197   1.140   3.308
 8145TIP3    H124399   1.156   1.061   3.274
 8145TIP3    H224400   1.155   1.155   3.392
 8146TIP3   OH224401   6.013   2.321   2.293
 8146TIP3    H124402   6.081   2.300   2.357
 8146TIP3    H224403   5.962   2.240   2.286
 8147TIP3   OH224404   1.937   1.630   1.469
 8147TIP3    H124405   1.924   1.600   1.379
 8147TIP3    H224406   1.849   1.657   1.498
 8148TIP3   OH224407   0.265   6.002   3.657
 8148TIP3    H124408   0.192   6.055   3.624
 8148TIP3    H224409   0.337   6.064   3.667
 8149TIP3   OH224410   5.136   5.966   3.495
 8149TIP3    H124411   5.042   5.983   3.483
 8149TIP3    H224412   5.147   5.956   3.589
 8150TIP3   OH224413   5.092   1.764   2.695
 8150TIP3    H124414   5.026   1.732   2.758
 8150TIP3    H224415   5.047   1.761   2.611
 8151TIP3   OH224416   5.413   1.225   4.485
 8151TIP3    H124417   5.421   1.130   4.479
 8151TIP3    H224418   5.498   1.258   4.459
 8152TIP3   OH224419   6.779   5.381   3.958
 8152TIP3    H124420   6.792   5.463   4.005
 8152TIP3    H224421   6.867   5.343   3.949
 8153TIP3   OH224422   6.259   5.432   5.763
 8153TIP3    H124423   6.218   5.394   5.841
 8153TIP3    H224424   6.259   5.360   5.699
 8154TIP3   OH224425   1.462   2.654   4.301
 8154TIP3    H124426   1.378   2.650   4.346
 8154TIP3    H224427   1.473   2.746   4.277
 8155TIP3   OH224428   6.007   5.891   3.018
 8155TIP3    H124429   5.947   5.913   3.089
 8155TIP3    H224430   6.018   5.796   3.025
 8156TIP3   OH224431   3.809   5.426   3.141
 8156TIP3    H124432   3.828   5.333   3.129
 8156TIP3    H224433   3.887   5.461   3.184
 8157TIP3   OH224434   3.067   5.135   1.922
 8157TIP3    H124435   3.087   5.061   1.979
 8157TIP3    H224436   3.013   5.193   1.975
 8158TIP3   OH224437   3.471   1.133   4.331
 8158TIP3    H124438   3.454   1.047   4.293
 8158TIP3    H224439   3.405   1.143   4.399
 8159TIP3   OH224440   6.864   6.725   3.976
 8159TIP3    H124441   6.792   6.762   3.925
 8159TIP3    H224442   6.938   6.783   3.960
 8160TIP3   OH224443   5.019   5.710   3.680
 8160TIP3    H124444   4.962   5.753   3.616
 8160TIP3    H224445   5.074   5.651   3.628
 8161TIP3   OH224446   6.179   5.205   1.589
 8161TIP3    H124447   6.208   5.215   1.498
 8161TIP3    H224448   6.188   5.292   1.627
 8162TIP3   OH224449   2.019   4.479   4.165
 8162TIP3    H124450   2.009   4.456   4.258
 8162TIP3    H224451   1.978   4.565   4.156
 8163TIP3   OH224452   2.619   0.157   2.180
 8163TIP3    H124453   2.617   0.250   2.205
 8163TIP3    H224454   2.712   0.139   2.167
 8164TIP3   OH224455   5.049   3.592   0.153
 8164TIP3    H124456   5.115   3.642   0.201
 8164TIP3    H224457   4.987   3.563   0.221
 8165TIP3   OH224458   6.872   3.826   5.797
 8165TIP3    H124459   6.796   3.799   5.847
 8165TIP3    H224460   6.922   3.746   5.783
 8166TIP3   OH224461   5.070   2.673   2.884
 8166TIP3    H124462   5.034   2.597   2.838
 8166TIP3    H224463   5.111   2.636   2.962
 8167TIP3   OH224464   3.243   6.387   1.731
 8167TIP3    H124465   3.326   6.423   1.763
 8167TIP3    H224466   3.244   6.404   1.637
 8168TIP3   OH224467   6.506   2.123   5.612
 8168TIP3    H124468   6.564   2.094   5.683
 8168TIP3    H224469   6.508   2.218   5.617
 8169TIP3   OH224470   4.802   1.465   0.973
 8169TIP3    H124471   4.859   1.428   0.906
 8169TIP3    H224472   4.729   1.503   0.924
 8170TIP3   OH224473   4.678   3.270   4.970
 8170TIP3    H124474   4.769   3.268   4.941
 8170TIP3    H224475   4.631   3.217   4.905
 8171TIP3   OH224476   2.814   4.883   2.211
 8171TIP3    H124477   2.852   4.869   2.125
 8171TIP3    H224478   2.764   4.964   2.203
 8172TIP3   OH224479   3.342   0.216   4.298
 8172TIP3    H124480   3.255   0.177   4.307
 8172TIP3    H224481   3.326   0.299   4.253
 8173TIP3   OH224482   2.548   4.919   4.856
 8173TIP3    H124483   2.575   4.878   4.939
 8173TIP3    H224484   2.629   4.957   4.821
 8174TIP3   OH224485   4.588   6.198   4.566
 8174TIP3    H124486   4.539   6.147   4.631
 8174TIP3    H224487   4.592   6.286   4.603
 8175TIP3   OH224488   6.068   1.697   4.164
 8175TIP3    H124489   6.137   1.677   4.102
 8175TIP3    H224490   6.024   1.613   4.179
 8176TIP3   OH224491   4.142   2.913   1.414
 8176TIP3    H124492   4.120   2.986   1.357
 8176TIP3    H224493   4.233   2.891   1.392
 8177TIP3   OH224494   1.274   4.349   3.173
 8177TIP3    H124495   1.275   4.444   3.159
 8177TIP3    H224496   1.275   4.312   3.085
 8178TIP3   OH224497   1.020   5.304   4.053
 8178TIP3    H124498   1.023   5.400   4.052
 8178TIP3    H224499   0.942   5.282   4.002
 8179TIP3   OH224500   3.361   2.431   2.906
 8179TIP3    H124501   3.393   2.426   2.996
 8179TIP3    H224502   3.382   2.520   2.877
 8180TIP3   OH224503   0.392   1.791   2.564
 8180TIP3    H124504   0.471   1.744   2.590
 8180TIP3    H224505   0.322   1.750   2.616
 8181TIP3   OH224506   6.746   3.764   3.713
 8181TIP3    H124507   6.817   3.733   3.769
 8181TIP3    H224508   6.791   3.807   3.640
 8182TIP3   OH224509   0.138   3.615   3.717
 8182TIP3    H124510   0.075   3.613   3.789
 8182TIP3    H224511   0.196   3.688   3.738
 8183TIP3   OH224512   1.138   4.685   4.623
 8183TIP3    H124513   1.051   4.708   4.654
 8183TIP3    H224514   1.134   4.591   4.607
 8184TIP3   OH224515   6.401   2.971   3.777
 8184TIP3    H124516   6.327   3.005   3.828
 8184TIP3    H224517   6.424   2.889   3.821
 8185TIP3   OH224518   0.825   5.908   1.745
 8185TIP3    H124519   0.915   5.892   1.772
 8185TIP3    H224520   0.771   5.858   1.807
 8186TIP3   OH224521   5.570   4.892   0.837
 8186TIP3    H124522   5.515   4.851   0.904
 8186TIP3    H224523   5.618   4.819   0.798
 8187TIP3   OH224524   2.139   6.828   1.812
 8187TIP3    H124525   2.045   6.840   1.819
 8187TIP3    H224526   2.154   6.798   1.722
 8188TIP3   OH224527   6.731   0.566   5.465
 8188TIP3    H124528   6.729   0.594   5.556
 8188TIP3    H224529   6.686   0.482   5.464
 8189TIP3   OH224530   3.864   4.934   5.881
 8189TIP3    H124531   3.852   4.879   5.803
 8189TIP3    H224532   3.887   5.020   5.846
 8190TIP3   OH224533   4.232   2.091   1.815
 8190TIP3    H124534   4.203   2.110   1.904
 8190TIP3    H224535   4.177   2.146   1.759
 8191TIP3   OH224536   2.688   6.578   5.080
 8191TIP3    H124537   2.749   6.519   5.123
 8191TIP3    H224538   2.629   6.521   5.031
 8192TIP3   OH224539   3.566   3.964   5.816
 8192TIP3    H124540   3.505   3.965   5.890
 8192TIP3    H224541   3.652   3.953   5.857
 8193TIP3   OH224542   0.294   1.458   0.814
 8193TIP3    H124543   0.375   1.496   0.849
 8193TIP3    H224544   0.313   1.365   0.804
 8194TIP3   OH224545   3.842   2.129   0.543
 8194TIP3    H124546   3.878   2.049   0.582
 8194TIP3    H224547   3.896   2.199   0.579
 8195TIP3   OH224548   0.749   5.925   5.430
 8195TIP3    H124549   0.730   5.833   5.410
 8195TIP3    H224550   0.668   5.971   5.412
 8196TIP3   OH224551   0.799   5.532   2.421
 8196TIP3    H124552   0.843   5.518   2.505
 8196TIP3    H224553   0.728   5.467   2.420
 8197TIP3   OH224554   2.564   3.808   5.385
 8197TIP3    H124555   2.615   3.885   5.359
 8197TIP3    H224556   2.527   3.831   5.470
 8198TIP3   OH224557   6.499   2.560   5.157
 8198TIP3    H124558   6.529   2.469   5.155
 8198TIP3    H224559   6.517   2.592   5.068
 8199TIP3   OH224560   4.995   3.441   4.329
 8199TIP3    H124561   4.922   3.477   4.278
 8199TIP3    H224562   5.020   3.361   4.284
 8200TIP3   OH224563   0.301   2.927   4.594
 8200TIP3    H124564   0.287   2.840   4.556
 8200TIP3    H224565   0.395   2.943   4.584
 8201TIP3   OH224566   4.103   6.149   4.570
 8201TIP3    H124567   4.137   6.072   4.525
 8201TIP3    H224568   4.112   6.220   4.506
 8202TIP3   OH224569   5.408   5.232   1.839
 8202TIP3    H124570   5.323   5.275   1.828
 8202TIP3    H224571   5.438   5.261   1.926
 8203TIP3   OH224572   2.463   5.848   4.532
 8203TIP3    H124573   2.535   5.802   4.489
 8203TIP3    H224574   2.394   5.783   4.541
 8204TIP3   OH224575   0.716   5.329   3.155
 8204TIP3    H124576   0.676   5.405   3.113
 8204TIP3    H224577   0.727   5.266   3.084
 8205TIP3   OH224578   5.572   3.370   3.110
 8205TIP3    H124579   5.606   3.300   3.166
 8205TIP3    H224580   5.524   3.427   3.169
 8206TIP3   OH224581   2.690   0.692   3.496
 8206TIP3    H124582   2.599   0.669   3.475
 8206TIP3    H224583   2.718   0.748   3.424
 8207TIP3   OH224584   2.069   4.240   0.448
 8207TIP3    H124585   2.080   4.190   0.368
 8207TIP3    H224586   1.977   4.268   0.447
 8208TIP3   OH224587   0.856   5.060   5.522
 8208TIP3    H124588   0.915   5.071   5.447
 8208TIP3    H224589   0.800   4.986   5.497
 8209TIP3   OH224590   6.873   5.597   3.277
 8209TIP3    H124591   6.818   5.674   3.263
 8209TIP3    H224592   6.873   5.584   3.372
 8210TIP3   OH224593   6.713   1.006   5.593
 8210TIP3    H124594   6.619   0.999   5.580
 8210TIP3    H224595   6.737   1.087   5.548
 8211TIP3   OH224596   2.405   3.297   0.638
 8211TIP3    H124597   2.361   3.319   0.556
 8211TIP3    H224598   2.495   3.275   0.612
 8212TIP3   OH224599   0.452   0.070   2.340
 8212TIP3    H124600   0.446   0.111   2.427
 8212TIP3    H224601   0.538   0.095   2.307
 8213TIP3   OH224602   0.217   0.392   1.854
 8213TIP3    H124603   0.196   0.339   1.777
 8213TIP3    H224604   0.231   0.328   1.924
 8214TIP3   OH224605   3.046   2.885   4.780
 8214TIP3    H124606   2.985   2.916   4.847
 8214TIP3    H224607   3.001   2.899   4.697
 8215TIP3   OH224608   5.956   1.886   3.849
 8215TIP3    H124609   6.009   1.941   3.907
 8215TIP3    H224610   5.884   1.943   3.821
 8216TIP3   OH224611   0.104   1.091   2.358
 8216TIP3    H124612   0.108   0.997   2.377
 8216TIP3    H224613   0.109   1.095   2.262
 8217TIP3   OH224614   5.912   1.268   0.759
 8217TIP3    H124615   5.821   1.251   0.732
 8217TIP3    H224616   5.905   1.339   0.823
 8218TIP3   OH224617   1.198   5.893   5.702
 8218TIP3    H124618   1.289   5.865   5.712
 8218TIP3    H224619   1.167   5.844   5.626
 8219TIP3   OH224620   1.225   4.265   2.576
 8219TIP3    H124621   1.187   4.183   2.546
 8219TIP3    H224622   1.316   4.243   2.597
 8220TIP3   OH224623   2.262   4.583   0.374
 8220TIP3    H124624   2.243   4.598   0.281
 8220TIP3    H224625   2.193   4.630   0.420
 8221TIP3   OH224626   5.107   0.389   1.780
 8221TIP3    H124627   5.029   0.357   1.734
 8221TIP3    H224628   5.175   0.324   1.760
 8222TIP3   OH224629   6.804   1.689   1.655
 8222TIP3    H124630   6.850   1.637   1.722
 8222TIP3    H224631   6.784   1.772   1.699
 8223TIP3   OH224632   3.919   0.031   2.301
 8223TIP3    H124633   3.891   0.085   2.227
 8223TIP3    H224634   3.963  -0.044   2.260
 8224TIP3   OH224635   5.111   6.740   2.046
 8224TIP3    H124636   5.204   6.720   2.041
 8224TIP3    H224637   5.081   6.697   2.126
 8225TIP3   OH224638   1.401   0.939   4.383
 8225TIP3    H124639   1.478   0.886   4.406
 8225TIP3    H224640   1.397   1.007   4.450
 8226TIP3   OH224641   3.939   5.202   4.104
 8226TIP3    H124642   4.023   5.210   4.059
 8226TIP3    H224643   3.880   5.260   4.057
 8227TIP3   OH224644   1.202   6.006   4.415
 8227TIP3    H124645   1.298   6.004   4.409
 8227TIP3    H224646   1.172   5.958   4.338
 8228TIP3   OH224647   2.964   3.559   1.414
 8228TIP3    H124648   2.925   3.595   1.334
 8228TIP3    H224649   2.891   3.551   1.474
 8229TIP3   OH224650   3.539   2.268   0.890
 8229TIP3    H124651   3.598   2.271   0.965
 8229TIP3    H224652   3.454   2.291   0.926
 8230TIP3   OH224653   2.627   5.622   1.928
 8230TIP3    H124654   2.634   5.707   1.885
 8230TIP3    H224655   2.563   5.573   1.875
 8231TIP3   OH224656   1.794   2.612   2.133
 8231TIP3    H124657   1.770   2.680   2.196
 8231TIP3    H224658   1.778   2.653   2.047
 8232TIP3   OH224659   6.168   1.748   1.158
 8232TIP3    H124660   6.129   1.815   1.214
 8232TIP3    H224661   6.095   1.696   1.127
 8233TIP3   OH224662   2.656   4.603   4.665
 8233TIP3    H124663   2.590   4.635   4.604
 8233TIP3    H224664   2.731   4.660   4.651
 8234TIP3   OH224665   1.173   2.710   1.988
 8234TIP3    H124666   1.228   2.788   1.976
 8234TIP3    H224667   1.235   2.639   2.001
 8235TIP3   OH224668   6.296   5.072   0.364
 8235TIP3    H124669   6.320   5.160   0.337
 8235TIP3    H224670   6.362   5.015   0.325
 8236TIP3   OH224671   2.311   2.908   4.438
 8236TIP3    H124672   2.396   2.899   4.394
 8236TIP3    H224673   2.333   2.907   4.531
 8237TIP3   OH224674   5.693   2.381   0.792
 8237TIP3    H124675   5.672   2.363   0.884
 8237TIP3    H224676   5.789   2.390   0.791
 8238TIP3   OH224677   0.051   6.600   5.589
 8238TIP3    H124678  -0.041   6.626   5.590
 8238TIP3    H224679   0.098   6.674   5.627
 8239TIP3   OH224680   0.289   0.053   4.688
 8239TIP3    H124681   0.336   0.135   4.677
 8239TIP3    H224682   0.203   0.078   4.723
 8240TIP3   OH224683   4.988   5.353   4.135
 8240TIP3    H124684   5.011   5.445   4.140
 8240TIP3    H224685   4.960   5.330   4.224
 8241TIP3   OH224686   3.926   3.343   0.880
 8241TIP3    H124687   4.001   3.320   0.824
 8241TIP3    H224688   3.890   3.422   0.840
 8242TIP3   OH224689   4.083   5.778   2.679
 8242TIP3    H124690   4.028   5.810   2.607
 8242TIP3    H224691   4.147   5.848   2.693
 8243TIP3   OH224692   2.818   6.668   4.014
 8243TIP3    H124693   2.889   6.640   3.956
 8243TIP3    H224694   2.772   6.587   4.037
 8244TIP3   OH224695   4.838   1.328   5.349
 8244TIP3    H124696   4.815   1.371   5.266
 8244TIP3    H224697   4.877   1.398   5.402
 8245TIP3   OH224698   6.731   4.580   4.890
 8245TIP3    H124699   6.780   4.584   4.808
 8245TIP3    H224700   6.658   4.519   4.871
 8246TIP3   OH224701   5.922   2.599   5.181
 8246TIP3    H124702   5.869   2.619   5.104
 8246TIP3    H224703   5.984   2.672   5.188
 8247TIP3   OH224704   1.042   2.788   2.944
 8247TIP3    H124705   1.112   2.802   2.880
 8247TIP3    H224706   1.055   2.858   3.008
 8248TIP3   OH224707   2.348   5.587   1.609
 8248TIP3    H124708   2.389   5.548   1.532
 8248TIP3    H224709   2.286   5.651   1.574
 8249TIP3   OH224710   6.804   0.597   2.247
 8249TIP3    H124711   6.869   0.570   2.312
 8249TIP3    H224712   6.834   0.683   2.217
 8250TIP3   OH224713   4.721   1.123   4.736
 8250TIP3    H124714   4.723   1.057   4.667
 8250TIP3    H224715   4.678   1.080   4.810
 8251TIP3   OH224716   5.947   0.738   1.574
 8251TIP3    H124717   5.953   0.799   1.501
 8251TIP3    H224718   5.905   0.660   1.536
 8252TIP3   OH224719   6.169   2.303   5.375
 8252TIP3    H124720   6.243   2.364   5.387
 8252TIP3    H224721   6.173   2.245   5.451
 8253TIP3   OH224722   5.148   3.406   0.870
 8253TIP3    H124723   5.156   3.314   0.893
 8253TIP3    H224724   5.125   3.406   0.778
 8254TIP3   OH224725   2.412   2.987   3.736
 8254TIP3    H124726   2.396   3.018   3.824
 8254TIP3    H224727   2.489   2.930   3.744
 8255TIP3   OH224728   1.855   6.799   2.965
 8255TIP3    H124729   1.785   6.831   3.021
 8255TIP3    H224730   1.813   6.787   2.879
 8256TIP3   OH224731   6.875   0.994   2.674
 8256TIP3    H124732   6.860   0.993   2.768
 8256TIP3    H224733   6.837   0.912   2.643
 8257TIP3   OH224734   1.714   1.905   3.988
 8257TIP3    H124735   1.780   1.888   4.055
 8257TIP3    H224736   1.731   1.994   3.959
 8258TIP3   OH224737   5.257   1.235   3.861
 8258TIP3    H124738   5.173   1.202   3.829
 8258TIP3    H224739   5.253   1.329   3.844
 8259TIP3   OH224740   5.787   3.376   2.349
 8259TIP3    H124741   5.880   3.388   2.366
 8259TIP3    H224742   5.758   3.315   2.417
 8260TIP3   OH224743   3.837   6.277   5.318
 8260TIP3    H124744   3.821   6.255   5.226
 8260TIP3    H224745   3.932   6.271   5.329
 8261TIP3   OH224746   2.889   1.978   0.593
 8261TIP3    H124747   2.871   1.911   0.527
 8261TIP3    H224748   2.832   1.954   0.667
 8262TIP3   OH224749   5.795   2.360   0.445
 8262TIP3    H124750   5.816   2.435   0.501
 8262TIP3    H224751   5.713   2.386   0.401
 8263TIP3   OH224752   3.391   1.920   4.513
 8263TIP3    H124753   3.363   1.993   4.458
 8263TIP3    H224754   3.316   1.862   4.516
 8264TIP3   OH224755   0.610   2.513   5.479
 8264TIP3    H124756   0.646   2.424   5.472
 8264TIP3    H224757   0.687   2.569   5.486
 8265TIP3   OH224758   2.945   1.877   0.065
 8265TIP3    H124759   3.014   1.867   0.131
 8265TIP3    H224760   2.923   1.787   0.040
 8266TIP3   OH224761   2.623   0.976   0.877
 8266TIP3    H124762   2.683   0.902   0.874
 8266TIP3    H224763   2.663   1.037   0.939
 8267TIP3   OH224764   2.888   5.417   2.829
 8267TIP3    H124765   2.813   5.476   2.834
 8267TIP3    H224766   2.856   5.340   2.784
 8268TIP3   OH224767   2.603   0.858   4.723
 8268TIP3    H124768   2.562   0.914   4.790
 8268TIP3    H224769   2.663   0.802   4.772
 8269TIP3   OH224770   0.848   6.061   3.971
 8269TIP3    H124771   0.800   6.107   4.040
 8269TIP3    H224772   0.788   6.059   3.897
 8270TIP3   OH224773   5.027   0.808   2.648
 8270TIP3    H124774   4.961   0.742   2.624
 8270TIP3    H224775   4.985   0.860   2.717
 8271TIP3   OH224776   1.814   2.802   2.728
 8271TIP3    H124777   1.901   2.840   2.714
 8271TIP3    H224778   1.753   2.871   2.704
 8272TIP3   OH224779   3.454   1.134   3.407
 8272TIP3    H124780   3.410   1.049   3.399
 8272TIP3    H224781   3.448   1.156   3.500
 8273TIP3   OH224782   0.468   3.150   0.347
 8273TIP3    H124783   0.541   3.205   0.316
 8273TIP3    H224784   0.507   3.064   0.360
 8274TIP3   OH224785   3.469   3.915   1.362
 8274TIP3    H124786   3.493   3.874   1.279
 8274TIP3    H224787   3.465   3.842   1.424
 8275TIP3   OH224788   3.526   5.050   2.012
 8275TIP3    H124789   3.593   5.069   2.077
 8275TIP3    H224790   3.513   5.133   1.966
 8276TIP3   OH224791   5.432   4.027   0.560
 8276TIP3    H124792   5.444   4.097   0.625
 8276TIP3    H224793   5.337   4.026   0.544
 8277TIP3   OH224794   6.196   2.731   5.420
 8277TIP3    H124795   6.197   2.729   5.325
 8277TIP3    H224796   6.255   2.660   5.446
 8278TIP3   OH224797   5.736   3.478   1.369
 8278TIP3    H124798   5.688   3.473   1.452
 8278TIP3    H224799   5.818   3.432   1.386
 8279TIP3   OH224800   0.265   3.322   3.233
 8279TIP3    H124801   0.216   3.382   3.177
 8279TIP3    H224802   0.282   3.372   3.313
 8280TIP3   OH224803   1.433   0.748   4.624
 8280TIP3    H124804   1.476   0.693   4.689
 8280TIP3    H224805   1.358   0.785   4.671
 8281TIP3   OH224806   4.449   6.465   5.839
 8281TIP3    H124807   4.396   6.474   5.919
 8281TIP3    H224808   4.490   6.551   5.828
 8282TIP3   OH224809   5.931   2.441   2.936
 8282TIP3    H124810   5.940   2.537   2.937
 8282TIP3    H224811   5.848   2.426   2.891
 8283TIP3   OH224812   4.070   2.406   3.138
 8283TIP3    H124813   4.131   2.475   3.161
 8283TIP3    H224814   4.119   2.325   3.150
 8284TIP3   OH224815   0.936   2.037   0.789
 8284TIP3    H124816   1.001   2.105   0.776
 8284TIP3    H224817   0.912   2.042   0.881
 8285TIP3   OH224818   3.134   1.938   0.729
 8285TIP3    H124819   3.059   1.923   0.672
 8285TIP3    H224820   3.166   2.025   0.705
 8286TIP3   OH224821   0.253   5.673   4.637
 8286TIP3    H124822   0.228   5.642   4.724
 8286TIP3    H224823   0.333   5.623   4.617
 8287TIP3   OH224824   4.471   4.695   1.933
 8287TIP3    H124825   4.413   4.707   1.858
 8287TIP3    H224826   4.466   4.778   1.981
 8288TIP3   OH224827   4.462   0.866   4.417
 8288TIP3    H124828   4.438   0.953   4.385
 8288TIP3    H224829   4.554   0.855   4.391
 8289TIP3   OH224830   2.929   5.359   1.761
 8289TIP3    H124831   2.880   5.294   1.709
 8289TIP3    H224832   2.918   5.331   1.851
 8290TIP3   OH224833   0.256   2.951   3.858
 8290TIP3    H124834   0.246   2.961   3.764
 8290TIP3    H224835   0.187   3.006   3.895
 8291TIP3   OH224836   2.129   2.418   0.103
 8291TIP3    H124837   2.192   2.455   0.166
 8291TIP3    H224838   2.184   2.373   0.039
 8292TIP3   OH224839   6.638   6.309   4.245
 8292TIP3    H124840   6.597   6.389   4.212
 8292TIP3    H224841   6.727   6.336   4.268
 8293TIP3   OH224842   3.376   5.634   2.328
 8293TIP3    H124843   3.332   5.717   2.347
 8293TIP3    H224844   3.404   5.601   2.413
 8294TIP3   OH224845   4.774   6.329   3.158
 8294TIP3    H124846   4.866   6.307   3.169
 8294TIP3    H224847   4.767   6.358   3.067
 8295TIP3   OH224848   5.474   5.376   4.639
 8295TIP3    H124849   5.456   5.361   4.546
 8295TIP3    H224850   5.418   5.314   4.685
 8296TIP3   OH224851   0.161   6.362   0.247
 8296TIP3    H124852   0.139   6.299   0.316
 8296TIP3    H224853   0.229   6.318   0.196
 8297TIP3   OH224854   3.463   4.759   3.509
 8297TIP3    H124855   3.469   4.840   3.457
 8297TIP3    H224856   3.527   4.770   3.579
 8298TIP3   OH224857   2.269   2.404   1.883
 8298TIP3    H124858   2.262   2.309   1.877
 8298TIP3    H224859   2.217   2.428   1.960
 8299TIP3   OH224860   0.418   6.388   3.969
 8299TIP3    H124861   0.394   6.479   3.982
 8299TIP3    H224862   0.442   6.356   4.056
 8300TIP3   OH224863   5.691   0.845   2.552
 8300TIP3    H124864   5.685   0.773   2.615
 8300TIP3    H224865   5.779   0.838   2.515
 8301TIP3   OH224866   0.596   4.506   5.786
 8301TIP3    H124867   0.557   4.476   5.704
 8301TIP3    H224868   0.634   4.427   5.825
 8302TIP3   OH224869   0.997   0.504   1.735
 8302TIP3    H124870   1.079   0.504   1.685
 8302TIP3    H224871   1.023   0.529   1.824
 8303TIP3   OH224872   3.146   4.458   3.462
 8303TIP3    H124873   3.232   4.494   3.443
 8303TIP3    H224874   3.139   4.462   3.557
 8304TIP3   OH224875   4.505   0.415   1.530
 8304TIP3    H124876   4.465   0.497   1.559
 8304TIP3    H224877   4.596   0.438   1.511
 8305TIP3   OH224878   0.784   1.372   0.666
 8305TIP3    H124879   0.814   1.281   0.662
 8305TIP3    H224880   0.689   1.365   0.679
 8306TIP3   OH224881   3.401   1.855   0.365
 8306TIP3    H124882   3.446   1.857   0.281
 8306TIP3    H224883   3.469   1.871   0.430
 8307TIP3   OH224884   5.413   5.625   5.074
 8307TIP3    H124885   5.397   5.708   5.119
 8307TIP3    H224886   5.333   5.574   5.087
 8308TIP3   OH224887   3.855   4.271   4.692
 8308TIP3    H124888   3.902   4.194   4.723
 8308TIP3    H224889   3.784   4.236   4.639
 8309TIP3   OH224890   6.200   1.605   0.122
 8309TIP3    H124891   6.113   1.565   0.131
 8309TIP3    H224892   6.192   1.690   0.166
 8310TIP3   OH224893   0.384   0.875   2.699
 8310TIP3    H124894   0.312   0.938   2.700
 8310TIP3    H224895   0.370   0.824   2.619
 8311TIP3   OH224896   4.393   0.897   0.080
 8311TIP3    H124897   4.390   0.812   0.036
 8311TIP3    H224898   4.304   0.910   0.113
 8312TIP3   OH224899   2.375   2.734   0.458
 8312TIP3    H124900   2.323   2.760   0.534
 8312TIP3    H224901   2.395   2.816   0.413
 8313TIP3   OH224902   5.275   3.574   3.998
 8313TIP3    H124903   5.334   3.499   4.009
 8313TIP3    H224904   5.189   3.540   4.023
 8314TIP3   OH224905   3.526   0.001   4.137
 8314TIP3    H124906   3.488   0.085   4.164
 8314TIP3    H224907   3.580  -0.026   4.211
 8315TIP3   OH224908   3.637   6.434   3.956
 8315TIP3    H124909   3.579   6.487   3.901
 8315TIP3    H224910   3.599   6.347   3.955
 8316TIP3   OH224911   3.881   5.518   0.116
 8316TIP3    H124912   3.896   5.461   0.191
 8316TIP3    H224913   3.910   5.604   0.145
 8317TIP3   OH224914   1.025   4.851   0.107
 8317TIP3    H124915   1.041   4.757   0.113
 8317TIP3    H224916   1.105   4.886   0.067
 8318TIP3   OH224917   3.934   5.967   3.335
 8318TIP3    H124918   3.876   6.042   3.326
 8318TIP3    H224919   3.914   5.912   3.259
 8319TIP3   OH224920   6.605   6.815   2.026
 8319TIP3    H124921   6.531   6.790   2.081
 8319TIP3    H224922   6.630   6.735   1.980
 8320TIP3   OH224923   5.654   6.682   3.118
 8320TIP3    H124924   5.641   6.587   3.111
 8320TIP3    H224925   5.571   6.715   3.152
 8321TIP3   OH224926   0.438   5.488   4.530
 8321TIP3    H124927   0.513   5.437   4.559
 8321TIP3    H224928   0.397   5.434   4.462
 8322TIP3   OH224929   4.762   2.042   0.487
 8322TIP3    H124930   4.796   2.115   0.434
 8322TIP3    H224931   4.681   2.076   0.525
 8323TIP3   OH224932   3.353   0.046   4.899
 8323TIP3    H124933   3.274  -0.007   4.898
 8323TIP3    H224934   3.417  -0.007   4.947
 8324TIP3   OH224935   4.984   1.430   3.443
 8324TIP3    H124936   4.971   1.387   3.527
 8324TIP3    H224937   4.895   1.439   3.407
 8325TIP3   OH224938   5.310   0.182   5.476
 8325TIP3    H124939   5.405   0.185   5.486
 8325TIP3    H224940   5.283   0.273   5.465
 8326TIP3   OH224941   3.347   1.363   5.700
 8326TIP3    H124942   3.253   1.382   5.705
 8326TIP3    H224943   3.351   1.275   5.664
 8327TIP3   OH224944   4.248   4.433   1.523
 8327TIP3    H124945   4.248   4.350   1.571
 8327TIP3    H224946   4.245   4.407   1.431
 8328TIP3   OH224947   0.495   5.408   4.857
 8328TIP3    H124948   0.559   5.473   4.830
 8328TIP3    H224949   0.443   5.390   4.779
 8329TIP3   OH224950   3.739   6.024   0.282
 8329TIP3    H124951   3.680   6.094   0.310
 8329TIP3    H224952   3.750   5.969   0.360
 8330TIP3   OH224953   2.683   6.448   0.573
 8330TIP3    H124954   2.624   6.514   0.538
 8330TIP3    H224955   2.771   6.480   0.553
 8331TIP3   OH224956   5.232   1.893   2.888
 8331TIP3    H124957   5.164   1.859   2.830
 8331TIP3    H224958   5.247   1.983   2.858
 8332TIP3   OH224959   5.384   0.536   0.231
 8332TIP3    H124960   5.337   0.592   0.168
 8332TIP3    H224961   5.396   0.453   0.185
 8333TIP3   OH224962   6.652   6.064   1.396
 8333TIP3    H124963   6.569   6.036   1.357
 8333TIP3    H224964   6.711   5.990   1.381
 8334TIP3   OH224965   1.606   4.811   0.510
 8334TIP3    H124966   1.652   4.727   0.506
 8334TIP3    H224967   1.593   4.835   0.418
 8335TIP3   OH224968   4.199   2.072   1.025
 8335TIP3    H124969   4.289   2.093   1.050
 8335TIP3    H224970   4.201   2.068   0.930
 8336TIP3   OH224971   6.032   0.212   3.616
 8336TIP3    H124972   6.032   0.125   3.576
 8336TIP3    H224973   6.123   0.241   3.610
 8337TIP3   OH224974   7.181   3.957   4.017
 8337TIP3    H124975   7.202   3.979   3.927
 8337TIP3    H224976   7.105   4.013   4.038
 8338TIP3   OH224977   4.655   0.374   1.769
 8338TIP3    H124978   4.736   0.326   1.754
 8338TIP3    H224979   4.596   0.347   1.699
 8339TIP3   OH224980   0.113   3.760   4.126
 8339TIP3    H124981   0.080   3.670   4.125
 8339TIP3    H224982   0.034   3.814   4.127
 8340TIP3   OH224983   1.249   1.766   2.792
 8340TIP3    H124984   1.237   1.671   2.798
 8340TIP3    H224985   1.161   1.802   2.793
 8341TIP3   OH224986   3.840   3.218   2.718
 8341TIP3    H124987   3.790   3.268   2.783
 8341TIP3    H224988   3.929   3.252   2.725
 8342TIP3   OH224989   3.896   0.683   0.405
 8342TIP3    H124990   3.953   0.607   0.416
 8342TIP3    H224991   3.813   0.656   0.444
 8343TIP3   OH224992   4.984   2.904   5.469
 8343TIP3    H124993   5.018   2.879   5.382
 8343TIP3    H224994   4.890   2.917   5.455
 8344TIP3   OH224995   4.476   6.041   0.519
 8344TIP3    H124996   4.516   6.126   0.506
 8344TIP3    H224997   4.390   6.061   0.556
 8345TIP3   OH224998   7.154   1.316   0.383
 8345TIP3    H124999   7.107   1.339   0.464
 8345TIP3    H225000   7.142   1.222   0.375
 8346TIP3   OH225001   6.073   3.815   3.935
 8346TIP3    H125002   6.164   3.808   3.908
 8346TIP3    H225003   6.037   3.886   3.881
 8347TIP3   OH225004   1.883   0.343   0.888
 8347TIP3    H125005   1.923   0.256   0.880
 8347TIP3    H225006   1.791   0.325   0.908
 8348TIP3   OH225007   5.510   4.773   3.386
 8348TIP3    H125008   5.561   4.740   3.312
 8348TIP3    H225009   5.429   4.804   3.347
 8349TIP3   OH225010   4.928   5.579   4.887
 8349TIP3    H125011   5.012   5.571   4.932
 8349TIP3    H225012   4.869   5.522   4.937
 8350TIP3   OH225013   5.828   3.786   3.700
 8350TIP3    H125014   5.839   3.836   3.781
 8350TIP3    H225015   5.874   3.837   3.634
 8351TIP3   OH225016   1.658   6.767   1.902
 8351TIP3    H125017   1.630   6.698   1.841
 8351TIP3    H225018   1.647   6.728   1.988
 8352TIP3   OH225019   2.281   0.546   3.687
 8352TIP3    H125020   2.332   0.563   3.608
 8352TIP3    H225021   2.334   0.583   3.758
 8353TIP3   OH225022   4.560   3.472   5.174
 8353TIP3    H125023   4.466   3.475   5.196
 8353TIP3    H225024   4.571   3.391   5.125
 8354TIP3   OH225025   5.890   3.869   2.935
 8354TIP3    H125026   5.805   3.859   2.979
 8354TIP3    H225027   5.869   3.912   2.852
 8355TIP3   OH225028   3.057   6.807   2.943
 8355TIP3    H125029   3.039   6.756   3.022
 8355TIP3    H225030   2.973   6.847   2.920
 8356TIP3   OH225031   5.462   5.102   1.325
 8356TIP3    H125032   5.402   5.060   1.262
 8356TIP3    H225033   5.444   5.195   1.317
 8357TIP3   OH225034   4.143   4.193   3.632
 8357TIP3    H125035   4.148   4.288   3.641
 8357TIP3    H225036   4.098   4.179   3.548
 8358TIP3   OH225037   1.997   5.148   2.521
 8358TIP3    H125038   1.976   5.065   2.563
 8358TIP3    H225039   2.025   5.205   2.592
 8359TIP3   OH225040   5.005   0.504   2.321
 8359TIP3    H125041   4.959   0.473   2.399
 8359TIP3    H225042   5.026   0.595   2.340
 8360TIP3   OH225043   1.187   0.635   3.328
 8360TIP3    H125044   1.170   0.578   3.403
 8360TIP3    H225045   1.102   0.647   3.286
 8361TIP3   OH225046   6.392   2.138   1.191
 8361TIP3    H125047   6.453   2.133   1.117
 8361TIP3    H225048   6.372   2.047   1.212
 8362TIP3   OH225049   3.338   1.027   2.539
 8362TIP3    H125050   3.335   1.076   2.457
 8362TIP3    H225051   3.426   0.990   2.541
 8363TIP3   OH225052   3.677   4.278   2.257
 8363TIP3    H125053   3.687   4.359   2.207
 8363TIP3    H225054   3.673   4.308   2.348
 8364TIP3   OH225055   1.353   1.279   1.788
 8364TIP3    H125056   1.427   1.319   1.742
 8364TIP3    H225057   1.381   1.275   1.879
 8365TIP3   OH225058   5.427   1.923   2.369
 8365TIP3    H125059   5.488   1.964   2.307
 8365TIP3    H225060   5.449   1.830   2.367
 8366TIP3   OH225061   0.398   0.677   1.444
 8366TIP3    H125062   0.380   0.652   1.353
 8366TIP3    H225063   0.367   0.602   1.496
 8367TIP3   OH225064   4.803   3.977   5.040
 8367TIP3    H125065   4.837   4.044   4.981
 8367TIP3    H225066   4.865   3.974   5.112
 8368TIP3   OH225067   5.874   5.432   3.197
 8368TIP3    H125068   5.808   5.466   3.259
 8368TIP3    H225069   5.880   5.339   3.218
 8369TIP3   OH225070   5.190   0.840   3.058
 8369TIP3    H125071   5.186   0.778   2.985
 8369TIP3    H225072   5.134   0.802   3.125
 8370TIP3   OH225073   0.617   4.427   0.545
 8370TIP3    H125074   0.605   4.494   0.476
 8370TIP3    H225075   0.703   4.390   0.527
 8371TIP3   OH225076   3.015   4.621   2.988
 8371TIP3    H125077   3.086   4.683   3.004
 8371TIP3    H225078   3.019   4.603   2.894
 8372TIP3   OH225079   1.238   5.705   1.722
 8372TIP3    H125080   1.249   5.681   1.814
 8372TIP3    H225081   1.280   5.791   1.715
 8373TIP3   OH225082   5.666   1.187   5.252
 8373TIP3    H125083   5.635   1.173   5.342
 8373TIP3    H225084   5.617   1.264   5.222
 8374TIP3   OH225085   5.525   3.909   2.364
 8374TIP3    H125086   5.440   3.903   2.320
 8374TIP3    H225087   5.567   3.825   2.349
 8375TIP3   OH225088   6.754   1.271   4.522
 8375TIP3    H125089   6.827   1.245   4.466
 8375TIP3    H225090   6.691   1.310   4.462
 8376TIP3   OH225091   1.631   3.722   5.414
 8376TIP3    H125092   1.663   3.771   5.489
 8376TIP3    H225093   1.684   3.753   5.341
 8377TIP3   OH225094   1.771   5.464   2.451
 8377TIP3    H125095   1.693   5.514   2.426
 8377TIP3    H225096   1.777   5.395   2.386
 8378TIP3   OH225097   2.744   0.522   1.447
 8378TIP3    H125098   2.709   0.545   1.533
 8378TIP3    H225099   2.688   0.450   1.417
 8379TIP3   OH225100   3.448   4.569   1.962
 8379TIP3    H125101   3.482   4.568   1.873
 8379TIP3    H225102   3.511   4.517   2.012
 8380TIP3   OH225103   1.985   1.455   5.745
 8380TIP3    H125104   1.991   1.365   5.776
 8380TIP3    H225105   1.989   1.508   5.825
 8381TIP3   OH225106   0.385   3.097   5.838
 8381TIP3    H125107   0.428   3.181   5.856
 8381TIP3    H225108   0.455   3.042   5.803
 8382TIP3   OH225109   4.291   1.780   0.165
 8382TIP3    H125110   4.364   1.738   0.119
 8382TIP3    H225111   4.226   1.797   0.097
 8383TIP3   OH225112   4.833   5.908   5.630
 8383TIP3    H125113   4.882   5.893   5.549
 8383TIP3    H225114   4.809   6.000   5.627
 8384TIP3   OH225115   1.886   2.297   1.304
 8384TIP3    H125116   1.831   2.266   1.376
 8384TIP3    H225117   1.958   2.234   1.302
 8385TIP3   OH225118   3.833   2.099   4.628
 8385TIP3    H125119   3.902   2.125   4.689
 8385TIP3    H225120   3.876   2.038   4.568
 8386TIP3   OH225121   0.338   2.370   4.440
 8386TIP3    H125122   0.262   2.327   4.400
 8386TIP3    H225123   0.301   2.443   4.489
 8387TIP3   OH225124   3.417   3.561   1.375
 8387TIP3    H125125   3.328   3.597   1.374
 8387TIP3    H225126   3.445   3.563   1.284
 8388TIP3   OH225127   5.777   3.052   1.540
 8388TIP3    H125128   5.864   3.054   1.500
 8388TIP3    H225129   5.768   3.137   1.582
 8389TIP3   OH225130   2.007   4.745   2.180
 8389TIP3    H125131   2.016   4.734   2.085
 8389TIP3    H225132   2.045   4.831   2.198
 8390TIP3   OH225133   4.176   2.999   2.977
 8390TIP3    H125134   4.100   2.961   3.021
 8390TIP3    H225135   4.143   3.080   2.938
 8391TIP3   OH225136   2.059   0.110   5.241
 8391TIP3    H125137   2.096   0.048   5.178
 8391TIP3    H225138   2.124   0.113   5.312
 8392TIP3   OH225139   4.699   2.618   0.069
 8392TIP3    H125140   4.786   2.619   0.110
 8392TIP3    H225141   4.704   2.686   0.002
 8393TIP3   OH225142   5.841   4.022   2.163
 8393TIP3    H125143   5.800   4.076   2.230
 8393TIP3    H225144   5.769   3.969   2.128
 8394TIP3   OH225145   3.788   6.063   4.236
 8394TIP3    H125146   3.858   6.010   4.275
 8394TIP3    H225147   3.775   6.025   4.149
 8395TIP3   OH225148   4.270   5.453   5.291
 8395TIP3    H125149   4.184   5.483   5.322
 8395TIP3    H225150   4.321   5.533   5.279
 8396TIP3   OH225151   1.541   3.647   3.211
 8396TIP3    H125152   1.559   3.738   3.235
 8396TIP3    H225153   1.496   3.653   3.127
 8397TIP3   OH225154   2.409   2.676   4.882
 8397TIP3    H125155   2.476   2.745   4.880
 8397TIP3    H225156   2.448   2.606   4.934
 8398TIP3   OH225157   3.964   4.723   5.122
 8398TIP3    H125158   4.024   4.785   5.162
 8398TIP3    H225159   3.941   4.762   5.038
 8399TIP3   OH225160   1.168   3.027   5.278
 8399TIP3    H125161   1.216   3.101   5.317
 8399TIP3    H225162   1.203   3.021   5.189
 8400TIP3   OH225163   4.785   2.919   5.036
 8400TIP3    H125164   4.704   2.905   5.086
 8400TIP3    H225165   4.795   2.840   4.983
 8401TIP3   OH225166   3.385   3.169   0.347
 8401TIP3    H125167   3.477   3.158   0.372
 8401TIP3    H225168   3.387   3.232   0.275
 8402TIP3   OH225169   4.802   4.130   3.825
 8402TIP3    H125170   4.726   4.183   3.847
 8402TIP3    H225171   4.766   4.054   3.779
 8403TIP3   OH225172   3.956   3.522   0.499
 8403TIP3    H125173   4.020   3.580   0.457
 8403TIP3    H225174   4.008   3.450   0.534
 8404TIP3   OH225175   5.422   5.025   4.502
 8404TIP3    H125176   5.355   5.075   4.549
 8404TIP3    H225177   5.398   5.036   4.410
 8405TIP3   OH225178   6.956   1.271   1.192
 8405TIP3    H125179   6.865   1.271   1.161
 8405TIP3    H225180   6.962   1.349   1.247
 8406TIP3   OH225181   1.974   0.468   4.878
 8406TIP3    H125182   2.004   0.559   4.880
 8406TIP3    H225183   2.051   0.416   4.902
 8407TIP3   OH225184   6.233   1.659   4.431
 8407TIP3    H125185   6.306   1.637   4.489
 8407TIP3    H225186   6.261   1.739   4.387
 8408TIP3   OH225187   5.049   0.776   3.802
 8408TIP3    H125188   5.043   0.871   3.794
 8408TIP3    H225189   4.969   0.751   3.849
 8409TIP3   OH225190   5.244   1.639   4.923
 8409TIP3    H125191   5.185   1.660   4.850
 8409TIP3    H225192   5.197   1.666   5.001
 8410TIP3   OH225193   4.426   2.642   0.080
 8410TIP3    H125194   4.388   2.589   0.010
 8410TIP3    H225195   4.516   2.612   0.088
 8411TIP3   OH225196   6.868   2.067   3.794
 8411TIP3    H125197   6.944   2.118   3.822
 8411TIP3    H225198   6.813   2.129   3.746
 8412TIP3   OH225199   0.302   2.854   2.759
 8412TIP3    H125200   0.348   2.895   2.686
 8412TIP3    H225201   0.360   2.867   2.834
 8413TIP3   OH225202   1.561   6.770   5.542
 8413TIP3    H125203   1.479   6.728   5.518
 8413TIP3    H225204   1.610   6.777   5.460
 8414TIP3   OH225205   2.148   6.245   2.173
 8414TIP3    H125206   2.128   6.339   2.167
 8414TIP3    H225207   2.090   6.204   2.110
 8415TIP3   OH225208   6.351   5.486   4.289
 8415TIP3    H125209   6.430   5.525   4.327
 8415TIP3    H225210   6.339   5.532   4.206
 8416TIP3   OH225211   6.547   1.067   2.419
 8416TIP3    H125212   6.484   1.092   2.487
 8416TIP3    H225213   6.544   1.139   2.356
 8417TIP3   OH225214   0.851   4.139   0.523
 8417TIP3    H125215   0.877   4.140   0.615
 8417TIP3    H225216   0.870   4.227   0.491
 8418TIP3   OH225217   7.074   0.482   5.631
 8418TIP3    H125218   7.019   0.431   5.691
 8418TIP3    H225219   7.046   0.456   5.544
 8419TIP3   OH225220   4.324   2.441   0.986
 8419TIP3    H125221   4.354   2.490   0.909
 8419TIP3    H225222   4.339   2.501   1.059
 8420TIP3   OH225223   2.897   1.884   2.090
 8420TIP3    H125224   2.815   1.884   2.041
 8420TIP3    H225225   2.905   1.973   2.125
 8421TIP3   OH225226   4.010   4.624   1.867
 8421TIP3    H125227   3.968   4.551   1.822
 8421TIP3    H225228   4.087   4.586   1.910
 8422TIP3   OH225229   3.708   0.711   0.188
 8422TIP3    H125230   3.708   0.798   0.150
 8422TIP3    H225231   3.693   0.725   0.282
 8423TIP3   OH225232   6.415   1.394   0.872
 8423TIP3    H125233   6.457   1.479   0.856
 8423TIP3    H225234   6.344   1.414   0.932
 8424TIP3   OH225235   3.099   6.134   2.526
 8424TIP3    H125236   3.022   6.087   2.558
 8424TIP3    H225237   3.067   6.185   2.451
 8425TIP3   OH225238   3.502   1.432   2.655
 8425TIP3    H125239   3.490   1.414   2.749
 8425TIP3    H225240   3.422   1.479   2.630
 8426TIP3   OH225241   3.143   0.987   3.527
 8426TIP3    H125242   3.068   1.044   3.543
 8426TIP3    H225243   3.192   0.987   3.610
 8427TIP3   OH225244   2.163   5.205   4.472
 8427TIP3    H125245   2.119   5.171   4.394
 8427TIP3    H225246   2.256   5.195   4.454
 8428TIP3   OH225247   6.590   5.063   5.722
 8428TIP3    H125248   6.612   5.087   5.632
 8428TIP3    H225249   6.575   5.146   5.766
 8429TIP3   OH225250   1.389   1.054   0.097
 8429TIP3    H125251   1.357   1.138   0.128
 8429TIP3    H225252   1.387   0.997   0.174
 8430TIP3   OH225253   5.093   1.585   1.078
 8430TIP3    H125254   5.092   1.612   0.986
 8430TIP3    H225255   5.001   1.564   1.097
 8431TIP3   OH225256   4.227   2.659   3.206
 8431TIP3    H125257   4.250   2.751   3.193
 8431TIP3    H225258   4.153   2.661   3.266
 8432TIP3   OH225259   0.914   1.444   5.118
 8432TIP3    H125260   0.886   1.441   5.209
 8432TIP3    H225261   0.961   1.362   5.104
 8433TIP3   OH225262   0.010   1.496   0.177
 8433TIP3    H125263   0.096   1.460   0.156
 8433TIP3    H225264  -0.017   1.450   0.256
 8434TIP3   OH225265   5.212   1.716   4.024
 8434TIP3    H125266   5.218   1.656   4.099
 8434TIP3    H225267   5.230   1.803   4.061
 8435TIP3   OH225268   4.395   2.802   3.955
 8435TIP3    H125269   4.406   2.832   3.864
 8435TIP3    H225270   4.464   2.847   4.003
 8436TIP3   OH225271   6.838   0.140   1.360
 8436TIP3    H125272   6.792   0.089   1.427
 8436TIP3    H225273   6.819   0.231   1.382
 8437TIP3   OH225274   2.419   1.997   4.364
 8437TIP3    H125275   2.339   1.967   4.407
 8437TIP3    H225276   2.485   1.996   4.434
 8438TIP3   OH225277   5.689   3.151   0.144
 8438TIP3    H125278   5.690   3.076   0.085
 8438TIP3    H225279   5.682   3.227   0.087
 8439TIP3   OH225280   4.512   3.698   2.554
 8439TIP3    H125281   4.594   3.668   2.516
 8439TIP3    H225282   4.470   3.749   2.484
 8440TIP3   OH225283   0.504   6.755   4.360
 8440TIP3    H125284   0.520   6.661   4.367
 8440TIP3    H225285   0.435   6.763   4.294
 8441TIP3   OH225286   4.007   5.751   4.772
 8441TIP3    H125287   4.080   5.805   4.801
 8441TIP3    H225288   3.929   5.804   4.790
 8442TIP3   OH225289   4.190   5.048   3.879
 8442TIP3    H125290   4.215   5.137   3.851
 8442TIP3    H225291   4.254   4.991   3.838
 8443TIP3   OH225292   6.098   3.214   4.896
 8443TIP3    H125293   6.191   3.234   4.886
 8443TIP3    H225294   6.073   3.258   4.977
 8444TIP3   OH225295   0.352   0.764   2.450
 8444TIP3    H125296   0.319   0.808   2.371
 8444TIP3    H225297   0.343   0.671   2.431
 8445TIP3   OH225298   2.346   0.070   5.827
 8445TIP3    H125299   2.301   0.011   5.766
 8445TIP3    H225300   2.309   0.156   5.810
 8446TIP3   OH225301   0.888   4.991   4.235
 8446TIP3    H125302   0.885   5.060   4.302
 8446TIP3    H225303   0.942   4.923   4.275
 8447TIP3   OH225304   3.266   4.118   5.553
 8447TIP3    H125305   3.293   4.054   5.619
 8447TIP3    H225306   3.188   4.079   5.513
 8448TIP3   OH225307   4.384   0.678   3.162
 8448TIP3    H125308   4.323   0.604   3.152
 8448TIP3    H225309   4.398   0.685   3.256
 8449TIP3   OH225310   2.118   0.928   4.274
 8449TIP3    H125311   2.049   0.986   4.305
 8449TIP3    H225312   2.100   0.844   4.316
 8450TIP3   OH225313   5.692   2.747   2.352
 8450TIP3    H125314   5.605   2.773   2.323
 8450TIP3    H225315   5.692   2.766   2.446
 8451TIP3   OH225316   0.416   2.654   2.237
 8451TIP3    H125317   0.449   2.582   2.290
 8451TIP3    H225318   0.452   2.639   2.150
 8452TIP3   OH225319   1.942   4.980   2.974
 8452TIP3    H125320   1.878   5.051   2.986
 8452TIP3    H225321   2.027   5.024   2.976
 8453TIP3   OH225322   2.562   6.002   1.015
 8453TIP3    H125323   2.511   5.959   0.946
 8453TIP3    H225324   2.497   6.039   1.075
 8454TIP3   OH225325   3.942   5.062   3.704
 8454TIP3    H125326   3.897   5.050   3.788
 8454TIP3    H225327   4.035   5.058   3.726
 8455TIP3   OH225328   5.505   4.224   1.898
 8455TIP3    H125329   5.422   4.224   1.851
 8455TIP3    H225330   5.555   4.152   1.860
 8456TIP3   OH225331   5.941   1.491   0.165
 8456TIP3    H125332   5.920   1.481   0.072
 8456TIP3    H225333   5.856   1.498   0.208
 8457TIP3   OH225334   6.496   4.417   3.808
 8457TIP3    H125335   6.445   4.339   3.786
 8457TIP3    H225336   6.553   4.388   3.879
 8458TIP3   OH225337   6.681   3.625   2.995
 8458TIP3    H125338   6.621   3.569   2.946
 8458TIP3    H225339   6.649   3.622   3.085
 8459TIP3   OH225340   6.620   3.038   1.213
 8459TIP3    H125341   6.695   2.979   1.214
 8459TIP3    H225342   6.639   3.099   1.141
 8460TIP3   OH225343   2.624   0.403   1.078
 8460TIP3    H125344   2.641   0.419   0.985
 8460TIP3    H225345   2.614   0.308   1.084
 8461TIP3   OH225346   0.345   1.343   2.706
 8461TIP3    H125347   0.368   1.360   2.615
 8461TIP3    H225348   0.323   1.430   2.741
 8462TIP3   OH225349   1.381   3.601   1.795
 8462TIP3    H125350   1.308   3.542   1.812
 8462TIP3    H225351   1.340   3.677   1.753
 8463TIP3   OH225352   0.407   0.586   1.718
 8463TIP3    H125353   0.335   0.543   1.764
 8463TIP3    H225354   0.392   0.679   1.733
 8464TIP3   OH225355   2.513   0.036   1.454
 8464TIP3    H125356   2.482  -0.054   1.453
 8464TIP3    H225357   2.518   0.061   1.361
 8465TIP3   OH225358   0.706   6.534   5.209
 8465TIP3    H125359   0.760   6.613   5.209
 8465TIP3    H225360   0.619   6.564   5.236
 8466TIP3   OH225361   2.229   2.598   4.694
 8466TIP3    H125362   2.301   2.643   4.738
 8466TIP3    H225363   2.180   2.668   4.651
 8467TIP3   OH225364   0.034   2.632   2.851
 8467TIP3    H125365   0.076   2.586   2.778
 8467TIP3    H225366   0.002   2.714   2.813
 8468TIP3   OH225367   3.612   0.957   0.038
 8468TIP3    H125368   3.664   1.029   0.073
 8468TIP3    H225369   3.541   0.946   0.101
 8469TIP3   OH225370   7.187   2.086   2.049
 8469TIP3    H125371   7.231   2.148   2.108
 8469TIP3    H225372   7.204   2.120   1.961
 8470TIP3   OH225373   2.522   3.692   3.049
 8470TIP3    H125374   2.589   3.681   3.116
 8470TIP3    H225375   2.444   3.651   3.086
 8471TIP3   OH225376   2.003   3.923   3.497
 8471TIP3    H125377   1.969   3.918   3.407
 8471TIP3    H225378   2.091   3.959   3.488
 8472TIP3   OH225379   2.626   6.406   3.241
 8472TIP3    H125380   2.558   6.473   3.235
 8472TIP3    H225381   2.580   6.323   3.227
 8473TIP3   OH225382   7.154   5.792   4.697
 8473TIP3    H125383   7.241   5.790   4.736
 8473TIP3    H225384   7.131   5.885   4.692
 8474TIP3   OH225385   6.768   4.516   1.177
 8474TIP3    H125386   6.831   4.460   1.132
 8474TIP3    H225387   6.683   4.490   1.141
 8475TIP3   OH225388   5.914   1.153   3.904
 8475TIP3    H125389   5.938   1.107   3.985
 8475TIP3    H225390   5.878   1.084   3.848
 8476TIP3   OH225391   1.160   3.180   0.075
 8476TIP3    H125392   1.217   3.255   0.093
 8476TIP3    H225393   1.203   3.135   0.001
 8477TIP3   OH225394   1.142   1.863   1.324
 8477TIP3    H125395   1.135   1.832   1.414
 8477TIP3    H225396   1.060   1.911   1.309
 8478TIP3   OH225397   3.908   1.851   0.490
 8478TIP3    H125398   3.910   1.860   0.395
 8478TIP3    H225399   3.999   1.831   0.513
 8479TIP3   OH225400   2.065   6.085   5.735
 8479TIP3    H125401   2.121   6.053   5.664
 8479TIP3    H225402   2.107   6.165   5.764
 8480TIP3   OH225403   0.591   3.933   0.628
 8480TIP3    H125404   0.507   3.892   0.647
 8480TIP3    H225405   0.646   3.910   0.703
 8481TIP3   OH225406   2.480   2.691   5.769
 8481TIP3    H125407   2.438   2.659   5.689
 8481TIP3    H225408   2.501   2.612   5.818
 8482TIP3   OH225409   2.580   4.433   3.104
 8482TIP3    H125410   2.599   4.367   3.171
 8482TIP3    H225411   2.651   4.497   3.113
 8483TIP3   OH225412   1.780   0.321   0.605
 8483TIP3    H125413   1.774   0.261   0.531
 8483TIP3    H225414   1.697   0.310   0.651
 8484TIP3   OH225415   1.177   3.430   4.055
 8484TIP3    H125416   1.086   3.427   4.082
 8484TIP3    H225417   1.180   3.381   3.973
 8485TIP3   OH225418   1.287   5.188   1.467
 8485TIP3    H125419   1.217   5.196   1.532
 8485TIP3    H225420   1.355   5.249   1.497
 8486TIP3   OH225421   5.248   3.024   2.154
 8486TIP3    H125422   5.299   3.084   2.208
 8486TIP3    H225423   5.301   3.011   2.075
 8487TIP3   OH225424   4.350   0.063   2.671
 8487TIP3    H125425   4.288   0.044   2.600
 8487TIP3    H225426   4.299   0.114   2.734
 8488TIP3   OH225427   2.195   3.997   1.327
 8488TIP3    H125428   2.197   4.080   1.375
 8488TIP3    H225429   2.275   3.998   1.274
 8489TIP3   OH225430   3.112   0.723   3.378
 8489TIP3    H125431   3.020   0.748   3.389
 8489TIP3    H225432   3.140   0.697   3.465
 8490TIP3   OH225433   6.525   5.640   3.657
 8490TIP3    H125434   6.465   5.664   3.586
 8490TIP3    H225435   6.528   5.544   3.654
 8491TIP3   OH225436   6.078   2.245   4.194
 8491TIP3    H125437   6.097   2.261   4.286
 8491TIP3    H225438   6.051   2.153   4.190
 8492TIP3   OH225439   0.007   5.790   0.883
 8492TIP3    H125440  -0.084   5.795   0.855
 8492TIP3    H225441   0.023   5.696   0.895
 8493TIP3   OH225442   0.432   4.980   0.494
 8493TIP3    H125443   0.376   4.905   0.476
 8493TIP3    H225444   0.514   4.942   0.526
 8494TIP3   OH225445   4.595   2.203   2.695
 8494TIP3    H125446   4.522   2.174   2.749
 8494TIP3    H225447   4.664   2.226   2.757
 8495TIP3   OH225448   4.018   0.859   2.335
 8495TIP3    H125449   4.090   0.796   2.348
 8495TIP3    H225450   4.002   0.895   2.422
 8496TIP3   OH225451   3.421   3.334   3.404
 8496TIP3    H125452   3.409   3.281   3.483
 8496TIP3    H225453   3.337   3.330   3.359
 8497TIP3   OH225454   1.694   1.137   0.744
 8497TIP3    H125455   1.715   1.063   0.688
 8497TIP3    H225456   1.711   1.214   0.690
 8498TIP3   OH225457   5.134   4.302   1.077
 8498TIP3    H125458   5.075   4.365   1.117
 8498TIP3    H225459   5.104   4.217   1.109
 8499TIP3   OH225460   2.422   4.956   0.816
 8499TIP3    H125461   2.379   4.903   0.749
 8499TIP3    H225462   2.493   5.001   0.769
 8500TIP3   OH225463   4.500   4.850   2.699
 8500TIP3    H125464   4.558   4.897   2.640
 8500TIP3    H225465   4.412   4.869   2.665
 8501TIP3   OH225466   0.855   3.473   5.050
 8501TIP3    H125467   0.911   3.492   5.126
 8501TIP3    H225468   0.772   3.517   5.070
 8502TIP3   OH225469   4.357   1.704   0.887
 8502TIP3    H125470   4.267   1.735   0.885
 8502TIP3    H225471   4.391   1.733   0.972
 8503TIP3   OH225472   5.368   0.810   1.619
 8503TIP3    H125473   5.417   0.732   1.594
 8503TIP3    H225474   5.284   0.776   1.651
 8504TIP3   OH225475   4.572   0.945   5.454
 8504TIP3    H125476   4.539   1.029   5.487
 8504TIP3    H225477   4.635   0.969   5.387
 8505TIP3   OH225478   4.694   5.693   5.808
 8505TIP3    H125479   4.696   5.753   5.734
 8505TIP3    H225480   4.768   5.634   5.793
 8506TIP3   OH225481   3.481   5.423   4.209
 8506TIP3    H125482   3.443   5.450   4.125
 8506TIP3    H225483   3.463   5.496   4.268
 8507TIP3   OH225484   2.838   6.368   3.583
 8507TIP3    H125485   2.797   6.358   3.669
 8507TIP3    H225486   2.859   6.278   3.555
 8508TIP3   OH225487   2.612   1.287   2.299
 8508TIP3    H125488   2.623   1.381   2.284
 8508TIP3    H225489   2.694   1.248   2.268
 8509TIP3   OH225490   5.550   5.042   5.115
 8509TIP3    H125491   5.596   4.961   5.137
 8509TIP3    H225492   5.620   5.105   5.098
 8510TIP3   OH225493   7.243   1.594   4.109
 8510TIP3    H125494   7.180   1.522   4.098
 8510TIP3    H225495   7.236   1.644   4.028
 8511TIP3   OH225496   2.273   0.132   3.561
 8511TIP3    H125497   2.320   0.147   3.479
 8511TIP3    H225498   2.189   0.094   3.535
 8512TIP3   OH225499   2.393   5.786   0.868
 8512TIP3    H125500   2.331   5.752   0.932
 8512TIP3    H225501   2.406   5.714   0.807
 8513TIP3   OH225502   3.213   6.289   0.290
 8513TIP3    H125503   3.235   6.343   0.215
 8513TIP3    H225504   3.292   6.237   0.306
 8514TIP3   OH225505   0.809   2.979   2.802
 8514TIP3    H125506   0.804   3.046   2.735
 8514TIP3    H225507   0.866   2.911   2.765
 8515TIP3   OH225508   0.306   2.241   1.318
 8515TIP3    H125509   0.377   2.305   1.307
 8515TIP3    H225510   0.314   2.213   1.409
 8516TIP3   OH225511   4.985   6.137   3.206
 8516TIP3    H125512   5.051   6.206   3.198
 8516TIP3    H225513   4.968   6.131   3.300
 8517TIP3   OH225514   3.923   4.270   1.407
 8517TIP3    H125515   4.001   4.222   1.380
 8517TIP3    H225516   3.880   4.213   1.470
 8518TIP3   OH225517   0.457   3.432   2.669
 8518TIP3    H125518   0.404   3.382   2.731
 8518TIP3    H225519   0.394   3.463   2.604
 8519TIP3   OH225520   4.652   3.962   4.021
 8519TIP3    H125521   4.742   3.931   4.021
 8519TIP3    H225522   4.607   3.906   4.085
 8520TIP3   OH225523   2.286   6.521   4.723
 8520TIP3    H125524   2.346   6.471   4.778
 8520TIP3    H225525   2.286   6.474   4.639
 8521TIP3   OH225526   2.525   0.196   2.484
 8521TIP3    H125527   2.617   0.172   2.498
 8521TIP3    H225528   2.495   0.224   2.570
 8522TIP3   OH225529   3.556   1.990   2.099
 8522TIP3    H125530   3.468   2.026   2.110
 8522TIP3    H225531   3.572   1.994   2.005
 8523TIP3   OH225532   0.183   3.196   3.655
 8523TIP3    H125533   0.242   3.164   3.587
 8523TIP3    H225534   0.099   3.207   3.610
 8524TIP3   OH225535   7.066   6.465   0.080
 8524TIP3    H125536   7.111   6.383   0.100
 8524TIP3    H225537   7.072   6.516   0.161
 8525TIP3   OH225538   2.221   2.485   2.594
 8525TIP3    H125539   2.261   2.425   2.656
 8525TIP3    H225540   2.206   2.565   2.643
 8526TIP3   OH225541   6.877   4.454   3.921
 8526TIP3    H125542   6.810   4.411   3.975
 8526TIP3    H225543   6.836   4.536   3.892
 8527TIP3   OH225544   2.178   1.188   2.668
 8527TIP3    H125545   2.203   1.096   2.664
 8527TIP3    H225546   2.253   1.232   2.708
 8528TIP3   OH225547   1.019   0.868   4.915
 8528TIP3    H125548   0.991   0.788   4.868
 8528TIP3    H225549   1.023   0.841   5.006
 8529TIP3   OH225550   2.883   0.469   3.607
 8529TIP3    H125551   2.847   0.533   3.546
 8529TIP3    H225552   2.815   0.402   3.616
 8530TIP3   OH225553   7.124   0.738   5.530
 8530TIP3    H125554   7.208   0.761   5.570
 8530TIP3    H225555   7.101   0.653   5.569
 8531TIP3   OH225556   2.469   0.582   1.240
 8531TIP3    H125557   2.382   0.583   1.199
 8531TIP3    H225558   2.522   0.528   1.181
 8532TIP3   OH225559   0.734   1.991   1.783
 8532TIP3    H125560   0.765   1.994   1.692
 8532TIP3    H225561   0.764   2.074   1.821
 8533TIP3   OH225562   2.170   2.475   0.472
 8533TIP3    H125563   2.115   2.517   0.406
 8533TIP3    H225564   2.254   2.519   0.466
 8534TIP3   OH225565   1.670   5.924   1.971
 8534TIP3    H125566   1.632   5.901   2.056
 8534TIP3    H225567   1.605   5.982   1.931
 8535TIP3   OH225568   1.424   4.086   4.439
 8535TIP3    H125569   1.367   4.021   4.397
 8535TIP3    H225570   1.512   4.048   4.431
 8536TIP3   OH225571   1.433   3.725   4.246
 8536TIP3    H125572   1.517   3.680   4.252
 8536TIP3    H225573   1.412   3.748   4.337
 8537TIP3   OH225574   3.740   2.473   4.687
 8537TIP3    H125575   3.707   2.427   4.610
 8537TIP3    H225576   3.711   2.420   4.761
 8538TIP3   OH225577   6.831   1.632   4.530
 8538TIP3    H125578   6.750   1.607   4.484
 8538TIP3    H225579   6.881   1.551   4.534
 8539TIP3   OH225580   2.595   4.856   2.482
 8539TIP3    H125581   2.549   4.774   2.497
 8539TIP3    H225582   2.671   4.852   2.541
 8540TIP3   OH225583   1.054   0.322   2.306
 8540TIP3    H125584   1.080   0.237   2.270
 8540TIP3    H225585   1.114   0.338   2.379
 8541TIP3   OH225586   5.985   4.678   0.509
 8541TIP3    H125587   6.005   4.596   0.554
 8541TIP3    H225588   6.018   4.665   0.420
 8542TIP3   OH225589   4.703   0.027   2.401
 8542TIP3    H125590   4.769   0.045   2.334
 8542TIP3    H225591   4.749  -0.029   2.465
 8543TIP3   OH225592   4.759   1.025   3.692
 8543TIP3    H125593   4.710   0.945   3.710
 8543TIP3    H225594   4.711   1.093   3.738
 8544TIP3   OH225595   2.701   6.286   5.689
 8544TIP3    H125596   2.723   6.286   5.782
 8544TIP3    H225597   2.623   6.231   5.683
 8545TIP3   OH225598   4.246   1.967   3.684
 8545TIP3    H125599   4.329   2.014   3.678
 8545TIP3    H225600   4.196   2.013   3.751
 8546TIP3   OH225601   3.269   3.429   2.962
 8546TIP3    H125602   3.220   3.499   2.920
 8546TIP3    H225603   3.251   3.352   2.909
 8547TIP3   OH225604   6.375   0.026   3.040
 8547TIP3    H125605   6.365   0.101   2.981
 8547TIP3    H225606   6.467   0.027   3.065
 8548TIP3   OH225607   6.605   3.006   5.638
 8548TIP3    H125608   6.577   2.961   5.717
 8548TIP3    H225609   6.551   2.969   5.568
 8549TIP3   OH225610   6.375   5.462   2.496
 8549TIP3    H125611   6.323   5.497   2.569
 8549TIP3    H225612   6.402   5.375   2.525
 8550TIP3   OH225613   3.454   3.720   5.041
 8550TIP3    H125614   3.451   3.755   4.952
 8550TIP3    H225615   3.547   3.717   5.063
 8551TIP3   OH225616   3.297   3.855   2.523
 8551TIP3    H125617   3.287   3.815   2.437
 8551TIP3    H225618   3.328   3.944   2.505
 8552TIP3   OH225619   0.976   6.453   1.845
 8552TIP3    H125620   0.927   6.372   1.831
 8552TIP3    H225621   0.909   6.520   1.855
 8553TIP3   OH225622   0.731   4.115   4.879
 8553TIP3    H125623   0.807   4.063   4.854
 8553TIP3    H225624   0.656   4.069   4.841
 8554TIP3   OH225625   5.281   0.671   3.712
 8554TIP3    H125626   5.194   0.670   3.751
 8554TIP3    H225627   5.299   0.763   3.695
 8555TIP3   OH225628   5.408   5.326   2.118
 8555TIP3    H125629   5.378   5.401   2.170
 8555TIP3    H225630   5.378   5.249   2.166
 8556TIP3   OH225631   4.522   3.150   2.497
 8556TIP3    H125632   4.521   3.215   2.567
 8556TIP3    H225633   4.438   3.104   2.506
 8557TIP3   OH225634   5.659   4.474   5.220
 8557TIP3    H125635   5.744   4.439   5.193
 8557TIP3    H225636   5.596   4.409   5.191
 8558TIP3   OH225637   0.089   2.976   0.762
 8558TIP3    H125638   0.045   3.037   0.703
 8558TIP3    H225639   0.110   2.901   0.706
 8559TIP3   OH225640   3.605   6.398   2.925
 8559TIP3    H125641   3.582   6.452   2.849
 8559TIP3    H225642   3.527   6.400   2.981
 8560TIP3   OH225643   4.520   6.357   4.241
 8560TIP3    H125644   4.447   6.318   4.192
 8560TIP3    H225645   4.597   6.334   4.190
 8561TIP3   OH225646   3.075   4.848   3.234
 8561TIP3    H125647   3.150   4.834   3.176
 8561TIP3    H225648   3.074   4.943   3.249
 8562TIP3   OH225649   4.015   5.305   2.216
 8562TIP3    H125650   3.981   5.286   2.304
 8562TIP3    H225651   4.097   5.256   2.210
 8563TIP3   OH225652   1.608   1.117   3.863
 8563TIP3    H125653   1.655   1.097   3.782
 8563TIP3    H225654   1.652   1.065   3.930
 8564TIP3   OH225655   3.939   2.724   1.061
 8564TIP3    H125656   4.005   2.786   1.091
 8564TIP3    H225657   3.941   2.654   1.126
 8565TIP3   OH225658   3.817   4.170   5.048
 8565TIP3    H125659   3.889   4.169   4.985
 8565TIP3    H225660   3.841   4.238   5.111
 8566TIP3   OH225661   1.880   4.853   1.654
 8566TIP3    H125662   1.952   4.799   1.686
 8566TIP3    H225663   1.805   4.794   1.653
 8567TIP3   OH225664   6.978   0.458   3.942
 8567TIP3    H125665   7.013   0.547   3.946
 8567TIP3    H225666   7.048   0.407   3.900
 8568TIP3   OH225667   1.000   4.737   1.973
 8568TIP3    H125668   1.015   4.826   1.941
 8568TIP3    H225669   0.933   4.746   2.040
 8569TIP3   OH225670   2.076   2.149   5.658
 8569TIP3    H125671   2.040   2.218   5.602
 8569TIP3    H225672   2.151   2.116   5.608
 8570TIP3   OH225673   5.652   5.375   1.976
 8570TIP3    H125674   5.708   5.306   2.013
 8570TIP3    H225675   5.565   5.358   2.011
 8571TIP3   OH225676   1.030   6.564   0.279
 8571TIP3    H125677   1.068   6.476   0.275
 8571TIP3    H225678   0.978   6.571   0.199
 8572TIP3   OH225679   5.957   1.996   4.926
 8572TIP3    H125680   6.006   2.067   4.883
 8572TIP3    H225681   5.873   1.994   4.881
 8573TIP3   OH225682   1.691   0.683   0.419
 8573TIP3    H125683   1.737   0.670   0.502
 8573TIP3    H225684   1.599   0.666   0.439
 8574TIP3   OH225685   4.175   2.675   5.162
 8574TIP3    H125686   4.256   2.650   5.116
 8574TIP3    H225687   4.194   2.761   5.199
 8575TIP3   OH225688   2.747   0.889   2.254
 8575TIP3    H125689   2.701   0.854   2.178
 8575TIP3    H225690   2.821   0.937   2.217
 8576TIP3   OH225691  -0.023   2.977   3.464
 8576TIP3    H125692  -0.006   2.962   3.371
 8576TIP3    H225693   0.009   2.898   3.507
 8577TIP3   OH225694   4.460   0.230   4.623
 8577TIP3    H125695   4.502   0.241   4.708
 8577TIP3    H225696   4.474   0.138   4.600
 8578TIP3   OH225697   4.228   6.151   0.496
 8578TIP3    H125698   4.222   6.216   0.566
 8578TIP3    H225699   4.157   6.174   0.436
 8579TIP3   OH225700   7.010   4.642   0.642
 8579TIP3    H125701   7.041   4.613   0.557
 8579TIP3    H225702   6.928   4.688   0.624
 8580TIP3   OH225703   4.547   1.554   1.455
 8580TIP3    H125704   4.578   1.466   1.432
 8580TIP3    H225705   4.587   1.572   1.541
 8581TIP3   OH225706   3.935   6.043   3.777
 8581TIP3    H125707   3.956   6.136   3.785
 8581TIP3    H225708   3.930   6.012   3.867
 8582TIP3   OH225709   0.210   6.115   4.554
 8582TIP3    H125710   0.236   6.070   4.474
 8582TIP3    H225711   0.244   6.061   4.624
 8583TIP3   OH225712   2.866   3.337   0.324
 8583TIP3    H125713   2.773   3.327   0.303
 8583TIP3    H225714   2.900   3.391   0.252
 8584TIP3   OH225715   0.691   6.370   1.766
 8584TIP3    H125716   0.612   6.321   1.788
 8584TIP3    H225717   0.697   6.438   1.832
 8585TIP3   OH225718   3.406   5.226   2.395
 8585TIP3    H125719   3.465   5.195   2.326
 8585TIP3    H225720   3.397   5.151   2.454
 8586TIP3   OH225721   3.232   2.412   0.666
 8586TIP3    H125722   3.319   2.452   0.656
 8586TIP3    H225723   3.190   2.426   0.581
 8587TIP3   OH225724   2.224   2.071   2.772
 8587TIP3    H125725   2.221   2.049   2.865
 8587TIP3    H225726   2.266   2.157   2.770
 8588TIP3   OH225727   1.832   5.014   1.441
 8588TIP3    H125728   1.737   5.024   1.428
 8588TIP3    H225729   1.839   4.942   1.504
 8589TIP3   OH225730   0.434   6.725   5.663
 8589TIP3    H125731   0.382   6.797   5.695
 8589TIP3    H225732   0.523   6.744   5.692
 8590TIP3   OH225733   4.797   1.472   5.124
 8590TIP3    H125734   4.822   1.425   5.044
 8590TIP3    H225735   4.816   1.564   5.105
 8591TIP3   OH225736   1.758   1.063   0.472
 8591TIP3    H125737   1.741   0.969   0.461
 8591TIP3    H225738   1.698   1.106   0.411
 8592TIP3   OH225739   5.311   4.256   1.712
 8592TIP3    H125740   5.308   4.197   1.636
 8592TIP3    H225741   5.220   4.259   1.743
 8593TIP3   OH225742   4.389   1.360   4.436
 8593TIP3    H125743   4.454   1.407   4.488
 8593TIP3    H225744   4.387   1.406   4.352
 8594TIP3   OH225745   0.659   3.714   1.074
 8594TIP3    H125746   0.700   3.634   1.106
 8594TIP3    H225747   0.597   3.739   1.142
 8595TIP3   OH225748   4.831   5.736   3.906
 8595TIP3    H125749   4.911   5.710   3.861
 8595TIP3    H225750   4.761   5.718   3.843
 8596TIP3   OH225751   6.063   6.231   4.777
 8596TIP3    H125752   6.106   6.257   4.696
 8596TIP3    H225753   6.061   6.135   4.774
 8597TIP3   OH225754   6.281   3.653   5.324
 8597TIP3    H125755   6.329   3.637   5.243
 8597TIP3    H225756   6.349   3.654   5.392
 8598TIP3   OH225757   1.143   4.237   4.028
 8598TIP3    H125758   1.140   4.326   3.993
 8598TIP3    H225759   1.186   4.186   3.959
 8599TIP3   OH225760   2.061   5.168   1.144
 8599TIP3    H125761   2.126   5.221   1.098
 8599TIP3    H225762   1.986   5.227   1.154
 8600TIP3   OH225763   0.843   2.619   5.807
 8600TIP3    H125764   0.792   2.538   5.807
 8600TIP3    H225765   0.857   2.639   5.714
 8601TIP3   OH225766   2.257   0.785   1.821
 8601TIP3    H125767   2.174   0.752   1.857
 8601TIP3    H225768   2.248   0.775   1.727
 8602TIP3   OH225769   5.328   2.540   4.696
 8602TIP3    H125770   5.407   2.487   4.688
 8602TIP3    H225771   5.263   2.482   4.735
 8603TIP3   OH225772   1.747   5.618   5.179
 8603TIP3    H125773   1.664   5.664   5.171
 8603TIP3    H225774   1.768   5.620   5.272
 8604TIP3   OH225775   1.564   1.806   2.145
 8604TIP3    H125776   1.538   1.724   2.188
 8604TIP3    H225777   1.630   1.780   2.081
 8605TIP3   OH225778   4.923   1.424   0.716
 8605TIP3    H125779   4.960   1.465   0.637
 8605TIP3    H225780   4.874   1.349   0.683
 8606TIP3   OH225781   3.386   1.004   5.359
 8606TIP3    H125782   3.402   1.045   5.444
 8606TIP3    H225783   3.312   1.053   5.322
 8607TIP3   OH225784   4.269   1.473   5.048
 8607TIP3    H125785   4.259   1.449   5.140
 8607TIP3    H225786   4.179   1.478   5.015
 8608TIP3   OH225787   2.183   1.224   4.211
 8608TIP3    H125788   2.165   1.142   4.164
 8608TIP3    H225789   2.123   1.287   4.170
 8609TIP3   OH225790   4.825   5.801   2.259
 8609TIP3    H125791   4.876   5.882   2.262
 8609TIP3    H225792   4.830   5.767   2.348
 8610TIP3   OH225793   7.078   6.536   2.374
 8610TIP3    H125794   7.050   6.466   2.433
 8610TIP3    H225795   7.016   6.532   2.301
 8611TIP3   OH225796   4.498   5.861   3.728
 8611TIP3    H125797   4.477   5.790   3.789
 8611TIP3    H225798   4.425   5.863   3.667
 8612TIP3   OH225799   5.223   5.242   5.574
 8612TIP3    H125800   5.201   5.267   5.485
 8612TIP3    H225801   5.318   5.229   5.572
 8613TIP3   OH225802   3.102   5.500   2.507
 8613TIP3    H125803   3.008   5.506   2.495
 8613TIP3    H225804   3.138   5.486   2.419
 8614TIP3   OH225805   4.449   2.205   3.796
 8614TIP3    H125806   4.406   2.273   3.848
 8614TIP3    H225807   4.494   2.254   3.727
 8615TIP3   OH225808   3.179   6.552   0.152
 8615TIP3    H125809   3.097   6.576   0.194
 8615TIP3    H225810   3.156   6.539   0.060
 8616TIP3   OH225811   1.363   0.519   0.092
 8616TIP3    H125812   1.448   0.549   0.123
 8616TIP3    H225813   1.377   0.428   0.066
 8617TIP3   OH225814   5.585   2.875   5.721
 8617TIP3    H125815   5.499   2.898   5.688
 8617TIP3    H225816   5.607   2.793   5.678
 8618TIP3   OH225817   2.366   4.920   1.653
 8618TIP3    H125818   2.316   4.942   1.732
 8618TIP3    H225819   2.364   5.000   1.600
 8619TIP3   OH225820   4.238   0.206   1.040
 8619TIP3    H125821   4.282   0.288   1.064
 8619TIP3    H225822   4.240   0.153   1.120
 8620TIP3   OH225823   4.962   3.956   0.872
 8620TIP3    H125824   4.957   3.904   0.793
 8620TIP3    H225825   5.052   3.989   0.874
 8621TIP3   OH225826   2.481   4.575   2.515
 8621TIP3    H125827   2.445   4.542   2.597
 8621TIP3    H225828   2.515   4.497   2.471
 8622TIP3   OH225829   5.100   2.115   4.683
 8622TIP3    H125830   5.145   2.054   4.740
 8622TIP3    H225831   5.146   2.107   4.599
 8623TIP3   OH225832   4.495   0.107   0.976
 8623TIP3    H125833   4.404   0.126   0.954
 8623TIP3    H225834   4.545   0.137   0.900
 8624TIP3   OH225835   0.473   5.841   1.669
 8624TIP3    H125836   0.432   5.875   1.749
 8624TIP3    H225837   0.409   5.861   1.600
 8625TIP3   OH225838   0.054   1.384   3.057
 8625TIP3    H125839   0.074   1.383   3.151
 8625TIP3    H225840   0.113   1.320   3.019
 8626TIP3   OH225841   6.713   1.299   5.519
 8626TIP3    H125842   6.785   1.314   5.457
 8626TIP3    H225843   6.753   1.310   5.605
 8627TIP3   OH225844   1.193   0.933   1.507
 8627TIP3    H125845   1.247   0.860   1.535
 8627TIP3    H225846   1.203   0.998   1.577
 8628TIP3   OH225847   6.716   2.008   5.128
 8628TIP3    H125848   6.708   2.060   5.208
 8628TIP3    H225849   6.810   2.001   5.112
 8629TIP3   OH225850   3.200   5.074   3.069
 8629TIP3    H125851   3.293   5.063   3.090
 8629TIP3    H225852   3.163   5.117   3.145
 8630TIP3   OH225853   5.656   4.598   3.534
 8630TIP3    H125854   5.610   4.668   3.486
 8630TIP3    H225855   5.601   4.521   3.521
 8631TIP3   OH225856   5.025   1.888   5.336
 8631TIP3    H125857   5.067   1.802   5.344
 8631TIP3    H225858   5.055   1.937   5.412
 8632TIP3   OH225859   4.912   6.313   5.154
 8632TIP3    H125860   4.947   6.244   5.099
 8632TIP3    H225861   4.981   6.331   5.218
 8633TIP3   OH225862   2.370   3.603   4.772
 8633TIP3    H125863   2.455   3.622   4.813
 8633TIP3    H225864   2.312   3.670   4.809
 8634TIP3   OH225865   3.097   5.231   5.232
 8634TIP3    H125866   3.175   5.282   5.210
 8634TIP3    H225867   3.131   5.145   5.256
 8635TIP3   OH225868   1.886   0.739   0.853
 8635TIP3    H125869   1.843   0.760   0.937
 8635TIP3    H225870   1.946   0.812   0.837
 8636TIP3   OH225871   6.894   2.559   3.782
 8636TIP3    H125872   6.971   2.512   3.816
 8636TIP3    H225873   6.821   2.500   3.800
 8637TIP3   OH225874   7.031   5.647   4.393
 8637TIP3    H125875   7.080   5.704   4.334
 8637TIP3    H225876   7.094   5.624   4.462
 8638TIP3   OH225877   0.441   2.047   4.732
 8638TIP3    H125878   0.415   2.102   4.807
 8638TIP3    H225879   0.372   2.061   4.667
 8639TIP3   OH225880   0.812   4.795   1.477
 8639TIP3    H125881   0.722   4.798   1.443
 8639TIP3    H225882   0.835   4.702   1.475
 8640TIP3   OH225883   0.719   3.012   3.073
 8640TIP3    H125884   0.752   3.007   2.983
 8640TIP3    H225885   0.792   3.045   3.124
 8641TIP3   OH225886   0.481   4.161   0.723
 8641TIP3    H125887   0.517   4.224   0.786
 8641TIP3    H225888   0.555   4.104   0.702
 8642TIP3   OH225889   7.052   6.113   1.110
 8642TIP3    H125890   7.051   6.193   1.057
 8642TIP3    H225891   6.988   6.056   1.067
 8643TIP3   OH225892   4.696   2.883   3.262
 8643TIP3    H125893   4.726   2.814   3.202
 8643TIP3    H225894   4.776   2.918   3.300
 8644TIP3   OH225895   3.160   2.852   5.064
 8644TIP3    H125896   3.170   2.878   4.973
 8644TIP3    H225897   3.153   2.757   5.062
 8645TIP3   OH225898   2.173   5.990   3.227
 8645TIP3    H125899   2.100   6.053   3.223
 8645TIP3    H225900   2.139   5.918   3.280
 8646TIP3   OH225901   0.642   3.919   0.892
 8646TIP3    H125902   0.652   3.838   0.940
 8646TIP3    H225903   0.685   3.986   0.945
 8647TIP3   OH225904   4.525   5.807   0.883
 8647TIP3    H125905   4.464   5.767   0.821
 8647TIP3    H225906   4.612   5.784   0.849
 8648TIP3   OH225907   1.116   5.238   5.540
 8648TIP3    H125908   1.102   5.329   5.517
 8648TIP3    H225909   1.052   5.220   5.609
 8649TIP3   OH225910   1.972   5.749   1.538
 8649TIP3    H125911   1.988   5.656   1.552
 8649TIP3    H225912   1.954   5.757   1.444
 8650TIP3   OH225913   3.251   6.717   0.726
 8650TIP3    H125914   3.302   6.678   0.655
 8650TIP3    H225915   3.304   6.703   0.804
 8651TIP3   OH225916   5.949   2.365   1.326
 8651TIP3    H125917   5.942   2.377   1.231
 8651TIP3    H225918   5.964   2.271   1.338
 8652TIP3   OH225919   6.102   1.893   3.628
 8652TIP3    H125920   6.111   1.801   3.600
 8652TIP3    H225921   6.032   1.892   3.693
 8653TIP3   OH225922   6.701   5.830   5.312
 8653TIP3    H125923   6.709   5.769   5.238
 8653TIP3    H225924   6.790   5.862   5.326
 8654TIP3   OH225925   6.603   0.333   5.681
 8654TIP3    H125926   6.599   0.350   5.587
 8654TIP3    H225927   6.518   0.292   5.701
 8655TIP3   OH225928   3.730   4.789   0.112
 8655TIP3    H125929   3.817   4.807   0.149
 8655TIP3    H225930   3.747   4.760   0.023
 8656TIP3   OH225931   6.994   2.773   3.222
 8656TIP3    H125932   7.010   2.743   3.312
 8656TIP3    H225933   7.065   2.834   3.204
 8657TIP3   OH225934   0.113   6.683   2.986
 8657TIP3    H125935   0.038   6.651   2.935
 8657TIP3    H225936   0.151   6.604   3.024
 8658TIP3   OH225937   2.810   2.942   0.391
 8658TIP3    H125938   2.731   2.992   0.369
 8658TIP3    H225939   2.780   2.876   0.453
 8659TIP3   OH225940   2.323   5.402   2.837
 8659TIP3    H125941   2.282   5.466   2.778
 8659TIP3    H225942   2.386   5.355   2.781
 8660TIP3   OH225943   1.631   3.097   4.388
 8660TIP3    H125944   1.666   3.024   4.336
 8660TIP3    H225945   1.537   3.096   4.371
 8661TIP3   OH225946   3.932   0.955   3.615
 8661TIP3    H125947   3.872   0.955   3.689
 8661TIP3    H225948   3.914   1.036   3.568
 8662TIP3   OH225949   0.672   6.119   4.498
 8662TIP3    H125950   0.763   6.142   4.479
 8662TIP3    H225951   0.640   6.077   4.418
 8663TIP3   OH225952   3.175   2.608   3.432
 8663TIP3    H125953   3.146   2.686   3.384
 8663TIP3    H225954   3.162   2.536   3.371
 8664TIP3   OH225955   2.605   6.465   5.432
 8664TIP3    H125956   2.596   6.433   5.521
 8664TIP3    H225957   2.640   6.554   5.441
 8665TIP3   OH225958   3.028   2.043   1.594
 8665TIP3    H125959   3.009   1.968   1.537
 8665TIP3    H225960   2.952   2.100   1.584
 8666TIP3   OH225961   2.091   0.703   4.863
 8666TIP3    H125962   2.024   0.734   4.801
 8666TIP3    H225963   2.143   0.781   4.883
 8667TIP3   OH225964   1.939   0.071   2.490
 8667TIP3    H125965   1.957   0.164   2.478
 8667TIP3    H225966   1.960   0.032   2.405
 8668TIP3   OH225967   6.041   4.258   2.562
 8668TIP3    H125968   6.083   4.213   2.636
 8668TIP3    H225969   6.061   4.351   2.575
 8669TIP3   OH225970   5.789   3.916   3.944
 8669TIP3    H125971   5.698   3.943   3.935
 8669TIP3    H225972   5.793   3.874   4.030
 8670TIP3   OH225973   6.040   3.277   0.506
 8670TIP3    H125974   5.992   3.194   0.511
 8670TIP3    H225975   5.972   3.344   0.515
 8671TIP3   OH225976   5.757   1.885   2.887
 8671TIP3    H125977   5.677   1.835   2.902
 8671TIP3    H225978   5.766   1.939   2.966
 8672TIP3   OH225979   2.222   0.921   5.427
 8672TIP3    H125980   2.195   1.010   5.402
 8672TIP3    H225981   2.140   0.877   5.451
 8673TIP3   OH225982   6.328   4.767   2.132
 8673TIP3    H125983   6.400   4.804   2.183
 8673TIP3    H225984   6.321   4.825   2.056
 8674TIP3   OH225985   0.740   1.653   5.539
 8674TIP3    H125986   0.743   1.686   5.449
 8674TIP3    H225987   0.679   1.580   5.537
 8675TIP3   OH225988   0.700   2.498   4.123
 8675TIP3    H125989   0.749   2.446   4.188
 8675TIP3    H225990   0.620   2.448   4.108
 8676TIP3   OH225991   4.864   2.378   0.557
 8676TIP3    H125992   4.864   2.347   0.467
 8676TIP3    H225993   4.895   2.304   0.609
 8677TIP3   OH225994   3.250   5.648   0.966
 8677TIP3    H125995   3.311   5.577   0.946
 8677TIP3    H225996   3.231   5.688   0.881
 8678TIP3   OH225997   1.505   5.878   3.197
 8678TIP3    H125998   1.558   5.903   3.121
 8678TIP3    H225999   1.559   5.900   3.272
 8679TIP3   OH226000   2.503   1.711   0.902
 8679TIP3    H126001   2.438   1.782   0.909
 8679TIP3    H226002   2.492   1.661   0.982
 8680TIP3   OH226003   4.240   3.481   0.767
 8680TIP3    H126004   4.309   3.415   0.773
 8680TIP3    H226005   4.167   3.436   0.726
 8681TIP3   OH226006  -0.014   4.402   0.761
 8681TIP3    H126007   0.005   4.382   0.670
 8681TIP3    H226008   0.015   4.493   0.773
 8682TIP3   OH226009   1.525   3.439   5.238
 8682TIP3    H126010   1.439   3.472   5.264
 8682TIP3    H226011   1.541   3.365   5.298
 8683TIP3   OH226012   5.256   6.492   0.055
 8683TIP3    H126013   5.199   6.427   0.096
 8683TIP3    H226014   5.306   6.442  -0.010
 8684TIP3   OH226015   3.418   4.655   0.097
 8684TIP3    H126016   3.367   4.589   0.144
 8684TIP3    H226017   3.447   4.611   0.017
 8685TIP3   OH226018   0.478   4.032   1.141
 8685TIP3    H126019   0.561   4.079   1.133
 8685TIP3    H226020   0.468   3.986   1.057
 8686TIP3   OH226021   1.984   6.661   5.690
 8686TIP3    H126022   1.946   6.747   5.706
 8686TIP3    H226023   1.981   6.651   5.595
 8687TIP3   OH226024   1.470   1.212   3.413
 8687TIP3    H126025   1.404   1.167   3.360
 8687TIP3    H226026   1.435   1.212   3.502
 8688TIP3   OH226027   1.387   0.906   4.940
 8688TIP3    H126028   1.448   0.838   4.967
 8688TIP3    H226029   1.328   0.863   4.878
 8689TIP3   OH226030   3.589   4.230   5.688
 8689TIP3    H126031   3.567   4.138   5.704
 8689TIP3    H226032   3.515   4.279   5.724
 8690TIP3   OH226033   0.722   5.668   5.348
 8690TIP3    H126034   0.644   5.614   5.331
 8690TIP3    H226035   0.792   5.605   5.362
 8691TIP3   OH226036   1.339   1.528   2.906
 8691TIP3    H126037   1.323   1.497   2.995
 8691TIP3    H226038   1.385   1.456   2.862
 8692TIP3   OH226039   0.338   6.006   5.055
 8692TIP3    H126040   0.400   6.075   5.080
 8692TIP3    H226041   0.371   5.971   4.973
 8693TIP3   OH226042   4.127   1.057   3.063
 8693TIP3    H126043   4.196   1.089   3.120
 8693TIP3    H226044   4.173   1.021   2.987
 8694TIP3   OH226045   2.716   2.369   1.791
 8694TIP3    H126046   2.791   2.358   1.850
 8694TIP3    H226047   2.728   2.302   1.724
 8695TIP3   OH226048   5.623   1.552   4.731
 8695TIP3    H126049   5.541   1.549   4.682
 8695TIP3    H226050   5.667   1.631   4.700
 8696TIP3   OH226051   0.886   1.859   5.680
 8696TIP3    H126052   0.852   1.799   5.614
 8696TIP3    H226053   0.812   1.917   5.700
 8697TIP3   OH226054   6.081   5.158   4.572
 8697TIP3    H126055   6.112   5.247   4.588
 8697TIP3    H226056   5.986   5.165   4.573
 8698TIP3   OH226057   2.594   4.070   1.032
 8698TIP3    H126058   2.522   4.070   1.096
 8698TIP3    H226059   2.630   3.981   1.037
 8699TIP3   OH226060   6.083   4.844   2.520
 8699TIP3    H126061   6.176   4.842   2.543
 8699TIP3    H226062   6.064   4.755   2.491
 8700TIP3   OH226063   0.888   2.889   5.912
 8700TIP3    H126064   0.875   2.803   5.873
 8700TIP3    H226065   0.867   2.951   5.843
 8701TIP3   OH226066   4.853   0.219   5.839
 8701TIP3    H126067   4.880   0.309   5.856
 8701TIP3    H226068   4.762   0.227   5.808
 8702TIP3   OH226069   2.573   4.346   4.569
 8702TIP3    H126070   2.494   4.340   4.624
 8702TIP3    H226071   2.623   4.417   4.607
 8703TIP3   OH226072   2.137   2.687   5.451
 8703TIP3    H126073   2.067   2.703   5.387
 8703TIP3    H226074   2.092   2.682   5.535
 8704TIP3   OH226075   2.183   5.086   2.845
 8704TIP3    H126076   2.276   5.095   2.826
 8704TIP3    H226077   2.140   5.143   2.781
 8705TIP3   OH226078   0.650   1.618   0.030
 8705TIP3    H126079   0.746   1.616   0.031
 8705TIP3    H226080   0.628   1.710   0.048
 8706TIP3   OH226081   6.090   4.172   0.388
 8706TIP3    H126082   6.055   4.096   0.342
 8706TIP3    H226083   6.167   4.139   0.435
 8707TIP3   OH226084   1.481   1.787   1.084
 8707TIP3    H126085   1.422   1.861   1.093
 8707TIP3    H226086   1.425   1.713   1.060
 8708TIP3   OH226087   0.872   4.219   0.170
 8708TIP3    H126088   0.958   4.246   0.139
 8708TIP3    H226089   0.815   4.293   0.148
 8709TIP3   OH226090   1.081   1.057   5.321
 8709TIP3    H126091   1.075   0.971   5.278
 8709TIP3    H226092   1.016   1.052   5.391
 8710TIP3   OH226093   6.519   1.385   1.322
 8710TIP3    H126094   6.491   1.375   1.413
 8710TIP3    H226095   6.563   1.302   1.302
 8711TIP3   OH226096   4.349   1.183   0.162
 8711TIP3    H126097   4.350   1.255   0.099
 8711TIP3    H226098   4.439   1.151   0.163
 8712TIP3   OH226099   5.142   5.477   5.047
 8712TIP3    H126100   5.136   5.430   5.130
 8712TIP3    H226101   5.115   5.413   4.981
 8713TIP3   OH226102   1.083   5.684   5.496
 8713TIP3    H126103   1.010   5.622   5.497
 8713TIP3    H226104   1.161   5.629   5.496
 8714TIP3   OH226105   2.641   6.801   5.820
 8714TIP3    H126106   2.576   6.870   5.831
 8714TIP3    H226107   2.614   6.755   5.740
 8715TIP3   OH226108   4.428   1.993   0.831
 8715TIP3    H126109   4.481   1.957   0.902
 8715TIP3    H226110   4.411   1.917   0.774
 8716TIP3   OH226111   4.998   2.091   4.025
 8716TIP3    H126112   4.963   2.146   3.955
 8716TIP3    H226113   5.019   2.153   4.095
 8717TIP3   OH226114   4.270   2.350   5.446
 8717TIP3    H126115   4.323   2.425   5.418
 8717TIP3    H226116   4.192   2.389   5.484
 8718TIP3   OH226117   3.334   6.110   1.018
 8718TIP3    H126118   3.347   6.117   0.923
 8718TIP3    H226119   3.283   6.030   1.029
 8719TIP3   OH226120   1.424   6.526   0.218
 8719TIP3    H126121   1.413   6.432   0.210
 8719TIP3    H226122   1.508   6.538   0.261
 8720TIP3   OH226123   5.141   3.542   3.030
 8720TIP3    H126124   5.204   3.600   2.987
 8720TIP3    H226125   5.068   3.600   3.054
 8721TIP3   OH226126   3.311   3.100   4.994
 8721TIP3    H126127   3.241   3.147   4.948
 8721TIP3    H226128   3.385   3.102   4.932
 8722TIP3   OH226129   1.580   6.697   4.464
 8722TIP3    H126130   1.541   6.717   4.378
 8722TIP3    H226131   1.669   6.730   4.458
 8723TIP3   OH226132   5.806   1.862   1.401
 8723TIP3    H126133   5.849   1.778   1.413
 8723TIP3    H226134   5.735   1.845   1.340
 8724TIP3   OH226135   3.985   1.511   3.853
 8724TIP3    H126136   3.966   1.604   3.863
 8724TIP3    H226137   3.902   1.467   3.870
 8725TIP3   OH226138   1.158   1.299   4.518
 8725TIP3    H126139   1.077   1.326   4.475
 8725TIP3    H226140   1.211   1.379   4.520
 8726TIP3   OH226141   2.137   0.410   4.568
 8726TIP3    H126142   2.199   0.360   4.515
 8726TIP3    H226143   2.052   0.372   4.548
 8727TIP3   OH226144   2.086   3.624   1.896
 8727TIP3    H126145   2.073   3.677   1.818
 8727TIP3    H226146   2.084   3.534   1.864
 8728TIP3   OH226147   3.040   0.437   3.099
 8728TIP3    H126148   2.957   0.474   3.131
 8728TIP3    H226149   3.051   0.356   3.148
 8729TIP3   OH226150   5.882   2.830   5.665
 8729TIP3    H126151   5.966   2.792   5.642
 8729TIP3    H226152   5.845   2.860   5.581
 8730TIP3   OH226153   5.743   3.206   4.440
 8730TIP3    H126154   5.765   3.299   4.438
 8730TIP3    H226155   5.654   3.203   4.476
 8731TIP3   OH226156   1.564   3.601   2.005
 8731TIP3    H126157   1.511   3.590   1.926
 8731TIP3    H226158   1.647   3.636   1.974
 8732TIP3   OH226159   2.175   3.647   4.052
 8732TIP3    H126160   2.135   3.700   3.983
 8732TIP3    H226161   2.267   3.674   4.052
 8733TIP3   OH226162   0.910   0.206   2.706
 8733TIP3    H126163   0.816   0.225   2.700
 8733TIP3    H226164   0.922   0.173   2.795
 8734TIP3   OH226165   4.657   4.963   2.151
 8734TIP3    H126166   4.650   4.868   2.136
 8734TIP3    H226167   4.677   4.999   2.065
 8735TIP3   OH226168   0.407   2.053   3.634
 8735TIP3    H126169   0.422   1.992   3.562
 8735TIP3    H226170   0.314   2.074   3.628
 8736TIP3   OH226171   6.670   5.965   0.100
 8736TIP3    H126172   6.633   5.917   0.174
 8736TIP3    H226173   6.603   5.958   0.031
 8737TIP3   OH226174   1.971   3.037   1.851
 8737TIP3    H126175   1.924   3.059   1.931
 8737TIP3    H226176   2.020   3.116   1.829
 8738TIP3   OH226177   3.145   0.010   0.662
 8738TIP3    H126178   3.184  -0.051   0.599
 8738TIP3    H226179   3.067   0.044   0.618
 8739TIP3   OH226180   1.727   4.257   2.604
 8739TIP3    H126181   1.808   4.268   2.654
 8739TIP3    H226182   1.757   4.243   2.514
 8740TIP3   OH226183   5.346   1.478   1.016
 8740TIP3    H126184   5.260   1.485   1.056
 8740TIP3    H226185   5.343   1.535   0.940
 8741TIP3   OH226186   3.374   2.706   2.578
 8741TIP3    H126187   3.388   2.742   2.490
 8741TIP3    H226188   3.427   2.627   2.581
 8742TIP3   OH226189   0.755   3.466   1.163
 8742TIP3    H126190   0.761   3.394   1.100
 8742TIP3    H226191   0.767   3.424   1.248
 8743TIP3   OH226192   6.194   2.440   4.046
 8743TIP3    H126193   6.144   2.380   4.101
 8743TIP3    H226194   6.184   2.405   3.957
 8744TIP3   OH226195   6.270   5.398   0.347
 8744TIP3    H126196   6.266   5.429   0.437
 8744TIP3    H226197   6.181   5.369   0.327
 8745TIP3   OH226198   3.515   4.063   2.328
 8745TIP3    H126199   3.564   4.136   2.291
 8745TIP3    H226200   3.438   4.103   2.368
 8746TIP3   OH226201   1.908   3.750   1.641
 8746TIP3    H126202   1.899   3.825   1.583
 8746TIP3    H226203   2.002   3.732   1.642
 8747TIP3   OH226204   3.483   0.422   3.129
 8747TIP3    H126205   3.467   0.494   3.190
 8747TIP3    H226206   3.520   0.352   3.184
 8748TIP3   OH226207   4.658   3.834   4.839
 8748TIP3    H126208   4.640   3.742   4.856
 8748TIP3    H226209   4.718   3.861   4.909
 8749TIP3   OH226210   0.211   0.278   3.080
 8749TIP3    H126211   0.254   0.270   2.995
 8749TIP3    H226212   0.162   0.360   3.075
 8750TIP3   OH226213   3.703   6.252   2.523
 8750TIP3    H126214   3.648   6.301   2.584
 8750TIP3    H226215   3.670   6.274   2.436
 8751TIP3   OH226216   2.459   3.593   5.245
 8751TIP3    H126217   2.512   3.539   5.304
 8751TIP3    H226218   2.474   3.683   5.274
 8752TIP3   OH226219   2.966   4.839   0.126
 8752TIP3    H126220   3.031   4.899   0.160
 8752TIP3    H226221   2.952   4.776   0.197
 8753TIP3   OH226222   1.597   0.877   1.964
 8753TIP3    H126223   1.606   0.860   1.870
 8753TIP3    H226224   1.503   0.878   1.979
 8754TIP3   OH226225   1.186   2.437   5.484
 8754TIP3    H126226   1.132   2.455   5.407
 8754TIP3    H226227   1.129   2.386   5.542
 8755TIP3   OH226228   4.431   0.572   0.370
 8755TIP3    H126229   4.495   0.640   0.391
 8755TIP3    H226230   4.373   0.613   0.306
 8756TIP3   OH226231   3.007   1.047   2.192
 8756TIP3    H126232   3.042   0.960   2.172
 8756TIP3    H226233   3.082   1.095   2.227
 8757TIP3   OH226234   3.465   6.507   1.825
 8757TIP3    H126235   3.451   6.483   1.917
 8757TIP3    H226236   3.489   6.599   1.828
 8758TIP3   OH226237   4.673   3.562   3.953
 8758TIP3    H126238   4.683   3.526   4.041
 8758TIP3    H226239   4.579   3.581   3.944
 8759TIP3   OH226240   4.063   0.655   0.642
 8759TIP3    H126241   4.089   0.723   0.704
 8759TIP3    H226242   3.999   0.602   0.691
 8760TIP3   OH226243   6.348   0.657   3.919
 8760TIP3    H126244   6.313   0.644   4.007
 8760TIP3    H226245   6.272   0.682   3.867
 8761TIP3   OH226246   2.736   3.417   4.889
 8761TIP3    H126247   2.793   3.383   4.957
 8761TIP3    H226248   2.681   3.482   4.933
 8762TIP3   OH226249   1.759   3.378   1.673
 8762TIP3    H126250   1.751   3.323   1.594
 8762TIP3    H226251   1.710   3.458   1.652
 8763TIP3   OH226252   2.682   0.074   1.914
 8763TIP3    H126253   2.610   0.026   1.956
 8763TIP3    H226254   2.697   0.149   1.972
 8764TIP3   OH226255   0.200   3.533   4.522
 8764TIP3    H126256   0.108   3.518   4.498
 8764TIP3    H226257   0.198   3.608   4.581
 8765TIP3   OH226258   0.561   1.429   5.566
 8765TIP3    H126259   0.534   1.397   5.652
 8765TIP3    H226260   0.484   1.419   5.511
 8766TIP3   OH226261   6.255   5.301   0.085
 8766TIP3    H126262   6.227   5.380   0.130
 8766TIP3    H226263   6.231   5.315  -0.007
 8767TIP3   OH226264   2.770   5.796   4.105
 8767TIP3    H126265   2.759   5.703   4.086
 8767TIP3    H226266   2.829   5.827   4.035
 8768TIP3   OH226267   0.474   3.987   3.365
 8768TIP3    H126268   0.469   3.910   3.422
 8768TIP3    H226269   0.487   4.061   3.424
 8769TIP3   OH226270   1.922   3.232   2.045
 8769TIP3    H126271   1.971   3.287   1.983
 8769TIP3    H226272   1.843   3.283   2.065
 8770TIP3   OH226273   0.209   0.209   2.054
 8770TIP3    H126274   0.126   0.194   2.101
 8770TIP3    H226275   0.244   0.122   2.038
 8771TIP3   OH226276   5.090   1.775   5.785
 8771TIP3    H126277   5.143   1.749   5.710
 8771TIP3    H226278   5.001   1.782   5.750
 8772TIP3   OH226279   0.158   3.967   1.604
 8772TIP3    H126280   0.205   3.982   1.522
 8772TIP3    H226281   0.226   3.943   1.667
 8773TIP3   OH226282   0.747   5.433   5.691
 8773TIP3    H126283   0.779   5.511   5.736
 8773TIP3    H226284   0.652   5.445   5.686
 8774TIP3   OH226285   1.723   4.515   2.995
 8774TIP3    H126286   1.718   4.524   2.900
 8774TIP3    H226287   1.700   4.424   3.012
 8775TIP3   OH226288   6.582   2.438   1.305
 8775TIP3    H126289   6.671   2.423   1.275
 8775TIP3    H226290   6.536   2.357   1.285
 8776TIP3   OH226291   5.456   2.834   0.915
 8776TIP3    H126292   5.532   2.781   0.938
 8776TIP3    H226293   5.422   2.865   0.999
 8777TIP3   OH226294   1.166   3.423   2.338
 8777TIP3    H126295   1.229   3.479   2.384
 8777TIP3    H226296   1.194   3.334   2.360
 8778TIP3   OH226297   0.708   3.360   4.447
 8778TIP3    H126298   0.649   3.435   4.440
 8778TIP3    H226299   0.710   3.323   4.359
 8779TIP3   OH226300   0.679   3.025   4.239
 8779TIP3    H126301   0.747   2.964   4.213
 8779TIP3    H226302   0.605   2.970   4.264
 8780TIP3   OH226303   1.451   5.834   4.070
 8780TIP3    H126304   1.464   5.925   4.043
 8780TIP3    H226305   1.540   5.799   4.078
 8781TIP3   OH226306   1.103   5.452   1.858
 8781TIP3    H126307   1.116   5.380   1.796
 8781TIP3    H226308   1.011   5.474   1.852
 8782TIP3   OH226309   4.658   0.533   3.560
 8782TIP3    H126310   4.736   0.539   3.615
 8782TIP3    H226311   4.585   0.532   3.622
 8783TIP3   OH226312   6.032   6.441   2.210
 8783TIP3    H126313   5.972   6.494   2.263
 8783TIP3    H226314   5.979   6.412   2.137
 8784TIP3   OH226315   5.588   0.925   5.124
 8784TIP3    H126316   5.612   1.004   5.173
 8784TIP3    H226317   5.496   0.940   5.099
 8785TIP3   OH226318   0.926   4.421   4.872
 8785TIP3    H126319   0.956   4.483   4.938
 8785TIP3    H226320   0.927   4.336   4.916
 8786TIP3   OH226321   2.587   1.212   2.575
 8786TIP3    H126322   2.676   1.221   2.608
 8786TIP3    H226323   2.591   1.237   2.483
 8787TIP3   OH226324   2.704   2.040   0.210
 8787TIP3    H126325   2.685   2.093   0.287
 8787TIP3    H226326   2.780   2.082   0.169
 8788TIP3   OH226327   6.413   0.656   5.702
 8788TIP3    H126328   6.357   0.733   5.712
 8788TIP3    H226329   6.496   0.681   5.743
 8789TIP3   OH226330   6.489   0.868   0.259
 8789TIP3    H126331   6.515   0.960   0.259
 8789TIP3    H226332   6.409   0.867   0.312
 8790TIP3   OH226333   1.344   5.510   5.006
 8790TIP3    H126334   1.392   5.440   4.962
 8790TIP3    H226335   1.285   5.465   5.066
 8791TIP3   OH226336   2.839   2.895   4.231
 8791TIP3    H126337   2.867   2.974   4.277
 8791TIP3    H226338   2.919   2.848   4.212
 8792TIP3   OH226339   7.047   0.578   2.427
 8792TIP3    H126340   7.037   0.510   2.494
 8792TIP3    H226341   7.141   0.594   2.423
 8793TIP3   OH226342   3.768   0.945   2.735
 8793TIP3    H126343   3.788   0.966   2.827
 8793TIP3    H226344   3.828   1.000   2.685
 8794TIP3   OH226345   4.693   0.504   0.706
 8794TIP3    H126346   4.617   0.561   0.706
 8794TIP3    H226347   4.760   0.553   0.754
 8795TIP3   OH226348   5.287   0.145   0.585
 8795TIP3    H126349   5.280   0.097   0.503
 8795TIP3    H226350   5.378   0.135   0.611
 8796TIP3   OH226351   6.450   4.539   4.474
 8796TIP3    H126352   6.460   4.543   4.379
 8796TIP3    H226353   6.357   4.522   4.488
 8797TIP3   OH226354   0.688   3.975   5.662
 8797TIP3    H126355   0.752   3.928   5.608
 8797TIP3    H226356   0.739   4.044   5.704
 8798TIP3   OH226357   0.336   3.560   4.995
 8798TIP3    H126358   0.424   3.590   4.971
 8798TIP3    H226359   0.299   3.633   5.045
 8799TIP3   OH226360   5.949   1.496   0.495
 8799TIP3    H126361   5.913   1.580   0.466
 8799TIP3    H226362   5.873   1.446   0.524
 8800TIP3   OH226363   4.401   6.712   5.221
 8800TIP3    H126364   4.325   6.707   5.280
 8800TIP3    H226365   4.453   6.785   5.255
 8801TIP3   OH226366   4.218   2.367   4.932
 8801TIP3    H126367   4.313   2.378   4.936
 8801TIP3    H226368   4.191   2.358   5.024
 8802TIP3   OH226369   4.607   1.302   3.643
 8802TIP3    H126370   4.702   1.307   3.633
 8802TIP3    H226371   4.586   1.365   3.712
 8803TIP3   OH226372   6.630   3.568   3.538
 8803TIP3    H126373   6.642   3.493   3.596
 8803TIP3    H226374   6.643   3.644   3.595
 8804TIP3   OH226375   1.514   5.549   1.907
 8804TIP3    H126376   1.597   5.519   1.871
 8804TIP3    H226377   1.459   5.471   1.912
 8805TIP3   OH226378   5.227   4.180   5.272
 8805TIP3    H126379   5.194   4.242   5.337
 8805TIP3    H226380   5.309   4.148   5.309
 8806TIP3   OH226381   4.179   1.038   2.793
 8806TIP3    H126382   4.261   1.050   2.743
 8806TIP3    H226383   4.110   1.056   2.729
 8807TIP3   OH226384   6.508   2.635   2.558
 8807TIP3    H126385   6.565   2.702   2.520
 8807TIP3    H226386   6.545   2.617   2.644
 8808TIP3   OH226387   2.748   6.313   3.870
 8808TIP3    H126388   2.668   6.364   3.861
 8808TIP3    H226389   2.721   6.233   3.915
 8809TIP3   OH226390   5.478   0.346   2.929
 8809TIP3    H126391   5.403   0.324   2.983
 8809TIP3    H226392   5.473   0.441   2.918
 8810TIP3   OH226393   0.571   5.750   2.203
 8810TIP3    H126394   0.498   5.793   2.246
 8810TIP3    H226395   0.556   5.656   2.217
 8811TIP3   OH226396   3.702   0.309   4.745
 8811TIP3    H126397   3.711   0.226   4.792
 8811TIP3    H226398   3.766   0.303   4.674
 8812TIP3   OH226399   3.409   4.723   4.839
 8812TIP3    H126400   3.442   4.658   4.901
 8812TIP3    H226401   3.364   4.787   4.893
 8813TIP3   OH226402   0.895   1.768   0.699
 8813TIP3    H126403   0.942   1.848   0.724
 8813TIP3    H226404   0.861   1.733   0.781
 8814TIP3   OH226405   5.868   3.143   5.038
 8814TIP3    H126406   5.930   3.101   5.097
 8814TIP3    H226407   5.846   3.226   5.081
 8815TIP3   OH226408   3.204   4.986   5.311
 8815TIP3    H126409   3.172   4.897   5.294
 8815TIP3    H226410   3.262   4.977   5.386
 8816TIP3   OH226411   1.752   0.042   3.409
 8816TIP3    H126412   1.723   0.124   3.448
 8816TIP3    H226413   1.712  -0.026   3.463
 8817TIP3   OH226414   6.724   3.081   5.317
 8817TIP3    H126415   6.681   3.008   5.361
 8817TIP3    H226416   6.764   3.043   5.239
 8818TIP3   OH226417   6.814   4.365   1.946
 8818TIP3    H126418   6.814   4.356   1.851
 8818TIP3    H226419   6.749   4.432   1.964
 8819TIP3   OH226420   1.339   5.967   1.679
 8819TIP3    H126421   1.395   5.979   1.602
 8819TIP3    H226422   1.396   5.989   1.753
 8820TIP3   OH226423   3.637   5.131   5.037
 8820TIP3    H126424   3.613   5.063   4.974
 8820TIP3    H226425   3.653   5.209   4.984
 8821TIP3   OH226426   7.003   5.040   0.142
 8821TIP3    H126427   7.024   4.975   0.209
 8821TIP3    H226428   6.907   5.039   0.137
 8822TIP3   OH226429   5.878   3.179   1.852
 8822TIP3    H126430   5.861   3.104   1.909
 8822TIP3    H226431   5.809   3.242   1.874
 8823TIP3   OH226432   1.538   3.515   4.672
 8823TIP3    H126433   1.553   3.423   4.649
 8823TIP3    H226434   1.626   3.550   4.687
 8824TIP3   OH226435   2.473   5.313   5.357
 8824TIP3    H126436   2.541   5.247   5.347
 8824TIP3    H226437   2.482   5.368   5.279
 8825TIP3   OH226438   3.602   5.690   5.521
 8825TIP3    H126439   3.599   5.630   5.446
 8825TIP3    H226440   3.659   5.762   5.493
 8826TIP3   OH226441   1.001   0.251   1.397
 8826TIP3    H126442   0.940   0.323   1.385
 8826TIP3    H226443   1.062   0.283   1.465
 8827TIP3   OH226444   3.818   4.708   4.023
 8827TIP3    H126445   3.832   4.613   4.023
 8827TIP3    H226446   3.725   4.719   4.005
 8828TIP3   OH226447   6.519   1.515   5.553
 8828TIP3    H126448   6.570   1.438   5.528
 8828TIP3    H226449   6.442   1.479   5.597
 8829TIP3   OH226450   2.392   0.655   5.106
 8829TIP3    H126451   2.316   0.645   5.163
 8829TIP3    H226452   2.452   0.712   5.156
 8830TIP3   OH226453   4.158   3.126   2.721
 8830TIP3    H126454   4.180   3.100   2.632
 8830TIP3    H226455   4.081   3.074   2.743
 8831TIP3   OH226456   5.376   0.227   3.885
 8831TIP3    H126457   5.321   0.220   3.964
 8831TIP3    H226458   5.323   0.277   3.824
 8832TIP3   OH226459   2.968   6.557   0.573
 8832TIP3    H126460   2.973   6.475   0.623
 8832TIP3    H226461   2.966   6.626   0.640
 8833TIP3   OH226462   1.341   4.116   4.815
 8833TIP3    H126463   1.311   4.181   4.752
 8833TIP3    H226464   1.427   4.148   4.844
 8834TIP3   OH226465   1.573   4.803   5.400
 8834TIP3    H126466   1.576   4.767   5.488
 8834TIP3    H226467   1.660   4.787   5.364
 8835TIP3   OH226468   5.124   2.412   2.147
 8835TIP3    H126469   5.101   2.344   2.084
 8835TIP3    H226470   5.209   2.385   2.183
 8836TIP3   OH226471   1.966   5.755   0.761
 8836TIP3    H126472   2.021   5.679   0.778
 8836TIP3    H226473   1.964   5.802   0.844
 8837TIP3   OH226474   4.171   2.853   5.699
 8837TIP3    H126475   4.083   2.847   5.661
 8837TIP3    H226476   4.202   2.940   5.675
 8838TIP3   OH226477   3.089   6.563   3.583
 8838TIP3    H126478   3.122   6.578   3.495
 8838TIP3    H226479   3.081   6.468   3.591
 8839TIP3   OH226480   3.338   0.946   1.827
 8839TIP3    H126481   3.300   0.995   1.900
 8839TIP3    H226482   3.284   0.867   1.821
 8840TIP3   OH226483   6.207   0.569   2.475
 8840TIP3    H126484   6.211   0.553   2.569
 8840TIP3    H226485   6.200   0.482   2.436
 8841TIP3   OH226486   3.579   0.209   0.358
 8841TIP3    H126487   3.484   0.197   0.362
 8841TIP3    H226488   3.612   0.132   0.312
 8842TIP3   OH226489   3.257   5.621   3.760
 8842TIP3    H126490   3.294   5.584   3.680
 8842TIP3    H226491   3.310   5.698   3.778
 8843TIP3   OH226492   6.304   4.496   0.519
 8843TIP3    H126493   6.260   4.501   0.434
 8843TIP3    H226494   6.327   4.586   0.540
 8844TIP3   OH226495   0.078   5.957   0.577
 8844TIP3    H126496   0.042   5.871   0.553
 8844TIP3    H226497   0.146   5.937   0.642
 8845TIP3   OH226498   6.665   6.255   5.490
 8845TIP3    H126499   6.612   6.177   5.472
 8845TIP3    H226500   6.643   6.315   5.418
 8846TIP3   OH226501   1.403   4.597   1.897
 8846TIP3    H126502   1.475   4.602   1.960
 8846TIP3    H226503   1.432   4.534   1.831
 8847TIP3   OH226504   3.273   6.391   0.888
 8847TIP3    H126505   3.323   6.391   0.806
 8847TIP3    H226506   3.323   6.448   0.946
 8848TIP3   OH226507   2.590   3.611   4.351
 8848TIP3    H126508   2.667   3.607   4.294
 8848TIP3    H226509   2.603   3.690   4.403
 8849TIP3   OH226510   4.924   3.098   4.876
 8849TIP3    H126511   4.871   3.031   4.920
 8849TIP3    H226512   4.916   3.078   4.783
 8850TIP3   OH226513   6.072   3.488   0.232
 8850TIP3    H126514   6.163   3.479   0.205
 8850TIP3    H226515   6.063   3.579   0.258
 8851TIP3   OH226516   0.132   1.765   4.740
 8851TIP3    H126517   0.188   1.759   4.662
 8851TIP3    H226518   0.048   1.731   4.711
 8852TIP3   OH226519   0.514   2.432   2.359
 8852TIP3    H126520   0.480   2.389   2.437
 8852TIP3    H226521   0.605   2.403   2.354
 8853TIP3   OH226522   2.103   0.426   2.179
 8853TIP3    H126523   2.045   0.501   2.167
 8853TIP3    H226524   2.095   0.376   2.097
 8854TIP3   OH226525   2.164   3.951   1.638
 8854TIP3    H126526   2.098   4.012   1.605
 8854TIP3    H226527   2.248   3.994   1.621
 8855TIP3   OH226528   0.317   3.721   4.293
 8855TIP3    H126529   0.255   3.717   4.220
 8855TIP3    H226530   0.275   3.778   4.357
 8856TIP3   OH226531   6.579   4.843   3.479
 8856TIP3    H126532   6.498   4.891   3.463
 8856TIP3    H226533   6.553   4.751   3.479
 8857TIP3   OH226534   5.253   4.135   0.307
 8857TIP3    H126535   5.211   4.122   0.391
 8857TIP3    H226536   5.190   4.103   0.243
 8858TIP3   OH226537   5.450   1.649   0.829
 8858TIP3    H126538   5.485   1.722   0.879
 8858TIP3    H226539   5.526   1.613   0.783
 8859TIP3   OH226540   5.217   3.249   3.819
 8859TIP3    H126541   5.182   3.324   3.771
 8859TIP3    H226542   5.259   3.195   3.752
 8860TIP3   OH226543   1.032   0.800   5.239
 8860TIP3    H126544   0.966   0.759   5.294
 8860TIP3    H226545   1.094   0.729   5.220
 8861TIP3   OH226546   6.741   3.707   1.025
 8861TIP3    H126547   6.769   3.791   1.059
 8861TIP3    H226548   6.679   3.728   0.955
 8862TIP3   OH226549   4.493   3.198   5.754
 8862TIP3    H126550   4.561   3.143   5.793
 8862TIP3    H226551   4.536   3.282   5.738
 8863TIP3   OH226552   4.801   2.297   4.807
 8863TIP3    H126553   4.778   2.218   4.857
 8863TIP3    H226554   4.894   2.287   4.788
 8864TIP3   OH226555   5.449   0.961   1.142
 8864TIP3    H126556   5.354   0.965   1.153
 8864TIP3    H226557   5.479   1.050   1.160
 8865TIP3   OH226558   1.017   5.869   2.090
 8865TIP3    H126559   1.024   5.867   2.186
 8865TIP3    H226560   1.074   5.798   2.061
 8866TIP3   OH226561   3.200   5.243   1.108
 8866TIP3    H126562   3.159   5.180   1.049
 8866TIP3    H226563   3.293   5.222   1.106
 8867TIP3   OH226564   5.876   2.489   4.155
 8867TIP3    H126565   5.889   2.407   4.108
 8867TIP3    H226566   5.906   2.470   4.244
 8868TIP3   OH226567   5.517   2.625   5.336
 8868TIP3    H126568   5.500   2.682   5.411
 8868TIP3    H226569   5.612   2.609   5.340
 8869TIP3   OH226570   6.991   3.516   1.351
 8869TIP3    H126571   6.926   3.502   1.419
 8869TIP3    H226572   7.056   3.448   1.366
 8870TIP3   OH226573   1.273   2.629   5.719
 8870TIP3    H126574   1.235   2.590   5.798
 8870TIP3    H226575   1.218   2.705   5.700
 8871TIP3   OH226576   2.495   2.177   1.965
 8871TIP3    H126577   2.567   2.229   2.001
 8871TIP3    H226578   2.439   2.159   2.040
 8872TIP3   OH226579   1.718   3.627   3.669
 8872TIP3    H126580   1.625   3.641   3.690
 8872TIP3    H226581   1.718   3.550   3.613
 8873TIP3   OH226582   2.554   1.990   4.641
 8873TIP3    H126583   2.497   2.066   4.648
 8873TIP3    H226584   2.497   1.915   4.661
 8874TIP3   OH226585   1.601   4.676   5.151
 8874TIP3    H126586   1.603   4.581   5.142
 8874TIP3    H226587   1.537   4.693   5.221
 8875TIP3   OH226588   2.572   1.139   3.165
 8875TIP3    H126589   2.575   1.104   3.254
 8875TIP3    H226590   2.485   1.178   3.157
 8876TIP3   OH226591   5.074   5.525   2.548
 8876TIP3    H126592   5.068   5.534   2.643
 8876TIP3    H226593   5.149   5.579   2.523
 8877TIP3   OH226594   7.164   2.192   5.263
 8877TIP3    H126595   7.220   2.262   5.295
 8877TIP3    H226596   7.075   2.223   5.278
 8878TIP3   OH226597   1.289   6.657   2.206
 8878TIP3    H126598   1.318   6.747   2.192
 8878TIP3    H226599   1.226   6.663   2.278
 8879TIP3   OH226600   2.369   4.993   4.654
 8879TIP3    H126601   2.423   5.013   4.578
 8879TIP3    H226602   2.428   4.949   4.715
 8880TIP3   OH226603   5.588   0.275   5.768
 8880TIP3    H126604   5.513   0.295   5.712
 8880TIP3    H226605   5.557   0.292   5.857
 8881TIP3   OH226606   5.634   0.934   3.202
 8881TIP3    H126607   5.672   1.016   3.171
 8881TIP3    H226608   5.557   0.961   3.252
 8882TIP3   OH226609   3.964   1.887   4.514
 8882TIP3    H126610   3.930   1.828   4.581
 8882TIP3    H226611   4.058   1.867   4.510
 8883TIP3   OH226612   6.484   5.739   1.186
 8883TIP3    H126613   6.552   5.703   1.243
 8883TIP3    H226614   6.531   5.769   1.108
 8884TIP3   OH226615   4.671   6.368   1.312
 8884TIP3    H126616   4.680   6.441   1.250
 8884TIP3    H226617   4.582   6.335   1.298
 8885TIP3   OH226618   3.008   6.355   0.753
 8885TIP3    H126619   3.071   6.351   0.825
 8885TIP3    H226620   2.957   6.274   0.762
 8886TIP3   OH226621   4.586   1.877   1.049
 8886TIP3    H126622   4.590   1.825   1.129
 8886TIP3    H226623   4.663   1.851   0.999
 8887TIP3   OH226624   6.821   1.486   3.715
 8887TIP3    H126625   6.820   1.392   3.700
 8887TIP3    H226626   6.828   1.524   3.627
 8888TIP3   OH226627   4.282   2.729   4.427
 8888TIP3    H126628   4.323   2.643   4.418
 8888TIP3    H226629   4.312   2.778   4.351
 8889TIP3   OH226630   2.595   5.669   3.723
 8889TIP3    H126631   2.502   5.668   3.701
 8889TIP3    H226632   2.621   5.761   3.711
 8890TIP3   OH226633   6.251   6.589   5.056
 8890TIP3    H126634   6.233   6.593   4.962
 8890TIP3    H226635   6.345   6.576   5.063
 8891TIP3   OH226636   4.488   4.595   0.554
 8891TIP3    H126637   4.392   4.601   0.556
 8891TIP3    H226638   4.510   4.553   0.637
 8892TIP3   OH226639   1.935   1.433   2.294
 8892TIP3    H126640   1.990   1.419   2.371
 8892TIP3    H226641   1.846   1.429   2.327
 8893TIP3   OH226642   7.159   6.157   3.065
 8893TIP3    H126643   7.240   6.125   3.026
 8893TIP3    H226644   7.090   6.110   3.018
 8894TIP3   OH226645   0.329   5.293   1.382
 8894TIP3    H126646   0.347   5.211   1.337
 8894TIP3    H226647   0.375   5.285   1.466
 8895TIP3   OH226648   2.975   5.883   3.618
 8895TIP3    H126649   3.000   5.943   3.689
 8895TIP3    H226650   2.970   5.797   3.660
 8896TIP3   OH226651   0.463   5.217   2.490
 8896TIP3    H126652   0.409   5.195   2.414
 8896TIP3    H226653   0.442   5.149   2.554
 8897TIP3   OH226654   6.901   2.237   1.644
 8897TIP3    H126655   6.951   2.318   1.658
 8897TIP3    H226656   6.821   2.249   1.694
 8898TIP3   OH226657   3.781   0.111   3.602
 8898TIP3    H126658   3.809   0.201   3.615
 8898TIP3    H226659   3.778   0.073   3.690
 8899TIP3   OH226660   3.848   3.949   1.584
 8899TIP3    H126661   3.834   3.886   1.654
 8899TIP3    H226662   3.906   3.903   1.522
 8900TIP3   OH226663   5.692   6.382   4.672
 8900TIP3    H126664   5.698   6.287   4.688
 8900TIP3    H226665   5.666   6.389   4.580
 8901TIP3   OH226666   2.549   1.190   5.635
 8901TIP3    H126667   2.599   1.265   5.668
 8901TIP3    H226668   2.484   1.229   5.577
 8902TIP3   OH226669   3.221   4.999   2.536
 8902TIP3    H126670   3.188   5.089   2.538
 8902TIP3    H226671   3.257   4.984   2.623
 8903TIP3   OH226672   2.252   0.575   3.099
 8903TIP3    H126673   2.268   0.667   3.077
 8903TIP3    H226674   2.169   0.575   3.147
 8904TIP3   OH226675   4.071   0.466   5.358
 8904TIP3    H126676   3.994   0.500   5.404
 8904TIP3    H226677   4.082   0.523   5.282
 8905TIP3   OH226678   3.510   6.205   0.173
 8905TIP3    H126679   3.438   6.237   0.118
 8905TIP3    H226680   3.535   6.122   0.133
 8906TIP3   OH226681   4.260   2.111   0.468
 8906TIP3    H126682   4.271   2.206   0.460
 8906TIP3    H226683   4.195   2.088   0.401
 8907TIP3   OH226684   4.215   4.424   4.275
 8907TIP3    H126685   4.289   4.480   4.299
 8907TIP3    H226686   4.173   4.404   4.358
 8908TIP3   OH226687   4.706   0.299   2.486
 8908TIP3    H126688   4.697   0.205   2.473
 8908TIP3    H226689   4.622   0.326   2.523
 8909TIP3   OH226690   5.970   1.022   4.143
 8909TIP3    H126691   6.065   1.025   4.130
 8909TIP3    H226692   5.957   0.958   4.212
 8910TIP3   OH226693   4.428   2.533   2.208
 8910TIP3    H126694   4.442   2.439   2.213
 8910TIP3    H226695   4.516   2.571   2.215
 8911TIP3   OH226696   6.861   0.771   2.474
 8911TIP3    H126697   6.936   0.712   2.472
 8911TIP3    H226698   6.878   0.834   2.403
 8912TIP3   OH226699   5.373   0.555   3.105
 8912TIP3    H126700   5.322   0.475   3.119
 8912TIP3    H226701   5.365   0.603   3.186
 8913TIP3   OH226702   1.725   2.872   1.115
 8913TIP3    H126703   1.809   2.845   1.078
 8913TIP3    H226704   1.697   2.945   1.060
 8914TIP3   OH226705   5.829   3.450   5.530
 8914TIP3    H126706   5.845   3.388   5.600
 8914TIP3    H226707   5.901   3.513   5.537
 8915TIP3   OH226708   6.660   6.162   4.715
 8915TIP3    H126709   6.671   6.237   4.657
 8915TIP3    H226710   6.718   6.180   4.789
 8916TIP3   OH226711   0.165   5.202   5.027
 8916TIP3    H126712   0.135   5.242   4.946
 8916TIP3    H226713   0.194   5.276   5.081
 8917TIP3   OH226714   2.872   1.705   0.744
 8917TIP3    H126715   2.964   1.678   0.747
 8917TIP3    H226716   2.830   1.643   0.684
 8918TIP3   OH226717   1.709   2.417   5.532
 8918TIP3    H126718   1.759   2.369   5.467
 8918TIP3    H226719   1.680   2.350   5.594
 8919TIP3   OH226720   6.076   4.661   0.970
 8919TIP3    H126721   6.120   4.576   0.962
 8919TIP3    H226722   6.077   4.697   0.881
 8920TIP3   OH226723   0.615   4.989   3.809
 8920TIP3    H126724   0.575   5.023   3.889
 8920TIP3    H226725   0.707   4.976   3.832
 8921TIP3   OH226726   4.256   4.527   0.054
 8921TIP3    H126727   4.204   4.607   0.055
 8921TIP3    H226728   4.333   4.548   0.107
 8922TIP3   OH226729   3.562   5.522   5.724
 8922TIP3    H126730   3.467   5.529   5.709
 8922TIP3    H226731   3.601   5.579   5.659
 8923TIP3   OH226732   5.738   4.069   2.467
 8923TIP3    H126733   5.680   4.026   2.404
 8923TIP3    H226734   5.680   4.104   2.534
 8924TIP3   OH226735   5.485   5.931   5.526
 8924TIP3    H126736   5.565   5.882   5.505
 8924TIP3    H226737   5.517   6.014   5.563
 8925TIP3   OH226738   1.912   3.910   0.050
 8925TIP3    H126739   1.950   3.928   0.135
 8925TIP3    H226740   1.882   3.819   0.056
 8926TIP3   OH226741   2.568   6.516   1.151
 8926TIP3    H126742   2.612   6.471   1.079
 8926TIP3    H226743   2.477   6.524   1.123
 8927TIP3   OH226744   0.567   2.864   1.539
 8927TIP3    H126745   0.525   2.785   1.503
 8927TIP3    H226746   0.516   2.936   1.503
 8928TIP3   OH226747   3.792   0.272   0.501
 8928TIP3    H126748   3.771   0.325   0.577
 8928TIP3    H226749   3.710   0.266   0.452
 8929TIP3   OH226750   0.626   3.431   3.950
 8929TIP3    H126751   0.685   3.490   3.904
 8929TIP3    H226752   0.606   3.362   3.887
 8930TIP3   OH226753   5.437   4.069   5.641
 8930TIP3    H126754   5.500   4.001   5.665
 8930TIP3    H226755   5.436   4.128   5.716
 8931TIP3   OH226756   0.566   4.518   2.035
 8931TIP3    H126757   0.608   4.432   2.026
 8931TIP3    H226758   0.518   4.529   1.953
 8932TIP3   OH226759   5.663   6.697   4.560
 8932TIP3    H126760   5.596   6.715   4.626
 8932TIP3    H226761   5.744   6.690   4.610
 8933TIP3   OH226762   6.529   4.087   4.090
 8933TIP3    H126763   6.617   4.064   4.119
 8933TIP3    H226764   6.530   4.183   4.083
 8934TIP3   OH226765   2.557   0.035   5.651
 8934TIP3    H126766   2.503   0.062   5.725
 8934TIP3    H226767   2.576   0.116   5.604
 8935TIP3   OH226768   6.274   2.255   2.916
 8935TIP3    H126769   6.340   2.284   2.979
 8935TIP3    H226770   6.304   2.290   2.832
 8936TIP3   OH226771   1.509   1.255   4.826
 8936TIP3    H126772   1.463   1.330   4.789
 8936TIP3    H226773   1.594   1.291   4.854
 8937TIP3   OH226774   2.773   1.068   1.718
 8937TIP3    H126775   2.855   1.116   1.713
 8937TIP3    H226776   2.729   1.102   1.796
 8938TIP3   OH226777   5.617   6.609   1.059
 8938TIP3    H126778   5.570   6.552   1.119
 8938TIP3    H226779   5.709   6.604   1.087
 8939TIP3   OH226780   5.410   0.153   2.613
 8939TIP3    H126781   5.485   0.190   2.660
 8939TIP3    H226782   5.348   0.226   2.605
 8940TIP3   OH226783   3.637   1.920   0.537
 8940TIP3    H126784   3.634   2.014   0.555
 8940TIP3    H226785   3.730   1.899   0.531
 8941TIP3   OH226786   3.502   3.504   3.080
 8941TIP3    H126787   3.411   3.481   3.060
 8941TIP3    H226788   3.496   3.588   3.126
 8942TIP3   OH226789   2.962   6.101   4.320
 8942TIP3    H126790   3.037   6.161   4.314
 8942TIP3    H226791   2.885   6.158   4.317
 8943TIP3   OH226792   3.849   0.647   4.607
 8943TIP3    H126793   3.874   0.628   4.697
 8943TIP3    H226794   3.805   0.732   4.611
 8944TIP3   OH226795   3.915   5.302   0.364
 8944TIP3    H126796   3.907   5.290   0.459
 8944TIP3    H226797   3.963   5.225   0.334
 8945TIP3   OH226798   6.245   5.410   4.549
 8945TIP3    H126799   6.246   5.427   4.455
 8945TIP3    H226800   6.246   5.497   4.590
 8946TIP3   OH226801   2.346   6.289   0.338
 8946TIP3    H126802   2.386   6.203   0.352
 8946TIP3    H226803   2.329   6.322   0.426
 8947TIP3   OH226804   5.343   3.309   1.324
 8947TIP3    H126805   5.433   3.323   1.292
 8947TIP3    H226806   5.289   3.361   1.264
 8948TIP3   OH226807   5.828   4.910   0.587
 8948TIP3    H126808   5.915   4.871   0.579
 8948TIP3    H226809   5.769   4.836   0.595
 8949TIP3   OH226810   4.485   2.683   0.343
 8949TIP3    H126811   4.464   2.664   0.251
 8949TIP3    H226812   4.560   2.626   0.362
 8950TIP3   OH226813   4.650   5.316   5.425
 8950TIP3    H126814   4.737   5.339   5.458
 8950TIP3    H226815   4.594   5.319   5.503
 8951TIP3   OH226816   0.214   2.675   1.941
 8951TIP3    H126817   0.267   2.748   1.909
 8951TIP3    H226818   0.277   2.605   1.957
 8952TIP3   OH226819   1.781   5.715   2.299
 8952TIP3    H126820   1.791   5.664   2.218
 8952TIP3    H226821   1.793   5.652   2.369
 8953TIP3   OH226822   1.474   3.328   0.771
 8953TIP3    H126823   1.410   3.314   0.841
 8953TIP3    H226824   1.535   3.393   0.807
 8954TIP3   OH226825   4.930   3.464   0.468
 8954TIP3    H126826   4.890   3.410   0.400
 8954TIP3    H226827   5.024   3.457   0.452
 8955TIP3   OH226828   1.912   0.241   3.575
 8955TIP3    H126829   1.835   0.255   3.520
 8955TIP3    H226830   1.981   0.216   3.513
 8956TIP3   OH226831   2.531   3.001   5.827
 8956TIP3    H126832   2.441   3.032   5.821
 8956TIP3    H226833   2.524   2.905   5.822
 8957TIP3   OH226834   0.654   0.376   2.762
 8957TIP3    H126835   0.600   0.431   2.820
 8957TIP3    H226836   0.592   0.312   2.727
 8958TIP3   OH226837   2.114   5.459   5.917
 8958TIP3    H126838   2.184   5.430   5.858
 8958TIP3    H226839   2.062   5.380   5.934
 8959TIP3   OH226840   4.447   0.927   0.770
 8959TIP3    H126841   4.432   0.939   0.676
 8959TIP3    H226842   4.533   0.965   0.786
 8960TIP3   OH226843   4.377   2.562   4.129
 8960TIP3    H126844   4.337   2.649   4.124
 8960TIP3    H226845   4.426   2.554   4.047
 8961TIP3   OH226846   3.601   5.930   3.429
 8961TIP3    H126847   3.653   6.006   3.404
 8961TIP3    H226848   3.514   5.947   3.393
 8962TIP3   OH226849   5.865   2.473   4.481
 8962TIP3    H126850   5.931   2.416   4.522
 8962TIP3    H226851   5.896   2.561   4.499
 8963TIP3   OH226852   1.461   4.142   1.980
 8963TIP3    H126853   1.529   4.084   2.014
 8963TIP3    H226854   1.379   4.098   2.002
 8964TIP3   OH226855   6.159   0.030   2.272
 8964TIP3    H126856   6.117   0.001   2.353
 8964TIP3    H226857   6.253   0.028   2.292
 8965TIP3   OH226858   6.365   3.076   2.247
 8965TIP3    H126859   6.327   2.999   2.288
 8965TIP3    H226860   6.447   3.046   2.209
 8966TIP3   OH226861   6.378   2.508   3.695
 8966TIP3    H126862   6.403   2.567   3.624
 8966TIP3    H226863   6.435   2.532   3.768
 8967TIP3   OH226864   0.361   4.355   2.613
 8967TIP3    H126865   0.342   4.425   2.550
 8967TIP3    H226866   0.433   4.389   2.666
 8968TIP3   OH226867   6.311   3.460   3.906
 8968TIP3    H126868   6.380   3.406   3.945
 8968TIP3    H226869   6.292   3.418   3.823
 8969TIP3   OH226870   5.362   4.674   0.771
 8969TIP3    H126871   5.429   4.616   0.735
 8969TIP3    H226872   5.345   4.737   0.701
 8970TIP3   OH226873   4.258   3.419   3.844
 8970TIP3    H126874   4.245   3.462   3.759
 8970TIP3    H226875   4.298   3.334   3.822
 8971TIP3   OH226876   6.453   3.675   1.174
 8971TIP3    H126877   6.509   3.608   1.214
 8971TIP3    H226878   6.498   3.757   1.193
 8972TIP3   OH226879   7.157   6.061   4.696
 8972TIP3    H126880   7.230   6.075   4.636
 8972TIP3    H226881   7.190   6.090   4.781
 8973TIP3   OH226882   7.157   4.761   4.555
 8973TIP3    H126883   7.189   4.756   4.645
 8973TIP3    H226884   7.200   4.839   4.518
 8974TIP3   OH226885   3.067   4.062   5.192
 8974TIP3    H126886   3.042   4.155   5.188
 8974TIP3    H226887   2.999   4.018   5.140
 8975TIP3   OH226888   1.342   6.132   5.297
 8975TIP3    H126889   1.248   6.145   5.302
 8975TIP3    H226890   1.360   6.120   5.204
 8976TIP3   OH226891   5.842   0.549   2.983
 8976TIP3    H126892   5.863   0.491   2.911
 8976TIP3    H226893   5.843   0.637   2.945
 8977TIP3   OH226894   3.979   2.591   5.796
 8977TIP3    H126895   3.943   2.680   5.785
 8977TIP3    H226896   3.906   2.541   5.832
 8978TIP3   OH226897   5.529   2.441   4.215
 8978TIP3    H126898   5.625   2.441   4.215
 8978TIP3    H226899   5.505   2.507   4.280
 8979TIP3   OH226900   2.978   2.789   2.862
 8979TIP3    H126901   3.040   2.724   2.829
 8979TIP3    H226902   2.905   2.737   2.896
 8980TIP3   OH226903   1.104   0.632   2.388
 8980TIP3    H126904   1.190   0.599   2.413
 8980TIP3    H226905   1.119   0.722   2.360
 8981TIP3   OH226906   5.123   4.199   3.408
 8981TIP3    H126907   5.058   4.246   3.461
 8981TIP3    H226908   5.173   4.148   3.471
 8982TIP3   OH226909   3.148   3.062   0.869
 8982TIP3    H126910   3.060   3.067   0.908
 8982TIP3    H226911   3.207   3.087   0.940
 8983TIP3   OH226912   0.480   6.230   4.222
 8983TIP3    H126913   0.439   6.157   4.174
 8983TIP3    H226914   0.574   6.218   4.207
 8984TIP3   OH226915   5.056   6.695   1.537
 8984TIP3    H126916   4.988   6.734   1.592
 8984TIP3    H226917   5.013   6.618   1.498
 8985TIP3   OH226918   6.502   4.538   1.072
 8985TIP3    H126919   6.502   4.486   0.991
 8985TIP3    H226920   6.413   4.572   1.079
 8986TIP3   OH226921   2.772   4.018   0.086
 8986TIP3    H126922   2.858   3.994   0.051
 8986TIP3    H226923   2.763   3.966   0.166
 8987TIP3   OH226924   0.023   0.801   1.943
 8987TIP3    H126925   0.088   0.823   1.876
 8987TIP3    H226926   0.058   0.724   1.986
 8988TIP3   OH226927   5.627   1.166   0.752
 8988TIP3    H126928   5.568   1.221   0.804
 8988TIP3    H226929   5.639   1.087   0.804
 8989TIP3   OH226930   4.794   4.581   0.446
 8989TIP3    H126931   4.737   4.504   0.453
 8989TIP3    H226932   4.866   4.563   0.507
 8990TIP3   OH226933   6.140   6.807   3.285
 8990TIP3    H126934   6.233   6.826   3.277
 8990TIP3    H226935   6.120   6.752   3.208
 8991TIP3   OH226936   3.868   0.288   1.101
 8991TIP3    H126937   3.922   0.310   1.177
 8991TIP3    H226938   3.846   0.196   1.115
 8992TIP3   OH226939   3.790   5.161   3.275
 8992TIP3    H126940   3.729   5.156   3.348
 8992TIP3    H226941   3.760   5.095   3.213
 8993TIP3   OH226942   3.668   0.912   2.300
 8993TIP3    H126943   3.622   0.924   2.383
 8993TIP3    H226944   3.689   0.819   2.298
 8994TIP3   OH226945   3.842   6.718   5.703
 8994TIP3    H126946   3.924   6.667   5.706
 8994TIP3    H226947   3.774   6.655   5.723
 8995TIP3   OH226948   3.814   3.117   4.356
 8995TIP3    H126949   3.847   3.028   4.344
 8995TIP3    H226950   3.886   3.164   4.398
 8996TIP3   OH226951   4.172   1.888   3.991
 8996TIP3    H126952   4.112   1.952   3.953
 8996TIP3    H226953   4.121   1.807   3.993
 8997TIP3   OH226954   0.076   4.224   5.401
 8997TIP3    H126955   0.150   4.278   5.427
 8997TIP3    H226956   0.046   4.263   5.319
 8998TIP3   OH226957   0.086   4.152   1.318
 8998TIP3    H126958   0.006   4.122   1.274
 8998TIP3    H226959   0.156   4.100   1.277
 8999TIP3   OH226960   2.878   1.869   1.409
 8999TIP3    H126961   2.825   1.931   1.358
 8999TIP3    H226962   2.885   1.792   1.353
 9000TIP3   OH226963   7.039   5.398   5.207
 9000TIP3    H126964   6.974   5.467   5.194
 9000TIP3    H226965   7.033   5.345   5.128
 9001TIP3   OH226966   4.793   3.923   2.692
 9001TIP3    H126967   4.703   3.894   2.710
 9001TIP3    H226968   4.839   3.910   2.774
 9002TIP3   OH226969   2.161   0.809   1.567
 9002TIP3    H126970   2.146   0.781   1.477
 9002TIP3    H226971   2.181   0.903   1.560
 9003TIP3   OH226972   0.908   0.031   2.099
 9003TIP3    H126973   0.923  -0.057   2.065
 9003TIP3    H226974   0.994   0.074   2.095
 9004TIP3   OH226975   2.560   2.881   4.997
 9004TIP3    H126976   2.544   2.975   4.991
 9004TIP3    H226977   2.496   2.850   5.062
 9005TIP3   OH226978   4.687   1.341   4.186
 9005TIP3    H126979   4.729   1.284   4.250
 9005TIP3    H226980   4.682   1.426   4.230
 9006TIP3   OH226981   0.283   3.934   1.346
 9006TIP3    H126982   0.357   3.936   1.285
 9006TIP3    H226983   0.221   3.873   1.307
 9007TIP3   OH226984   1.270   2.272   4.022
 9007TIP3    H126985   1.178   2.297   4.025
 9007TIP3    H226986   1.308   2.313   4.100
 9008TIP3   OH226987   1.802   1.104   1.161
 9008TIP3    H126988   1.789   1.182   1.215
 9008TIP3    H226989   1.736   1.110   1.093
 9009TIP3   OH226990   5.585   2.584   3.597
 9009TIP3    H126991   5.615   2.670   3.568
 9009TIP3    H226992   5.664   2.540   3.627
 9010TIP3   OH226993   6.926   6.586   1.017
 9010TIP3    H126994   6.855   6.532   1.051
 9010TIP3    H226995   7.002   6.562   1.070
 9011TIP3   OH226996   4.634   2.713   0.984
 9011TIP3    H126997   4.612   2.698   1.075
 9011TIP3    H226998   4.553   2.745   0.944
 9012TIP3   OH226999   1.708   0.344   3.428
 9012TIP3    H127000   1.700   0.407   3.499
 9012TIP3    H227001   1.701   0.397   3.348
 9013TIP3   OH227002   0.141   6.172   0.912
 9013TIP3    H127003   0.148   6.263   0.884
 9013TIP3    H227004   0.125   6.178   1.007
 9014TIP3   OH227005   6.861   5.134   4.666
 9014TIP3    H127006   6.886   5.165   4.753
 9014TIP3    H227007   6.768   5.153   4.659
 9015TIP3   OH227008   6.349   5.576   2.268
 9015TIP3    H127009   6.349   5.530   2.352
 9015TIP3    H227010   6.267   5.626   2.268
 9016TIP3   OH227011   2.811   4.419   0.894
 9016TIP3    H127012   2.783   4.355   0.959
 9016TIP3    H227013   2.734   4.473   0.878
 9017TIP3   OH227014   6.684   3.554   2.696
 9017TIP3    H127015   6.772   3.588   2.713
 9017TIP3    H227016   6.698   3.482   2.635
 9018TIP3   OH227017   3.151   4.448   4.391
 9018TIP3    H127018   3.180   4.531   4.354
 9018TIP3    H227019   3.111   4.471   4.474
 9019TIP3   OH227020   6.197   2.705   4.326
 9019TIP3    H127021   6.179   2.718   4.233
 9019TIP3    H227022   6.293   2.702   4.332
 9020TIP3   OH227023   3.910   6.343   2.748
 9020TIP3    H127024   3.856   6.286   2.803
 9020TIP3    H227025   3.878   6.432   2.766
 9021TIP3   OH227026   5.103   6.592   2.738
 9021TIP3    H127027   5.145   6.583   2.652
 9021TIP3    H227028   5.103   6.503   2.773
 9022TIP3   OH227029   1.591   4.302   3.566
 9022TIP3    H127030   1.618   4.290   3.658
 9022TIP3    H227031   1.522   4.237   3.553
 9023TIP3   OH227032   1.677   3.073   3.505
 9023TIP3    H127033   1.693   2.989   3.462
 9023TIP3    H227034   1.586   3.068   3.534
 9024TIP3   OH227035   3.170   1.646   4.997
 9024TIP3    H127036   3.184   1.711   4.928
 9024TIP3    H227037   3.138   1.697   5.071
 9025TIP3   OH227038   2.794   1.716   4.754
 9025TIP3    H127039   2.725   1.710   4.689
 9025TIP3    H227040   2.811   1.626   4.780
 9026TIP3   OH227041   1.276   0.264   0.455
 9026TIP3    H127042   1.219   0.206   0.403
 9026TIP3    H227043   1.216   0.326   0.496
 9027TIP3   OH227044   6.397   3.485   1.505
 9027TIP3    H127045   6.463   3.449   1.447
 9027TIP3    H227046   6.319   3.495   1.451
 9028TIP3   OH227047   3.223   2.193   0.248
 9028TIP3    H127048   3.269   2.175   0.167
 9028TIP3    H227049   3.288   2.239   0.303
 9029TIP3   OH227050   2.055   4.680   4.493
 9029TIP3    H127051   2.062   4.775   4.497
 9029TIP3    H227052   2.003   4.662   4.415
 9030TIP3   OH227053   0.829   1.113   0.570
 9030TIP3    H127054   0.849   1.027   0.606
 9030TIP3    H227055   0.754   1.098   0.512
 9031TIP3   OH227056   6.823   4.031   1.623
 9031TIP3    H127057   6.899   3.974   1.608
 9031TIP3    H227058   6.782   4.040   1.537
 9032TIP3   OH227059   2.164   0.090   2.055
 9032TIP3    H127060   2.122   0.150   1.993
 9032TIP3    H227061   2.211   0.027   1.999
 9033TIP3   OH227062   6.673   6.651   1.625
 9033TIP3    H127063   6.594   6.650   1.679
 9033TIP3    H227064   6.640   6.634   1.536
 9034TIP3   OH227065   5.531   3.677   3.992
 9034TIP3    H127066   5.437   3.689   3.990
 9034TIP3    H227067   5.548   3.630   4.074
 9035TIP3   OH227068   7.079   4.136   5.597
 9035TIP3    H127069   7.138   4.148   5.523
 9035TIP3    H227070   7.136   4.139   5.674
 9036TIP3   OH227071   2.391   5.164   4.901
 9036TIP3    H127072   2.320   5.168   4.965
 9036TIP3    H227073   2.359   5.101   4.835
 9037TIP3   OH227074   2.499   0.416   0.540
 9037TIP3    H127075   2.582   0.382   0.509
 9037TIP3    H227076   2.433   0.358   0.502
 9038TIP3   OH227077   4.818   3.090   0.484
 9038TIP3    H127078   4.836   3.089   0.390
 9038TIP3    H227079   4.904   3.089   0.525
 9039TIP3   OH227080   4.045   1.448   0.107
 9039TIP3    H127081   4.080   1.422   0.022
 9039TIP3    H227082   4.117   1.430   0.168
 9040TIP3   OH227083   2.059   3.826   5.825
 9040TIP3    H127084   2.010   3.749   5.853
 9040TIP3    H227085   2.067   3.816   5.730
 9041TIP3   OH227086   0.603   5.084   1.350
 9041TIP3    H127087   0.653   5.019   1.301
 9041TIP3    H227088   0.539   5.118   1.288
 9042TIP3   OH227089   5.413   3.417   0.721
 9042TIP3    H127090   5.425   3.484   0.654
 9042TIP3    H227091   5.335   3.369   0.693
 9043TIP3   OH227092   1.097   1.632   1.606
 9043TIP3    H127093   1.076   1.556   1.660
 9043TIP3    H227094   1.137   1.595   1.527
 9044TIP3   OH227095   5.500   1.865   0.580
 9044TIP3    H127096   5.575   1.812   0.607
 9044TIP3    H227097   5.528   1.955   0.596
 9045TIP3   OH227098   5.980   3.377   4.330
 9045TIP3    H127099   5.985   3.351   4.239
 9045TIP3    H227100   6.036   3.316   4.377
 9046TIP3   OH227101   2.156   3.476   3.316
 9046TIP3    H127102   2.234   3.493   3.370
 9046TIP3    H227103   2.110   3.405   3.362
 9047TIP3   OH227104   4.027   5.277   5.497
 9047TIP3    H127105   4.108   5.232   5.472
 9047TIP3    H227106   4.053   5.335   5.568
 9048TIP3   OH227107   4.220   3.506   3.582
 9048TIP3    H127108   4.156   3.576   3.572
 9048TIP3    H227109   4.203   3.448   3.507
 9049TIP3   OH227110   1.158   4.865   2.747
 9049TIP3    H127111   1.240   4.820   2.769
 9049TIP3    H227112   1.145   4.846   2.654
 9050TIP3   OH227113   5.096   1.391   4.777
 9050TIP3    H127114   5.132   1.307   4.749
 9050TIP3    H227115   5.167   1.433   4.826
 9051TIP3   OH227116   6.039   5.659   0.220
 9051TIP3    H127117   6.092   5.697   0.290
 9051TIP3    H227118   5.959   5.711   0.220
 9052TIP3   OH227119   6.571   4.728   5.600
 9052TIP3    H127120   6.528   4.809   5.573
 9052TIP3    H227121   6.665   4.744   5.586
 9053TIP3   OH227122   2.148   2.595   5.131
 9053TIP3    H127123   2.175   2.547   5.052
 9053TIP3    H227124   2.217   2.576   5.195
 9054TIP3   OH227125   2.129   1.282   3.578
 9054TIP3    H127126   2.130   1.215   3.509
 9054TIP3    H227127   2.176   1.356   3.539
 9055TIP3   OH227128   6.289   6.020   4.139
 9055TIP3    H127129   6.356   6.017   4.207
 9055TIP3    H227130   6.329   6.069   4.068
 9056TIP3   OH227131   4.520   5.886   1.966
 9056TIP3    H127132   4.438   5.903   2.012
 9056TIP3    H227133   4.507   5.801   1.924
 9057TIP3   OH227134   0.456   6.561   1.657
 9057TIP3    H127135   0.451   6.634   1.595
 9057TIP3    H227136   0.445   6.483   1.603
 9058TIP3   OH227137   2.577   5.873   4.927
 9058TIP3    H127138   2.631   5.802   4.962
 9058TIP3    H227139   2.487   5.839   4.931
 9059TIP3   OH227140   3.620   2.359   2.795
 9059TIP3    H127141   3.556   2.413   2.748
 9059TIP3    H227142   3.601   2.376   2.888
 9060TIP3   OH227143   2.709   4.880   0.414
 9060TIP3    H127144   2.791   4.847   0.378
 9060TIP3    H227145   2.653   4.893   0.337
 9061TIP3   OH227146   5.783   4.827   3.089
 9061TIP3    H127147   5.759   4.866   3.006
 9061TIP3    H227148   5.849   4.886   3.126
 9062TIP3   OH227149   2.065   3.647   4.861
 9062TIP3    H127150   2.121   3.600   4.923
 9062TIP3    H227151   2.117   3.654   4.781
 9063TIP3   OH227152   6.194   2.944   5.108
 9063TIP3    H127153   6.214   2.851   5.117
 9063TIP3    H227154   6.231   2.969   5.024
 9064TIP3   OH227155   2.906   0.404   5.350
 9064TIP3    H127156   2.863   0.446   5.424
 9064TIP3    H227157   2.844   0.415   5.277
 9065TIP3   OH227158   6.726   4.160   3.753
 9065TIP3    H127159   6.662   4.127   3.690
 9065TIP3    H227160   6.811   4.133   3.718
 9066TIP3   OH227161   3.508   3.651   5.310
 9066TIP3    H127162   3.467   3.670   5.226
 9066TIP3    H227163   3.505   3.734   5.358
 9067TIP3   OH227164   3.660   2.313   2.361
 9067TIP3    H127165   3.689   2.224   2.340
 9067TIP3    H227166   3.740   2.364   2.365
 9068TIP3   OH227167   0.363   4.116   5.855
 9068TIP3    H127168   0.449   4.156   5.844
 9068TIP3    H227169   0.313   4.144   5.778
 9069TIP3   OH227170   1.974   4.507   5.339
 9069TIP3    H127171   1.971   4.486   5.246
 9069TIP3    H227172   1.951   4.600   5.343
 9070TIP3   OH227173   1.580   5.890   2.710
 9070TIP3    H127174   1.574   5.986   2.717
 9070TIP3    H227175   1.646   5.875   2.642
 9071TIP3   OH227176   3.461   5.172   1.162
 9071TIP3    H127177   3.450   5.190   1.255
 9071TIP3    H227178   3.507   5.088   1.159
 9072TIP3   OH227179   3.292   2.314   1.388
 9072TIP3    H127180   3.359   2.256   1.352
 9072TIP3    H227181   3.215   2.257   1.399
 9073TIP3   OH227182   4.338   4.555   4.912
 9073TIP3    H127183   4.326   4.591   4.824
 9073TIP3    H227184   4.252   4.518   4.935
 9074TIP3   OH227185   5.210   3.396   2.145
 9074TIP3    H127186   5.213   3.354   2.059
 9074TIP3    H227187   5.170   3.331   2.203
 9075TIP3   OH227188   2.983   6.738   0.797
 9075TIP3    H127189   3.075   6.734   0.771
 9075TIP3    H227190   2.984   6.723   0.891
 9076TIP3   OH227191   0.495   3.924   4.329
 9076TIP3    H127192   0.555   3.897   4.398
 9076TIP3    H227193   0.432   3.852   4.322
 9077TIP3   OH227194   0.738   5.838   2.479
 9077TIP3    H127195   0.703   5.914   2.432
 9077TIP3    H227196   0.715   5.764   2.424
 9078TIP3   OH227197   1.997   0.182   4.491
 9078TIP3    H127198   1.979   0.127   4.567
 9078TIP3    H227199   1.961   0.133   4.417
 9079TIP3   OH227200   1.813   3.494   4.505
 9079TIP3    H127201   1.808   3.399   4.511
 9079TIP3    H227202   1.907   3.513   4.507
 9080TIP3   OH227203   4.242   3.616   4.735
 9080TIP3    H127204   4.263   3.526   4.761
 9080TIP3    H227205   4.213   3.658   4.816
 9081TIP3   OH227206   5.796   3.813   4.471
 9081TIP3    H127207   5.748   3.855   4.543
 9081TIP3    H227208   5.888   3.829   4.491
 9082TIP3   OH227209   5.629   1.875   3.989
 9082TIP3    H127210   5.569   1.935   3.943
 9082TIP3    H227211   5.620   1.792   3.942
 9083TIP3   OH227212   2.060   0.013   1.244
 9083TIP3    H127213   2.088   0.086   1.300
 9083TIP3    H227214   2.051  -0.061   1.304
 9084TIP3   OH227215   6.165   6.549   4.793
 9084TIP3    H127216   6.159   6.539   4.698
 9084TIP3    H227217   6.082   6.513   4.826
 9085TIP3   OH227218   7.242   2.142   0.817
 9085TIP3    H127219   7.205   2.109   0.898
 9085TIP3    H227220   7.167   2.174   0.767
 9086TIP3   OH227221   3.165   5.588   5.461
 9086TIP3    H127222   3.140   5.496   5.476
 9086TIP3    H227223   3.230   5.606   5.528
 9087TIP3   OH227224   1.202   2.736   3.677
 9087TIP3    H127225   1.147   2.672   3.723
 9087TIP3    H227226   1.282   2.688   3.657
 9088TIP3   OH227227   4.689   2.621   2.158
 9088TIP3    H127228   4.729   2.577   2.233
 9088TIP3    H227229   4.693   2.714   2.181
 9089TIP3   OH227230   0.759   4.910   0.253
 9089TIP3    H127231   0.835   4.871   0.297
 9089TIP3    H227232   0.718   4.837   0.207
 9090TIP3   OH227233   1.899   2.662   5.600
 9090TIP3    H127234   1.821   2.623   5.559
 9090TIP3    H227235   1.926   2.598   5.666
 9091TIP3   OH227236   3.309   0.135   0.361
 9091TIP3    H127237   3.290   0.066   0.424
 9091TIP3    H227238   3.265   0.213   0.397
 9092TIP3   OH227239   6.809   6.329   4.526
 9092TIP3    H127240   6.848   6.294   4.447
 9092TIP3    H227241   6.877   6.383   4.565
 9093TIP3   OH227242   1.216   1.577   1.076
 9093TIP3    H127243   1.139   1.533   1.112
 9093TIP3    H227244   1.251   1.516   1.011
 9094TIP3   OH227245   2.136   2.378   4.525
 9094TIP3    H127246   2.213   2.371   4.468
 9094TIP3    H227247   2.152   2.456   4.578
 9095TIP3   OH227248   6.595   1.815   5.554
 9095TIP3    H127249   6.572   1.730   5.517
 9095TIP3    H227250   6.646   1.857   5.485
 9096TIP3   OH227251   2.910   5.882   4.893
 9096TIP3    H127252   2.929   5.937   4.817
 9096TIP3    H227253   2.928   5.937   4.969
 9097TIP3   OH227254   6.573   4.997   0.706
 9097TIP3    H127255   6.668   5.010   0.711
 9097TIP3    H227256   6.556   4.980   0.614
 9098TIP3   OH227257   6.864   0.315   4.271
 9098TIP3    H127258   6.823   0.287   4.353
 9098TIP3    H227259   6.791   0.328   4.211
 9099TIP3   OH227260   5.050   2.912   1.881
 9099TIP3    H127261   5.140   2.879   1.882
 9099TIP3    H227262   5.028   2.926   1.973
 9100TIP3   OH227263   3.355   2.222   4.959
 9100TIP3    H127264   3.266   2.204   4.990
 9100TIP3    H227265   3.347   2.223   4.863
 9101TIP3   OH227266   5.851   5.105   2.650
 9101TIP3    H127267   5.855   5.196   2.680
 9101TIP3    H227268   5.929   5.095   2.594
 9102TIP3   OH227269   6.929   5.917  -0.068
 9102TIP3    H127270   6.838   5.930  -0.041
 9102TIP3    H227271   6.930   5.829  -0.105
 9103TIP3   OH227272   5.661   0.973   0.952
 9103TIP3    H127273   5.581   0.974   1.005
 9103TIP3    H227274   5.722   0.919   1.002
 9104TIP3   OH227275   5.051   6.224   5.762
 9104TIP3    H127276   5.113   6.153   5.749
 9104TIP3    H227277   5.102   6.294   5.803
 9105TIP3   OH227278   4.277   3.548   2.614
 9105TIP3    H127279   4.262   3.531   2.521
 9105TIP3    H227280   4.370   3.570   2.621
 9106TIP3   OH227281   5.645   0.494   1.221
 9106TIP3    H127282   5.551   0.497   1.201
 9106TIP3    H227283   5.670   0.403   1.203
 9107TIP3   OH227284   6.106   3.946   5.794
 9107TIP3    H127285   6.052   3.976   5.720
 9107TIP3    H227286   6.153   3.869   5.759
 9108TIP3   OH227287   7.222   5.540   0.075
 9108TIP3    H127288   7.298   5.523   0.019
 9108TIP3    H227289   7.219   5.466   0.135
 9109TIP3   OH227290   6.023   1.509   3.000
 9109TIP3    H127291   5.932   1.490   2.978
 9109TIP3    H227292   6.042   1.592   2.956
 9110TIP3   OH227293   2.741   5.197   2.340
 9110TIP3    H127294   2.742   5.186   2.435
 9110TIP3    H227295   2.676   5.265   2.324
 9111TIP3   OH227296   1.044   3.070   4.924
 9111TIP3    H127297   1.122   3.042   4.972
 9111TIP3    H227298   1.060   3.163   4.905
 9112TIP3   OH227299   3.051   3.950   0.818
 9112TIP3    H127300   3.110   4.025   0.820
 9112TIP3    H227301   3.004   3.957   0.736
 9113TIP3   OH227302   0.390   4.842   4.705
 9113TIP3    H127303   0.306   4.799   4.690
 9113TIP3    H227304   0.369   4.934   4.715
 9114TIP3   OH227305   4.995   0.348   4.555
 9114TIP3    H127306   4.939   0.350   4.632
 9114TIP3    H227307   4.988   0.436   4.518
 9115TIP3   OH227308   1.653   4.540   0.892
 9115TIP3    H127309   1.682   4.515   0.980
 9115TIP3    H227310   1.586   4.607   0.907
 9116TIP3   OH227311   0.378   0.492   3.666
 9116TIP3    H127312   0.377   0.587   3.683
 9116TIP3    H227313   0.466   0.474   3.633
 9117TIP3   OH227314   3.051   2.739   4.176
 9117TIP3    H127315   3.078   2.686   4.252
 9117TIP3    H227316   3.086   2.691   4.101
 9118TIP3   OH227317   1.512   5.773   5.151
 9118TIP3    H127318   1.446   5.704   5.146
 9118TIP3    H227319   1.493   5.829   5.076
 9119TIP3   OH227320   0.777   3.032   1.455
 9119TIP3    H127321   0.755   2.953   1.504
 9119TIP3    H227322   0.732   3.022   1.371
 9120TIP3   OH227323   1.152   4.254   2.128
 9120TIP3    H127324   1.086   4.229   2.193
 9120TIP3    H227325   1.135   4.346   2.110
 9121TIP3   OH227326   1.302   2.430   1.201
 9121TIP3    H127327   1.308   2.469   1.114
 9121TIP3    H227328   1.316   2.336   1.186
 9122TIP3   OH227329   6.944   3.610   0.723
 9122TIP3    H127330   6.971   3.621   0.814
 9122TIP3    H227331   6.856   3.572   0.727
 9123TIP3   OH227332   6.708   4.175   0.226
 9123TIP3    H127333   6.624   4.143   0.260
 9123TIP3    H227334   6.727   4.252   0.280
 9124TIP3   OH227335   1.299   4.121   3.820
 9124TIP3    H127336   1.328   4.178   3.749
 9124TIP3    H227337   1.374   4.065   3.839
 9125TIP3   OH227338   1.446   4.423   5.444
 9125TIP3    H127339   1.365   4.467   5.417
 9125TIP3    H227340   1.421   4.333   5.460
 9126TIP3   OH227341   5.597   0.243   1.587
 9126TIP3    H127342   5.639   0.329   1.583
 9126TIP3    H227343   5.661   0.183   1.550
 9127TIP3   OH227344   5.565   6.313   0.216
 9127TIP3    H127345   5.491   6.309   0.276
 9127TIP3    H227346   5.617   6.387   0.247
 9128TIP3   OH227347   1.305   1.056   2.483
 9128TIP3    H127348   1.320   1.021   2.570
 9128TIP3    H227349   1.277   1.146   2.498
 9129TIP3   OH227350   5.868   5.294   2.929
 9129TIP3    H127351   5.901   5.373   2.972
 9129TIP3    H227352   5.935   5.228   2.946
 9130TIP3   OH227353   1.685   6.281   1.559
 9130TIP3    H127354   1.760   6.339   1.545
 9130TIP3    H227355   1.610   6.328   1.523
 9131TIP3   OH227356   5.014   3.981   0.240
 9131TIP3    H127357   5.051   3.936   0.165
 9131TIP3    H227358   4.992   3.911   0.302
 9132TIP3   OH227359   6.276   2.858   2.364
 9132TIP3    H127360   6.284   2.764   2.379
 9132TIP3    H227361   6.199   2.884   2.416
 9133TIP3   OH227362   1.273   2.822   2.778
 9133TIP3    H127363   1.266   2.772   2.697
 9133TIP3    H227364   1.355   2.791   2.818
 9134TIP3   OH227365   2.444   1.406   4.190
 9134TIP3    H127366   2.535   1.401   4.221
 9134TIP3    H227367   2.400   1.333   4.234
 9135TIP3   OH227368   5.288   5.166   2.316
 9135TIP3    H127369   5.295   5.214   2.399
 9135TIP3    H227370   5.238   5.088   2.339
 9136TIP3   OH227371   6.820   5.025   1.331
 9136TIP3    H127372   6.729   5.036   1.359
 9136TIP3    H227373   6.871   5.030   1.412
 9137TIP3   OH227374   3.536   2.373   4.049
 9137TIP3    H127375   3.489   2.446   4.090
 9137TIP3    H227376   3.474   2.337   3.986
 9138TIP3   OH227377   3.958   4.767   0.275
 9138TIP3    H127378   3.985   4.841   0.329
 9138TIP3    H227379   3.906   4.712   0.334
 9139TIP3   OH227380   6.970   3.041   3.622
 9139TIP3    H127381   6.919   3.089   3.557
 9139TIP3    H227382   7.051   3.017   3.577
 9140TIP3   OH227383   2.588   6.191   3.627
 9140TIP3    H127384   2.604   6.109   3.674
 9140TIP3    H227385   2.528   6.167   3.556
 9141TIP3   OH227386   5.160   2.737   2.144
 9141TIP3    H127387   5.090   2.737   2.210
 9141TIP3    H227388   5.205   2.821   2.158
 9142TIP3   OH227389   2.525   2.943   3.132
 9142TIP3    H127390   2.518   2.977   3.043
 9142TIP3    H227391   2.439   2.956   3.170
 9143TIP3   OH227392   3.538   6.336   4.434
 9143TIP3    H127393   3.562   6.398   4.364
 9143TIP3    H227394   3.572   6.376   4.513
 9144TIP3   OH227395   6.349   2.192   1.718
 9144TIP3    H127396   6.317   2.191   1.808
 9144TIP3    H227397   6.309   2.269   1.678
 9145TIP3   OH227398   0.900   4.615   2.503
 9145TIP3    H127399   0.971   4.658   2.551
 9145TIP3    H227400   0.821   4.659   2.534
 9146TIP3   OH227401   4.842   0.615   0.291
 9146TIP3    H127402   4.905   0.667   0.241
 9146TIP3    H227403   4.877   0.614   0.379
 9147TIP3   OH227404   1.830   3.021   3.138
 9147TIP3    H127405   1.883   3.048   3.214
 9147TIP3    H227406   1.799   3.103   3.101
 9148TIP3   OH227407   4.572   3.582   4.878
 9148TIP3    H127408   4.488   3.544   4.853
 9148TIP3    H227409   4.600   3.531   4.954
 9149TIP3   OH227410   6.353   5.017   4.518
 9149TIP3    H127411   6.342   4.922   4.521
 9149TIP3    H227412   6.276   5.052   4.561
 9150TIP3   OH227413   6.573   2.665   5.690
 9150TIP3    H127414   6.529   2.715   5.759
 9150TIP3    H227415   6.651   2.716   5.670
 9151TIP3   OH227416   1.493   4.663   0.182
 9151TIP3    H127417   1.417   4.649   0.238
 9151TIP3    H227418   1.539   4.579   0.183
 9152TIP3   OH227419   1.598   0.441   2.862
 9152TIP3    H127420   1.600   0.363   2.918
 9152TIP3    H227421   1.531   0.497   2.901
 9153TIP3   OH227422   1.768   2.193   1.548
 9153TIP3    H127423   1.676   2.169   1.535
 9153TIP3    H227424   1.816   2.114   1.522
 9154TIP3   OH227425   4.983   1.303   1.914
 9154TIP3    H127426   5.057   1.245   1.930
 9154TIP3    H227427   4.959   1.287   1.823
 9155TIP3   OH227428   4.847   0.822   1.128
 9155TIP3    H127429   4.798   0.824   1.209
 9155TIP3    H227430   4.928   0.777   1.149
 9156TIP3   OH227431   2.249   0.197   3.088
 9156TIP3    H127432   2.226   0.190   2.996
 9156TIP3    H227433   2.166   0.218   3.132
 9157TIP3   OH227434   7.061   6.020   1.368
 9157TIP3    H127435   7.114   5.940   1.360
 9157TIP3    H227436   7.036   6.041   1.278
 9158TIP3   OH227437   3.276   3.654   3.429
 9158TIP3    H127438   3.348   3.664   3.366
 9158TIP3    H227439   3.201   3.631   3.374
 9159TIP3   OH227440   1.181   2.831   0.025
 9159TIP3    H127441   1.153   2.823  -0.066
 9159TIP3    H227442   1.105   2.802   0.076
 9160TIP3   OH227443   7.106   4.283   0.378
 9160TIP3    H127444   7.169   4.264   0.447
 9160TIP3    H227445   7.110   4.207   0.320
 9161TIP3   OH227446   0.395   5.371   4.301
 9161TIP3    H127447   0.486   5.375   4.271
 9161TIP3    H227448   0.345   5.361   4.220
 9162TIP3   OH227449   2.771   3.025   0.774
 9162TIP3    H127450   2.675   3.034   0.776
 9162TIP3    H227451   2.787   2.962   0.704
 9163TIP3   OH227452   3.566   2.087   3.980
 9163TIP3    H127453   3.533   2.161   3.929
 9163TIP3    H227454   3.649   2.063   3.939
 9164TIP3   OH227455   6.716   5.639   0.898
 9164TIP3    H127456   6.708   5.576   0.969
 9164TIP3    H227457   6.661   5.604   0.828
 9165TIP3   OH227458   3.811   0.644   1.478
 9165TIP3    H127459   3.906   0.636   1.478
 9165TIP3    H227460   3.794   0.738   1.470
 9166TIP3   OH227461   2.001   2.774   1.849
 9166TIP3    H127462   1.993   2.867   1.826
 9166TIP3    H227463   2.090   2.751   1.825
 9167TIP3   OH227464   0.720   4.590   0.794
 9167TIP3    H127465   0.743   4.564   0.884
 9167TIP3    H227466   0.710   4.507   0.747
 9168TIP3   OH227467   6.950   3.516   1.057
 9168TIP3    H127468   6.878   3.578   1.055
 9168TIP3    H227469   6.976   3.511   1.149
 9169TIP3   OH227470   3.465   5.136   3.131
 9169TIP3    H127471   3.497   5.082   3.058
 9169TIP3    H227472   3.462   5.224   3.095
 9170TIP3   OH227473   2.488   1.864   2.200
 9170TIP3    H127474   2.395   1.848   2.219
 9170TIP3    H227475   2.518   1.917   2.273
 9171TIP3   OH227476   2.209   4.659   5.415
 9171TIP3    H127477   2.198   4.566   5.435
 9171TIP3    H227478   2.203   4.664   5.320
 9172TIP3   OH227479   5.668   0.964   4.288
 9172TIP3    H127480   5.716   1.010   4.219
 9172TIP3    H227481   5.690   0.871   4.275
 9173TIP3   OH227482   6.415   3.614   2.651
 9173TIP3    H127483   6.401   3.521   2.631
 9173TIP3    H227484   6.498   3.615   2.699
 9174TIP3   OH227485   0.024   5.681   5.110
 9174TIP3    H127486  -0.070   5.684   5.091
 9174TIP3    H227487   0.044   5.768   5.145
 9175TIP3   OH227488   4.433   4.589   2.562
 9175TIP3    H127489   4.384   4.643   2.501
 9175TIP3    H227490   4.462   4.649   2.631
 9176TIP3   OH227491   2.657   0.288   3.626
 9176TIP3    H127492   2.669   0.199   3.659
 9176TIP3    H227493   2.614   0.276   3.541
 9177TIP3   OH227494   2.087   4.351   2.561
 9177TIP3    H127495   2.054   4.306   2.483
 9177TIP3    H227496   2.182   4.345   2.554
 9178TIP3   OH227497   4.137   5.231   4.812
 9178TIP3    H127498   4.210   5.277   4.853
 9178TIP3    H227499   4.163   5.224   4.720
 9179TIP3   OH227500   7.066   5.208   1.177
 9179TIP3    H127501   7.109   5.123   1.163
 9179TIP3    H227502   7.045   5.210   1.270
 9180TIP3   OH227503   4.524   0.658   4.637
 9180TIP3    H127504   4.482   0.643   4.553
 9180TIP3    H227505   4.566   0.744   4.628
 9181TIP3   OH227506   0.152   3.331   0.637
 9181TIP3    H127507   0.198   3.292   0.711
 9181TIP3    H227508   0.090   3.263   0.608
 9182TIP3   OH227509   6.522   6.185   1.671
 9182TIP3    H127510   6.552   6.095   1.684
 9182TIP3    H227511   6.455   6.178   1.604
 9183TIP3   OH227512   6.251   0.707   1.084
 9183TIP3    H127513   6.268   0.620   1.046
 9183TIP3    H227514   6.332   0.756   1.069
 9184TIP3   OH227515   2.519   6.019   1.420
 9184TIP3    H127516   2.564   6.098   1.391
 9184TIP3    H227517   2.436   6.050   1.455
 9185TIP3   OH227518   1.665   3.362   5.748
 9185TIP3    H127519   1.701   3.285   5.704
 9185TIP3    H227520   1.656   3.336   5.840
 9186TIP3   OH227521   3.839   3.900   2.378
 9186TIP3    H127522   3.878   3.980   2.413
 9186TIP3    H227523   3.752   3.896   2.419
 9187TIP3   OH227524   4.965   4.462   1.240
 9187TIP3    H127525   4.880   4.486   1.204
 9187TIP3    H227526   5.012   4.545   1.246
 9188TIP3   OH227527   1.309   2.012   1.193
 9188TIP3    H127528   1.265   2.091   1.224
 9188TIP3    H227529   1.260   1.940   1.234
 9189TIP3   OH227530   1.097   3.405   2.966
 9189TIP3    H127531   1.143   3.421   2.884
 9189TIP3    H227532   1.073   3.492   2.998
 9190TIP3   OH227533   1.533   5.249   5.919
 9190TIP3    H127534   1.515   5.294   5.836
 9190TIP3    H227535   1.488   5.165   5.912
 9191TIP3   OH227536   3.599   2.906   5.031
 9191TIP3    H127537   3.601   2.979   4.969
 9191TIP3    H227538   3.571   2.831   4.978
 9192TIP3   OH227539   4.171   4.916   1.457
 9192TIP3    H127540   4.139   4.827   1.475
 9192TIP3    H227541   4.200   4.913   1.366
 9193TIP3   OH227542   3.368   6.672   3.606
 9193TIP3    H127543   3.286   6.623   3.612
 9193TIP3    H227544   3.347   6.759   3.642
 9194TIP3   OH227545   4.425   3.035   4.218
 9194TIP3    H127546   4.483   3.090   4.167
 9194TIP3    H227547   4.463   3.035   4.306
 9195TIP3   OH227548   7.053   1.523   1.260
 9195TIP3    H127549   6.998   1.588   1.304
 9195TIP3    H227550   7.056   1.553   1.169
 9196TIP3   OH227551   4.274   5.206   2.216
 9196TIP3    H127552   4.265   5.255   2.298
 9196TIP3    H227553   4.298   5.118   2.243
 9197TIP3   OH227554   4.587   0.571   2.946
 9197TIP3    H127555   4.546   0.616   3.020
 9197TIP3    H227556   4.514   0.541   2.893
 9198TIP3   OH227557   0.535   5.883   3.441
 9198TIP3    H127558   0.584   5.804   3.419
 9198TIP3    H227559   0.445   5.862   3.417
 9199TIP3   OH227560   3.938   5.857   2.454
 9199TIP3    H127561   3.926   5.938   2.503
 9199TIP3    H227562   3.850   5.832   2.427
 9200TIP3   OH227563   5.806   2.686   1.709
 9200TIP3    H127564   5.848   2.770   1.688
 9200TIP3    H227565   5.879   2.624   1.714
 9201TIP3   OH227566   6.543   3.280   3.005
 9201TIP3    H127567   6.504   3.220   2.941
 9201TIP3    H227568   6.471   3.335   3.033
 9202TIP3   OH227569   3.644   5.266   5.632
 9202TIP3    H127570   3.631   5.351   5.675
 9202TIP3    H227571   3.608   5.278   5.544
 9203TIP3   OH227572   6.211   3.561   1.083
 9203TIP3    H127573   6.125   3.558   1.124
 9203TIP3    H227574   6.273   3.556   1.156
 9204TIP3   OH227575   7.012   2.449   0.334
 9204TIP3    H127576   6.965   2.365   0.329
 9204TIP3    H227577   7.027   2.474   0.243
 9205TIP3   OH227578   6.106   5.785   3.309
 9205TIP3    H127579   6.118   5.743   3.224
 9205TIP3    H227580   6.108   5.712   3.371
 9206TIP3   OH227581   2.332   5.532   0.443
 9206TIP3    H127582   2.370   5.486   0.369
 9206TIP3    H227583   2.239   5.539   0.423
 9207TIP3   OH227584   7.104   3.149   5.076
 9207TIP3    H127585   7.018   3.166   5.037
 9207TIP3    H227586   7.164   3.146   5.001
 9208TIP3   OH227587   5.873   3.695   0.404
 9208TIP3    H127588   5.876   3.613   0.453
 9208TIP3    H227589   5.826   3.756   0.462
 9209TIP3   OH227590   7.064   2.227   3.932
 9209TIP3    H127591   7.074   2.321   3.948
 9209TIP3    H227592   7.154   2.195   3.929
 9210TIP3   OH227593   4.686   5.044   4.547
 9210TIP3    H127594   4.604   5.093   4.537
 9210TIP3    H227595   4.711   5.021   4.458
 9211TIP3   OH227596   5.293   3.941   1.258
 9211TIP3    H127597   5.314   3.873   1.195
 9211TIP3    H227598   5.331   3.910   1.340
 9212TIP3   OH227599   4.090   6.327   5.663
 9212TIP3    H127600   4.163   6.266   5.661
 9212TIP3    H227601   4.130   6.413   5.679
 9213TIP3   OH227602   3.294   2.794   0.423
 9213TIP3    H127603   3.237   2.765   0.351
 9213TIP3    H227604   3.235   2.841   0.482
 9214TIP3   OH227605   2.321   1.366   2.280
 9214TIP3    H127606   2.293   1.404   2.363
 9214TIP3    H227607   2.412   1.341   2.295
 9215TIP3   OH227608   3.885   0.180   0.848
 9215TIP3    H127609   3.879   0.240   0.921
 9215TIP3    H227610   3.796   0.174   0.814
 9216TIP3   OH227611   0.186   4.527   0.958
 9216TIP3    H127612   0.221   4.481   1.035
 9216TIP3    H227613   0.181   4.459   0.891
 9217TIP3   OH227614   3.680   5.425   2.321
 9217TIP3    H127615   3.749   5.448   2.259
 9217TIP3    H227616   3.602   5.468   2.287
 9218TIP3   OH227617   1.840   5.947   0.958
 9218TIP3    H127618   1.778   5.948   1.032
 9218TIP3    H227619   1.906   6.012   0.981
 9219TIP3   OH227620   1.670   2.084   3.441
 9219TIP3    H127621   1.598   2.076   3.504
 9219TIP3    H227622   1.734   2.140   3.485
 9220TIP3   OH227623   3.567   1.942   5.615
 9220TIP3    H127624   3.537   2.017   5.666
 9220TIP3    H227625   3.517   1.947   5.534
 9221TIP3   OH227626   5.004   3.950   4.681
 9221TIP3    H127627   5.090   3.949   4.722
 9221TIP3    H227628   4.943   3.961   4.753
 9222TIP3   OH227629   5.206   2.198   1.374
 9222TIP3    H127630   5.229   2.279   1.420
 9222TIP3    H227631   5.154   2.227   1.299
 9223TIP3   OH227632   5.249   3.555   1.506
 9223TIP3    H127633   5.214   3.475   1.466
 9223TIP3    H227634   5.181   3.584   1.567
 9224TIP3   OH227635   4.187   5.642   3.897
 9224TIP3    H127636   4.112   5.696   3.875
 9224TIP3    H227637   4.206   5.594   3.816
 9225TIP3   OH227638   5.989   0.173   5.574
 9225TIP3    H127639   6.015   0.204   5.661
 9225TIP3    H227640   5.895   0.156   5.583
 9226TIP3   OH227641   6.885   1.688   4.211
 9226TIP3    H127642   6.873   1.765   4.267
 9226TIP3    H227643   6.950   1.635   4.257
 9227TIP3   OH227644   5.330   0.757   0.643
 9227TIP3    H127645   5.357   0.687   0.583
 9227TIP3    H227646   5.377   0.738   0.724
 9228TIP3   OH227647   6.383   1.789   0.410
 9228TIP3    H127648   6.407   1.786   0.503
 9228TIP3    H227649   6.315   1.722   0.401
 9229TIP3   OH227650   5.406   6.774   4.673
 9229TIP3    H127651   5.336   6.749   4.613
 9229TIP3    H227652   5.413   6.700   4.734
 9230TIP3   OH227653   3.373   1.916   3.806
 9230TIP3    H127654   3.459   1.935   3.844
 9230TIP3    H227655   3.357   1.824   3.826
 9231TIP3   OH227656   6.065   3.531   2.731
 9231TIP3    H127657   5.970   3.530   2.736
 9231TIP3    H227658   6.088   3.445   2.694
 9232TIP3   OH227659   2.302   6.284   2.952
 9232TIP3    H127660   2.238   6.218   2.928
 9232TIP3    H227661   2.270   6.320   3.034
 9233TIP3   OH227662   1.155   3.363   3.781
 9233TIP3    H127663   1.063   3.338   3.794
 9233TIP3    H227664   1.164   3.371   3.686
 9234TIP3   OH227665   5.403   6.058   3.187
 9234TIP3    H127666   5.433   5.993   3.250
 9234TIP3    H227667   5.478   6.070   3.128
 9235TIP3   OH227668   7.021   3.666   2.157
 9235TIP3    H127669   6.928   3.671   2.179
 9235TIP3    H227670   7.033   3.579   2.120
 9236TIP3   OH227671   2.566   0.868   1.756
 9236TIP3    H127672   2.657   0.885   1.731
 9236TIP3    H227673   2.515   0.933   1.708
 9237TIP3   OH227674   7.108   5.899   5.008
 9237TIP3    H127675   7.174   5.928   5.072
 9237TIP3    H227676   7.159   5.853   4.941
 9238TIP3   OH227677   7.062   0.825   2.167
 9238TIP3    H127678   7.119   0.833   2.244
 9238TIP3    H227679   7.120   0.842   2.092
 9239TIP3   OH227680   5.810   3.749   5.881
 9239TIP3    H127681   5.845   3.724   5.795
 9239TIP3    H227682   5.776   3.667   5.917
 9240TIP3   OH227683   6.282   6.594   2.530
 9240TIP3    H127684   6.360   6.649   2.541
 9240TIP3    H227685   6.252   6.612   2.441
 9241TIP3   OH227686   3.614   1.185   0.774
 9241TIP3    H127687   3.575   1.100   0.795
 9241TIP3    H227688   3.705   1.164   0.750
 9242TIP3   OH227689   6.202   3.763   2.422
 9242TIP3    H127690   6.273   3.807   2.470
 9242TIP3    H227691   6.140   3.834   2.403
 9243TIP3   OH227692   4.186   4.445   0.460
 9243TIP3    H127693   4.198   4.529   0.504
 9243TIP3    H227694   4.215   4.380   0.523
 9244TIP3   OH227695   5.883   5.657   1.047
 9244TIP3    H127696   5.873   5.636   1.140
 9244TIP3    H227697   5.949   5.597   1.016
 9245TIP3   OH227698   2.223   3.230   5.746
 9245TIP3    H127699   2.218   3.140   5.714
 9245TIP3    H227700   2.246   3.222   5.839
 9246TIP3   OH227701   2.859   3.859   3.389
 9246TIP3    H127702   2.793   3.928   3.396
 9246TIP3    H227703   2.904   3.859   3.474
 9247TIP3   OH227704   0.269   2.426   4.990
 9247TIP3    H127705   0.334   2.434   4.920
 9247TIP3    H227706   0.188   2.457   4.952
 9248TIP3   OH227707   5.707   5.030   2.122
 9248TIP3    H127708   5.694   4.946   2.079
 9248TIP3    H227709   5.794   5.059   2.095
 9249TIP3   OH227710   5.005   3.173   5.736
 9249TIP3    H127711   5.059   3.252   5.725
 9249TIP3    H227712   5.068   3.101   5.739
 9250TIP3   OH227713   5.408   4.881   0.543
 9250TIP3    H127714   5.426   4.947   0.610
 9250TIP3    H227715   5.471   4.900   0.474
 9251TIP3   OH227716   3.435   2.697   4.932
 9251TIP3    H127717   3.382   2.776   4.923
 9251TIP3    H227718   3.417   2.647   4.853
 9252TIP3   OH227719   1.151   2.514   1.428
 9252TIP3    H127720   1.165   2.602   1.463
 9252TIP3    H227721   1.228   2.495   1.375
 9253TIP3   OH227722   0.865   3.248   2.537
 9253TIP3    H127723   0.860   3.339   2.509
 9253TIP3    H227724   0.893   3.200   2.458
 9254TIP3   OH227725   4.400   3.178   3.755
 9254TIP3    H127726   4.427   3.212   3.670
 9254TIP3    H227727   4.393   3.084   3.742
 9255TIP3   OH227728   5.202   1.756   4.544
 9255TIP3    H127729   5.248   1.679   4.577
 9255TIP3    H227730   5.258   1.788   4.473
 9256TIP3   OH227731   4.217   5.074   1.188
 9256TIP3    H127732   4.282   5.011   1.218
 9256TIP3    H227733   4.267   5.138   1.138
 9257TIP3   OH227734   1.254   3.099   0.816
 9257TIP3    H127735   1.176   3.152   0.830
 9257TIP3    H227736   1.268   3.102   0.722
 9258TIP3   OH227737   3.988   1.187   0.388
 9258TIP3    H127738   4.036   1.105   0.401
 9258TIP3    H227739   3.983   1.226   0.475
 9259TIP3   OH227740   3.847   4.153   1.125
 9259TIP3    H127741   3.784   4.212   1.167
 9259TIP3    H227742   3.923   4.208   1.108
 9260TIP3   OH227743   0.643   5.474   4.205
 9260TIP3    H127744   0.621   5.560   4.168
 9260TIP3    H227745   0.697   5.494   4.282
 9261TIP3   OH227746   1.612   4.928   5.038
 9261TIP3    H127747   1.612   4.837   5.067
 9261TIP3    H227748   1.563   4.976   5.105
 9262TIP3   OH227749   3.553   6.326   2.310
 9262TIP3    H127750   3.458   6.315   2.309
 9262TIP3    H227751   3.572   6.386   2.237
 9263TIP3   OH227752   2.003   5.091   0.638
 9263TIP3    H127753   2.092   5.082   0.604
 9263TIP3    H227754   1.957   5.141   0.571
 9264TIP3   OH227755  -0.022   6.070   4.265
 9264TIP3    H127756   0.010   5.999   4.211
 9264TIP3    H227757   0.017   6.149   4.227
 9265TIP3   OH227758   3.366   6.329   3.044
 9265TIP3    H127759   3.364   6.284   2.959
 9265TIP3    H227760   3.280   6.312   3.083
 9266TIP3   OH227761   5.194   2.436   3.279
 9266TIP3    H127762   5.271   2.484   3.310
 9266TIP3    H227763   5.210   2.345   3.305
 9267TIP3   OH227764   1.744   4.257  -0.009
 9267TIP3    H127765   1.659   4.300  -0.006
 9267TIP3    H227766   1.763   4.235   0.082
 9268TIP3   OH227767   2.504   0.593   0.250
 9268TIP3    H127768   2.529   0.551   0.332
 9268TIP3    H227769   2.422   0.551   0.225
 9269TIP3   OH227770   5.812   3.001   4.618
 9269TIP3    H127771   5.729   2.960   4.594
 9269TIP3    H227772   5.820   3.074   4.557
 9270TIP3   OH227773   0.034   2.852   2.727
 9270TIP3    H127774   0.009   2.895   2.645
 9270TIP3    H227775   0.129   2.861   2.730
 9271TIP3   OH227776   2.675   3.783   3.824
 9271TIP3    H127777   2.600   3.826   3.783
 9271TIP3    H227778   2.748   3.843   3.810
 9272TIP3   OH227779   6.126   0.652   3.098
 9272TIP3    H127780   6.205   0.623   3.143
 9272TIP3    H227781   6.055   0.634   3.160
 9273TIP3   OH227782   3.107   2.365   5.368
 9273TIP3    H127783   3.069   2.438   5.319
 9273TIP3    H227784   3.036   2.301   5.376
 9274TIP3   OH227785   1.764   6.073   5.755
 9274TIP3    H127786   1.775   5.995   5.808
 9274TIP3    H227787   1.757   6.145   5.818
 9275TIP3   OH227788   4.709   0.041   0.695
 9275TIP3    H127789   4.691   0.131   0.724
 9275TIP3    H227790   4.689   0.042   0.602
 9276TIP3   OH227791   0.213   1.032   4.121
 9276TIP3    H127792   0.303   1.001   4.135
 9276TIP3    H227793   0.217   1.126   4.134
 9277TIP3   OH227794   5.412   0.226   4.836
 9277TIP3    H127795   5.375   0.311   4.858
 9277TIP3    H227796   5.360   0.196   4.761
 9278TIP3   OH227797   3.120   1.102   5.221
 9278TIP3    H127798   3.097   1.138   5.135
 9278TIP3    H227799   3.127   1.008   5.206
 9279TIP3   OH227800   5.060   1.740   2.128
 9279TIP3    H127801   5.155   1.743   2.133
 9279TIP3    H227802   5.040   1.755   2.036
 9280TIP3   OH227803   4.717   5.676   5.270
 9280TIP3    H127804   4.763   5.746   5.224
 9280TIP3    H227805   4.671   5.629   5.200
 9281TIP3   OH227806   2.772   6.226   4.488
 9281TIP3    H127807   2.707   6.207   4.555
 9281TIP3    H227808   2.780   6.321   4.489
 9282TIP3   OH227809   6.888   1.114   5.051
 9282TIP3    H127810   6.815   1.065   5.089
 9282TIP3    H227811   6.926   1.054   4.987
 9283TIP3   OH227812   5.057   6.689   0.419
 9283TIP3    H127813   5.150   6.680   0.398
 9283TIP3    H227814   5.012   6.643   0.348
 9284TIP3   OH227815   5.654   3.654   3.346
 9284TIP3    H127816   5.616   3.682   3.429
 9284TIP3    H227817   5.715   3.584   3.370
 9285TIP3   OH227818   1.782   1.152   2.656
 9285TIP3    H127819   1.769   1.211   2.730
 9285TIP3    H227820   1.716   1.084   2.667
 9286TIP3   OH227821   6.144   0.467   5.135
 9286TIP3    H127822   6.083   0.393   5.137
 9286TIP3    H227823   6.205   0.446   5.064
 9287TIP3   OH227824   6.620   5.861   2.175
 9287TIP3    H127825   6.629   5.933   2.114
 9287TIP3    H227826   6.597   5.902   2.258
 9288TIP3   OH227827   6.040   4.915   2.216
 9288TIP3    H127828   6.092   4.902   2.137
 9288TIP3    H227829   5.965   4.857   2.204
 9289TIP3   OH227830   5.267   1.083   2.968
 9289TIP3    H127831   5.270   1.060   2.875
 9289TIP3    H227832   5.247   1.000   3.012
 9290TIP3   OH227833   0.640   5.642   3.384
 9290TIP3    H127834   0.622   5.553   3.416
 9290TIP3    H227835   0.699   5.629   3.309
 9291TIP3   OH227836   3.455   1.843   2.720
 9291TIP3    H127837   3.414   1.809   2.641
 9291TIP3    H227838   3.382   1.869   2.776
 9292TIP3   OH227839   3.134   2.022   3.926
 9292TIP3    H127840   3.083   1.950   3.889
 9292TIP3    H227841   3.223   2.006   3.897
 9293TIP3   OH227842   2.829   2.192   4.577
 9293TIP3    H127843   2.795   2.155   4.658
 9293TIP3    H227844   2.758   2.248   4.545
 9294TIP3   OH227845   3.238   2.327   4.344
 9294TIP3    H127846   3.309   2.311   4.406
 9294TIP3    H227847   3.226   2.244   4.299
 9295TIP3   OH227848   5.243   4.228   3.173
 9295TIP3    H127849   5.303   4.299   3.193
 9295TIP3    H227850   5.193   4.215   3.254
 9296TIP3   OH227851   0.516   1.844   1.678
 9296TIP3    H127852   0.551   1.866   1.592
 9296TIP3    H227853   0.565   1.898   1.739
 9297TIP3   OH227854   3.170   2.581   3.710
 9297TIP3    H127855   3.182   2.584   3.616
 9297TIP3    H227856   3.156   2.672   3.736
 9298TIP3   OH227857   1.477   2.569   5.489
 9298TIP3    H127858   1.560   2.528   5.515
 9298TIP3    H227859   1.504   2.638   5.428
 9299TIP3   OH227860   6.982   6.050   3.299
 9299TIP3    H127861   7.003   5.982   3.363
 9299TIP3    H227862   7.058   6.054   3.241
 9300TIP3   OH227863   0.408   2.014   2.436
 9300TIP3    H127864   0.412   1.936   2.492
 9300TIP3    H227865   0.399   1.979   2.347
 9301TIP3   OH227866   1.764   0.319   2.011
 9301TIP3    H127867   1.802   0.232   1.999
 9301TIP3    H227868   1.793   0.369   1.934
 9302TIP3   OH227869   6.756   2.192   4.394
 9302TIP3    H127870   6.806   2.162   4.470
 9302TIP3    H227871   6.821   2.197   4.324
 9303TIP3   OH227872   5.884   4.435   3.936
 9303TIP3    H127873   5.882   4.400   4.026
 9303TIP3    H227874   5.801   4.483   3.929
 9304TIP3   OH227875   0.675   3.859   2.625
 9304TIP3    H127876   0.697   3.938   2.576
 9304TIP3    H227877   0.616   3.811   2.566
 9305TIP3   OH227878   2.251   2.021   4.148
 9305TIP3    H127879   2.297   2.028   4.064
 9305TIP3    H227880   2.320   1.996   4.210
 9306TIP3   OH227881   6.169   4.748   3.720
 9306TIP3    H127882   6.104   4.717   3.657
 9306TIP3    H227883   6.225   4.673   3.736
 9307TIP3   OH227884   3.064   4.107   5.920
 9307TIP3    H127885   3.100   4.194   5.908
 9307TIP3    H227886   2.970   4.122   5.935
 9308TIP3   OH227887   5.493   4.264   5.115
 9308TIP3    H127888   5.469   4.182   5.158
 9308TIP3    H227889   5.535   4.237   5.033
 9309TIP3   OH227890   5.662   2.692   1.031
 9309TIP3    H127891   5.740   2.726   1.075
 9309TIP3    H227892   5.658   2.600   1.058
 9310TIP3   OH227893   6.604   6.521   0.626
 9310TIP3    H127894   6.645   6.568   0.699
 9310TIP3    H227895   6.542   6.584   0.590
 9311TIP3   OH227896   5.714   3.698   5.157
 9311TIP3    H127897   5.754   3.721   5.073
 9311TIP3    H227898   5.705   3.781   5.203
 9312TIP3   OH227899   5.522   1.617   4.970
 9312TIP3    H127900   5.544   1.595   4.880
 9312TIP3    H227901   5.428   1.635   4.968
 9313TIP3   OH227902   3.580   4.915   2.368
 9313TIP3    H127903   3.520   4.868   2.311
 9313TIP3    H227904   3.660   4.863   2.368
 9314TIP3   OH227905   1.310   4.549   0.378
 9314TIP3    H127906   1.361   4.477   0.341
 9314TIP3    H227907   1.341   4.557   0.468
 9315TIP3   OH227908   4.800   6.776   3.714
 9315TIP3    H127909   4.840   6.799   3.798
 9315TIP3    H227910   4.710   6.810   3.720
 9316TIP3   OH227911   5.027   3.618   1.701
 9316TIP3    H127912   4.950   3.577   1.741
 9316TIP3    H227913   5.015   3.711   1.717
 9317TIP3   OH227914   6.114   5.024   5.716
 9317TIP3    H127915   6.039   5.049   5.770
 9317TIP3    H227916   6.190   5.033   5.774
 9318TIP3   OH227917   5.127   2.726   4.214
 9318TIP3    H127918   5.175   2.739   4.132
 9318TIP3    H227919   5.159   2.795   4.272
 9319TIP3   OH227920   1.110   5.416   5.153
 9319TIP3    H127921   1.018   5.434   5.131
 9319TIP3    H227922   1.105   5.346   5.217
 9320TIP3   OH227923   4.361   6.369   3.372
 9320TIP3    H127924   4.422   6.356   3.300
 9320TIP3    H227925   4.274   6.368   3.332
 9321TIP3   OH227926   1.792   3.693   4.855
 9321TIP3    H127927   1.776   3.690   4.949
 9321TIP3    H227928   1.888   3.685   4.847
 9322TIP3   OH227929   5.905   4.077   4.764
 9322TIP3    H127930   5.871   4.162   4.792
 9322TIP3    H227931   5.933   4.034   4.845
 9323TIP3   OH227932   3.811   5.127   1.326
 9323TIP3    H127933   3.892   5.130   1.377
 9323TIP3    H227934   3.832   5.073   1.250
 9324TIP3   OH227935   5.923   0.391   2.794
 9324TIP3    H127936   5.971   0.343   2.728
 9324TIP3    H227937   5.969   0.475   2.801
 9325TIP3   OH227938   3.538   3.840   5.563
 9325TIP3    H127939   3.622   3.793   5.561
 9325TIP3    H227940   3.531   3.870   5.654
 9326TIP3   OH227941   3.897   3.823   0.943
 9326TIP3    H127942   3.976   3.852   0.897
 9326TIP3    H227943   3.907   3.855   1.032
 9327TIP3   OH227944   1.814   1.820   4.995
 9327TIP3    H127945   1.798   1.912   5.019
 9327TIP3    H227946   1.808   1.819   4.899
 9328TIP3   OH227947   2.496   5.750   0.440
 9328TIP3    H127948   2.569   5.688   0.448
 9328TIP3    H227949   2.424   5.698   0.406
 9329TIP3   OH227950   3.345   0.118   1.124
 9329TIP3    H127951   3.364   0.138   1.032
 9329TIP3    H227952   3.251   0.129   1.132
 9330TIP3   OH227953   3.809   1.614   0.906
 9330TIP3    H127954   3.718   1.632   0.884
 9330TIP3    H227955   3.845   1.571   0.828
 9331TIP3   OH227956   5.479   1.838   1.031
 9331TIP3    H127957   5.454   1.798   1.114
 9331TIP3    H227958   5.564   1.877   1.048
 9332TIP3   OH227959   2.457   5.591   4.190
 9332TIP3    H127960   2.464   5.680   4.223
 9332TIP3    H227961   2.522   5.585   4.120
 9333TIP3   OH227962   3.542   4.548   1.235
 9333TIP3    H127963   3.520   4.465   1.277
 9333TIP3    H227964   3.536   4.530   1.141
 9334TIP3   OH227965   2.282   0.053   2.512
 9334TIP3    H127966   2.249   0.110   2.581
 9334TIP3    H227967   2.217  -0.018   2.507
 9335TIP3   OH227968   3.430   0.678   5.467
 9335TIP3    H127969   3.434   0.715   5.379
 9335TIP3    H227970   3.496   0.726   5.516
 9336TIP3   OH227971   0.476   4.600   0.920
 9336TIP3    H127972   0.547   4.581   0.859
 9336TIP3    H227973   0.396   4.592   0.868
 9337TIP3   OH227974   0.449   2.866   4.364
 9337TIP3    H127975   0.361   2.837   4.340
 9337TIP3    H227976   0.498   2.785   4.378
 9338TIP3   OH227977   4.233   0.278   2.369
 9338TIP3    H127978   4.187   0.298   2.287
 9338TIP3    H227979   4.320   0.248   2.340
 9339TIP3   OH227980   6.946   5.077   3.355
 9339TIP3    H127981   6.897   5.144   3.307
 9339TIP3    H227982   6.895   4.997   3.343
 9340TIP3   OH227983   7.003   6.507   1.437
 9340TIP3    H127984   7.089   6.548   1.427
 9340TIP3    H227985   7.022   6.413   1.446
 9341TIP3   OH227986   3.395   0.851   3.373
 9341TIP3    H127987   3.307   0.871   3.344
 9341TIP3    H227988   3.448   0.854   3.293
 9342TIP3   OH227989   0.008   1.805   2.121
 9342TIP3    H127990   0.001   1.900   2.105
 9342TIP3    H227991   0.081   1.777   2.065
 9343TIP3   OH227992   7.027   6.570   3.103
 9343TIP3    H127993   7.066   6.639   3.157
 9343TIP3    H227994   6.943   6.552   3.144
 9344TIP3   OH227995   2.008   3.020   0.455
 9344TIP3    H127996   2.061   3.099   0.442
 9344TIP3    H227997   2.041   2.981   0.536
 9345TIP3   OH227998   3.644   1.560   0.503
 9345TIP3    H127999   3.591   1.508   0.563
 9345TIP3    H228000   3.731   1.560   0.542
 9346TIP3   OH228001   1.976   3.544   3.589
 9346TIP3    H128002   1.898   3.586   3.554
 9346TIP3    H228003   2.040   3.615   3.599
 9347TIP3   OH228004   6.597   4.180   5.613
 9347TIP3    H128005   6.681   4.134   5.623
 9347TIP3    H228006   6.566   4.193   5.702
 9348TIP3   OH228007   1.078   6.632   5.065
 9348TIP3    H128008   1.164   6.617   5.103
 9348TIP3    H228009   1.060   6.553   5.013
 9349TIP3   OH228010   6.863   0.644   5.187
 9349TIP3    H128011   6.815   0.697   5.251
 9349TIP3    H228012   6.831   0.674   5.102
 9350TIP3   OH228013   1.914   0.865   1.706
 9350TIP3    H128014   1.928   0.959   1.692
 9350TIP3    H228015   1.981   0.823   1.651
 9351TIP3   OH228016   3.006   6.722   1.711
 9351TIP3    H128017   3.037   6.698   1.623
 9351TIP3    H228018   3.007   6.640   1.760
 9352TIP3   OH228019   5.199   5.675   1.713
 9352TIP3    H128020   5.160   5.607   1.658
 9352TIP3    H228021   5.131   5.695   1.778
 9353TIP3   OH228022   5.649   0.290   2.150
 9353TIP3    H128023   5.635   0.235   2.227
 9353TIP3    H228024   5.595   0.252   2.082
 9354TIP3   OH228025   6.644   1.864   0.446
 9354TIP3    H128026   6.646   1.959   0.439
 9354TIP3    H228027   6.553   1.840   0.431
 9355TIP3   OH228028   6.554   4.052   0.882
 9355TIP3    H128029   6.474   4.052   0.935
 9355TIP3    H228030   6.570   3.959   0.861
 9356TIP3   OH228031   2.024   6.503   4.647
 9356TIP3    H128032   2.106   6.531   4.687
 9356TIP3    H228033   2.036   6.409   4.632
 9357TIP3   OH228034   4.329   1.200   5.796
 9357TIP3    H128035   4.297   1.141   5.864
 9357TIP3    H228036   4.379   1.266   5.844
 9358TIP3   OH228037   1.875   4.448   0.727
 9358TIP3    H128038   1.803   4.399   0.686
 9358TIP3    H228039   1.835   4.491   0.802
 9359TIP3   OH228040   4.491   1.880   3.950
 9359TIP3    H128041   4.531   1.794   3.941
 9359TIP3    H228042   4.398   1.862   3.964
 9360TIP3   OH228043   3.095   5.163   3.302
 9360TIP3    H128044   3.130   5.153   3.390
 9360TIP3    H228045   3.030   5.233   3.310
 9361TIP3   OH228046   4.492   5.396   3.208
 9361TIP3    H128047   4.481   5.305   3.234
 9361TIP3    H228048   4.476   5.397   3.114
 9362TIP3   OH228049   6.049   3.091   1.287
 9362TIP3    H128050   5.998   3.015   1.259
 9362TIP3    H228051   6.078   3.132   1.205
 9363TIP3   OH228052   3.497   3.756   3.214
 9363TIP3    H128053   3.448   3.838   3.211
 9363TIP3    H228054   3.589   3.783   3.202
 9364TIP3   OH228055   4.986   6.246   4.382
 9364TIP3    H128056   5.007   6.245   4.289
 9364TIP3    H228057   4.912   6.186   4.391
 9365TIP3   OH228058   5.360   6.357   0.960
 9365TIP3    H128059   5.324   6.441   0.934
 9365TIP3    H228060   5.407   6.375   1.041
 9366TIP3   OH228061   0.611   5.602   0.840
 9366TIP3    H128062   0.569   5.545   0.905
 9366TIP3    H228063   0.692   5.556   0.817
 9367TIP3   OH228064   3.596   2.089   2.650
 9367TIP3    H128065   3.593   1.998   2.677
 9367TIP3    H228066   3.520   2.100   2.593
 9368TIP3   OH228067   3.188   0.970   0.157
 9368TIP3    H128068   3.163   0.890   0.111
 9368TIP3    H228069   3.123   1.034   0.129
 9369TIP3   OH228070   5.373   4.837   2.661
 9369TIP3    H128071   5.321   4.764   2.627
 9369TIP3    H228072   5.426   4.798   2.731
 9370TIP3   OH228073   6.174   2.218   0.287
 9370TIP3    H128074   6.091   2.181   0.255
 9370TIP3    H228075   6.212   2.262   0.211
 9371TIP3   OH228076   2.936   2.063   4.380
 9371TIP3    H128077   2.852   2.024   4.359
 9371TIP3    H228078   2.915   2.133   4.443
 9372TIP3   OH228079   5.982   4.956   0.927
 9372TIP3    H128080   5.898   4.993   0.901
 9372TIP3    H228081   5.959   4.872   0.968
 9373TIP3   OH228082   3.173   4.357   5.880
 9373TIP3    H128083   3.267   4.370   5.892
 9373TIP3    H228084   3.163   4.341   5.786
 9374TIP3   OH228085   1.689   0.743   1.718
 9374TIP3    H128086   1.772   0.790   1.721
 9374TIP3    H228087   1.693   0.694   1.636
 9375TIP3   OH228088   0.325   4.148   2.888
 9375TIP3    H128089   0.325   4.103   2.972
 9375TIP3    H228090   0.309   4.239   2.909
 9376TIP3   OH228091   1.346   5.113   1.849
 9376TIP3    H128092   1.435   5.092   1.821
 9376TIP3    H228093   1.318   5.037   1.900
 9377TIP3   OH228094   4.754   5.912   1.692
 9377TIP3    H128095   4.721   5.887   1.605
 9377TIP3    H228096   4.764   6.007   1.688
 9378TIP3   OH228097   1.776   1.627   2.003
 9378TIP3    H128098   1.827   1.683   2.061
 9378TIP3    H228099   1.833   1.611   1.928
 9379TIP3   OH228100   6.433   6.191   3.935
 9379TIP3    H128101   6.413   6.260   3.871
 9379TIP3    H228102   6.490   6.131   3.888
 9380TIP3   OH228103   6.670   5.125   0.371
 9380TIP3    H128104   6.758   5.146   0.400
 9380TIP3    H228105   6.618   5.201   0.395
 9381TIP3   OH228106   3.044   2.435   3.269
 9381TIP3    H128107   3.031   2.341   3.280
 9381TIP3    H228108   2.956   2.470   3.257
 9382TIP3   OH228109   2.341   0.988   5.194
 9382TIP3    H128110   2.316   0.936   5.270
 9382TIP3    H228111   2.413   1.043   5.225
 9383TIP3   OH228112   6.984   1.561   2.971
 9383TIP3    H128113   6.900   1.514   2.970
 9383TIP3    H228114   6.983   1.612   2.890
 9384TIP3   OH228115   2.236   5.909   2.974
 9384TIP3    H128116   2.321   5.866   2.977
 9384TIP3    H228117   2.218   5.933   3.065
 9385TIP3   OH228118   3.583   4.330   4.847
 9385TIP3    H128119   3.544   4.270   4.784
 9385TIP3    H228120   3.675   4.335   4.822
 9386TIP3   OH228121   2.935   2.224   2.569
 9386TIP3    H128122   2.996   2.163   2.611
 9386TIP3    H228123   2.971   2.311   2.589
 9387TIP3   OH228124   1.918   5.991   4.605
 9387TIP3    H128125   1.976   6.067   4.594
 9387TIP3    H228126   1.970   5.930   4.657
 9388TIP3   OH228127   2.209   1.817   2.240
 9388TIP3    H128128   2.188   1.752   2.173
 9388TIP3    H228129   2.123   1.846   2.272
 9389TIP3   OH228130   3.433   3.380   4.965
 9389TIP3    H128131   3.443   3.346   5.054
 9389TIP3    H228132   3.338   3.380   4.951
 9390TIP3   OH228133   4.774   1.770   0.892
 9390TIP3    H128134   4.866   1.746   0.887
 9390TIP3    H228135   4.727   1.687   0.897
 9391TIP3   OH228136   2.982   3.895   4.633
 9391TIP3    H128137   3.001   3.980   4.672
 9391TIP3    H228138   3.066   3.866   4.598
 9392TIP3   OH228139   6.401   2.046   3.720
 9392TIP3    H128140   6.333   2.077   3.780
 9392TIP3    H228141   6.389   1.951   3.718
 9393TIP3   OH228142   1.448   4.825   1.277
 9393TIP3    H128143   1.360   4.860   1.293
 9393TIP3    H228144   1.507   4.898   1.295
 9394TIP3   OH228145   1.333   2.318   0.190
 9394TIP3    H128146   1.413   2.277   0.225
 9394TIP3    H228147   1.283   2.245   0.153
 9395TIP3   OH228148   3.102   1.026   3.248
 9395TIP3    H128149   3.122   1.025   3.342
 9395TIP3    H228150   3.187   1.033   3.205
 9396TIP3   OH228151   2.133   1.218   5.111
 9396TIP3    H128152   2.151   1.130   5.143
 9396TIP3    H228153   2.177   1.276   5.174
 9397TIP3   OH228154   6.977   0.963   5.618
 9397TIP3    H128155   6.885   0.937   5.608
 9397TIP3    H228156   7.027   0.889   5.583
 9398TIP3   OH228157   1.741   3.528   2.753
 9398TIP3    H128158   1.646   3.514   2.753
 9398TIP3    H228159   1.772   3.482   2.831
 9399TIP3   OH228160   6.970   5.307   2.980
 9399TIP3    H128161   6.999   5.337   2.894
 9399TIP3    H228162   6.982   5.213   2.978
 9400TIP3   OH228163   6.382   5.962   5.126
 9400TIP3    H128164   6.456   5.978   5.068
 9400TIP3    H228165   6.362   5.869   5.114
 9401TIP3   OH228166   3.107   5.688   2.725
 9401TIP3    H128167   3.015   5.661   2.733
 9401TIP3    H228168   3.142   5.633   2.656
 9402TIP3   OH228169   3.857   1.050   1.667
 9402TIP3    H128170   3.914   1.111   1.622
 9402TIP3    H228171   3.817   1.101   1.738
 9403TIP3   OH228172   1.020   3.946   5.697
 9403TIP3    H128173   1.065   4.002   5.761
 9403TIP3    H228174   0.976   4.008   5.639
 9404TIP3   OH228175   4.524   6.272   1.696
 9404TIP3    H128176   4.500   6.345   1.638
 9404TIP3    H228177   4.601   6.234   1.655
 9405TIP3   OH228178   2.634   3.338   3.726
 9405TIP3    H128179   2.618   3.304   3.813
 9405TIP3    H228180   2.611   3.431   3.732
 9406TIP3   OH228181   6.038   4.481   2.117
 9406TIP3    H128182   5.994   4.413   2.167
 9406TIP3    H228183   5.968   4.528   2.072
 9407TIP3   OH228184   3.648   0.032   5.604
 9407TIP3    H128185   3.557   0.062   5.602
 9407TIP3    H228186   3.661   0.002   5.694
 9408TIP3   OH228187   0.712   4.378   5.227
 9408TIP3    H128188   0.665   4.365   5.144
 9408TIP3    H228189   0.661   4.328   5.291
 9409TIP3   OH228190   1.865   4.462   0.293
 9409TIP3    H128191   1.874   4.509   0.209
 9409TIP3    H228192   1.895   4.525   0.359
 9410TIP3   OH228193   1.684   5.896   3.407
 9410TIP3    H128194   1.709   5.940   3.488
 9410TIP3    H228195   1.703   5.804   3.423
 9411TIP3   OH228196   0.343   4.691   2.619
 9411TIP3    H128197   0.256   4.652   2.630
 9411TIP3    H228198   0.345   4.720   2.528
 9412TIP3   OH228199   1.943   2.750   5.267
 9412TIP3    H128200   1.998   2.687   5.223
 9412TIP3    H228201   1.970   2.835   5.232
 9413TIP3   OH228202   1.216   1.311   4.206
 9413TIP3    H128203   1.157   1.317   4.281
 9413TIP3    H228204   1.274   1.238   4.226
 9414TIP3   OH228205   6.904   4.363   0.066
 9414TIP3    H128206   6.903   4.302  -0.007
 9414TIP3    H228207   6.821   4.350   0.110
 9415TIP3   OH228208   5.042   2.151   1.708
 9415TIP3    H128209   5.090   2.234   1.705
 9415TIP3    H228210   4.951   2.176   1.693
 9416TIP3   OH228211   0.331   1.308   2.176
 9416TIP3    H128212   0.415   1.337   2.141
 9416TIP3    H228213   0.324   1.353   2.261
 9417TIP3   OH228214   0.323   6.829   3.694
 9417TIP3    H128215   0.417   6.827   3.709
 9417TIP3    H228216   0.298   6.738   3.679
 9418TIP3   OH228217   4.976   5.624   0.468
 9418TIP3    H128218   4.884   5.606   0.447
 9418TIP3    H228219   5.007   5.545   0.512
 9419TIP3   OH228220   6.852   1.525   0.439
 9419TIP3    H128221   6.870   1.447   0.387
 9419TIP3    H228222   6.867   1.598   0.379
 9420TIP3   OH228223   3.206   5.790   0.733
 9420TIP3    H128224   3.160   5.850   0.675
 9420TIP3    H228225   3.298   5.795   0.705
 9421TIP3   OH228226   1.524   4.140   0.155
 9421TIP3    H128227   1.445   4.109   0.199
 9421TIP3    H228228   1.593   4.081   0.185
 9422TIP3   OH228229   2.068   1.692   1.998
 9422TIP3    H128230   2.106   1.711   1.912
 9422TIP3    H228231   2.082   1.598   2.011
 9423TIP3   OH228232   3.481   4.243   5.255
 9423TIP3    H128233   3.404   4.275   5.302
 9423TIP3    H228234   3.446   4.196   5.180
 9424TIP3   OH228235   7.099   1.897   3.068
 9424TIP3    H128236   7.112   1.824   3.128
 9424TIP3    H228237   7.017   1.878   3.023
 9425TIP3   OH228238   0.157   4.078   4.745
 9425TIP3    H128239   0.168   4.169   4.717
 9425TIP3    H228240   0.099   4.083   4.821
 9426TIP3   OH228241   3.644   2.867   0.093
 9426TIP3    H128242   3.557   2.876   0.131
 9426TIP3    H228243   3.665   2.774   0.104
 9427TIP3   OH228244   4.834   4.206   2.577
 9427TIP3    H128245   4.887   4.283   2.596
 9427TIP3    H228246   4.894   4.132   2.584
 9428TIP3   OH228247   0.829   0.894   3.308
 9428TIP3    H128248   0.823   0.921   3.400
 9428TIP3    H228249   0.807   0.801   3.309
 9429TIP3   OH228250   1.551   5.846   2.218
 9429TIP3    H128251   1.625   5.811   2.268
 9429TIP3    H228252   1.476   5.797   2.250
 9430TIP3   OH228253   3.445   5.322   3.727
 9430TIP3    H128254   3.473   5.259   3.660
 9430TIP3    H228255   3.509   5.393   3.721
 9431TIP3   OH228256   6.981   5.886   4.180
 9431TIP3    H128257   7.051   5.932   4.227
 9431TIP3    H228258   6.900   5.926   4.213
 9432TIP3   OH228259   2.964   2.966   1.189
 9432TIP3    H128260   2.989   2.989   1.279
 9432TIP3    H228261   3.020   2.892   1.167
 9433TIP3   OH228262   5.649   4.362   2.292
 9433TIP3    H128263   5.622   4.371   2.384
 9433TIP3    H228264   5.617   4.276   2.266
 9434TIP3   OH228265   5.591   5.590   4.389
 9434TIP3    H128266   5.538   5.513   4.370
 9434TIP3    H228267   5.577   5.607   4.482
 9435TIP3   OH228268   1.187   0.431   2.791
 9435TIP3    H128269   1.179   0.388   2.706
 9435TIP3    H228270   1.097   0.454   2.815
 9436TIP3   OH228271   5.481   3.687   5.939
 9436TIP3    H128272   5.397   3.669   5.898
 9436TIP3    H228273   5.488   3.622   6.009
 9437TIP3   OH228274   5.060   5.923   2.039
 9437TIP3    H128275   5.052   6.002   2.092
 9437TIP3    H228276   5.064   5.852   2.103
 9438TIP3   OH228277   6.016   1.977   4.187
 9438TIP3    H128278   5.928   1.959   4.217
 9438TIP3    H228279   6.051   1.892   4.161
 9439TIP3   OH228280   5.446   0.596   2.843
 9439TIP3    H128281   5.412   0.604   2.932
 9439TIP3    H228282   5.369   0.594   2.787
 9440TIP3   OH228283   2.011   2.832   4.589
 9440TIP3    H128284   1.930   2.883   4.583
 9440TIP3    H228285   2.034   2.813   4.498
 9441TIP3   OH228286   0.587   5.594   3.066
 9441TIP3    H128287   0.656   5.660   3.074
 9441TIP3    H228288   0.512   5.634   3.110
 9442TIP3   OH228289   6.670   2.730   4.560
 9442TIP3    H128290   6.682   2.710   4.653
 9442TIP3    H228291   6.757   2.719   4.522
 9443TIP3   OH228292   3.765   6.566   0.524
 9443TIP3    H128293   3.833   6.582   0.458
 9443TIP3    H228294   3.765   6.645   0.578
 9444TIP3   OH228295   6.729   0.431   0.788
 9444TIP3    H128296   6.761   0.521   0.795
 9444TIP3    H228297   6.793   0.388   0.731
 9445TIP3   OH228298   5.225   4.103   3.891
 9445TIP3    H128299   5.209   4.135   3.980
 9445TIP3    H228300   5.261   4.178   3.844
 9446TIP3   OH228301   6.081   2.912   2.902
 9446TIP3    H128302   6.108   2.844   2.964
 9446TIP3    H228303   5.991   2.934   2.928
 9447TIP3   OH228304   1.031   6.653   0.928
 9447TIP3    H128305   1.046   6.616   0.840
 9447TIP3    H228306   1.100   6.719   0.937
 9448TIP3   OH228307   2.417   4.634   4.898
 9448TIP3    H128308   2.371   4.615   4.816
 9448TIP3    H228309   2.461   4.718   4.881
 9449TIP3   OH228310   0.051   5.949   1.125
 9449TIP3    H128311   0.061   5.898   1.045
 9449TIP3    H228312  -0.020   6.010   1.105
 9450TIP3   OH228313   5.404   6.591   4.341
 9450TIP3    H128314   5.353   6.633   4.410
 9450TIP3    H228315   5.364   6.623   4.259
 9451TIP3   OH228316   6.445   3.467   1.823
 9451TIP3    H128317   6.388   3.431   1.891
 9451TIP3    H228318   6.408   3.553   1.803
 9452TIP3   OH228319   4.571   3.074   4.801
 9452TIP3    H128320   4.501   3.066   4.736
 9452TIP3    H228321   4.622   2.993   4.790
 9453TIP3   OH228322   6.466   1.853   1.199
 9453TIP3    H128323   6.390   1.797   1.183
 9453TIP3    H228324   6.528   1.795   1.243
 9454TIP3   OH228325   5.838   1.716   0.351
 9454TIP3    H128326   5.794   1.644   0.306
 9454TIP3    H228327   5.782   1.792   0.334
 9455TIP3   OH228328   3.367   4.177   1.071
 9455TIP3    H128329   3.284   4.186   1.119
 9455TIP3    H228330   3.340   4.159   0.981
 9456TIP3   OH228331   1.346   0.932   2.726
 9456TIP3    H128332   1.321   0.848   2.687
 9456TIP3    H228333   1.295   0.937   2.807
 9457TIP3   OH228334   0.125   3.297   2.404
 9457TIP3    H128335   0.032   3.303   2.382
 9457TIP3    H228336   0.140   3.204   2.420
 9458TIP3   OH228337   3.968   2.907   4.288
 9458TIP3    H128338   3.924   2.824   4.271
 9458TIP3    H228339   4.034   2.914   4.219
 9459TIP3   OH228340   3.612   5.331   4.869
 9459TIP3    H128341   3.628   5.333   4.774
 9459TIP3    H228342   3.539   5.391   4.882
 9460TIP3   OH228343   3.257   3.408   5.518
 9460TIP3    H128344   3.188   3.437   5.459
 9460TIP3    H228345   3.211   3.363   5.589
 9461TIP3   OH228346   4.982   3.909   1.958
 9461TIP3    H128347   5.065   3.910   1.910
 9461TIP3    H228348   4.920   3.950   1.898
 9462TIP3   OH228349   4.806   4.948   1.468
 9462TIP3    H128350   4.814   4.898   1.550
 9462TIP3    H228351   4.839   5.036   1.491
 9463TIP3   OH228352   2.342   1.687   3.820
 9463TIP3    H128353   2.369   1.732   3.900
 9463TIP3    H228354   2.358   1.750   3.750
 9464TIP3   OH228355   6.634   5.352   3.713
 9464TIP3    H128356   6.672   5.265   3.706
 9464TIP3    H228357   6.650   5.378   3.803
 9465TIP3   OH228358   0.519   1.738   1.948
 9465TIP3    H128359   0.503   1.747   1.854
 9465TIP3    H228360   0.614   1.753   1.957
 9466TIP3   OH228361   1.726   6.255   4.322
 9466TIP3    H128362   1.781   6.333   4.323
 9466TIP3    H228363   1.788   6.182   4.324
 9467TIP3   OH228364   6.455   6.199   2.328
 9467TIP3    H128365   6.360   6.214   2.331
 9467TIP3    H228366   6.466   6.111   2.366
 9468TIP3   OH228367   2.087   5.054   4.252
 9468TIP3    H128368   2.016   5.083   4.195
 9468TIP3    H228369   2.080   4.958   4.253
 9469TIP3   OH228370   5.732   5.887   1.038
 9469TIP3    H128371   5.792   5.812   1.037
 9469TIP3    H228372   5.783   5.959   1.001
 9470TIP3   OH228373   5.461   6.398   4.001
 9470TIP3    H128374   5.450   6.319   3.948
 9470TIP3    H228375   5.425   6.375   4.086
 9471TIP3   OH228376   5.076   6.351   1.995
 9471TIP3    H128377   5.111   6.392   1.916
 9471TIP3    H228378   5.150   6.306   2.034
 9472TIP3   OH228379   3.740   2.031   2.279
 9472TIP3    H128380   3.724   1.968   2.349
 9472TIP3    H228381   3.681   2.003   2.209
 9473TIP3   OH228382   2.411   3.573   3.810
 9473TIP3    H128383   2.378   3.505   3.869
 9473TIP3    H228384   2.447   3.639   3.869
 9474TIP3   OH228385   3.349   3.441   1.015
 9474TIP3    H128386   3.315   3.528   1.035
 9474TIP3    H228387   3.444   3.448   1.028
 9475TIP3   OH228388   7.178   3.751   4.740
 9475TIP3    H128389   7.119   3.827   4.745
 9475TIP3    H228390   7.144   3.691   4.807
 9476TIP3   OH228391   2.806   6.544   1.399
 9476TIP3    H128392   2.892   6.582   1.415
 9476TIP3    H228393   2.807   6.523   1.305
 9477TIP3   OH228394   6.749   4.793   5.875
 9477TIP3    H128395   6.835   4.833   5.877
 9477TIP3    H228396   6.695   4.855   5.826
 9478TIP3   OH228397   2.438   5.993   0.350
 9478TIP3    H128398   2.466   5.921   0.407
 9478TIP3    H228399   2.451   5.960   0.261
 9479TIP3   OH228400   4.722   0.654   2.703
 9479TIP3    H128401   4.790   0.589   2.686
 9479TIP3    H228402   4.699   0.641   2.795
 9480TIP3   OH228403   2.607   5.040   3.899
 9480TIP3    H128404   2.519   5.009   3.879
 9480TIP3    H228405   2.662   4.961   3.897
 9481TIP3   OH228406   6.422   6.699   4.313
 9481TIP3    H128407   6.335   6.679   4.346
 9481TIP3    H228408   6.442   6.629   4.251
 9482TIP3   OH228409   6.564   5.737   4.962
 9482TIP3    H128410   6.619   5.658   4.962
 9482TIP3    H228411   6.512   5.729   4.882
 9483TIP3   OH228412   3.221   6.715   5.418
 9483TIP3    H128413   3.222   6.809   5.399
 9483TIP3    H228414   3.314   6.692   5.427
 9484TIP3   OH228415   0.403   3.628   1.267
 9484TIP3    H128416   0.353   3.586   1.336
 9484TIP3    H228417   0.451   3.698   1.312
 9485TIP3   OH228418   2.354   2.156   4.754
 9485TIP3    H128419   2.259   2.159   4.766
 9485TIP3    H228420   2.390   2.166   4.842
 9486TIP3   OH228421   6.385   4.614   4.928
 9486TIP3    H128422   6.413   4.677   4.995
 9486TIP3    H228423   6.467   4.587   4.886
 9487TIP3   OH228424   6.985   1.663   2.720
 9487TIP3    H128425   6.981   1.569   2.703
 9487TIP3    H228426   6.992   1.704   2.634
 9488TIP3   OH228427   2.336   5.481   1.095
 9488TIP3    H128428   2.338   5.390   1.066
 9488TIP3    H228429   2.421   5.496   1.135
 9489TIP3   OH228430   2.274   1.950   0.346
 9489TIP3    H128431   2.357   1.939   0.392
 9489TIP3    H228432   2.254   2.044   0.355
 9490TIP3   OH228433   7.130   3.378   0.051
 9490TIP3    H128434   7.150   3.468   0.076
 9490TIP3    H228435   7.213   3.344   0.015
 9491TIP3   OH228436   3.413   1.597   5.197
 9491TIP3    H128437   3.320   1.580   5.181
 9491TIP3    H228438   3.418   1.615   5.290
 9492TIP3   OH228439   3.079   1.350   5.699
 9492TIP3    H128440   3.067   1.377   5.608
 9492TIP3    H228441   3.015   1.280   5.713
 9493TIP3   OH228442   3.085   3.677   5.672
 9493TIP3    H128443   3.096   3.607   5.737
 9493TIP3    H228444   3.148   3.744   5.698
 9494TIP3   OH228445   2.654   2.136   3.762
 9494TIP3    H128446   2.638   2.215   3.710
 9494TIP3    H228447   2.660   2.167   3.852
 9495TIP3   OH228448   5.970   3.334   1.413
 9495TIP3    H128449   6.009   3.260   1.366
 9495TIP3    H228450   6.010   3.331   1.500
 9496TIP3   OH228451   4.696   0.797   1.369
 9496TIP3    H128452   4.608   0.829   1.349
 9496TIP3    H228453   4.735   0.865   1.424
 9497TIP3   OH228454   1.894   2.522   2.736
 9497TIP3    H128455   1.824   2.467   2.700
 9497TIP3    H228456   1.847   2.592   2.781
 9498TIP3   OH228457   5.601   1.393   1.068
 9498TIP3    H128458   5.518   1.439   1.053
 9498TIP3    H228459   5.576   1.314   1.116
 9499TIP3   OH228460   1.294   4.255   3.577
 9499TIP3    H128461   1.238   4.207   3.516
 9499TIP3    H228462   1.246   4.336   3.595
 9500TIP3   OH228463   1.149   5.092   4.902
 9500TIP3    H128464   1.232   5.069   4.859
 9500TIP3    H228465   1.146   5.036   4.980
 9501TIP3   OH228466   5.999   2.260   3.333
 9501TIP3    H128467   6.091   2.254   3.309
 9501TIP3    H228468   5.978   2.353   3.327
 9502TIP3   OH228469   3.817   0.732   3.545
 9502TIP3    H128470   3.869   0.812   3.553
 9502TIP3    H228471   3.753   0.753   3.477
 9503TIP3   OH228472   3.034   4.087   2.120
 9503TIP3    H128473   2.989   4.152   2.066
 9503TIP3    H228474   3.032   4.124   2.208
 9504TIP3   OH228475   2.185   4.859   1.991
 9504TIP3    H128476   2.234   4.839   2.071
 9504TIP3    H228477   2.216   4.946   1.965
 9505TIP3   OH228478   3.673   0.386   2.119
 9505TIP3    H128479   3.680   0.310   2.060
 9505TIP3    H228480   3.647   0.348   2.203
 9506TIP3   OH228481   0.854   0.515   4.980
 9506TIP3    H128482   0.930   0.534   5.034
 9506TIP3    H228483   0.865   0.424   4.953
 9507TIP3   OH228484   2.916   1.613  -0.014
 9507TIP3    H128485   2.849   1.567  -0.066
 9507TIP3    H228486   2.994   1.611  -0.069
 9508TIP3   OH228487   1.306   0.650   2.706
 9508TIP3    H128488   1.341   0.612   2.625
 9508TIP3    H228489   1.250   0.581   2.743
 9509TIP3   OH228490   1.768   2.939   1.390
 9509TIP3    H128491   1.771   2.894   1.305
 9509TIP3    H228492   1.801   2.874   1.452
 9510TIP3   OH228493   1.069   0.922   3.177
 9510TIP3    H128494   1.087   0.829   3.163
 9510TIP3    H228495   0.978   0.925   3.208
 9511TIP3   OH228496   3.628   2.312   1.510
 9511TIP3    H128497   3.602   2.288   1.420
 9511TIP3    H228498   3.652   2.404   1.504
 9512TIP3   OH228499   2.235   4.791   1.281
 9512TIP3    H128500   2.314   4.827   1.240
 9512TIP3    H228501   2.163   4.821   1.225
 9513TIP3   OH228502   6.855   4.992   2.673
 9513TIP3    H128503   6.921   4.927   2.649
 9513TIP3    H228504   6.875   5.014   2.764
 9514TIP3   OH228505   0.063   0.193   0.348
 9514TIP3    H128506   0.039   0.284   0.332
 9514TIP3    H228507   0.158   0.192   0.350
 9515TIP3   OH228508   2.129   1.798   0.525
 9515TIP3    H128509   2.196   1.817   0.459
 9515TIP3    H228510   2.174   1.811   0.609
 9516TIP3   OH228511   3.642   1.976   0.800
 9516TIP3    H128512   3.735   1.961   0.816
 9516TIP3    H228513   3.619   1.913   0.731
 9517TIP3   OH228514   4.315   4.926   0.149
 9517TIP3    H128515   4.360   4.875   0.217
 9517TIP3    H228516   4.385   4.954   0.090
 9518TIP3   OH228517   0.524   0.146   2.641
 9518TIP3    H128518   0.603   0.092   2.645
 9518TIP3    H228519   0.468   0.111   2.711
 9519TIP3   OH228520   4.549   2.131   0.626
 9519TIP3    H128521   4.530   2.224   0.632
 9519TIP3    H228522   4.489   2.090   0.688
 9520TIP3   OH228523   2.659   4.057   5.312
 9520TIP3    H128524   2.590   4.096   5.258
 9520TIP3    H228525   2.728   4.034   5.250
 9521TIP3   OH228526   5.380   5.362   1.367
 9521TIP3    H128527   5.323   5.401   1.300
 9521TIP3    H228528   5.319   5.333   1.435
 9522TIP3   OH228529   6.724   0.892   4.268
 9522TIP3    H128530   6.669   0.873   4.344
 9522TIP3    H228531   6.674   0.958   4.219
 9523TIP3   OH228532   2.481   1.589   1.888
 9523TIP3    H128533   2.458   1.497   1.875
 9523TIP3    H228534   2.417   1.637   1.835
 9524TIP3   OH228535   2.667   6.342   2.063
 9524TIP3    H128536   2.696   6.425   2.101
 9524TIP3    H228537   2.580   6.327   2.101
 9525TIP3   OH228538   1.355   2.387   0.669
 9525TIP3    H128539   1.307   2.341   0.738
 9525TIP3    H228540   1.400   2.458   0.715
 9526TIP3   OH228541   4.019   0.321   4.237
 9526TIP3    H128542   3.980   0.387   4.295
 9526TIP3    H228543   3.945   0.280   4.193
 9527TIP3   OH228544   2.812   3.385   5.824
 9527TIP3    H128545   2.788   3.293   5.815
 9527TIP3    H228546   2.907   3.385   5.831
 9528TIP3   OH228547   4.226   3.625   1.533
 9528TIP3    H128548   4.277   3.678   1.595
 9528TIP3    H228549   4.250   3.535   1.555
 9529TIP3   OH228550   3.199   4.675   5.661
 9529TIP3    H128551   3.237   4.757   5.632
 9529TIP3    H228552   3.268   4.632   5.711
 9530TIP3   OH228553   3.003   6.078   4.711
 9530TIP3    H128554   2.985   6.057   4.620
 9530TIP3    H228555   3.099   6.077   4.718
 9531TIP3   OH228556   2.849   4.855   2.970
 9531TIP3    H128557   2.904   4.777   2.968
 9531TIP3    H228558   2.813   4.856   3.059
 9532TIP3   OH228559   5.555   4.409   2.534
 9532TIP3    H128560   5.462   4.431   2.526
 9532TIP3    H228561   5.595   4.487   2.572
 9533TIP3   OH228562   5.618   5.194   3.161
 9533TIP3    H128563   5.589   5.144   3.085
 9533TIP3    H228564   5.666   5.132   3.215
 9534TIP3   OH228565   3.127   0.267   3.579
 9534TIP3    H128566   3.093   0.192   3.531
 9534TIP3    H228567   3.081   0.266   3.663
 9535TIP3   OH228568   5.655   6.617   0.079
 9535TIP3    H128569   5.735   6.567   0.089
 9535TIP3    H228570   5.589   6.553   0.052
 9536TIP3   OH228571   4.343   0.896   5.708
 9536TIP3    H128572   4.409   0.932   5.649
 9536TIP3    H228573   4.269   0.956   5.701
 9537TIP3   OH228574   6.221   2.661   5.150
 9537TIP3    H128575   6.314   2.639   5.146
 9537TIP3    H228576   6.178   2.594   5.098
 9538TIP3   OH228577   2.735   1.830   3.188
 9538TIP3    H128578   2.666   1.858   3.128
 9538TIP3    H228579   2.728   1.889   3.262
 9539TIP3   OH228580   4.423   4.811   1.008
 9539TIP3    H128581   4.424   4.718   0.984
 9539TIP3    H228582   4.511   4.843   0.984
 9540TIP3   OH228583   0.566   4.803   2.824
 9540TIP3    H128584   0.523   4.869   2.879
 9540TIP3    H228585   0.495   4.760   2.778
 9541TIP3   OH228586   2.358   1.877   2.501
 9541TIP3    H128587   2.278   1.877   2.450
 9541TIP3    H228588   2.417   1.935   2.454
 9542TIP3   OH228589   5.932   5.003   3.214
 9542TIP3    H128590   5.923   5.081   3.269
 9542TIP3    H228591   6.008   4.957   3.248
 9543TIP3   OH228592   2.729   4.226   4.115
 9543TIP3    H128593   2.717   4.279   4.194
 9543TIP3    H228594   2.661   4.159   4.121
 9544TIP3   OH228595   2.544   4.401   5.421
 9544TIP3    H128596   2.625   4.407   5.370
 9544TIP3    H228597   2.534   4.489   5.459
 9545TIP3   OH228598   3.824   4.561   3.522
 9545TIP3    H128599   3.817   4.636   3.463
 9545TIP3    H228600   3.863   4.597   3.602
 9546TIP3   OH228601   6.024   0.608   5.757
 9546TIP3    H128602   6.035   0.631   5.665
 9546TIP3    H228603   5.930   0.615   5.773
 9547TIP3   OH228604   1.486   0.106   0.586
 9547TIP3    H128605   1.396   0.129   0.562
 9547TIP3    H228606   1.511   0.170   0.652
 9548TIP3   OH228607   1.783   4.250   4.399
 9548TIP3    H128608   1.714   4.296   4.447
 9548TIP3    H228609   1.770   4.158   4.419
 9549TIP3   OH228610   6.674   3.746   1.594
 9549TIP3    H128611   6.600   3.761   1.535
 9549TIP3    H228612   6.655   3.799   1.671
 9550TIP3   OH228613   4.002   1.419   4.947
 9550TIP3    H128614   3.912   1.415   4.980
 9550TIP3    H228615   4.018   1.333   4.909
 9551TIP3   OH228616   3.388   1.854   4.775
 9551TIP3    H128617   3.301   1.839   4.738
 9551TIP3    H228618   3.431   1.912   4.712
 9552TIP3   OH228619   4.162   0.243   4.789
 9552TIP3    H128620   4.250   0.282   4.788
 9552TIP3    H228621   4.176   0.152   4.813
 9553TIP3   OH228622   1.592   6.361   4.941
 9553TIP3    H128623   1.675   6.322   4.969
 9553TIP3    H228624   1.605   6.381   4.848
 9554TIP3   OH228625   5.538   2.420   1.685
 9554TIP3    H128626   5.543   2.476   1.763
 9554TIP3    H228627   5.612   2.361   1.694
 9555TIP3   OH228628   6.201   1.602   0.539
 9555TIP3    H128629   6.122   1.553   0.518
 9555TIP3    H228630   6.266   1.534   0.559
 9556TIP3   OH228631   1.735   6.044   5.058
 9556TIP3    H128632   1.725   6.018   5.149
 9556TIP3    H228633   1.799   6.115   5.061
 9557TIP3   OH228634   0.680   4.512   1.685
 9557TIP3    H128635   0.654   4.424   1.657
 9557TIP3    H228636   0.607   4.544   1.737
 9558TIP3   OH228637   3.581   3.875   2.502
 9558TIP3    H128638   3.555   3.950   2.449
 9558TIP3    H228639   3.547   3.894   2.590
 9559TIP3   OH228640   3.053   5.463   3.046
 9559TIP3    H128641   2.985   5.425   3.101
 9559TIP3    H228642   3.022   5.450   2.957
 9560TIP3   OH228643   1.822   6.597   2.745
 9560TIP3    H128644   1.872   6.629   2.670
 9560TIP3    H228645   1.852   6.508   2.759
 9561TIP3   OH228646   7.050   3.615   4.221
 9561TIP3    H128647   7.067   3.664   4.301
 9561TIP3    H228648   7.117   3.547   4.219
 9562TIP3   OH228649   4.697   6.506   5.506
 9562TIP3    H128650   4.670   6.437   5.445
 9562TIP3    H228651   4.615   6.537   5.544
 9563TIP3   OH228652   5.928   4.808   3.982
 9563TIP3    H128653   5.994   4.854   3.931
 9563TIP3    H228654   5.916   4.862   4.060
 9564TIP3   OH228655   1.183   6.303   0.123
 9564TIP3    H128656   1.263   6.267   0.084
 9564TIP3    H228657   1.163   6.242   0.195
 9565TIP3   OH228658   3.102   1.255   4.072
 9565TIP3    H128659   3.035   1.206   4.120
 9565TIP3    H228660   3.083   1.236   3.980
 9566TIP3   OH228661   2.144   4.251   5.574
 9566TIP3    H128662   2.069   4.221   5.523
 9566TIP3    H228663   2.105   4.301   5.646
 9567TIP3   OH228664   3.342   3.617   0.475
 9567TIP3    H128665   3.372   3.604   0.565
 9567TIP3    H228666   3.295   3.536   0.454
 9568TIP3   OH228667   0.136   1.888   5.655
 9568TIP3    H128668   0.157   1.797   5.634
 9568TIP3    H228669   0.043   1.897   5.634
 9569TIP3   OH228670   1.618   2.429   2.808
 9569TIP3    H128671   1.590   2.411   2.898
 9569TIP3    H228672   1.564   2.371   2.754
 9570TIP3   OH228673   0.919   3.507   4.064
 9570TIP3    H128674   0.881   3.566   3.999
 9570TIP3    H228675   0.844   3.463   4.104
 9571TIP3   OH228676   5.752   4.898   2.829
 9571TIP3    H128677   5.766   4.976   2.774
 9571TIP3    H228678   5.754   4.825   2.767
 9572TIP3   OH228679   2.281   4.684   3.606
 9572TIP3    H128680   2.217   4.639   3.661
 9572TIP3    H228681   2.229   4.717   3.532
 9573TIP3   OH228682   3.545   4.325   0.562
 9573TIP3    H128683   3.551   4.416   0.589
 9573TIP3    H228684   3.632   4.303   0.529
 9574TIP3   OH228685   3.072   6.421   2.658
 9574TIP3    H128686   2.986   6.399   2.623
 9574TIP3    H228687   3.097   6.344   2.710
 9575TIP3   OH228688   0.310   1.058   5.598
 9575TIP3    H128689   0.368   1.060   5.673
 9575TIP3    H228690   0.289   0.965   5.586
 9576TIP3   OH228691   3.889   5.845   2.064
 9576TIP3    H128692   3.905   5.759   2.104
 9576TIP3    H228693   3.793   5.852   2.061
 9577TIP3   OH228694   3.979   6.092   3.047
 9577TIP3    H128695   3.895   6.118   3.009
 9577TIP3    H228696   3.960   6.010   3.093
 9578TIP3   OH228697   4.920   6.369   2.228
 9578TIP3    H128698   4.968   6.388   2.147
 9578TIP3    H228699   4.874   6.450   2.248
 9579TIP3   OH228700   2.466   0.039   0.511
 9579TIP3    H128701   2.498   0.006   0.427
 9579TIP3    H228702   2.390   0.092   0.490
 9580TIP3   OH228703   0.052   6.833   5.333
 9580TIP3    H128704   0.062   6.741   5.309
 9580TIP3    H228705   0.141   6.863   5.352
 9581TIP3   OH228706   3.794   1.529   2.603
 9581TIP3    H128707   3.712   1.522   2.652
 9581TIP3    H228708   3.784   1.608   2.550
 9582TIP3   OH228709   6.063   1.144   0.569
 9582TIP3    H128710   6.022   1.144   0.483
 9582TIP3    H228711   5.995   1.176   0.628
 9583TIP3   OH228712   0.734   0.464   3.420
 9583TIP3    H128713   0.712   0.371   3.422
 9583TIP3    H228714   0.730   0.492   3.511
 9584TIP3   OH228715   2.117   2.237   4.252
 9584TIP3    H128716   2.171   2.165   4.218
 9584TIP3    H228717   2.047   2.193   4.300
 9585TIP3   OH228718   5.124   4.760   3.166
 9585TIP3    H128719   5.102   4.740   3.257
 9585TIP3    H228720   5.129   4.856   3.163
 9586TIP3   OH228721   6.199   3.237   1.053
 9586TIP3    H128722   6.212   3.331   1.037
 9586TIP3    H228723   6.135   3.211   0.986
 9587TIP3   OH228724   0.531   5.410   0.421
 9587TIP3    H128725   0.439   5.416   0.445
 9587TIP3    H228726   0.573   5.368   0.496
 9588TIP3   OH228727   6.744   2.906   0.474
 9588TIP3    H128728   6.773   2.836   0.415
 9588TIP3    H228729   6.662   2.937   0.435
 9589TIP3   OH228730   4.585   1.572   0.840
 9589TIP3    H128731   4.561   1.483   0.814
 9589TIP3    H228732   4.502   1.619   0.845
 9590TIP3   OH228733   4.485   1.975   4.378
 9590TIP3    H128734   4.410   1.970   4.318
 9590TIP3    H228735   4.446   1.993   4.463
 9591TIP3   OH228736   4.682   4.176   2.098
 9591TIP3    H128737   4.647   4.159   2.010
 9591TIP3    H228738   4.680   4.090   2.142
 9592TIP3   OH228739   0.403   5.049   4.982
 9592TIP3    H128740   0.328   5.108   4.971
 9592TIP3    H228741   0.474   5.106   5.013
 9593TIP3   OH228742   2.594   3.289   3.992
 9593TIP3    H128743   2.654   3.361   3.972
 9593TIP3    H228744   2.557   3.312   4.077
 9594TIP3   OH228745   5.416   3.547   3.238
 9594TIP3    H128746   5.491   3.602   3.261
 9594TIP3    H228747   5.339   3.598   3.261
 9595TIP3   OH228748   4.448   6.723   0.449
 9595TIP3    H128749   4.371   6.719   0.393
 9595TIP3    H228750   4.492   6.804   0.425
 9596TIP3   OH228751   1.557   6.237   0.517
 9596TIP3    H128752   1.620   6.165   0.516
 9596TIP3    H228753   1.497   6.215   0.589
 9597TIP3   OH228754   6.713   5.754   5.785
 9597TIP3    H128755   6.626   5.720   5.763
 9597TIP3    H228756   6.714   5.843   5.749
 9598TIP3   OH228757   6.830   1.388   3.429
 9598TIP3    H128758   6.802   1.310   3.478
 9598TIP3    H228759   6.780   1.384   3.347
 9599TIP3   OH228760   2.232   5.170   0.505
 9599TIP3    H128761   2.209   5.155   0.413
 9599TIP3    H228762   2.233   5.266   0.513
 9600TIP3   OH228763   6.864   3.482   3.198
 9600TIP3    H128764   6.865   3.416   3.267
 9600TIP3    H228765   6.774   3.483   3.167
 9601TIP3   OH228766   5.025   1.473   3.062
 9601TIP3    H128767   5.055   1.391   3.102
 9601TIP3    H228768   5.102   1.508   3.019
 9602TIP3   OH228769   2.969   0.587   5.574
 9602TIP3    H128770   2.953   0.549   5.660
 9602TIP3    H228771   3.063   0.602   5.571
 9603TIP3   OH228772   3.741   1.157   1.922
 9603TIP3    H128773   3.687   1.097   1.973
 9603TIP3    H228774   3.724   1.243   1.961
 9604TIP3   OH228775   2.689   6.222   2.385
 9604TIP3    H128776   2.636   6.145   2.365
 9604TIP3    H228777   2.763   6.217   2.325
 9605TIP3   OH228778   4.649   1.073   3.381
 9605TIP3    H128779   4.704   0.998   3.404
 9605TIP3    H228780   4.560   1.039   3.385
 9606TIP3   OH228781   6.760   2.959   2.854
 9606TIP3    H128782   6.815   2.922   2.785
 9606TIP3    H228783   6.778   3.053   2.851
 9607TIP3   OH228784   6.644   0.548   1.163
 9607TIP3    H128785   6.667   0.479   1.101
 9607TIP3    H228786   6.594   0.504   1.231
 9608TIP3   OH228787   1.265   5.602   5.811
 9608TIP3    H128788   1.340   5.608   5.870
 9608TIP3    H228789   1.214   5.529   5.844
 9609TIP3   OH228790   1.980   4.053   5.221
 9609TIP3    H128791   2.074   4.032   5.216
 9609TIP3    H228792   1.959   4.047   5.314
 9610TIP3   OH228793   1.861   2.780   3.570
 9610TIP3    H128794   1.936   2.825   3.609
 9610TIP3    H228795   1.839   2.832   3.493
 9611TIP3   OH228796   1.092   3.776   5.249
 9611TIP3    H128797   1.183   3.767   5.279
 9611TIP3    H228798   1.097   3.834   5.173
 9612TIP3   OH228799   6.974   1.282   5.273
 9612TIP3    H128800   6.942   1.249   5.189
 9612TIP3    H228801   7.029   1.212   5.307
 9613TIP3   OH228802   1.393   2.522   3.464
 9613TIP3    H128803   1.321   2.541   3.404
 9613TIP3    H228804   1.470   2.520   3.409
 9614TIP3   OH228805   3.540   0.893   4.826
 9614TIP3    H128806   3.505   0.865   4.742
 9614TIP3    H228807   3.563   0.811   4.871
 9615TIP3   OH228808   7.216   5.803   3.305
 9615TIP3    H128809   7.181   5.717   3.329
 9615TIP3    H228810   7.243   5.793   3.214
 9616TIP3   OH228811   6.039   5.639   1.885
 9616TIP3    H128812   5.982   5.612   1.813
 9616TIP3    H228813   6.016   5.730   1.901
 9617TIP3   OH228814   4.719   6.818   5.073
 9617TIP3    H128815   4.724   6.747   5.009
 9617TIP3    H228816   4.703   6.773   5.156
 9618TIP3   OH228817   6.896   6.101   5.501
 9618TIP3    H128818   6.804   6.112   5.480
 9618TIP3    H228819   6.900   6.022   5.555
 9619TIP3   OH228820   3.379   2.863   1.164
 9619TIP3    H128821   3.351   2.804   1.094
 9619TIP3    H228822   3.357   2.950   1.132
 9620TIP3   OH228823   0.166   3.910   4.453
 9620TIP3    H128824   0.127   3.995   4.437
 9620TIP3    H228825   0.168   3.902   4.549
 9621TIP3   OH228826   5.541   6.604   4.852
 9621TIP3    H128827   5.597   6.580   4.778
 9621TIP3    H228828   5.578   6.556   4.926
 9622TIP3   OH228829   4.664   6.122   5.138
 9622TIP3    H128830   4.690   6.064   5.210
 9622TIP3    H228831   4.706   6.205   5.157
 9623TIP3   OH228832   6.495   1.797   4.320
 9623TIP3    H128833   6.571   1.845   4.352
 9623TIP3    H228834   6.428   1.865   4.306
 9624TIP3   OH228835   3.271   2.158   5.262
 9624TIP3    H128836   3.227   2.235   5.297
 9624TIP3    H228837   3.226   2.140   5.179
 9625TIP3   OH228838   4.933   1.224   2.890
 9625TIP3    H128839   4.994   1.291   2.858
 9625TIP3    H228840   4.846   1.263   2.878
 9626TIP3   OH228841   3.917   0.152   0.060
 9626TIP3    H128842   3.829   0.143   0.024
 9626TIP3    H228843   3.968   0.084   0.017
 9627TIP3   OH228844   5.935   6.331   2.516
 9627TIP3    H128845   6.026   6.350   2.542
 9627TIP3    H228846   5.882   6.373   2.584
 9628TIP3   OH228847   2.082   3.108   4.006
 9628TIP3    H128848   2.064   3.140   4.095
 9628TIP3    H228849   1.999   3.073   3.976
 9629TIP3   OH228850   2.992   2.583   5.237
 9629TIP3    H128851   2.913   2.583   5.183
 9629TIP3    H228852   3.064   2.570   5.175
 9630TIP3   OH228853   4.437   5.567   4.236
 9630TIP3    H128854   4.526   5.572   4.200
 9630TIP3    H228855   4.423   5.474   4.252
 9631TIP3   OH228856   6.788   0.083   2.874
 9631TIP3    H128857   6.740   0.039   2.804
 9631TIP3    H228858   6.761   0.037   2.954
 9632TIP3   OH228859   0.889   5.872   5.671
 9632TIP3    H128860   0.933   5.913   5.596
 9632TIP3    H228861   0.817   5.931   5.692
 9633TIP3   OH228862   1.443   4.999   3.496
 9633TIP3    H128863   1.527   4.961   3.522
 9633TIP3    H228864   1.448   5.090   3.525
 9634TIP3   OH228865   1.438   0.796   1.305
 9634TIP3    H128866   1.381   0.864   1.268
 9634TIP3    H228867   1.520   0.842   1.324
 9635TIP3   OH228868   4.293   1.740   3.377
 9635TIP3    H128869   4.373   1.691   3.397
 9635TIP3    H228870   4.255   1.695   3.302
 9636TIP3   OH228871   0.854   5.168   0.352
 9636TIP3    H128872   0.837   5.243   0.296
 9636TIP3    H228873   0.811   5.095   0.309
 9637TIP3   OH228874   0.699   0.856   4.725
 9637TIP3    H128875   0.635   0.801   4.771
 9637TIP3    H228876   0.780   0.806   4.727
 9638TIP3   OH228877   1.592   0.065   1.074
 9638TIP3    H128878   1.552   0.027   0.996
 9638TIP3    H228879   1.601   0.158   1.055
 9639TIP3   OH228880   1.195   4.802   2.435
 9639TIP3    H128881   1.184   4.719   2.389
 9639TIP3    H228882   1.289   4.809   2.450
 9640TIP3   OH228883   2.790   3.094   3.737
 9640TIP3    H128884   2.728   3.022   3.745
 9640TIP3    H228885   2.778   3.126   3.647
 9641TIP3   OH228886   0.636   0.207   0.224
 9641TIP3    H128887   0.660   0.115   0.229
 9641TIP3    H228888   0.704   0.253   0.273
 9642TIP3   OH228889   0.691   3.700   4.239
 9642TIP3    H128890   0.636   3.729   4.166
 9642TIP3    H228891   0.644   3.626   4.276
 9643TIP3   OH228892   2.664   6.078   5.100
 9643TIP3    H128893   2.747   6.033   5.118
 9643TIP3    H228894   2.628   6.032   5.025
 9644TIP3   OH228895   6.619   5.534   4.305
 9644TIP3    H128896   6.668   5.455   4.331
 9644TIP3    H228897   6.643   5.547   4.213
 9645TIP3   OH228898   1.421   1.286   5.764
 9645TIP3    H128899   1.358   1.254   5.699
 9645TIP3    H228900   1.461   1.207   5.798
 9646TIP3   OH228901   3.396   5.178   4.647
 9646TIP3    H128902   3.430   5.116   4.712
 9646TIP3    H228903   3.339   5.125   4.591
 9647TIP3   OH228904   5.904   1.676   3.288
 9647TIP3    H128905   5.842   1.640   3.351
 9647TIP3    H228906   5.864   1.657   3.202
 9648TIP3   OH228907   6.712   2.826   2.497
 9648TIP3    H128908   6.685   2.917   2.506
 9648TIP3    H228909   6.780   2.814   2.563
 9649TIP3   OH228910   2.058   2.351   3.778
 9649TIP3    H128911   1.987   2.398   3.735
 9649TIP3    H228912   2.057   2.382   3.869
 9650TIP3   OH228913   0.151   0.874   3.880
 9650TIP3    H128914   0.185   0.934   3.813
 9650TIP3    H228915   0.137   0.930   3.956
 9651TIP3   OH228916   2.155   2.700   4.401
 9651TIP3    H128917   2.164   2.664   4.312
 9651TIP3    H228918   2.221   2.769   4.406
 9652TIP3   OH228919   0.944   2.319   0.063
 9652TIP3    H128920   1.000   2.385   0.103
 9652TIP3    H228921   0.917   2.263   0.136
 9653TIP3   OH228922   6.519   0.547   3.721
 9653TIP3    H128923   6.598   0.529   3.772
 9653TIP3    H228924   6.459   0.588   3.784
 9654TIP3   OH228925   6.184   3.940   5.321
 9654TIP3    H128926   6.260   3.992   5.347
 9654TIP3    H228927   6.221   3.858   5.290
 9655TIP3   OH228928   3.249   6.223   4.487
 9655TIP3    H128929   3.199   6.279   4.428
 9655TIP3    H228930   3.341   6.245   4.470
 9656TIP3   OH228931   2.261   0.848   3.277
 9656TIP3    H128932   2.167   0.867   3.278
 9656TIP3    H228933   2.284   0.844   3.184
 9657TIP3   OH228934   4.599   1.711   2.634
 9657TIP3    H128935   4.553   1.638   2.592
 9657TIP3    H228936   4.682   1.717   2.586
 9658TIP3   OH228937   3.847   3.941   4.396
 9658TIP3    H128938   3.771   3.956   4.451
 9658TIP3    H228939   3.812   3.934   4.307
 9659TIP3   OH228940   0.157   0.437   4.590
 9659TIP3    H128941   0.080   0.493   4.585
 9659TIP3    H228942   0.125   0.352   4.618
 9660TIP3   OH228943   4.424   0.964   0.503
 9660TIP3    H128944   4.392   1.021   0.433
 9660TIP3    H228945   4.501   0.921   0.466
 9661TIP3   OH228946   1.897   6.468   1.588
 9661TIP3    H128947   1.969   6.408   1.567
 9661TIP3    H228948   1.926   6.514   1.666
 9662TIP3   OH228949   2.769   3.182   5.061
 9662TIP3    H128950   2.811   3.158   5.144
 9662TIP3    H228951   2.679   3.202   5.084
 9663TIP3   OH228952   2.648   3.585   0.050
 9663TIP3    H128953   2.714   3.615   0.112
 9663TIP3    H228954   2.659   3.641  -0.027
 9664TIP3   OH228955   4.142   1.451   3.613
 9664TIP3    H128956   4.216   1.397   3.640
 9664TIP3    H228957   4.102   1.480   3.695
 9665TIP3   OH228958   5.319   3.418   4.893
 9665TIP3    H128959   5.376   3.491   4.918
 9665TIP3    H228960   5.354   3.343   4.941
 9666TIP3   OH228961   7.043   0.709   3.531
 9666TIP3    H128962   7.039   0.696   3.436
 9666TIP3    H228963   6.955   0.684   3.561
 9667TIP3   OH228964   5.396   6.671   3.216
 9667TIP3    H128965   5.318   6.697   3.168
 9667TIP3    H228966   5.369   6.669   3.308
 9668TIP3   OH228967   3.312   3.752   2.233
 9668TIP3    H128968   3.375   3.809   2.189
 9668TIP3    H228969   3.261   3.714   2.162
 9669TIP3   OH228970   1.818   2.331   2.002
 9669TIP3    H128971   1.895   2.384   2.023
 9669TIP3    H228972   1.748   2.395   1.986
 9670TIP3   OH228973   3.252   0.476   1.478
 9670TIP3    H128974   3.181   0.493   1.539
 9670TIP3    H228975   3.332   0.491   1.529
 9671TIP3   OH228976   0.670   4.556   2.332
 9671TIP3    H128977   0.683   4.569   2.238
 9671TIP3    H228978   0.634   4.467   2.339
 9672TIP3   OH228979   4.222   4.657   3.827
 9672TIP3    H128980   4.297   4.635   3.772
 9672TIP3    H228981   4.212   4.752   3.818
 9673TIP3   OH228982   5.714   4.604   3.209
 9673TIP3    H128983   5.783   4.571   3.267
 9673TIP3    H228984   5.750   4.684   3.171
 9674TIP3   OH228985   5.686   0.591   5.048
 9674TIP3    H128986   5.624   0.525   5.080
 9674TIP3    H228987   5.742   0.610   5.123
 9675TIP3   OH228988   5.440   3.300   5.187
 9675TIP3    H128989   5.451   3.329   5.277
 9675TIP3    H228990   5.444   3.205   5.191
 9676TIP3   OH228991   6.820   5.839   1.390
 9676TIP3    H128992   6.903   5.876   1.421
 9676TIP3    H228993   6.784   5.793   1.466
 9677TIP3   OH228994   6.001   2.085   1.291
 9677TIP3    H128995   5.927   2.050   1.341
 9677TIP3    H228996   6.071   2.021   1.304
 9678TIP3   OH228997   1.738   0.338   4.399
 9678TIP3    H128998   1.832   0.338   4.384
 9678TIP3    H228999   1.700   0.354   4.313
 9679TIP3   OH229000   1.461   4.559   1.340
 9679TIP3    H129001   1.541   4.542   1.388
 9679TIP3    H229002   1.466   4.652   1.316
 9680TIP3   OH229003   6.732   1.552   3.999
 9680TIP3    H129004   6.749   1.458   3.996
 9680TIP3    H229005   6.798   1.586   4.060
 9681TIP3   OH229006   0.388   3.560   0.603
 9681TIP3    H129007   0.383   3.467   0.581
 9681TIP3    H229008   0.461   3.594   0.551
 9682TIP3   OH229009   5.882   0.983   3.469
 9682TIP3    H129010   5.952   1.040   3.437
 9682TIP3    H229011   5.801   1.029   3.447
 9683TIP3   OH229012   1.717   2.779   2.343
 9683TIP3    H129013   1.800   2.753   2.382
 9683TIP3    H229014   1.739   2.854   2.287
 9684TIP3   OH229015   6.939   0.192   0.089
 9684TIP3    H129016   7.031   0.182   0.065
 9684TIP3    H229017   6.896   0.117   0.049
 9685TIP3   OH229018   0.800   4.445   1.017
 9685TIP3    H129019   0.848   4.424   1.096
 9685TIP3    H229020   0.779   4.360   0.978
 9686TIP3   OH229021   4.609   2.741   1.254
 9686TIP3    H129022   4.675   2.710   1.316
 9686TIP3    H229023   4.633   2.832   1.237
 9687TIP3   OH229024   0.293   3.756   0.771
 9687TIP3    H129025   0.240   3.677   0.762
 9687TIP3    H229026   0.293   3.775   0.865
 9688TIP3   OH229027   2.913   5.065   5.055
 9688TIP3    H129028   2.916   5.124   5.130
 9688TIP3    H229029   2.953   5.114   4.983
 9689TIP3   OH229030   5.306   1.313   2.539
 9689TIP3    H129031   5.284   1.255   2.466
 9689TIP3    H229032   5.318   1.399   2.500
 9690TIP3   OH229033   0.401   5.101   1.172
 9690TIP3    H129034   0.405   5.005   1.179
 9690TIP3    H229035   0.418   5.119   1.080
 9691TIP3   OH229036   4.905   6.309   4.731
 9691TIP3    H129037   4.874   6.236   4.678
 9691TIP3    H229038   4.827   6.341   4.777
 9692TIP3   OH229039   0.385   6.717   2.333
 9692TIP3    H129040   0.300   6.721   2.290
 9692TIP3    H229041   0.442   6.673   2.270
 9693TIP3   OH229042   2.394   4.028   0.380
 9693TIP3    H129043   2.374   4.122   0.384
 9693TIP3    H229044   2.486   4.023   0.404
 9694TIP3   OH229045   3.054   3.089   3.881
 9694TIP3    H129046   2.973   3.121   3.842
 9694TIP3    H229047   3.120   3.153   3.856
 9695TIP3   OH229048   5.720   6.472   5.782
 9695TIP3    H129049   5.649   6.526   5.817
 9695TIP3    H229050   5.725   6.397   5.841
 9696TIP3   OH229051   0.245   2.901   5.679
 9696TIP3    H129052   0.320   2.842   5.684
 9696TIP3    H229053   0.271   2.979   5.729
 9697TIP3   OH229054   4.645   0.886   2.008
 9697TIP3    H129055   4.720   0.879   2.067
 9697TIP3    H229056   4.619   0.795   1.991
 9698TIP3   OH229057   5.828   0.094   4.729
 9698TIP3    H129058   5.791   0.128   4.648
 9698TIP3    H229059   5.752   0.073   4.784
 9699TIP3   OH229060   1.601   4.596   3.960
 9699TIP3    H129061   1.661   4.543   3.907
 9699TIP3    H229062   1.527   4.537   3.976
 9700TIP3   OH229063   0.580   4.830   4.915
 9700TIP3    H129064   0.541   4.820   4.829
 9700TIP3    H229065   0.525   4.895   4.959
 9701TIP3   OH229066   2.055   1.676   3.846
 9701TIP3    H129067   2.039   1.638   3.933
 9701TIP3    H229068   2.150   1.681   3.839
 9702TIP3   OH229069   0.576   6.088   3.879
 9702TIP3    H129070   0.542   6.173   3.851
 9702TIP3    H229071   0.513   6.057   3.944
 9703TIP3   OH229072   2.554   0.283   5.595
 9703TIP3    H129073   2.491   0.352   5.613
 9703TIP3    H229074   2.597   0.311   5.514
 9704TIP3   OH229075   3.470   2.693   2.833
 9704TIP3    H129076   3.441   2.727   2.749
 9704TIP3    H229077   3.538   2.755   2.861
 9705TIP3   OH229078   1.662   3.621   2.272
 9705TIP3    H129079   1.601   3.619   2.199
 9705TIP3    H229080   1.749   3.625   2.231
 9706TIP3   OH229081   5.635   5.823   4.223
 9706TIP3    H129082   5.632   5.812   4.128
 9706TIP3    H229083   5.605   5.740   4.258
 9707TIP3   OH229084   1.874   4.768   2.405
 9707TIP3    H129085   1.868   4.689   2.458
 9707TIP3    H229086   1.929   4.743   2.330
 9708TIP3   OH229087   5.857   6.009   2.353
 9708TIP3    H129088   5.850   5.915   2.372
 9708TIP3    H229089   5.885   6.048   2.435
 9709TIP3   OH229090   0.142   3.577   0.454
 9709TIP3    H129091   0.184   3.506   0.407
 9709TIP3    H229092   0.189   3.583   0.536
 9710TIP3   OH229093   6.927   2.108   2.853
 9710TIP3    H129094   6.971   2.161   2.919
 9710TIP3    H229095   6.880   2.041   2.903
 9711TIP3   OH229096   0.407   3.261   0.077
 9711TIP3    H129097   0.349   3.319   0.029
 9711TIP3    H229098   0.445   3.316   0.145
 9712TIP3   OH229099   5.246   2.591   5.751
 9712TIP3    H129100   5.203   2.519   5.797
 9712TIP3    H229101   5.179   2.625   5.692
 9713TIP3   OH229102   3.455   3.014   2.697
 9713TIP3    H129103   3.447   3.095   2.648
 9713TIP3    H229104   3.381   2.960   2.667
 9714TIP3   OH229105   0.134   6.432   0.559
 9714TIP3    H129106   0.183   6.452   0.479
 9714TIP3    H229107   0.097   6.345   0.543
 9715TIP3   OH229108   3.594   6.156   0.935
 9715TIP3    H129109   3.529   6.156   1.005
 9715TIP3    H229110   3.546   6.122   0.859
 9716TIP3   OH229111   3.830   3.821   5.603
 9716TIP3    H129112   3.913   3.843   5.645
 9716TIP3    H229113   3.802   3.902   5.561
 9717TIP3   OH229114   1.027   1.203   2.799
 9717TIP3    H129115   1.062   1.284   2.762
 9717TIP3    H229116   0.937   1.199   2.767
 9718TIP3   OH229117   0.060   3.781   5.456
 9718TIP3    H129118   0.131   3.827   5.500
 9718TIP3    H229119   0.034   3.840   5.385
 9719TIP3   OH229120   4.739   1.656   0.111
 9719TIP3    H129121   4.683   1.593   0.157
 9719TIP3    H229122   4.748   1.729   0.173
 9720TIP3   OH229123   3.887   2.213   2.652
 9720TIP3    H129124   3.898   2.210   2.557
 9720TIP3    H229125   3.976   2.225   2.686
 9721TIP3   OH229126   0.618   4.348   4.984
 9721TIP3    H129127   0.609   4.417   4.918
 9721TIP3    H229128   0.653   4.274   4.935
 9722TIP3   OH229129   6.510   3.641   2.361
 9722TIP3    H129130   6.465   3.714   2.403
 9722TIP3    H229131   6.512   3.573   2.428
 9723TIP3   OH229132   1.594   3.635   4.014
 9723TIP3    H129133   1.508   3.634   4.056
 9723TIP3    H229134   1.637   3.555   4.045
 9724TIP3   OH229135   6.514   0.365   1.595
 9724TIP3    H129136   6.545   0.419   1.668
 9724TIP3    H229137   6.480   0.286   1.637
 9725TIP3   OH229138   3.677   1.545   3.064
 9725TIP3    H129139   3.700   1.636   3.047
 9725TIP3    H229140   3.692   1.533   3.157
 9726TIP3   OH229141   3.151   1.326   4.366
 9726TIP3    H129142   3.146   1.233   4.344
 9726TIP3    H229143   3.116   1.371   4.289
 9727TIP3   OH229144   3.709   1.715   5.679
 9727TIP3    H129145   3.660   1.796   5.668
 9727TIP3    H229146   3.793   1.743   5.716
 9728TIP3   OH229147   1.137   0.673   3.048
 9728TIP3    H129148   1.059   0.627   3.016
 9728TIP3    H229149   1.152   0.742   2.984
 9729TIP3   OH229150   3.596   5.196   3.494
 9729TIP3    H129151   3.626   5.221   3.581
 9729TIP3    H229152   3.588   5.278   3.446
 9730TIP3   OH229153   2.451   1.062   4.100
 9730TIP3    H129154   2.546   1.068   4.094
 9730TIP3    H229155   2.420   1.102   4.018
 9731TIP3   OH229156   3.487   5.904   5.688
 9731TIP3    H129157   3.494   5.902   5.783
 9731TIP3    H229158   3.542   5.831   5.658
 9732TIP3   OH229159   1.259   3.419   5.217
 9732TIP3    H129160   1.165   3.425   5.232
 9732TIP3    H229161   1.273   3.467   5.135
 9733TIP3   OH229162   4.053   2.819   2.506
 9733TIP3    H129163   4.004   2.850   2.429
 9733TIP3    H229164   3.996   2.840   2.580
 9734TIP3   OH229165   6.717   1.938   1.714
 9734TIP3    H129166   6.663   1.989   1.652
 9734TIP3    H229167   6.756   2.004   1.771
 9735TIP3   OH229168   2.144   2.379   3.512
 9735TIP3    H129169   2.105   2.340   3.590
 9735TIP3    H229170   2.231   2.339   3.506
 9736TIP3   OH229171   6.927   6.237   5.175
 9736TIP3    H129172   6.842   6.197   5.196
 9736TIP3    H229173   6.916   6.273   5.087
 9737TIP3   OH229174   2.464   5.074   4.364
 9737TIP3    H129175   2.473   5.123   4.282
 9737TIP3    H229176   2.535   5.010   4.361
 9738TIP3   OH229177   1.228   4.779   1.817
 9738TIP3    H129178   1.200   4.814   1.901
 9738TIP3    H229179   1.297   4.716   1.838
 9739TIP3   OH229180   1.705   0.967   4.516
 9739TIP3    H129181   1.656   0.960   4.598
 9739TIP3    H229182   1.721   0.876   4.490
 9740TIP3   OH229183   1.652   6.194   2.738
 9740TIP3    H129184   1.614   6.273   2.700
 9740TIP3    H229185   1.725   6.172   2.680
 9741TIP3   OH229186   0.698   2.449   4.810
 9741TIP3    H129187   0.759   2.430   4.738
 9741TIP3    H229188   0.747   2.426   4.889
 9742TIP3   OH229189   4.362   3.197   0.751
 9742TIP3    H129190   4.356   3.226   0.842
 9742TIP3    H229191   4.454   3.173   0.739
 9743TIP3   OH229192   0.100   0.355   2.648
 9743TIP3    H129193   0.027   0.401   2.688
 9743TIP3    H229194   0.066   0.268   2.627
 9744TIP3   OH229195   2.530   6.496   4.845
 9744TIP3    H129196   2.469   6.556   4.887
 9744TIP3    H229197   2.604   6.551   4.817
 9745TIP3   OH229198   5.614   2.728   1.496
 9745TIP3    H129199   5.658   2.717   1.580
 9745TIP3    H229200   5.560   2.807   1.507
 9746TIP3   OH229201   3.657   2.889   0.841
 9746TIP3    H129202   3.648   2.951   0.914
 9746TIP3    H229203   3.737   2.915   0.797
 9747TIP3   OH229204   6.222   3.728   5.634
 9747TIP3    H129205   6.299   3.773   5.669
 9747TIP3    H229206   6.256   3.644   5.602
 9748TIP3   OH229207   0.297   4.798   5.034
 9748TIP3    H129208   0.234   4.834   5.097
 9748TIP3    H229209   0.337   4.875   4.993
 9749TIP3   OH229210   4.662   4.512   0.758
 9749TIP3    H129211   4.704   4.486   0.676
 9749TIP3    H229212   4.729   4.495   0.825
   7.21492   6.80230   5.89095   0.00000   0.00000  -2.40498   0.00000  -2.40498  -3.40114
