PSF EXT CMAP XPLOR

         3 !NTITLE
* GENERATED BY CHARMM-GUI (HTTP://WWW.CHARMM-GUI.ORG) V3.7 ON JUN, 17. 2026. JOB
* READ PDB, MANIPULATE STRUCTURE IF NEEDED, AND GENERATE TOPOLOGY FILE          
*  DATE:     6/17/26     23: 4:52      CREATED BY USER: charmm-gui              

       159 !NATOM
         1 PROA     1        GLY      N        NH3     -0.300000       14.0070           0
         2 PROA     1        GLY      HT1      HC       0.330000       1.00800           0
         3 PROA     1        GLY      HT2      HC       0.330000       1.00800           0
         4 PROA     1        GLY      HT3      HC       0.330000       1.00800           0
         5 PROA     1        GLY      CA       CT2      0.130000       12.0110           0
         6 PROA     1        GLY      HA1      HB2      0.900000E-01   1.00800           0
         7 PROA     1        GLY      HA2      HB2      0.900000E-01   1.00800           0
         8 PROA     1        GLY      C        C        0.510000       12.0110           0
         9 PROA     1        GLY      O        O       -0.510000       15.9994           0
        10 PROA     2        PRO      N        N       -0.290000       14.0070           0
        11 PROA     2        PRO      CD       CP3       0.00000       12.0110           0
        12 PROA     2        PRO      HD1      HA2      0.900000E-01   1.00800           0
        13 PROA     2        PRO      HD2      HA2      0.900000E-01   1.00800           0
        14 PROA     2        PRO      CA       CP1      0.200000E-01   12.0110           0
        15 PROA     2        PRO      HA       HB1      0.900000E-01   1.00800           0
        16 PROA     2        PRO      CB       CP2     -0.180000       12.0110           0
        17 PROA     2        PRO      HB1      HA2      0.900000E-01   1.00800           0
        18 PROA     2        PRO      HB2      HA2      0.900000E-01   1.00800           0
        19 PROA     2        PRO      CG       CP2     -0.180000       12.0110           0
        20 PROA     2        PRO      HG1      HA2      0.900000E-01   1.00800           0
        21 PROA     2        PRO      HG2      HA2      0.900000E-01   1.00800           0
        22 PROA     2        PRO      C        C        0.510000       12.0110           0
        23 PROA     2        PRO      O        O       -0.510000       15.9994           0
        24 PROA     3        GLY      N        NH1     -0.470000       14.0070           0
        25 PROA     3        GLY      HN       H        0.310000       1.00800           0
        26 PROA     3        GLY      CA       CT2     -0.200000E-01   12.0110           0
        27 PROA     3        GLY      HA1      HB2      0.900000E-01   1.00800           0
        28 PROA     3        GLY      HA2      HB2      0.900000E-01   1.00800           0
        29 PROA     3        GLY      C        C        0.510000       12.0110           0
        30 PROA     3        GLY      O        O       -0.510000       15.9994           0
        31 PROA     4        ALA      N        NH1     -0.470000       14.0070           0
        32 PROA     4        ALA      HN       H        0.310000       1.00800           0
        33 PROA     4        ALA      CA       CT1      0.700000E-01   12.0110           0
        34 PROA     4        ALA      HA       HB1      0.900000E-01   1.00800           0
        35 PROA     4        ALA      CB       CT3     -0.270000       12.0110           0
        36 PROA     4        ALA      HB1      HA3      0.900000E-01   1.00800           0
        37 PROA     4        ALA      HB2      HA3      0.900000E-01   1.00800           0
        38 PROA     4        ALA      HB3      HA3      0.900000E-01   1.00800           0
        39 PROA     4        ALA      C        C        0.510000       12.0110           0
        40 PROA     4        ALA      O        O       -0.510000       15.9994           0
        41 PROA     5        PRO      N        N       -0.290000       14.0070           0
        42 PROA     5        PRO      CD       CP3       0.00000       12.0110           0
        43 PROA     5        PRO      HD1      HA2      0.900000E-01   1.00800           0
        44 PROA     5        PRO      HD2      HA2      0.900000E-01   1.00800           0
        45 PROA     5        PRO      CA       CP1      0.200000E-01   12.0110           0
        46 PROA     5        PRO      HA       HB1      0.900000E-01   1.00800           0
        47 PROA     5        PRO      CB       CP2     -0.180000       12.0110           0
        48 PROA     5        PRO      HB1      HA2      0.900000E-01   1.00800           0
        49 PROA     5        PRO      HB2      HA2      0.900000E-01   1.00800           0
        50 PROA     5        PRO      CG       CP2     -0.180000       12.0110           0
        51 PROA     5        PRO      HG1      HA2      0.900000E-01   1.00800           0
        52 PROA     5        PRO      HG2      HA2      0.900000E-01   1.00800           0
        53 PROA     5        PRO      C        C        0.510000       12.0110           0
        54 PROA     5        PRO      O        O       -0.510000       15.9994           0
        55 PROA     6        GLY      N        NH1     -0.470000       14.0070           0
        56 PROA     6        GLY      HN       H        0.310000       1.00800           0
        57 PROA     6        GLY      CA       CT2     -0.200000E-01   12.0110           0
        58 PROA     6        GLY      HA1      HB2      0.900000E-01   1.00800           0
        59 PROA     6        GLY      HA2      HB2      0.900000E-01   1.00800           0
        60 PROA     6        GLY      C        C        0.510000       12.0110           0
        61 PROA     6        GLY      O        O       -0.510000       15.9994           0
        62 PROA     7        PRO      N        N       -0.290000       14.0070           0
        63 PROA     7        PRO      CD       CP3       0.00000       12.0110           0
        64 PROA     7        PRO      HD1      HA2      0.900000E-01   1.00800           0
        65 PROA     7        PRO      HD2      HA2      0.900000E-01   1.00800           0
        66 PROA     7        PRO      CA       CP1      0.200000E-01   12.0110           0
        67 PROA     7        PRO      HA       HB1      0.900000E-01   1.00800           0
        68 PROA     7        PRO      CB       CP2     -0.180000       12.0110           0
        69 PROA     7        PRO      HB1      HA2      0.900000E-01   1.00800           0
        70 PROA     7        PRO      HB2      HA2      0.900000E-01   1.00800           0
        71 PROA     7        PRO      CG       CP2     -0.180000       12.0110           0
        72 PROA     7        PRO      HG1      HA2      0.900000E-01   1.00800           0
        73 PROA     7        PRO      HG2      HA2      0.900000E-01   1.00800           0
        74 PROA     7        PRO      C        C        0.510000       12.0110           0
        75 PROA     7        PRO      O        O       -0.510000       15.9994           0
        76 PROA     8        GLY      N        NH1     -0.470000       14.0070           0
        77 PROA     8        GLY      HN       H        0.310000       1.00800           0
        78 PROA     8        GLY      CA       CT2     -0.200000E-01   12.0110           0
        79 PROA     8        GLY      HA1      HB2      0.900000E-01   1.00800           0
        80 PROA     8        GLY      HA2      HB2      0.900000E-01   1.00800           0
        81 PROA     8        GLY      C        C        0.510000       12.0110           0
        82 PROA     8        GLY      O        O       -0.510000       15.9994           0
        83 PROA     9        ALA      N        NH1     -0.470000       14.0070           0
        84 PROA     9        ALA      HN       H        0.310000       1.00800           0
        85 PROA     9        ALA      CA       CT1      0.700000E-01   12.0110           0
        86 PROA     9        ALA      HA       HB1      0.900000E-01   1.00800           0
        87 PROA     9        ALA      CB       CT3     -0.270000       12.0110           0
        88 PROA     9        ALA      HB1      HA3      0.900000E-01   1.00800           0
        89 PROA     9        ALA      HB2      HA3      0.900000E-01   1.00800           0
        90 PROA     9        ALA      HB3      HA3      0.900000E-01   1.00800           0
        91 PROA     9        ALA      C        C        0.510000       12.0110           0
        92 PROA     9        ALA      O        O       -0.510000       15.9994           0
        93 PROA     10       PRO      N        N       -0.290000       14.0070           0
        94 PROA     10       PRO      CD       CP3       0.00000       12.0110           0
        95 PROA     10       PRO      HD1      HA2      0.900000E-01   1.00800           0
        96 PROA     10       PRO      HD2      HA2      0.900000E-01   1.00800           0
        97 PROA     10       PRO      CA       CP1      0.200000E-01   12.0110           0
        98 PROA     10       PRO      HA       HB1      0.900000E-01   1.00800           0
        99 PROA     10       PRO      CB       CP2     -0.180000       12.0110           0
       100 PROA     10       PRO      HB1      HA2      0.900000E-01   1.00800           0
       101 PROA     10       PRO      HB2      HA2      0.900000E-01   1.00800           0
       102 PROA     10       PRO      CG       CP2     -0.180000       12.0110           0
       103 PROA     10       PRO      HG1      HA2      0.900000E-01   1.00800           0
       104 PROA     10       PRO      HG2      HA2      0.900000E-01   1.00800           0
       105 PROA     10       PRO      C        C        0.510000       12.0110           0
       106 PROA     10       PRO      O        O       -0.510000       15.9994           0
       107 PROA     11       GLY      N        NH1     -0.470000       14.0070           0
       108 PROA     11       GLY      HN       H        0.310000       1.00800           0
       109 PROA     11       GLY      CA       CT2     -0.200000E-01   12.0110           0
       110 PROA     11       GLY      HA1      HB2      0.900000E-01   1.00800           0
       111 PROA     11       GLY      HA2      HB2      0.900000E-01   1.00800           0
       112 PROA     11       GLY      C        C        0.510000       12.0110           0
       113 PROA     11       GLY      O        O       -0.510000       15.9994           0
       114 PROA     12       PRO      N        N       -0.290000       14.0070           0
       115 PROA     12       PRO      CD       CP3       0.00000       12.0110           0
       116 PROA     12       PRO      HD1      HA2      0.900000E-01   1.00800           0
       117 PROA     12       PRO      HD2      HA2      0.900000E-01   1.00800           0
       118 PROA     12       PRO      CA       CP1      0.200000E-01   12.0110           0
       119 PROA     12       PRO      HA       HB1      0.900000E-01   1.00800           0
       120 PROA     12       PRO      CB       CP2     -0.180000       12.0110           0
       121 PROA     12       PRO      HB1      HA2      0.900000E-01   1.00800           0
       122 PROA     12       PRO      HB2      HA2      0.900000E-01   1.00800           0
       123 PROA     12       PRO      CG       CP2     -0.180000       12.0110           0
       124 PROA     12       PRO      HG1      HA2      0.900000E-01   1.00800           0
       125 PROA     12       PRO      HG2      HA2      0.900000E-01   1.00800           0
       126 PROA     12       PRO      C        C        0.510000       12.0110           0
       127 PROA     12       PRO      O        O       -0.510000       15.9994           0
       128 PROA     13       GLY      N        NH1     -0.470000       14.0070           0
       129 PROA     13       GLY      HN       H        0.310000       1.00800           0
       130 PROA     13       GLY      CA       CT2     -0.200000E-01   12.0110           0
       131 PROA     13       GLY      HA1      HB2      0.900000E-01   1.00800           0
       132 PROA     13       GLY      HA2      HB2      0.900000E-01   1.00800           0
       133 PROA     13       GLY      C        C        0.510000       12.0110           0
       134 PROA     13       GLY      O        O       -0.510000       15.9994           0
       135 PROA     14       ALA      N        NH1     -0.470000       14.0070           0
       136 PROA     14       ALA      HN       H        0.310000       1.00800           0
       137 PROA     14       ALA      CA       CT1      0.700000E-01   12.0110           0
       138 PROA     14       ALA      HA       HB1      0.900000E-01   1.00800           0
       139 PROA     14       ALA      CB       CT3     -0.270000       12.0110           0
       140 PROA     14       ALA      HB1      HA3      0.900000E-01   1.00800           0
       141 PROA     14       ALA      HB2      HA3      0.900000E-01   1.00800           0
       142 PROA     14       ALA      HB3      HA3      0.900000E-01   1.00800           0
       143 PROA     14       ALA      C        C        0.510000       12.0110           0
       144 PROA     14       ALA      O        O       -0.510000       15.9994           0
       145 PROA     15       PRO      N        N       -0.290000       14.0070           0
       146 PROA     15       PRO      CD       CP3       0.00000       12.0110           0
       147 PROA     15       PRO      HD1      HA2      0.900000E-01   1.00800           0
       148 PROA     15       PRO      HD2      HA2      0.900000E-01   1.00800           0
       149 PROA     15       PRO      CA       CP1      0.200000E-01   12.0110           0
       150 PROA     15       PRO      HA       HB1      0.900000E-01   1.00800           0
       151 PROA     15       PRO      CB       CP2     -0.180000       12.0110           0
       152 PROA     15       PRO      HB1      HA2      0.900000E-01   1.00800           0
       153 PROA     15       PRO      HB2      HA2      0.900000E-01   1.00800           0
       154 PROA     15       PRO      CG       CP2     -0.180000       12.0110           0
       155 PROA     15       PRO      HG1      HA2      0.900000E-01   1.00800           0
       156 PROA     15       PRO      HG2      HA2      0.900000E-01   1.00800           0
       157 PROA     15       PRO      C        CC       0.340000       12.0110           0
       158 PROA     15       PRO      OT1      OC      -0.670000       15.9994           0
       159 PROA     15       PRO      OT2      OC      -0.670000       15.9994           0

       164 !NBOND: bonds
         2         1         3         1         4         1         1         5
         8         5         8        10         5         6         5         7
         9         8        22        14        22        24        10        14
        14        16        16        19        19        11        10        11
        15        14        20        19        21        19        12        11
        13        11        17        16        18        16        23        22
        24        25        24        26        29        26        29        31
        26        27        26        28        30        29        35        33
        31        32        31        33        39        33        39        41
        33        34        35        36        35        37        35        38
        40        39        53        45        53        55        41        45
        45        47        47        50        50        42        41        42
        46        45        51        50        52        50        43        42
        44        42        48        47        49        47        54        53
        55        56        55        57        60        57        60        62
        57        58        57        59        61        60        74        66
        74        76        62        66        66        68        68        71
        71        63        62        63        67        66        72        71
        73        71        64        63        65        63        69        68
        70        68        75        74        76        77        76        78
        81        78        81        83        78        79        78        80
        82        81        87        85        83        84        83        85
        91        85        91        93        85        86        87        88
        87        89        87        90        92        91       105        97
       105       107        93        97        97        99        99       102
       102        94        93        94        98        97       103       102
       104       102        95        94        96        94       100        99
       101        99       106       105       107       108       107       109
       112       109       112       114       109       110       109       111
       113       112       126       118       126       128       114       118
       118       120       120       123       123       115       114       115
       119       118       124       123       125       123       116       115
       117       115       121       120       122       120       127       126
       128       129       128       130       133       130       133       135
       130       131       130       132       134       133       139       137
       135       136       135       137       143       137       143       145
       137       138       139       140       139       141       139       142
       144       143       157       149       145       149       149       151
       151       154       154       146       145       146       150       149
       155       154       156       154       147       146       148       146
       152       151       153       151       157       159       157       158

       309 !NTHETA: angles
         2         1         3         2         1         4         2         1         5
         3         1         4         3         1         5         4         1         5
         1         5         6         1         5         7         1         5         8
         6         5         7         6         5         8         7         5         8
         5         8         9         5         8        10         9         8        10
         8        10        11         8        10        14        11        10        14
        10        11        12        10        11        13        10        11        19
        12        11        13        12        11        19        13        11        19
        10        14        15        10        14        16        10        14        22
        15        14        16        15        14        22        16        14        22
        14        16        17        14        16        18        14        16        19
        17        16        18        17        16        19        18        16        19
        11        19        16        11        19        20        11        19        21
        16        19        20        16        19        21        20        19        21
        14        22        23        14        22        24        23        22        24
        22        24        25        22        24        26        25        24        26
        24        26        27        24        26        28        24        26        29
        27        26        28        27        26        29        28        26        29
        26        29        30        26        29        31        30        29        31
        29        31        32        29        31        33        32        31        33
        31        33        34        31        33        35        31        33        39
        34        33        35        34        33        39        35        33        39
        33        35        36        33        35        37        33        35        38
        36        35        37        36        35        38        37        35        38
        33        39        40        33        39        41        40        39        41
        39        41        42        39        41        45        42        41        45
        41        42        43        41        42        44        41        42        50
        43        42        44        43        42        50        44        42        50
        41        45        46        41        45        47        41        45        53
        46        45        47        46        45        53        47        45        53
        45        47        48        45        47        49        45        47        50
        48        47        49        48        47        50        49        47        50
        42        50        47        42        50        51        42        50        52
        47        50        51        47        50        52        51        50        52
        45        53        54        45        53        55        54        53        55
        53        55        56        53        55        57        56        55        57
        55        57        58        55        57        59        55        57        60
        58        57        59        58        57        60        59        57        60
        57        60        61        57        60        62        61        60        62
        60        62        63        60        62        66        63        62        66
        62        63        64        62        63        65        62        63        71
        64        63        65        64        63        71        65        63        71
        62        66        67        62        66        68        62        66        74
        67        66        68        67        66        74        68        66        74
        66        68        69        66        68        70        66        68        71
        69        68        70        69        68        71        70        68        71
        63        71        68        63        71        72        63        71        73
        68        71        72        68        71        73        72        71        73
        66        74        75        66        74        76        75        74        76
        74        76        77        74        76        78        77        76        78
        76        78        79        76        78        80        76        78        81
        79        78        80        79        78        81        80        78        81
        78        81        82        78        81        83        82        81        83
        81        83        84        81        83        85        84        83        85
        83        85        86        83        85        87        83        85        91
        86        85        87        86        85        91        87        85        91
        85        87        88        85        87        89        85        87        90
        88        87        89        88        87        90        89        87        90
        85        91        92        85        91        93        92        91        93
        91        93        94        91        93        97        94        93        97
        93        94        95        93        94        96        93        94       102
        95        94        96        95        94       102        96        94       102
        93        97        98        93        97        99        93        97       105
        98        97        99        98        97       105        99        97       105
        97        99       100        97        99       101        97        99       102
       100        99       101       100        99       102       101        99       102
        94       102        99        94       102       103        94       102       104
        99       102       103        99       102       104       103       102       104
        97       105       106        97       105       107       106       105       107
       105       107       108       105       107       109       108       107       109
       107       109       110       107       109       111       107       109       112
       110       109       111       110       109       112       111       109       112
       109       112       113       109       112       114       113       112       114
       112       114       115       112       114       118       115       114       118
       114       115       116       114       115       117       114       115       123
       116       115       117       116       115       123       117       115       123
       114       118       119       114       118       120       114       118       126
       119       118       120       119       118       126       120       118       126
       118       120       121       118       120       122       118       120       123
       121       120       122       121       120       123       122       120       123
       115       123       120       115       123       124       115       123       125
       120       123       124       120       123       125       124       123       125
       118       126       127       118       126       128       127       126       128
       126       128       129       126       128       130       129       128       130
       128       130       131       128       130       132       128       130       133
       131       130       132       131       130       133       132       130       133
       130       133       134       130       133       135       134       133       135
       133       135       136       133       135       137       136       135       137
       135       137       138       135       137       139       135       137       143
       138       137       139       138       137       143       139       137       143
       137       139       140       137       139       141       137       139       142
       140       139       141       140       139       142       141       139       142
       137       143       144       137       143       145       144       143       145
       143       145       146       143       145       149       146       145       149
       145       146       147       145       146       148       145       146       154
       147       146       148       147       146       154       148       146       154
       145       149       150       145       149       151       145       149       157
       150       149       151       150       149       157       151       149       157
       149       151       152       149       151       153       149       151       154
       152       151       153       152       151       154       153       151       154
       146       154       151       146       154       155       146       154       156
       151       154       155       151       154       156       155       154       156
       149       157       158       149       157       159       158       157       159

       464 !NPHI: dihedrals
         1         5         8         9         1         5         8        10
         2         1         5         6         2         1         5         7
         2         1         5         8         3         1         5         6
         3         1         5         7         3         1         5         8
         4         1         5         6         4         1         5         7
         4         1         5         8         5         8        10        11
         5         8        10        14         6         5         8         9
         6         5         8        10         7         5         8         9
         7         5         8        10         8        10        11        12
         8        10        11        13         8        10        11        19
         8        10        14        15         8        10        14        16
         8        10        14        22         9         8        10        11
         9         8        10        14        10        11        19        16
        10        11        19        20        10        11        19        21
        10        14        16        17        10        14        16        18
        10        14        16        19        10        14        22        23
        10        14        22        24        11        10        14        15
        11        10        14        16        11        10        14        22
        11        19        16        14        11        19        16        17
        11        19        16        18        12        11        10        14
        12        11        19        16        12        11        19        20
        12        11        19        21        13        11        10        14
        13        11        19        16        13        11        19        20
        13        11        19        21        14        10        11        19
        14        16        19        20        14        16        19        21
        14        22        24        25        14        22        24        26
        15        14        16        17        15        14        16        18
        15        14        16        19        15        14        22        23
        15        14        22        24        16        14        22        23
        16        14        22        24        17        16        14        22
        17        16        19        20        17        16        19        21
        18        16        14        22        18        16        19        20
        18        16        19        21        19        16        14        22
        22        24        26        27        22        24        26        28
        22        24        26        29        23        22        24        25
        23        22        24        26        24        26        29        30
        24        26        29        31        25        24        26        27
        25        24        26        28        25        24        26        29
        26        29        31        32        26        29        31        33
        27        26        29        30        27        26        29        31
        28        26        29        30        28        26        29        31
        29        31        33        34        29        31        33        35
        29        31        33        39        30        29        31        32
        30        29        31        33        31        33        35        36
        31        33        35        37        31        33        35        38
        31        33        39        40        31        33        39        41
        32        31        33        34        32        31        33        35
        32        31        33        39        33        39        41        42
        33        39        41        45        34        33        35        36
        34        33        35        37        34        33        35        38
        34        33        39        40        34        33        39        41
        35        33        39        40        35        33        39        41
        36        35        33        39        37        35        33        39
        38        35        33        39        39        41        42        43
        39        41        42        44        39        41        42        50
        39        41        45        46        39        41        45        47
        39        41        45        53        40        39        41        42
        40        39        41        45        41        42        50        47
        41        42        50        51        41        42        50        52
        41        45        47        48        41        45        47        49
        41        45        47        50        41        45        53        54
        41        45        53        55        42        41        45        46
        42        41        45        47        42        41        45        53
        42        50        47        45        42        50        47        48
        42        50        47        49        43        42        41        45
        43        42        50        47        43        42        50        51
        43        42        50        52        44        42        41        45
        44        42        50        47        44        42        50        51
        44        42        50        52        45        41        42        50
        45        47        50        51        45        47        50        52
        45        53        55        56        45        53        55        57
        46        45        47        48        46        45        47        49
        46        45        47        50        46        45        53        54
        46        45        53        55        47        45        53        54
        47        45        53        55        48        47        45        53
        48        47        50        51        48        47        50        52
        49        47        45        53        49        47        50        51
        49        47        50        52        50        47        45        53
        53        55        57        58        53        55        57        59
        53        55        57        60        54        53        55        56
        54        53        55        57        55        57        60        61
        55        57        60        62        56        55        57        58
        56        55        57        59        56        55        57        60
        57        60        62        63        57        60        62        66
        58        57        60        61        58        57        60        62
        59        57        60        61        59        57        60        62
        60        62        63        64        60        62        63        65
        60        62        63        71        60        62        66        67
        60        62        66        68        60        62        66        74
        61        60        62        63        61        60        62        66
        62        63        71        68        62        63        71        72
        62        63        71        73        62        66        68        69
        62        66        68        70        62        66        68        71
        62        66        74        75        62        66        74        76
        63        62        66        67        63        62        66        68
        63        62        66        74        63        71        68        66
        63        71        68        69        63        71        68        70
        64        63        62        66        64        63        71        68
        64        63        71        72        64        63        71        73
        65        63        62        66        65        63        71        68
        65        63        71        72        65        63        71        73
        66        62        63        71        66        68        71        72
        66        68        71        73        66        74        76        77
        66        74        76        78        67        66        68        69
        67        66        68        70        67        66        68        71
        67        66        74        75        67        66        74        76
        68        66        74        75        68        66        74        76
        69        68        66        74        69        68        71        72
        69        68        71        73        70        68        66        74
        70        68        71        72        70        68        71        73
        71        68        66        74        74        76        78        79
        74        76        78        80        74        76        78        81
        75        74        76        77        75        74        76        78
        76        78        81        82        76        78        81        83
        77        76        78        79        77        76        78        80
        77        76        78        81        78        81        83        84
        78        81        83        85        79        78        81        82
        79        78        81        83        80        78        81        82
        80        78        81        83        81        83        85        86
        81        83        85        87        81        83        85        91
        82        81        83        84        82        81        83        85
        83        85        87        88        83        85        87        89
        83        85        87        90        83        85        91        92
        83        85        91        93        84        83        85        86
        84        83        85        87        84        83        85        91
        85        91        93        94        85        91        93        97
        86        85        87        88        86        85        87        89
        86        85        87        90        86        85        91        92
        86        85        91        93        87        85        91        92
        87        85        91        93        88        87        85        91
        89        87        85        91        90        87        85        91
        91        93        94        95        91        93        94        96
        91        93        94       102        91        93        97        98
        91        93        97        99        91        93        97       105
        92        91        93        94        92        91        93        97
        93        94       102        99        93        94       102       103
        93        94       102       104        93        97        99       100
        93        97        99       101        93        97        99       102
        93        97       105       106        93        97       105       107
        94        93        97        98        94        93        97        99
        94        93        97       105        94       102        99        97
        94       102        99       100        94       102        99       101
        95        94        93        97        95        94       102        99
        95        94       102       103        95        94       102       104
        96        94        93        97        96        94       102        99
        96        94       102       103        96        94       102       104
        97        93        94       102        97        99       102       103
        97        99       102       104        97       105       107       108
        97       105       107       109        98        97        99       100
        98        97        99       101        98        97        99       102
        98        97       105       106        98        97       105       107
        99        97       105       106        99        97       105       107
       100        99        97       105       100        99       102       103
       100        99       102       104       101        99        97       105
       101        99       102       103       101        99       102       104
       102        99        97       105       105       107       109       110
       105       107       109       111       105       107       109       112
       106       105       107       108       106       105       107       109
       107       109       112       113       107       109       112       114
       108       107       109       110       108       107       109       111
       108       107       109       112       109       112       114       115
       109       112       114       118       110       109       112       113
       110       109       112       114       111       109       112       113
       111       109       112       114       112       114       115       116
       112       114       115       117       112       114       115       123
       112       114       118       119       112       114       118       120
       112       114       118       126       113       112       114       115
       113       112       114       118       114       115       123       120
       114       115       123       124       114       115       123       125
       114       118       120       121       114       118       120       122
       114       118       120       123       114       118       126       127
       114       118       126       128       115       114       118       119
       115       114       118       120       115       114       118       126
       115       123       120       118       115       123       120       121
       115       123       120       122       116       115       114       118
       116       115       123       120       116       115       123       124
       116       115       123       125       117       115       114       118
       117       115       123       120       117       115       123       124
       117       115       123       125       118       114       115       123
       118       120       123       124       118       120       123       125
       118       126       128       129       118       126       128       130
       119       118       120       121       119       118       120       122
       119       118       120       123       119       118       126       127
       119       118       126       128       120       118       126       127
       120       118       126       128       121       120       118       126
       121       120       123       124       121       120       123       125
       122       120       118       126       122       120       123       124
       122       120       123       125       123       120       118       126
       126       128       130       131       126       128       130       132
       126       128       130       133       127       126       128       129
       127       126       128       130       128       130       133       134
       128       130       133       135       129       128       130       131
       129       128       130       132       129       128       130       133
       130       133       135       136       130       133       135       137
       131       130       133       134       131       130       133       135
       132       130       133       134       132       130       133       135
       133       135       137       138       133       135       137       139
       133       135       137       143       134       133       135       136
       134       133       135       137       135       137       139       140
       135       137       139       141       135       137       139       142
       135       137       143       144       135       137       143       145
       136       135       137       138       136       135       137       139
       136       135       137       143       137       143       145       146
       137       143       145       149       138       137       139       140
       138       137       139       141       138       137       139       142
       138       137       143       144       138       137       143       145
       139       137       143       144       139       137       143       145
       140       139       137       143       141       139       137       143
       142       139       137       143       143       145       146       147
       143       145       146       148       143       145       146       154
       143       145       149       150       143       145       149       151
       143       145       149       157       144       143       145       146
       144       143       145       149       145       146       154       151
       145       146       154       155       145       146       154       156
       145       149       151       152       145       149       151       153
       145       149       151       154       145       149       157       158
       145       149       157       159       146       145       149       150
       146       145       149       151       146       145       149       157
       146       154       151       149       146       154       151       152
       146       154       151       153       147       146       145       149
       147       146       154       151       147       146       154       155
       147       146       154       156       148       146       145       149
       148       146       154       151       148       146       154       155
       148       146       154       156       149       145       146       154
       149       151       154       155       149       151       154       156
       150       149       151       152       150       149       151       153
       150       149       151       154       150       149       157       158
       150       149       157       159       151       149       157       158
       151       149       157       159       152       151       149       157
       152       151       154       155       152       151       154       156
       153       151       149       157       153       151       154       155
       153       151       154       156       154       151       149       157

        29 !NIMPHI: impropers
         8         5        10         9        10         8        14        11
        22        14        24        23        24        22        26        25
        29        26        31        30        31        29        33        32
        39        33        41        40        41        39        45        42
        53        45        55        54        55        53        57        56
        60        57        62        61        62        60        66        63
        74        66        76        75        76        74        78        77
        81        78        83        82        83        81        85        84
        91        85        93        92        93        91        97        94
       105        97       107       106       107       105       109       108
       112       109       114       113       114       112       118       115
       126       118       128       127       128       126       130       129
       133       130       135       134       135       133       137       136
       143       137       145       144       145       143       149       146
       157       149       159       158

        11 !NDON: donors
         1         2         1         3         1         4        24        25
        31        32        55        56        76        77        83        84
       107       108       128       129       135       136

        16 !NACC: acceptors
         9         8        23        22        30        29        40        39
        54        53        61        60        75        74        82        81
        92        91       106       105       113       112       127       126
       134       133       144       143       158       157       159       157

         0 !NNB

         0         0         0         0         0         0         0         0
         0         0         0         0         0         0         0         0
         0         0         0         0         0         0         0         0
         0         0         0         0         0         0         0         0
         0         0         0         0         0         0         0         0
         0         0         0         0         0         0         0         0
         0         0         0         0         0         0         0         0
         0         0         0         0         0         0         0         0
         0         0         0         0         0         0         0         0
         0         0         0         0         0         0         0         0
         0         0         0         0         0         0         0         0
         0         0         0         0         0         0         0         0
         0         0         0         0         0         0         0         0
         0         0         0         0         0         0         0         0
         0         0         0         0         0         0         0         0
         0         0         0         0         0         0         0         0
         0         0         0         0         0         0         0         0
         0         0         0         0         0         0         0         0
         0         0         0         0         0         0         0         0
         0         0         0         0         0         0         0

        45         0 !NGRP NST2
         0         2         0         7         1         0         9         1         0
        15         1         0        18         1         0        21         1         0
        23         1         0        28         1         0        30         1         0
        34         1         0        38         1         0        40         1         0
        46         1         0        49         1         0        52         1         0
        54         1         0        59         1         0        61         1         0
        67         1         0        70         1         0        73         1         0
        75         1         0        80         1         0        82         1         0
        86         1         0        90         1         0        92         1         0
        98         1         0       101         1         0       104         1         0
       106         1         0       111         1         0       113         1         0
       119         1         0       122         1         0       125         1         0
       127         1         0       132         1         0       134         1         0
       138         1         0       142         1         0       144         1         0
       150         1         0       153         1         0       156         2         0

         0         0 !NUMLP NUMLPH

        13 !NCRTERM: cross-terms
         8        10        14        22        10        14        22        24
        22        24        26        29        24        26        29        31
        29        31        33        39        31        33        39        41
        39        41        45        53        41        45        53        55
        53        55        57        60        55        57        60        62
        60        62        66        74        62        66        74        76
        74        76        78        81        76        78        81        83
        81        83        85        91        83        85        91        93
        91        93        97       105        93        97       105       107
       105       107       109       112       107       109       112       114
       112       114       118       126       114       118       126       128
       126       128       130       133       128       130       133       135
       133       135       137       143       135       137       143       145
