* SET NIONTYPES = 1
* SET NPOSTOT = 43
* SET NNEGTOT = 43
* SET NIONTOT = 86
*  DATE:     6/17/26     23:12:17      CREATED BY USER: charmm-gui
*
        86  EXT
         1         1  LIT       LIT           -19.1361337338      -22.1211729889        1.4874971772  IONS      1               1.0000000000
         2         2  LIT       LIT            -2.6087218952      -11.5526162453       34.1510179631  IONS      2               1.0000000000
         3         3  LIT       LIT           -21.0780849496      -28.4821944300       -7.5991957802  IONS      3               1.0000000000
         4         4  LIT       LIT           -15.1020945411      -29.6560235112      -10.2569693760  IONS      4               1.0000000000
         5         5  LIT       LIT            -3.3455446341      -19.8711127706       39.9542918954  IONS      5               1.0000000000
         6         6  LIT       LIT            17.3822587959       25.3402866042      -17.3712184604  IONS      6               1.0000000000
         7         7  LIT       LIT           -25.5134103992       -4.2355904267       33.1426655982  IONS      7               1.0000000000
         8         8  LIT       LIT           -15.2987169364      -13.7592899497      -19.2359541806  IONS      8               1.0000000000
         9         9  LIT       LIT           -17.0488240102      -23.4947590017      -27.3697936173  IONS      9               1.0000000000
        10        10  LIT       LIT             3.0653872364       30.6672154713       27.9927435823  IONS      10              1.0000000000
        11        11  LIT       LIT            13.2922084224      -19.3515714887      -35.7924858428  IONS      11              1.0000000000
        12        12  LIT       LIT           -18.1860063388      -39.2403194651       20.9119473900  IONS      12              1.0000000000
        13        13  LIT       LIT           -11.7579699880       36.4626758430       13.5125573719  IONS      13              1.0000000000
        14        14  LIT       LIT            32.2336479891       -6.7991355561       12.0145572197  IONS      14              1.0000000000
        15        15  LIT       LIT            -7.7807357180      -32.5072412013       12.7914424972  IONS      15              1.0000000000
        16        16  LIT       LIT            13.2889752227       21.2265875804       13.1178087953  IONS      16              1.0000000000
        17        17  LIT       LIT           -24.7079238744       -6.6534267885       11.1970445025  IONS      17              1.0000000000
        18        18  LIT       LIT           -29.9243885723      -25.3948341890       22.0102787451  IONS      18              1.0000000000
        19        19  LIT       LIT            30.0139920841        4.8253361773       27.6174593911  IONS      19              1.0000000000
        20        20  LIT       LIT             2.7826810487       -7.0648731477       15.8509827695  IONS      20              1.0000000000
        21        21  LIT       LIT            45.3378790569       -5.9776955436       19.9329335727  IONS      21              1.0000000000
        22        22  LIT       LIT           -18.4132868941      -17.2751936722      -33.6855729134  IONS      22              1.0000000000
        23        23  LIT       LIT           -29.5160859891      -27.8118982392       -7.3731966553  IONS      23              1.0000000000
        24        24  LIT       LIT           -42.9196861986      -11.3302611636       -0.8255796283  IONS      24              1.0000000000
        25        25  LIT       LIT            -2.5486438438      -27.9079876419      -43.2468616259  IONS      25              1.0000000000
        26        26  LIT       LIT            17.0485530154       11.0151143967       20.5862632183  IONS      26              1.0000000000
        27        27  LIT       LIT           -39.4644769367      -24.2014699659        2.7952166550  IONS      27              1.0000000000
        28        28  LIT       LIT            13.4884844714       30.9888875584       23.4718971760  IONS      28              1.0000000000
        29        29  LIT       LIT            38.8446559992       13.1757689611      -15.1511066173  IONS      29              1.0000000000
        30        30  LIT       LIT            -7.3574792411      -44.4986128317      -17.9768663450  IONS      30              1.0000000000
        31        31  LIT       LIT           -17.0443259027       10.7665737864       42.1383287658  IONS      31              1.0000000000
        32        32  LIT       LIT           -10.3188086224       41.9174505932        0.1779518823  IONS      32              1.0000000000
        33        33  LIT       LIT            -9.1346362184       29.7020107664      -21.1891226872  IONS      33              1.0000000000
        34        34  LIT       LIT             4.2185681701       39.0837775274      -29.0426161856  IONS      34              1.0000000000
        35        35  LIT       LIT           -30.8649624931        6.1350202066      -16.1288120054  IONS      35              1.0000000000
        36        36  LIT       LIT           -11.7796152958       17.9837339565       32.4356179754  IONS      36              1.0000000000
        37        37  LIT       LIT            17.3622032239      -34.6818003034        3.2934098784  IONS      37              1.0000000000
        38        38  LIT       LIT           -29.5244785210      -38.0357424585        1.6845814865  IONS      38              1.0000000000
        39        39  LIT       LIT             0.7449781866      -33.0971827825      -15.0426003967  IONS      39              1.0000000000
        40        40  LIT       LIT           -18.4443982161      -35.4381212709       32.7790790782  IONS      40              1.0000000000
        41        41  LIT       LIT            19.0923735794       25.7119496237       29.5559147282  IONS      41              1.0000000000
        42        42  LIT       LIT            -8.0490520210       -4.0007733670       22.3248165250  IONS      42              1.0000000000
        43        43  LIT       LIT           -32.6518603935       27.0890776859      -17.7519814386  IONS      43              1.0000000000
        44        44  CLA       CLA            -5.1530518888      -44.1047170092       -8.8357845390  IONS      44             -1.0000000000
        45        45  CLA       CLA            26.7100072289        9.3364449099      -37.0695560855  IONS      45             -1.0000000000
        46        46  CLA       CLA             0.2866893935       -7.2605007251       21.6274529319  IONS      46             -1.0000000000
        47        47  CLA       CLA            -2.3612390459      -15.0878158184        1.6314785107  IONS      47             -1.0000000000
        48        48  CLA       CLA            -1.0471422694       -2.7265544260      -44.8279097531  IONS      48             -1.0000000000
        49        49  CLA       CLA             2.2695662708        4.0017357357       42.1672094666  IONS      49             -1.0000000000
        50        50  CLA       CLA           -19.7980818873      -30.5320148407       16.7063273304  IONS      50             -1.0000000000
        51        51  CLA       CLA            39.1390054655       19.3098536452       -7.5373959013  IONS      51             -1.0000000000
        52        52  CLA       CLA            23.1290490969      -12.5163525171      -35.2470146180  IONS      52             -1.0000000000
        53        53  CLA       CLA             8.5671855768       14.4381321254       16.5281220694  IONS      53             -1.0000000000
        54        54  CLA       CLA            17.8286165098        4.6996136433      -28.9941812799  IONS      54             -1.0000000000
        55        55  CLA       CLA            -5.3943604408      -40.6322192269       17.6658852780  IONS      55             -1.0000000000
        56        56  CLA       CLA             6.5264544562      -25.9094604756      -32.3307038994  IONS      56             -1.0000000000
        57        57  CLA       CLA            40.4585539150       -3.1088007980        1.7224324046  IONS      57             -1.0000000000
        58        58  CLA       CLA           -23.3547444957        1.7858043355       -3.7934200357  IONS      58             -1.0000000000
        59        59  CLA       CLA            24.8019042887       36.8004426693      -13.7164003848  IONS      59             -1.0000000000
        60        60  CLA       CLA            30.6861621072        7.0265072009       25.5065627606  IONS      60             -1.0000000000
        61        61  CLA       CLA            33.7714338922      -29.0984832914        5.7446580533  IONS      61             -1.0000000000
        62        62  CLA       CLA            -4.4203902122        6.6004699027      -17.4397939959  IONS      62             -1.0000000000
        63        63  CLA       CLA           -12.5672377434        7.0621288792       29.5500543537  IONS      63             -1.0000000000
        64        64  CLA       CLA             9.1782313119      -16.4433691970       24.0714630758  IONS      64             -1.0000000000
        65        65  CLA       CLA           -26.3478847510      -20.9467461826       14.8578855356  IONS      65             -1.0000000000
        66        66  CLA       CLA            44.5298420489       11.1211399534       12.2957398509  IONS      66             -1.0000000000
        67        67  CLA       CLA           -15.9547340562       -1.0777109899       11.6484709979  IONS      67             -1.0000000000
        68        68  CLA       CLA           -23.6522169344      -24.9505361363       -6.9099120349  IONS      68             -1.0000000000
        69        69  CLA       CLA           -34.1695733727       25.8076769770        9.3073357965  IONS      69             -1.0000000000
        70        70  CLA       CLA            -8.7815428372      -17.9049956903       23.2071048695  IONS      70             -1.0000000000
        71        71  CLA       CLA           -31.2076826483       33.7753401320      -12.4596157136  IONS      71             -1.0000000000
        72        72  CLA       CLA            12.5443516092       26.9253539355       21.9755308686  IONS      72             -1.0000000000
        73        73  CLA       CLA           -22.1600361786       28.8428060799       -3.9427044488  IONS      73             -1.0000000000
        74        74  CLA       CLA            26.3522752735       25.6125339607        9.7418130121  IONS      74             -1.0000000000
        75        75  CLA       CLA            -1.1565120998       -7.4216503206       40.0882588116  IONS      75             -1.0000000000
        76        76  CLA       CLA           -19.9590829758       25.0207626919      -34.8235010271  IONS      76             -1.0000000000
        77        77  CLA       CLA           -14.0187090141       33.0800621801      -39.8802243759  IONS      77             -1.0000000000
        78        78  CLA       CLA           -10.2656502014        4.4417130436      -38.2923521883  IONS      78             -1.0000000000
        79        79  CLA       CLA            15.6367375834       12.2548338503       11.4634481118  IONS      79             -1.0000000000
        80        80  CLA       CLA            -1.8110478683       34.9390689216      -29.0727426194  IONS      80             -1.0000000000
        81        81  CLA       CLA           -44.5732050129      -18.4571339322       -3.7837289894  IONS      81             -1.0000000000
        82        82  CLA       CLA            27.9328659813        4.4232053303       -0.1635516492  IONS      82             -1.0000000000
        83        83  CLA       CLA            -3.2570100578        4.2147233556        7.1074430792  IONS      83             -1.0000000000
        84        84  CLA       CLA           -28.3689848499      -30.7814659032       -5.6282894510  IONS      84             -1.0000000000
        85        85  CLA       CLA           -37.2086094208       11.2777288182       23.6043273420  IONS      85             -1.0000000000
        86        86  CLA       CLA            13.8971419294       28.5661346568        0.5569940722  IONS      86             -1.0000000000
