* GENERATED BY CHARMM-GUI (HTTP://WWW.CHARMM-GUI.ORG) V3.7 ON JUN, 17. 2026. JOB
* GENERATES IONS
*  DATE:     6/17/26     23:11:16      CREATED BY USER: charmm-gui
*
       159  EXT
         1         1  GLY       N              22.0003470525        0.2093178644        0.6515175202  PROA      1              97.5800000000
         2         1  GLY       HT1            22.8253148153       -0.2466192226        1.0910053619  PROA      1               0.0000000000
         3         1  GLY       HT2            21.5266183762        0.8165704277        1.3503916876  PROA      1               0.0000000000
         4         1  GLY       HT3            22.3123694911        0.7876061244       -0.1545992966  PROA      1               0.0000000000
         5         1  GLY       CA             21.0728957340       -0.8095480711        0.1869066536  PROA      1              97.9400000000
         6         1  GLY       HA1            20.7695891844       -1.3896199693        1.0458739931  PROA      1               0.0000000000
         7         1  GLY       HA2            21.6007203870       -1.4319252347       -0.5204482521  PROA      1               0.0000000000
         8         1  GLY       C              19.8393327434       -0.2330135608       -0.4832256518  PROA      1              98.2800000000
         9         1  GLY       O              19.6334131781        0.9819959947       -0.4750456345  PROA      1              97.9700000000
        10         2  PRO       N              18.8811124845       -1.0373476441       -1.2148502946  PROA      2              98.5600000000
        11         2  PRO       CD             18.9658823626       -2.5256546406       -1.1890558803  PROA      2              96.1900000000
        12         2  PRO       HD1            19.1534537276       -2.8826396600       -0.1548968350  PROA      2               0.0000000000
        13         2  PRO       HD2            19.7736585046       -2.8769439612       -1.8644815014  PROA      2               0.0000000000
        14         2  PRO       CA             17.6080214529       -0.5417105834       -1.7432252840  PROA      2              98.5800000000
        15         2  PRO       HA             17.7761165762        0.2859313020       -2.4134903855  PROA      2               0.0000000000
        16         2  PRO       CB             16.9915815703       -1.7794878288       -2.3980957765  PROA      2              98.4600000000
        17         2  PRO       HB1            17.2311993781       -1.8126052064       -3.4823273605  PROA      2               0.0000000000
        18         2  PRO       HB2            15.8876281972       -1.7826577021       -2.2742067765  PROA      2               0.0000000000
        19         2  PRO       CG             17.6090930649       -2.9375056337       -1.6826453466  PROA      2              97.6200000000
        20         2  PRO       HG1            16.9696317602       -3.2354217855       -0.8243754138  PROA      2               0.0000000000
        21         2  PRO       HG2            17.7054188784       -3.8010521574       -2.3749608890  PROA      2               0.0000000000
        22         2  PRO       C              16.6917546663        0.0110433029       -0.6535591348  PROA      2              98.6500000000
        23         2  PRO       O              16.8375768870       -0.3441915579        0.5191032521  PROA      2              98.5600000000
        24         3  GLY       N              15.9083005225        0.9863837930       -1.0601049906  PROA      3              98.3700000000
        25         3  GLY       HN             15.9503901090        1.3722217433       -1.9784522860  PROA      3               0.0000000000
        26         3  GLY       CA             14.9237345810        1.5490993065       -0.1486297262  PROA      3              98.3500000000
        27         3  GLY       HA1            14.4041889863        2.3388339706       -0.6708159559  PROA      3               0.0000000000
        28         3  GLY       HA2            15.4536386098        1.9509541888        0.7022529315  PROA      3               0.0000000000
        29         3  GLY       C              13.9109165499        0.5315049934        0.3380153703  PROA      3              98.5300000000
        30         3  GLY       O              13.8210712907       -0.5726032371       -0.2035294983  PROA      3              98.4400000000
        31         4  ALA       N              13.2306047652        0.8528941371        1.3423668496  PROA      4              98.4900000000
        32         4  ALA       HN             13.3931671249        1.6950573253        1.8505363378  PROA      4               0.0000000000
        33         4  ALA       CA             12.1492048894       -0.0004722169        1.8281704874  PROA      4              98.4400000000
        34         4  ALA       HA             12.5232396677       -1.0113679263        1.8942133781  PROA      4               0.0000000000
        35         4  ALA       CB             11.6665091194        0.4781998687        3.1954461831  PROA      4              98.2700000000
        36         4  ALA       HB1            11.2916912497        1.5216360193        3.1242172265  PROA      4               0.0000000000
        37         4  ALA       HB2            12.5054705942        0.4515988238        3.9232443206  PROA      4               0.0000000000
        38         4  ALA       HB3            10.8398665624       -0.1719493473        3.5535274314  PROA      4               0.0000000000
        39         4  ALA       C              10.9869170630       -0.0309543321        0.8392064592  PROA      4              98.5700000000
        40         4  ALA       O              10.8118593963        0.8995741479        0.0484020831  PROA      4              98.4700000000
        41         5  PRO       N              10.2931035478       -1.0327365779        0.8705295846  PROA      5              98.2800000000
        42         5  PRO       CD             10.5795736546       -2.2224825280        1.5037186970  PROA      5              96.9800000000
        43         5  PRO       HD1            10.5238196828       -2.0850381572        2.6042093258  PROA      5               0.0000000000
        44         5  PRO       HD2            11.5956103590       -2.5658453017        1.2158810597  PROA      5               0.0000000000
        45         5  PRO       CA              9.0855062799       -1.0314233434        0.0421087290  PROA      5              98.2800000000
        46         5  PRO       HA              9.3407514407       -0.8764107060       -0.9939042937  PROA      5               0.0000000000
        47         5  PRO       CB              8.4463528786       -2.3884378617        0.3470489308  PROA      5              98.1700000000
        48         5  PRO       HB1             8.1178620141       -2.8888089913       -0.5887895523  PROA      5               0.0000000000
        49         5  PRO       HB2             7.5686292216       -2.2691741270        1.0174581532  PROA      5               0.0000000000
        50         5  PRO       CG              9.5247178114       -3.1759459261        1.0195733691  PROA      5              97.4100000000
        51         5  PRO       HG1             9.1014394877       -3.7389688708        1.8787219699  PROA      5               0.0000000000
        52         5  PRO       HG2             9.9690125517       -3.8979165385        0.3014812354  PROA      5               0.0000000000
        53         5  PRO       C               8.1332538842        0.1098363780        0.3902906114  PROA      5              98.5100000000
        54         5  PRO       O               8.1625571301        0.6234851007        1.5119270541  PROA      5              98.4600000000
        55         6  GLY       N               7.4459717531        0.5100679449       -0.6801247123  PROA      6              98.4200000000
        56         6  GLY       HN              7.5643279516        0.1478129490       -1.6008542024  PROA      6               0.0000000000
        57         6  GLY       CA              6.4572656558        1.5534489475       -0.4583425294  PROA      6              98.3600000000
        58         6  GLY       HA1             6.0534330130        1.8350772426       -1.4195362895  PROA      6               0.0000000000
        59         6  GLY       HA2             6.9609368981        2.3943633679       -0.0050578926  PROA      6               0.0000000000
        60         6  GLY       C               5.3202427017        1.1154324282        0.4443430917  PROA      6              98.5400000000
        61         6  GLY       O               5.2307176531       -0.0571783697        0.8143136073  PROA      6              98.4400000000
        62         7  PRO       N               4.5763230817        1.9493588387        0.7823421167  PROA      7              98.5500000000
        63         7  PRO       CD              4.6227560944        3.3748085041        0.3678566202  PROA      7              97.8400000000
        64         7  PRO       HD1             4.7111107877        3.4506375879       -0.7360915253  PROA      7               0.0000000000
        65         7  PRO       HD2             5.4791264988        3.8877980130        0.8533765518  PROA      7               0.0000000000
        66         7  PRO       CA              3.3534705905        1.6007925468        1.5086391117  PROA      7              98.5300000000
        67         7  PRO       HA              3.5834207474        0.9648232229        2.3483910087  PROA      7               0.0000000000
        68         7  PRO       CB              2.7638296596        2.9633592605        1.8808655528  PROA      7              98.4700000000
        69         7  PRO       HB1             3.0808604860        3.2643647130        2.9021217884  PROA      7               0.0000000000
        70         7  PRO       HB2             1.6539177891        2.9362020199        1.8429808613  PROA      7               0.0000000000
        71         7  PRO       CG              3.3063481754        3.9073688392        0.8574591939  PROA      7              98.0200000000
        72         7  PRO       HG1             2.5947605135        3.9939090533        0.0086668046  PROA      7               0.0000000000
        73         7  PRO       HG2             3.4499185869        4.9122237613        1.3090661600  PROA      7               0.0000000000
        74         7  PRO       C               2.3715380263        0.7958110717        0.6592591826  PROA      7              98.6700000000
        75         7  PRO       O               2.4644489899        0.8034286841       -0.5707243640  PROA      7              98.6300000000
        76         8  GLY       N               1.4737378377        0.0922107812        1.3758165443  PROA      8              98.4700000000
        77         8  GLY       HN              1.4541222769        0.0598250537        2.3718894074  PROA      8               0.0000000000
        78         8  GLY       CA              0.4714659739       -0.6666870459        0.6442441288  PROA      8              98.4400000000
        79         8  GLY       HA1            -0.0398378796       -1.3043212961        1.3501332257  PROA      8               0.0000000000
        80         8  GLY       HA2             0.9844952055       -1.2647604481       -0.0942663302  PROA      8               0.0000000000
        81         8  GLY       C              -0.5485238522        0.2112315463       -0.0550624566  PROA      8              98.6500000000
        82         8  GLY       O              -0.6152712085        1.4164703750        0.1963697532  PROA      8              98.6000000000
        83         9  ALA       N              -1.3212549852       -0.3093550005       -0.8887807803  PROA      9              98.6400000000
        84         9  ALA       HN             -1.2294756044       -1.2724661543       -1.1248205122  PROA      9               0.0000000000
        85         9  ALA       CA             -2.4007889032        0.3799501016       -1.5904224241  PROA      9              98.6200000000
        86         9  ALA       HA             -2.0206244855        1.3270345935       -1.9435227760  PROA      9               0.0000000000
        87         9  ALA       CB             -2.8980707909       -0.4635144156       -2.7621341345  PROA      9              98.5000000000
        88         9  ALA       HB1            -3.2791864985       -1.4403133128       -2.3947981414  PROA      9               0.0000000000
        89         9  ALA       HB2            -2.0650673550       -0.6522807597       -3.4725752959  PROA      9               0.0000000000
        90         9  ALA       HB3            -3.7233523682        0.0651736685       -3.2852529820  PROA      9               0.0000000000
        91         9  ALA       C              -3.5533730430        0.7008025318       -0.6429175329  PROA      9              98.7500000000
        92         9  ALA       O              -3.6914500471        0.0750792155        0.4103873006  PROA      9              98.7100000000
        93        10  PRO       N              -4.3234472483        1.6306593549       -1.1449055874  PROA      10             98.6100000000
        94        10  PRO       CD             -4.1492448955        2.4701390458       -2.2347777766  PROA      10             97.7200000000
        95        10  PRO       HD1            -4.3830499568        1.9272919216       -3.1745852863  PROA      10              0.0000000000
        96        10  PRO       HD2            -3.1046889768        2.8452120867       -2.2632226178  PROA      10              0.0000000000
        97        10  PRO       CA             -5.5072600928        1.8921729542       -0.3226271756  PROA      10             98.5900000000
        98        10  PRO       HA             -5.2226960815        2.0597948171        0.7037602479  PROA      10              0.0000000000
        99        10  PRO       CB             -6.1552129065        3.0960494187       -1.0119374175  PROA      10             98.5500000000
       100        10  PRO       HB1            -6.4034547170        3.8870726462       -0.2725204167  PROA      10              0.0000000000
       101        10  PRO       HB2            -7.0845583938        2.7944450417       -1.5405497604  PROA      10              0.0000000000
       102        10  PRO       CG             -5.1270355852        3.5808940340       -1.9819859188  PROA      10             98.0900000000
       103        10  PRO       HG1            -5.6163982513        3.8772868553       -2.9343358677  PROA      10              0.0000000000
       104        10  PRO       HG2            -4.5970585161        4.4621842367       -1.5615732246  PROA      10              0.0000000000
       105        10  PRO       C              -6.4687522013        0.7069177655       -0.2788200636  PROA      10             98.7200000000
       106        10  PRO       O              -6.4320843906       -0.1555586926       -1.1600214201  PROA      10             98.6900000000
       107        11  GLY       N              -7.2197889834        0.5799069238        0.8225490835  PROA      11             98.4400000000
       108        11  GLY       HN             -7.1256932073        1.1873626860        1.6074478705  PROA      11              0.0000000000
       109        11  GLY       CA             -8.2244712235       -0.4659635362        0.9292569899  PROA      11             98.4100000000
       110        11  GLY       HA1            -8.6479094706       -0.4168634226        1.9215166196  PROA      11              0.0000000000
       111        11  GLY       HA2            -7.7301700505       -1.4147496064        0.7817399188  PROA      11              0.0000000000
       112        11  GLY       C              -9.3394488363       -0.3276894333       -0.0895747899  PROA      11             98.5800000000
       113        11  GLY       O              -9.3650334818        0.6319059430       -0.8643813075  PROA      11             98.5300000000
       114        12  PRO       N             -10.1991093184       -1.1784848335       -0.2325294773  PROA      12             98.5600000000
       115        12  PRO       CD            -10.2215450740       -2.3937990856        0.6482104988  PROA      12             97.2700000000
       116        12  PRO       HD1           -10.2043198534       -2.0951776335        1.7171376561  PROA      12              0.0000000000
       117        12  PRO       HD2            -9.3542719708       -3.0488656883        0.4228178233  PROA      12              0.0000000000
       118        12  PRO       CA            -11.3642491113       -1.0942374214       -1.1164506482  PROA      12             98.5600000000
       119        12  PRO       HA            -11.0663675352       -0.7729940212       -2.1016433089  PROA      12              0.0000000000
       120        12  PRO       CB            -11.9555825454       -2.5054099944       -1.0549548052  PROA      12             98.5000000000
       121        12  PRO       HB1           -11.5627272059       -3.1340708454       -1.8823108212  PROA      12              0.0000000000
       122        12  PRO       HB2           -13.0637841318       -2.4720511929       -1.1245550546  PROA      12              0.0000000000
       123        12  PRO       CG            -11.5228387102       -3.0428714027        0.2718356861  PROA      12             97.8300000000
       124        12  PRO       HG1           -12.2932327694       -2.8175580675        1.0399637683  PROA      12              0.0000000000
       125        12  PRO       HG2           -11.3909849476       -4.1441757368        0.2082966809  PROA      12              0.0000000000
       126        12  PRO       C             -12.3831088783       -0.0559390350       -0.6530801311  PROA      12             98.7200000000
       127        12  PRO       O             -12.4009901343        0.3139603949        0.5236359232  PROA      12             98.6900000000
       128        13  GLY       N             -13.1626038633        0.5032897756       -1.5964298573  PROA      13             98.5000000000
       129        13  GLY       HN            -13.0361378853        0.3234916771       -2.5688335232  PROA      13              0.0000000000
       130        13  GLY       CA            -14.2433005457        1.4101443649       -1.2422230893  PROA      13             98.5100000000
       131        13  GLY       HA1           -14.6723108041        1.7860605089       -2.1592413688  PROA      13              0.0000000000
       132        13  GLY       HA2           -13.8187524029        2.2214088528       -0.6696027273  PROA      13              0.0000000000
       133        13  GLY       C             -15.3347783508        0.7478732233       -0.4232602476  PROA      13             98.6700000000
       134        13  GLY       O             -15.3921389261       -0.4801223798       -0.3333182485  PROA      13             98.6600000000
       135        14  ALA       N             -16.1204818094        1.2873054497        0.1458064868  PROA      14             98.6100000000
       136        14  ALA       HN            -16.0650872703        2.2773777795        0.1674754132  PROA      14              0.0000000000
       137        14  ALA       CA            -17.2727410316        0.8065338345        0.9039208178  PROA      14             98.5700000000
       138        14  ALA       HA            -16.9648701207       -0.0611289976        1.4683238034  PROA      14              0.0000000000
       139        14  ALA       CB            -17.7850241520        1.8965249234        1.8419743507  PROA      14             98.4300000000
       140        14  ALA       HB1           -18.0914311157        2.7902787536        1.2574746811  PROA      14              0.0000000000
       141        14  ALA       HB2           -16.9823364562        2.1939383133        2.5501352358  PROA      14              0.0000000000
       142        14  ALA       HB3           -18.6651331733        1.5246287855        2.4088565906  PROA      14              0.0000000000
       143        14  ALA       C             -18.3891076846        0.3439956012       -0.0292511272  PROA      14             98.6800000000
       144        14  ALA       O             -18.4841249752        0.8048142308       -1.1692190676  PROA      14             98.6200000000
       145        15  PRO       N             -18.8980090929       -0.9998322589        0.3074149372  PROA      15             98.3400000000
       146        15  PRO       CD            -18.6011801276       -1.6487837646        1.4125680980  PROA      15             97.1600000000
       147        15  PRO       HD1           -18.8783910786       -1.0294136098        2.2917697373  PROA      15              0.0000000000
       148        15  PRO       HD2           -17.5126398774       -1.8682092294        1.4324027011  PROA      15              0.0000000000
       149        15  PRO       CA            -19.9991609197       -1.5357158610       -0.4960073798  PROA      15             98.1700000000
       150        15  PRO       HA            -19.6886854179       -1.6653982900       -1.5203674468  PROA      15              0.0000000000
       151        15  PRO       CB            -20.3666100516       -2.8322937870        0.2301040560  PROA      15             98.0900000000
       152        15  PRO       HB1           -20.2547173572       -3.7074768191       -0.4448843080  PROA      15              0.0000000000
       153        15  PRO       HB2           -21.4139851167       -2.7946629011        0.5984299926  PROA      15              0.0000000000
       154        15  PRO       CG            -19.4054516054       -2.9166110001        1.3718558018  PROA      15             97.4300000000
       155        15  PRO       HG1           -19.9617432737       -3.0417367419        2.3253640611  PROA      15              0.0000000000
       156        15  PRO       HG2           -18.7302017963       -3.7879282407        1.2335126276  PROA      15              0.0000000000
       157        15  PRO       C             -21.1962212479       -0.5903258944       -0.5612866385  PROA      15             98.2300000000
       158        15  PRO       OT1           -21.1185777267        0.5058467392        0.0551361393  PROA      15              0.0000000000
       159        15  PRO       OT2           -22.2014565155       -0.9539239790       -1.2282937521  PROA      15              0.0000000000
