Title t= 291.00000 step= 145500
44389
    1GLY      N    1   5.934   4.425   0.954
    1GLY    HT1    2   5.925   4.321   0.949
    1GLY    HT2    3   6.028   4.460   0.983
    1GLY    HT3    4   5.915   4.460   0.858
    1GLY     CA    5   5.834   4.475   1.044
    1GLY    HA1    6   5.740   4.475   0.991
    1GLY    HA2    7   5.861   4.575   1.074
    1GLY      C    8   5.823   4.396   1.179
    1GLY      O    9   5.908   4.313   1.199
    2PRO      N   10   5.726   4.428   1.267
    2PRO     CD   11   5.641   4.542   1.256
    2PRO    HD1   12   5.546   4.515   1.206
    2PRO    HD2   13   5.685   4.624   1.197
    2PRO     CA   14   5.705   4.359   1.394
    2PRO     HA   15   5.796   4.372   1.452
    2PRO     CB   16   5.584   4.427   1.456
    2PRO    HB1   17   5.597   4.435   1.566
    2PRO    HB2   18   5.489   4.372   1.437
    2PRO     CG   19   5.600   4.566   1.394
    2PRO    HG1   20   5.510   4.631   1.401
    2PRO    HG2   21   5.675   4.631   1.444
    2PRO      C   22   5.688   4.210   1.394
    2PRO      O   23   5.642   4.154   1.289
    3GLY      N   24   5.730   4.142   1.501
    3GLY     HN   25   5.780   4.194   1.569
    3GLY     CA   26   5.711   4.003   1.531
    3GLY    HA1   27   5.604   3.990   1.528
    3GLY    HA2   28   5.760   3.990   1.626
    3GLY      C   29   5.774   3.902   1.437
    3GLY      O   30   5.863   3.937   1.360
    4ASP      N   31   5.722   3.783   1.452
    4ASP     HN   32   5.652   3.780   1.523
    4ASP     CA   33   5.769   3.663   1.382
    4ASP     HA   34   5.877   3.667   1.388
    4ASP     CB   35   5.722   3.538   1.470
    4ASP    HB1   36   5.746   3.440   1.423
    4ASP    HB2   37   5.616   3.557   1.493
    4ASP     CG   38   5.792   3.527   1.603
    4ASP    OD1   39   5.903   3.588   1.619
    4ASP    OD2   40   5.736   3.457   1.689
    4ASP      C   41   5.720   3.645   1.239
    4ASP      O   42   5.600   3.677   1.206
    5PRO      N   43   5.800   3.589   1.144
    5PRO     CD   44   5.920   3.510   1.181
    5PRO    HD1   45   5.885   3.414   1.226
    5PRO    HD2   46   5.985   3.564   1.253
    5PRO     CA   47   5.750   3.535   1.019
    5PRO     HA   48   5.735   3.620   0.953
    5PRO     CB   49   5.869   3.452   0.958
    5PRO    HB1   50   5.898   3.481   0.854
    5PRO    HB2   51   5.841   3.345   0.950
    5PRO     CG   52   5.985   3.477   1.047
    5PRO    HG1   53   6.054   3.390   1.050
    5PRO    HG2   54   6.052   3.560   1.018
    5PRO      C   55   5.621   3.459   1.017
    5PRO      O   56   5.602   3.369   1.101
    6GLY      N   57   5.533   3.481   0.913
    6GLY     HN   58   5.559   3.555   0.851
    6GLY     CA   59   5.399   3.427   0.900
    6GLY    HA1   60   5.390   3.334   0.955
    6GLY    HA2   61   5.375   3.433   0.795
    6GLY      C   62   5.297   3.524   0.976
    6GLY      O   63   5.320   3.576   1.084
    7SER      N   64   5.193   3.564   0.899
    7SER     HN   65   5.186   3.537   0.803
    7SER     CA   66   5.086   3.654   0.949
    7SER     HA   67   5.132   3.737   1.000
    7SER     CB   68   4.996   3.713   0.837
    7SER    HB1   69   4.906   3.766   0.876
    7SER    HB2   70   4.970   3.629   0.769
    7SER     OG   71   5.060   3.807   0.750
    7SER    HG1   72   5.093   3.886   0.793
    7SER      C   73   4.986   3.590   1.046
    7SER      O   74   4.943   3.479   1.029
    8GLY      N   75   4.942   3.661   1.151
    8GLY     HN   76   4.959   3.759   1.154
    8GLY     CA   77   4.853   3.605   1.250
    8GLY    HA1   78   4.847   3.663   1.340
    8GLY    HA2   79   4.883   3.503   1.273
    8GLY      C   80   4.715   3.579   1.208
    8GLY      O   81   4.664   3.633   1.113
    9ASN      N   82   4.638   3.490   1.284
    9ASN     HN   83   4.686   3.446   1.360
    9ASN     CA   84   4.508   3.445   1.252
    9ASN     HA   85   4.450   3.529   1.217
    9ASN     CB   86   4.511   3.339   1.139
    9ASN    HB1   87   4.583   3.256   1.151
    9ASN    HB2   88   4.539   3.398   1.049
    9ASN     CG   89   4.370   3.285   1.098
    9ASN    OD1   90   4.266   3.337   1.138
    9ASN    ND2   91   4.378   3.180   1.015
    9ASN   HD21   92   4.296   3.126   0.994
    9ASN   HD22   93   4.464   3.141   0.984
    9ASN      C   94   4.433   3.401   1.376
    9ASN      O   95   4.433   3.273   1.392
   10PRO      N   96   4.376   3.488   1.458
   10PRO     CD   97   4.349   3.632   1.435
   10PRO    HD1   98   4.275   3.648   1.354
   10PRO    HD2   99   4.441   3.692   1.419
   10PRO     CA  100   4.318   3.443   1.583
   10PRO     HA  101   4.403   3.428   1.648
   10PRO     CB  102   4.238   3.562   1.639
   10PRO    HB1  103   4.247   3.565   1.749
   10PRO    HB2  104   4.130   3.550   1.616
   10PRO     CG  105   4.283   3.685   1.561
   10PRO    HG1  106   4.193   3.747   1.540
   10PRO    HG2  107   4.348   3.753   1.619
   10PRO      C  108   4.229   3.318   1.579
   10PRO      O  109   4.145   3.303   1.492
   11GLY      N  110   4.236   3.224   1.674
   11GLY     HN  111   4.310   3.226   1.741
   11GLY     CA  112   4.122   3.126   1.692
   11GLY    HA1  113   4.147   3.053   1.767
   11GLY    HA2  114   4.093   3.079   1.599
   11GLY      C  115   3.997   3.193   1.747
   11GLY      O  116   3.998   3.312   1.779
   12SER      N  117   3.888   3.110   1.742
   12SER     HN  118   3.898   3.019   1.702
   12SER     CA  119   3.752   3.141   1.795
   12SER     HA  120   3.730   3.245   1.776
   12SER     CB  121   3.650   3.051   1.728
   12SER    HB1  122   3.644   3.099   1.628
   12SER    HB2  123   3.551   3.038   1.778
   12SER     OG  124   3.703   2.918   1.716
   12SER    HG1  125   3.699   2.878   1.803
   12SER      C  126   3.743   3.133   1.947
   12SER      O  127   3.649   3.183   2.004
   13GLY      N  128   3.852   3.087   2.009
   13GLY     HN  129   3.926   3.033   1.970
   13GLY     CA  130   3.862   3.077   2.158
   13GLY    HA1  131   3.805   3.157   2.204
   13GLY    HA2  132   3.966   3.084   2.185
   13GLY      C  133   3.798   2.947   2.215
   13GLY      O  134   3.706   2.888   2.164
   14ASP      N  135   3.855   2.900   2.326
   14ASP     HN  136   3.947   2.928   2.351
   14ASP     CA  137   3.794   2.819   2.423
   14ASP     HA  138   3.759   2.731   2.371
   14ASP     CB  139   3.894   2.772   2.537
   14ASP    HB1  140   3.844   2.712   2.615
   14ASP    HB2  141   3.935   2.867   2.579
   14ASP     CG  142   3.998   2.678   2.491
   14ASP    OD1  143   4.114   2.691   2.541
   14ASP    OD2  144   3.951   2.586   2.420
   14ASP      C  145   3.677   2.893   2.497
   14ASP      O  146   3.678   3.014   2.511
   15PRO      N  147   3.565   2.827   2.532
   15PRO     CD  148   3.554   2.680   2.513
   15PRO    HD1  149   3.634   2.627   2.570
   15PRO    HD2  150   3.582   2.648   2.411
   15PRO     CA  151   3.445   2.887   2.588
   15PRO     HA  152   3.425   2.984   2.544
   15PRO     CB  153   3.343   2.779   2.538
   15PRO    HB1  154   3.321   2.786   2.429
   15PRO    HB2  155   3.238   2.786   2.576
   15PRO     CG  156   3.406   2.648   2.560
   15PRO    HG1  157   3.428   2.625   2.667
   15PRO    HG2  158   3.373   2.559   2.502
   15PRO      C  159   3.453   2.909   2.737
   15PRO    OT1  160   3.564   2.934   2.793
   15PRO    OT2  161   3.350   2.892   2.806
   16SOD    SOD  162   5.325   4.690   0.736
   17SOD    SOD  163   1.063   2.789   2.327
   18SOD    SOD  164   2.631   7.314   3.635
   19SOD    SOD  165   7.792   4.555   4.831
   20SOD    SOD  166   2.867   2.745   3.432
   21SOD    SOD  167   6.117   1.304   5.892
   22SOD    SOD  168   4.652   4.973   4.818
   23SOD    SOD  169   4.607   0.370   3.803
   24SOD    SOD  170   0.898   6.950   0.107
   25SOD    SOD  171   5.089   6.676   4.855
   26SOD    SOD  172   3.068   3.640   4.173
   27SOD    SOD  173   1.390   3.857   3.139
   28SOD    SOD  174   7.586   2.103   4.007
   29SOD    SOD  175   0.518   7.726   0.041
   30SOD    SOD  176   2.293   0.594   5.624
   31SOD    SOD  177   2.804   2.355   1.695
   32SOD    SOD  178   6.023   2.007   4.311
   33SOD    SOD  179   7.477   4.122   1.910
   34SOD    SOD  180   7.731   5.875   6.417
   35SOD    SOD  181   6.846   5.416   0.235
   36SOD    SOD  182   6.620   1.354   6.550
   37SOD    SOD  183   8.203   4.743   4.243
   38SOD    SOD  184   6.117   2.588   5.858
   39SOD    SOD  185   3.990   3.327   3.463
   40SOD    SOD  186   6.125   7.309   1.147
   41SOD    SOD  187   3.972   7.246   2.348
   42SOD    SOD  188   6.925   5.249   3.889
   43SOD    SOD  189   6.393   2.536   3.794
   44SOD    SOD  190   7.621   2.476   4.934
   45SOD    SOD  191   2.799   2.771   0.611
   46SOD    SOD  192   2.054   3.413   5.992
   47SOD    SOD  193   4.202   5.275   2.798
   48SOD    SOD  194   3.431  -0.005   3.563
   49SOD    SOD  195   7.893   1.819   2.086
   50SOD    SOD  196   5.264   3.797   3.904
   51SOD    SOD  197   5.380   4.059   0.536
   52SOD    SOD  198   1.074   0.566  -0.010
   53SOD    SOD  199   5.607   0.752   0.473
   54SOD    SOD  200   0.928   5.253   2.690
   55SOD    SOD  201   1.156   7.199   1.274
   56SOD    SOD  202   2.558   3.004   5.789
   57SOD    SOD  203   7.016   0.369   6.418
   58SOD    SOD  204   7.671   7.134   0.138
   59SOD    SOD  205   2.807   4.307   3.151
   60CLA    CLA  206   0.313   7.283   2.514
   61CLA    CLA  207   4.387   0.200   5.093
   62CLA    CLA  208   1.963   0.965   5.569
   63CLA    CLA  209   2.791   1.948   0.982
   64CLA    CLA  210   6.041   2.978   6.219
   65CLA    CLA  211   0.117   4.535   5.247
   66CLA    CLA  212   0.750   5.546   0.050
   67CLA    CLA  213   7.970   0.066   4.262
   68CLA    CLA  214   4.771   3.584   4.937
   69CLA    CLA  215   2.013   4.626   2.355
   70CLA    CLA  216   7.890   2.007   4.505
   71CLA    CLA  217   3.171   7.321   4.712
   72CLA    CLA  218   6.498   0.486   5.570
   73CLA    CLA  219   7.869   4.312   2.950
   74CLA    CLA  220   7.249   5.137   5.129
   75CLA    CLA  221   7.791   3.172   1.501
   76CLA    CLA  222   0.682   7.453   5.999
   77CLA    CLA  223   6.532   7.328   2.328
   78CLA    CLA  224   2.080   1.021   6.520
   79CLA    CLA  225   4.655   4.347   1.943
   80CLA    CLA  226   7.913  -0.008   1.001
   81CLA    CLA  227   4.749   1.066   4.051
   82CLA    CLA  228   0.669   3.071   3.745
   83CLA    CLA  229   7.204   5.998   5.929
   84CLA    CLA  230   6.040   4.775   4.919
   85CLA    CLA  231   5.071   4.281   1.585
   86CLA    CLA  232   6.988   7.141   2.309
   87CLA    CLA  233   1.543   6.241   1.460
   88CLA    CLA  234   7.787   4.937   4.206
   89CLA    CLA  235   3.666   0.404   5.075
   90CLA    CLA  236   5.674   5.694   3.613
   91CLA    CLA  237   6.111   6.025   1.614
   92CLA    CLA  238   0.279   2.174   2.894
   93CLA    CLA  239   7.383   5.741   3.166
   94CLA    CLA  240   2.567   3.839   3.468
   95CLA    CLA  241   3.262   4.234   4.526
   96CLA    CLA  242   2.390   7.147   3.693
   97CLA    CLA  243   7.490   1.891   2.357
   98CLA    CLA  244   7.049   4.047   2.749
   99CLA    CLA  245   2.982   5.688   4.746
  100CLA    CLA  246   4.574   5.313   6.142
  101CLA    CLA  247   5.833   2.608   4.326
  102TIP3   OH2  248   1.598   1.595   4.801
  102TIP3    H1  249   1.646   1.646   4.866
  102TIP3    H2  250   1.570   1.660   4.736
  103TIP3   OH2  251   2.705   3.180   5.017
  103TIP3    H1  252   2.775   3.133   5.064
  103TIP3    H2  253   2.704   3.139   4.930
  104TIP3   OH2  254   5.866   1.089   6.647
  104TIP3    H1  255   5.833   1.004   6.616
  104TIP3    H2  256   5.951   1.099   6.605
  105TIP3   OH2  257   2.821   4.809   5.117
  105TIP3    H1  258   2.898   4.796   5.173
  105TIP3    H2  259   2.762   4.862   5.170
  106TIP3   OH2  260   5.765   4.000   1.109
  106TIP3    H1  261   5.819   3.973   1.183
  106TIP3    H2  262   5.697   4.055   1.147
  107TIP3   OH2  263   6.756   0.359   2.131
  107TIP3    H1  264   6.767   0.416   2.207
  107TIP3    H2  265   6.813   0.284   2.148
  108TIP3   OH2  266   5.466   1.719   4.891
  108TIP3    H1  267   5.514   1.794   4.927
  108TIP3    H2  268   5.507   1.642   4.932
  109TIP3   OH2  269   2.060   2.254   0.809
  109TIP3    H1  270   2.036   2.301   0.888
  109TIP3    H2  271   2.086   2.167   0.840
  110TIP3   OH2  272   7.279   7.483   2.878
  110TIP3    H1  273   7.248   7.534   2.953
  110TIP3    H2  274   7.201   7.471   2.823
  111TIP3   OH2  275   1.157   3.674   1.914
  111TIP3    H1  276   1.163   3.609   1.984
  111TIP3    H2  277   1.157   3.622   1.834
  112TIP3   OH2  278   3.284   0.123   2.192
  112TIP3    H1  279   3.284   0.121   2.096
  112TIP3    H2  280   3.375   0.143   2.215
  113TIP3   OH2  281   0.755   0.812   3.016
  113TIP3    H1  282   0.816   0.809   3.089
  113TIP3    H2  283   0.782   0.740   2.960
  114TIP3   OH2  284   8.202   4.038   6.620
  114TIP3    H1  285   8.130   4.020   6.681
  114TIP3    H2  286   8.231   3.952   6.591
  115TIP3   OH2  287   8.251   2.264   5.939
  115TIP3    H1  288   8.315   2.194   5.926
  115TIP3    H2  289   8.204   2.239   6.019
  116TIP3   OH2  290   6.330   5.692   4.037
  116TIP3    H1  291   6.242   5.727   4.025
  116TIP3    H2  292   6.316   5.603   4.071
  117TIP3   OH2  293   2.145   6.200   2.905
  117TIP3    H1  294   2.074   6.213   2.969
  117TIP3    H2  295   2.104   6.151   2.834
  118TIP3   OH2  296   1.440   7.754   4.889
  118TIP3    H1  297   1.474   7.842   4.905
  118TIP3    H2  298   1.346   7.766   4.879
  119TIP3   OH2  299   0.495   7.776   4.542
  119TIP3    H1  300   0.512   7.716   4.470
  119TIP3    H2  301   0.410   7.749   4.576
  120TIP3   OH2  302   3.428   4.482   2.894
  120TIP3    H1  303   3.390   4.394   2.893
  120TIP3    H2  304   3.421   4.510   2.985
  121TIP3   OH2  305   2.908   6.507   0.478
  121TIP3    H1  306   2.943   6.596   0.478
  121TIP3    H2  307   2.870   6.495   0.565
  122TIP3   OH2  308   5.001   3.232   6.465
  122TIP3    H1  309   5.022   3.177   6.390
  122TIP3    H2  310   5.085   3.268   6.492
  123TIP3   OH2  311   1.037   7.695   1.234
  123TIP3    H1  312   1.087   7.684   1.153
  123TIP3    H2  313   1.102   7.681   1.303
  124TIP3   OH2  314   0.881   4.163   0.082
  124TIP3    H1  315   0.819   4.222   0.039
  124TIP3    H2  316   0.833   4.081   0.091
  125TIP3   OH2  317   2.666   4.467   3.101
  125TIP3    H1  318   2.587   4.512   3.132
  125TIP3    H2  319   2.662   4.473   3.006
  126TIP3   OH2  320   6.488   6.925   4.740
  126TIP3    H1  321   6.559   6.966   4.690
  126TIP3    H2  322   6.490   6.970   4.825
  127TIP3   OH2  323   7.566   5.486   1.880
  127TIP3    H1  324   7.582   5.431   1.956
  127TIP3    H2  325   7.540   5.425   1.811
  128TIP3   OH2  326   1.516   7.188   2.885
  128TIP3    H1  327   1.467   7.205   2.965
  128TIP3    H2  328   1.541   7.096   2.891
  129TIP3   OH2  329   6.210   2.245   0.448
  129TIP3    H1  330   6.276   2.176   0.444
  129TIP3    H2  331   6.127   2.198   0.451
  130TIP3   OH2  332   4.082   3.196   5.807
  130TIP3    H1  333   4.094   3.105   5.780
  130TIP3    H2  334   4.113   3.198   5.898
  131TIP3   OH2  335   6.960   0.350   6.635
  131TIP3    H1  336   6.910   0.415   6.683
  131TIP3    H2  337   7.039   0.336   6.687
  132TIP3   OH2  338   0.310   5.399   0.163
  132TIP3    H1  339   0.364   5.360   0.094
  132TIP3    H2  340   0.223   5.406   0.125
  133TIP3   OH2  341   1.144   4.856   1.561
  133TIP3    H1  342   1.217   4.809   1.521
  133TIP3    H2  343   1.109   4.911   1.491
  134TIP3   OH2  344   3.773   2.010   2.890
  134TIP3    H1  345   3.796   2.103   2.902
  134TIP3    H2  346   3.688   2.001   2.934
  135TIP3   OH2  347   1.102   2.627   5.965
  135TIP3    H1  348   1.101   2.703   5.907
  135TIP3    H2  349   1.032   2.643   6.027
  136TIP3   OH2  350   0.293   5.513   0.744
  136TIP3    H1  351   0.348   5.538   0.670
  136TIP3    H2  352   0.251   5.432   0.717
  137TIP3   OH2  353   5.360   3.659   5.831
  137TIP3    H1  354   5.292   3.723   5.811
  137TIP3    H2  355   5.433   3.683   5.773
  138TIP3   OH2  356   4.630   0.997   6.305
  138TIP3    H1  357   4.571   0.931   6.340
  138TIP3    H2  358   4.589   1.081   6.329
  139TIP3   OH2  359   6.554   2.999   2.716
  139TIP3    H1  360   6.636   2.976   2.672
  139TIP3    H2  361   6.548   2.938   2.789
  140TIP3   OH2  362   0.086   3.289   1.632
  140TIP3    H1  363   0.002   3.311   1.672
  140TIP3    H2  364   0.072   3.202   1.593
  141TIP3   OH2  365   0.724   4.502   5.725
  141TIP3    H1  366   0.796   4.538   5.777
  141TIP3    H2  367   0.763   4.430   5.675
  142TIP3   OH2  368   2.219   2.835   2.476
  142TIP3    H1  369   2.182   2.894   2.541
  142TIP3    H2  370   2.258   2.892   2.410
  143TIP3   OH2  371   6.851   1.545   5.073
  143TIP3    H1  372   6.907   1.479   5.032
  143TIP3    H2  373   6.780   1.558   5.010
  144TIP3   OH2  374   8.310   7.707   4.540
  144TIP3    H1  375   8.230   7.658   4.561
  144TIP3    H2  376   8.315   7.705   4.445
  145TIP3   OH2  377   4.230   1.119   6.240
  145TIP3    H1  378   4.272   1.187   6.187
  145TIP3    H2  379   4.151   1.161   6.275
  146TIP3   OH2  380   6.668   7.501   3.508
  146TIP3    H1  381   6.589   7.468   3.549
  146TIP3    H2  382   6.658   7.478   3.415
  147TIP3   OH2  383   8.124   1.486   5.168
  147TIP3    H1  384   8.029   1.486   5.177
  147TIP3    H2  385   8.140   1.465   5.076
  148TIP3   OH2  386   8.093   1.807   2.467
  148TIP3    H1  387   8.096   1.770   2.555
  148TIP3    H2  388   8.171   1.773   2.424
  149TIP3   OH2  389   4.275   0.404   0.465
  149TIP3    H1  390   4.254   0.475   0.406
  149TIP3    H2  391   4.319   0.446   0.539
  150TIP3   OH2  392   3.059   2.501   4.820
  150TIP3    H1  393   3.053   2.426   4.761
  150TIP3    H2  394   3.067   2.462   4.908
  151TIP3   OH2  395   6.593   1.602   1.815
  151TIP3    H1  396   6.551   1.629   1.897
  151TIP3    H2  397   6.612   1.509   1.826
  152TIP3   OH2  398   6.326   1.782   3.823
  152TIP3    H1  399   6.260   1.777   3.754
  152TIP3    H2  400   6.321   1.872   3.856
  153TIP3   OH2  401   1.839   5.886   4.444
  153TIP3    H1  402   1.769   5.934   4.400
  153TIP3    H2  403   1.871   5.825   4.378
  154TIP3   OH2  404   2.300   5.146   6.214
  154TIP3    H1  405   2.345   5.073   6.173
  154TIP3    H2  406   2.255   5.106   6.290
  155TIP3   OH2  407   2.963   5.736   5.157
  155TIP3    H1  408   3.016   5.789   5.097
  155TIP3    H2  409   2.916   5.675   5.100
  156TIP3   OH2  410   6.161   2.248   0.885
  156TIP3    H1  411   6.161   2.162   0.842
  156TIP3    H2  412   6.101   2.301   0.832
  157TIP3   OH2  413   0.204   6.512   1.050
  157TIP3    H1  414   0.299   6.526   1.049
  157TIP3    H2  415   0.171   6.565   0.978
  158TIP3   OH2  416   0.249   5.099   5.908
  158TIP3    H1  417   0.162   5.085   5.870
  158TIP3    H2  418   0.292   5.014   5.902
  159TIP3   OH2  419   6.716   1.620   1.499
  159TIP3    H1  420   6.670   1.537   1.511
  159TIP3    H2  421   6.727   1.628   1.404
  160TIP3   OH2  422   5.061   5.628   1.606
  160TIP3    H1  423   5.063   5.595   1.516
  160TIP3    H2  424   5.144   5.599   1.644
  161TIP3   OH2  425   6.005   5.444   6.626
  161TIP3    H1  426   5.965   5.364   6.594
  161TIP3    H2  427   6.093   5.444   6.587
  162TIP3   OH2  428   1.949   0.897   0.134
  162TIP3    H1  429   1.988   0.834   0.195
  162TIP3    H2  430   1.916   0.843   0.061
  163TIP3   OH2  431   6.870   5.513   2.747
  163TIP3    H1  432   6.807   5.476   2.685
  163TIP3    H2  433   6.904   5.437   2.795
  164TIP3   OH2  434   3.157   5.204   3.197
  164TIP3    H1  435   3.136   5.167   3.283
  164TIP3    H2  436   3.156   5.299   3.211
  165TIP3   OH2  437   6.422   3.696   2.415
  165TIP3    H1  438   6.402   3.782   2.377
  165TIP3    H2  439   6.401   3.705   2.508
  166TIP3   OH2  440   7.918   6.323   4.319
  166TIP3    H1  441   8.000   6.276   4.333
  166TIP3    H2  442   7.933   6.372   4.238
  167TIP3   OH2  443   3.779   3.881   4.710
  167TIP3    H1  444   3.724   3.817   4.756
  167TIP3    H2  445   3.722   3.917   4.642
  168TIP3   OH2  446   2.948   1.097   2.795
  168TIP3    H1  447   2.926   1.097   2.702
  168TIP3    H2  448   2.865   1.111   2.840
  169TIP3   OH2  449   4.767   7.166   0.495
  169TIP3    H1  450   4.817   7.105   0.549
  169TIP3    H2  451   4.800   7.252   0.520
  170TIP3   OH2  452   4.324   2.205   2.607
  170TIP3    H1  453   4.259   2.261   2.563
  170TIP3    H2  454   4.409   2.237   2.575
  171TIP3   OH2  455   0.901   4.430   0.347
  171TIP3    H1  456   0.968   4.401   0.284
  171TIP3    H2  457   0.906   4.525   0.345
  172TIP3   OH2  458   4.947   2.398   4.205
  172TIP3    H1  459   5.038   2.374   4.219
  172TIP3    H2  460   4.904   2.317   4.177
  173TIP3   OH2  461   6.592   4.306   0.718
  173TIP3    H1  462   6.509   4.350   0.704
  173TIP3    H2  463   6.603   4.250   0.641
  174TIP3   OH2  464   5.894   6.226   0.250
  174TIP3    H1  465   5.921   6.137   0.226
  174TIP3    H2  466   5.976   6.273   0.264
  175TIP3   OH2  467   1.019   1.117   4.697
  175TIP3    H1  468   1.089   1.051   4.695
  175TIP3    H2  469   1.064   1.201   4.698
  176TIP3   OH2  470   7.608   0.669   0.730
  176TIP3    H1  471   7.656   0.701   0.806
  176TIP3    H2  472   7.557   0.743   0.701
  177TIP3   OH2  473   2.462   3.521   4.909
  177TIP3    H1  474   2.435   3.609   4.883
  177TIP3    H2  475   2.481   3.477   4.826
  178TIP3   OH2  476   6.886   2.628   1.777
  178TIP3    H1  477   6.855   2.708   1.820
  178TIP3    H2  478   6.811   2.597   1.727
  179TIP3   OH2  479   5.633   6.578   1.187
  179TIP3    H1  480   5.694   6.526   1.239
  179TIP3    H2  481   5.552   6.527   1.185
  180TIP3   OH2  482   5.750   6.322   5.243
  180TIP3    H1  483   5.746   6.267   5.322
  180TIP3    H2  484   5.843   6.333   5.227
  181TIP3   OH2  485   4.703   6.290   0.849
  181TIP3    H1  486   4.769   6.347   0.810
  181TIP3    H2  487   4.620   6.335   0.834
  182TIP3   OH2  488   4.600   0.381   0.014
  182TIP3    H1  489   4.683   0.401   0.058
  182TIP3    H2  490   4.543   0.351   0.085
  183TIP3   OH2  491   0.169   2.413   0.999
  183TIP3    H1  492   0.098   2.370   1.048
  183TIP3    H2  493   0.183   2.496   1.045
  184TIP3   OH2  494   2.655   4.507   2.803
  184TIP3    H1  495   2.617   4.437   2.750
  184TIP3    H2  496   2.733   4.534   2.755
  185TIP3   OH2  497   4.831   1.216   1.331
  185TIP3    H1  498   4.798   1.241   1.244
  185TIP3    H2  499   4.763   1.158   1.366
  186TIP3   OH2  500   4.261   6.499   2.559
  186TIP3    H1  501   4.351   6.467   2.562
  186TIP3    H2  502   4.212   6.431   2.512
  187TIP3   OH2  503   3.907   0.632   1.689
  187TIP3    H1  504   3.998   0.623   1.716
  187TIP3    H2  505   3.888   0.725   1.699
  188TIP3   OH2  506   4.737   3.349   5.561
  188TIP3    H1  507   4.748   3.286   5.632
  188TIP3    H2  508   4.726   3.433   5.605
  189TIP3   OH2  509   3.704   4.577   3.977
  189TIP3    H1  510   3.609   4.565   3.978
  189TIP3    H2  511   3.733   4.540   4.061
  190TIP3   OH2  512   8.066   0.077   6.587
  190TIP3    H1  513   8.021   0.015   6.529
  190TIP3    H2  514   8.092   0.024   6.663
  191TIP3   OH2  515   2.253   6.531   0.141
  191TIP3    H1  516   2.259   6.530   0.046
  191TIP3    H2  517   2.196   6.457   0.163
  192TIP3   OH2  518   2.396   2.699   1.604
  192TIP3    H1  519   2.463   2.767   1.606
  192TIP3    H2  520   2.360   2.703   1.515
  193TIP3   OH2  521   5.597   6.095   4.177
  193TIP3    H1  522   5.586   6.142   4.260
  193TIP3    H2  523   5.555   6.150   4.112
  194TIP3   OH2  524   6.637   4.815   3.716
  194TIP3    H1  525   6.706   4.795   3.652
  194TIP3    H2  526   6.683   4.860   3.787
  195TIP3   OH2  527   1.733   4.177   0.612
  195TIP3    H1  528   1.670   4.132   0.667
  195TIP3    H2  529   1.793   4.108   0.582
  196TIP3   OH2  530   6.396   5.539   1.534
  196TIP3    H1  531   6.370   5.631   1.530
  196TIP3    H2  532   6.366   5.510   1.620
  197TIP3   OH2  533   6.208   0.700   3.354
  197TIP3    H1  534   6.159   0.648   3.417
  197TIP3    H2  535   6.297   0.703   3.389
  198TIP3   OH2  536   6.681   0.120   2.347
  198TIP3    H1  537   6.591   0.137   2.319
  198TIP3    H2  538   6.718   0.207   2.363
  199TIP3   OH2  539   6.613   5.844   1.020
  199TIP3    H1  540   6.632   5.887   0.937
  199TIP3    H2  541   6.572   5.912   1.074
  200TIP3   OH2  542   0.600   5.265   6.632
  200TIP3    H1  543   0.635   5.176   6.643
  200TIP3    H2  544   0.609   5.282   6.539
  201TIP3   OH2  545   4.714   4.540   2.201
  201TIP3    H1  546   4.718   4.627   2.161
  201TIP3    H2  547   4.715   4.479   2.127
  202TIP3   OH2  548   5.275   3.144   5.585
  202TIP3    H1  549   5.237   3.203   5.519
  202TIP3    H2  550   5.369   3.159   5.579
  203TIP3   OH2  551   5.679   3.972   2.517
  203TIP3    H1  552   5.737   3.972   2.593
  203TIP3    H2  553   5.735   3.947   2.443
  204TIP3   OH2  554   0.532   4.657   5.587
  204TIP3    H1  555   0.611   4.612   5.616
  204TIP3    H2  556   0.461   4.613   5.634
  205TIP3   OH2  557   3.132   6.345   3.757
  205TIP3    H1  558   3.170   6.291   3.689
  205TIP3    H2  559   3.178   6.319   3.837
  206TIP3   OH2  560   7.642   6.676   4.823
  206TIP3    H1  561   7.635   6.719   4.909
  206TIP3    H2  562   7.555   6.684   4.785
  207TIP3   OH2  563   6.737   2.665   5.149
  207TIP3    H1  564   6.797   2.649   5.222
  207TIP3    H2  565   6.684   2.586   5.144
  208TIP3   OH2  566   6.876   6.350   2.513
  208TIP3    H1  567   6.874   6.288   2.440
  208TIP3    H2  568   6.881   6.436   2.472
  209TIP3   OH2  569   1.746   4.695   3.717
  209TIP3    H1  570   1.810   4.749   3.671
  209TIP3    H2  571   1.688   4.662   3.648
  210TIP3   OH2  572   3.431   6.113   0.277
  210TIP3    H1  573   3.417   6.198   0.317
  210TIP3    H2  574   3.346   6.069   0.281
  211TIP3   OH2  575   3.622   7.645   2.378
  211TIP3    H1  576   3.692   7.633   2.313
  211TIP3    H2  577   3.568   7.714   2.341
  212TIP3   OH2  578   6.028   5.107   3.598
  212TIP3    H1  579   6.078   5.054   3.660
  212TIP3    H2  580   6.084   5.111   3.520
  213TIP3   OH2  581   6.356   1.459   0.645
  213TIP3    H1  582   6.314   1.380   0.611
  213TIP3    H2  583   6.362   1.517   0.569
  214TIP3   OH2  584   4.365   6.030   0.400
  214TIP3    H1  585   4.381   5.953   0.455
  214TIP3    H2  586   4.291   6.004   0.344
  215TIP3   OH2  587   7.447   2.066   1.699
  215TIP3    H1  588   7.402   2.112   1.770
  215TIP3    H2  589   7.431   2.120   1.622
  216TIP3   OH2  590   6.506   3.359   3.039
  216TIP3    H1  591   6.479   3.418   2.969
  216TIP3    H2  592   6.483   3.405   3.119
  217TIP3   OH2  593   2.035   6.814   2.906
  217TIP3    H1  594   1.972   6.764   2.854
  217TIP3    H2  595   2.068   6.751   2.970
  218TIP3   OH2  596   8.146   0.222   1.759
  218TIP3    H1  597   8.157   0.236   1.664
  218TIP3    H2  598   8.235   0.213   1.792
  219TIP3   OH2  599   8.228   7.290   2.754
  219TIP3    H1  600   8.308   7.248   2.784
  219TIP3    H2  601   8.250   7.323   2.667
  220TIP3   OH2  602   6.516   3.986   4.062
  220TIP3    H1  603   6.514   3.948   4.150
  220TIP3    H2  604   6.585   3.937   4.018
  221TIP3   OH2  605   3.098   3.547   3.046
  221TIP3    H1  606   3.159   3.609   3.005
  221TIP3    H2  607   3.153   3.472   3.070
  222TIP3   OH2  608   2.162   2.863   0.851
  222TIP3    H1  609   2.143   2.772   0.875
  222TIP3    H2  610   2.193   2.858   0.761
  223TIP3   OH2  611   4.053   4.541   3.174
  223TIP3    H1  612   4.128   4.486   3.152
  223TIP3    H2  613   4.064   4.618   3.118
  224TIP3   OH2  614   2.677   6.786   2.975
  224TIP3    H1  615   2.629   6.868   2.990
  224TIP3    H2  616   2.666   6.737   3.057
  225TIP3   OH2  617   1.920   5.946   5.035
  225TIP3    H1  618   1.834   5.969   5.001
  225TIP3    H2  619   1.972   6.027   5.025
  226TIP3   OH2  620   8.310   5.764   5.165
  226TIP3    H1  621   8.292   5.829   5.233
  226TIP3    H2  622   8.228   5.716   5.155
  227TIP3   OH2  623   6.879   1.717   0.240
  227TIP3    H1  624   6.964   1.677   0.258
  227TIP3    H2  625   6.860   1.771   0.317
  228TIP3   OH2  626   0.579   4.408   1.000
  228TIP3    H1  627   0.665   4.370   1.019
  228TIP3    H2  628   0.533   4.406   1.084
  229TIP3   OH2  629   0.706   0.147   1.001
  229TIP3    H1  630   0.763   0.166   0.927
  229TIP3    H2  631   0.766   0.124   1.072
  230TIP3   OH2  632   1.368   6.246   3.859
  230TIP3    H1  633   1.399   6.159   3.831
  230TIP3    H2  634   1.392   6.251   3.952
  231TIP3   OH2  635   3.672   5.341   4.795
  231TIP3    H1  636   3.651   5.325   4.703
  231TIP3    H2  637   3.590   5.369   4.834
  232TIP3   OH2  638   5.505   0.972   4.099
  232TIP3    H1  639   5.548   1.001   4.179
  232TIP3    H2  640   5.575   0.968   4.034
  233TIP3   OH2  641   2.053   4.050   3.073
  233TIP3    H1  642   1.990   4.121   3.063
  233TIP3    H2  643   2.137   4.089   3.046
  234TIP3   OH2  644   7.558   3.144   0.627
  234TIP3    H1  645   7.598   3.224   0.593
  234TIP3    H2  646   7.601   3.129   0.710
  235TIP3   OH2  647   0.821   4.545   3.880
  235TIP3    H1  648   0.801   4.638   3.891
  235TIP3    H2  649   0.827   4.511   3.969
  236TIP3   OH2  650   5.827   1.321   4.234
  236TIP3    H1  651   5.909   1.302   4.278
  236TIP3    H2  652   5.852   1.332   4.142
  237TIP3   OH2  653   3.913   7.795   3.652
  237TIP3    H1  654   3.877   7.807   3.740
  237TIP3    H2  655   3.919   7.700   3.641
  238TIP3   OH2  656   7.218   4.233   3.957
  238TIP3    H1  657   7.308   4.203   3.941
  238TIP3    H2  658   7.216   4.322   3.923
  239TIP3   OH2  659   1.189   5.712   1.932
  239TIP3    H1  660   1.209   5.668   2.014
  239TIP3    H2  661   1.213   5.803   1.946
  240TIP3   OH2  662   1.735   0.004   0.202
  240TIP3    H1  663   1.702  -0.072   0.249
  240TIP3    H2  664   1.795   0.046   0.263
  241TIP3   OH2  665   3.336   2.013   0.311
  241TIP3    H1  666   3.395   2.052   0.247
  241TIP3    H2  667   3.263   2.075   0.318
  242TIP3   OH2  668   4.339   6.072   3.040
  242TIP3    H1  669   4.427   6.109   3.029
  242TIP3    H2  670   4.342   6.028   3.125
  243TIP3   OH2  671   1.404   2.306   3.248
  243TIP3    H1  672   1.437   2.396   3.239
  243TIP3    H2  673   1.474   2.261   3.295
  244TIP3   OH2  674   0.717   1.992   3.732
  244TIP3    H1  675   0.711   2.001   3.637
  244TIP3    H2  676   0.784   1.925   3.746
  245TIP3   OH2  677   6.628   3.960   1.341
  245TIP3    H1  678   6.661   3.945   1.253
  245TIP3    H2  679   6.663   4.046   1.366
  246TIP3   OH2  680   6.641   7.459   1.301
  246TIP3    H1  681   6.630   7.364   1.304
  246TIP3    H2  682   6.620   7.488   1.390
  247TIP3   OH2  683   6.986   3.347   3.268
  247TIP3    H1  684   7.066   3.399   3.264
  247TIP3    H2  685   7.013   3.258   3.245
  248TIP3   OH2  686   5.551   7.094   0.452
  248TIP3    H1  687   5.561   7.177   0.407
  248TIP3    H2  688   5.586   7.029   0.391
  249TIP3   OH2  689   4.211   1.946   2.452
  249TIP3    H1  690   4.250   2.006   2.388
  249TIP3    H2  691   4.280   1.882   2.470
  250TIP3   OH2  692   6.759   0.503   4.281
  250TIP3    H1  693   6.851   0.486   4.262
  250TIP3    H2  694   6.711   0.453   4.215
  251TIP3   OH2  695   3.535   7.626   5.685
  251TIP3    H1  696   3.448   7.658   5.709
  251TIP3    H2  697   3.590   7.646   5.761
  252TIP3   OH2  698   0.303   0.417   0.998
  252TIP3    H1  699   0.395   0.397   0.982
  252TIP3    H2  700   0.292   0.404   1.092
  253TIP3   OH2  701   6.944   0.865   3.744
  253TIP3    H1  702   6.891   0.909   3.677
  253TIP3    H2  703   7.018   0.923   3.758
  254TIP3   OH2  704   3.999   5.172   2.844
  254TIP3    H1  705   3.987   5.107   2.913
  254TIP3    H2  706   3.928   5.155   2.782
  255TIP3   OH2  707   7.574   2.411   4.507
  255TIP3    H1  708   7.490   2.366   4.511
  255TIP3    H2  709   7.596   2.428   4.599
  256TIP3   OH2  710   5.833   5.004   5.327
  256TIP3    H1  711   5.887   5.003   5.247
  256TIP3    H2  712   5.779   4.925   5.320
  257TIP3   OH2  713   5.563   2.638   4.489
  257TIP3    H1  714   5.515   2.622   4.408
  257TIP3    H2  715   5.655   2.630   4.464
  258TIP3   OH2  716   5.099   6.042   3.064
  258TIP3    H1  717   5.124   5.957   3.027
  258TIP3    H2  718   5.157   6.105   3.022
  259TIP3   OH2  719   4.693   1.360   2.236
  259TIP3    H1  720   4.666   1.451   2.238
  259TIP3    H2  721   4.625   1.316   2.184
  260TIP3   OH2  722   3.829   4.365   3.136
  260TIP3    H1  723   3.886   4.420   3.190
  260TIP3    H2  724   3.743   4.407   3.141
  261TIP3   OH2  725   3.517   2.048   3.074
  261TIP3    H1  726   3.540   2.129   3.119
  261TIP3    H2  727   3.421   2.044   3.081
  262TIP3   OH2  728   6.583   4.929   2.295
  262TIP3    H1  729   6.626   4.850   2.261
  262TIP3    H2  730   6.654   4.991   2.310
  263TIP3   OH2  731   6.563   3.859   3.284
  263TIP3    H1  732   6.532   3.933   3.231
  263TIP3    H2  733   6.580   3.790   3.220
  264TIP3   OH2  734   7.711   0.556   1.686
  264TIP3    H1  735   7.751   0.470   1.681
  264TIP3    H2  736   7.764   0.604   1.750
  265TIP3   OH2  737   3.722   5.689   4.761
  265TIP3    H1  738   3.770   5.723   4.837
  265TIP3    H2  739   3.773   5.613   4.733
  266TIP3   OH2  740   5.519   2.640   6.598
  266TIP3    H1  741   5.482   2.552   6.609
  266TIP3    H2  742   5.547   2.666   6.686
  267TIP3   OH2  743   5.329   7.711   2.177
  267TIP3    H1  744   5.266   7.640   2.170
  267TIP3    H2  745   5.414   7.667   2.180
  268TIP3   OH2  746   8.188   4.731   3.607
  268TIP3    H1  747   8.218   4.769   3.690
  268TIP3    H2  748   8.098   4.762   3.598
  269TIP3   OH2  749   0.062   3.430   5.828
  269TIP3    H1  750   0.023   3.425   5.741
  269TIP3    H2  751   0.152   3.400   5.815
  270TIP3   OH2  752   1.354   6.090   5.099
  270TIP3    H1  753   1.281   6.049   5.052
  270TIP3    H2  754   1.348   6.052   5.187
  271TIP3   OH2  755   2.834   1.725   4.099
  271TIP3    H1  756   2.852   1.818   4.093
  271TIP3    H2  757   2.832   1.695   4.008
  272TIP3   OH2  758   5.521   7.721   5.538
  272TIP3    H1  759   5.529   7.661   5.464
  272TIP3    H2  760   5.427   7.737   5.546
  273TIP3   OH2  761   6.987   7.520   3.089
  273TIP3    H1  762   6.982   7.614   3.072
  273TIP3    H2  763   6.953   7.510   3.179
  274TIP3   OH2  764   2.323   7.499   6.445
  274TIP3    H1  765   2.372   7.501   6.527
  274TIP3    H2  766   2.284   7.586   6.438
  275TIP3   OH2  767   1.653   2.914   4.800
  275TIP3    H1  768   1.745   2.890   4.797
  275TIP3    H2  769   1.652   3.008   4.782
  276TIP3   OH2  770   1.647   5.826   3.028
  276TIP3    H1  771   1.632   5.755   2.965
  276TIP3    H2  772   1.647   5.783   3.113
  277TIP3   OH2  773   0.190   7.426   0.124
  277TIP3    H1  774   0.218   7.413   0.215
  277TIP3    H2  775   0.223   7.350   0.077
  278TIP3   OH2  776   7.476   5.714   0.637
  278TIP3    H1  777   7.568   5.721   0.664
  278TIP3    H2  778   7.448   5.628   0.670
  279TIP3   OH2  779   0.795   3.763   6.430
  279TIP3    H1  780   0.834   3.805   6.353
  279TIP3    H2  781   0.730   3.702   6.393
  280TIP3   OH2  782   2.793   0.436   6.656
  280TIP3    H1  783   2.771   0.509   6.599
  280TIP3    H2  784   2.778   0.358   6.601
  281TIP3   OH2  785   1.319   2.796   3.470
  281TIP3    H1  786   1.405   2.836   3.456
  281TIP3    H2  787   1.334   2.730   3.538
  282TIP3   OH2  788   6.361   7.493   5.614
  282TIP3    H1  789   6.338   7.541   5.693
  282TIP3    H2  790   6.381   7.405   5.644
  283TIP3   OH2  791   6.287   5.219   4.927
  283TIP3    H1  792   6.280   5.127   4.954
  283TIP3    H2  793   6.342   5.259   4.993
  284TIP3   OH2  794   8.185   4.526   3.122
  284TIP3    H1  795   8.279   4.536   3.137
  284TIP3    H2  796   8.178   4.465   3.048
  285TIP3   OH2  797   3.670   0.407   1.559
  285TIP3    H1  798   3.651   0.489   1.514
  285TIP3    H2  799   3.631   0.339   1.503
  286TIP3   OH2  800   2.302   4.226   5.104
  286TIP3    H1  801   2.298   4.299   5.042
  286TIP3    H2  802   2.357   4.161   5.060
  287TIP3   OH2  803   6.825   0.272   5.489
  287TIP3    H1  804   6.850   0.217   5.415
  287TIP3    H2  805   6.817   0.211   5.563
  288TIP3   OH2  806   4.863   3.609   0.487
  288TIP3    H1  807   4.804   3.580   0.557
  288TIP3    H2  808   4.852   3.705   0.485
  289TIP3   OH2  809   1.570   0.277   3.962
  289TIP3    H1  810   1.521   0.300   3.884
  289TIP3    H2  811   1.631   0.208   3.933
  290TIP3   OH2  812   0.526   4.061   3.853
  290TIP3    H1  813   0.457   3.997   3.834
  290TIP3    H2  814   0.565   4.080   3.768
  291TIP3   OH2  815   3.382   5.731   0.384
  291TIP3    H1  816   3.412   5.728   0.475
  291TIP3    H2  817   3.314   5.799   0.383
  292TIP3   OH2  818   1.350   7.182   3.092
  292TIP3    H1  819   1.398   7.142   3.165
  292TIP3    H2  820   1.274   7.125   3.080
  293TIP3   OH2  821   2.090   5.633   0.771
  293TIP3    H1  822   2.107   5.667   0.859
  293TIP3    H2  823   2.092   5.710   0.715
  294TIP3   OH2  824   7.252   6.071   5.101
  294TIP3    H1  825   7.175   6.038   5.054
  294TIP3    H2  826   7.322   6.011   5.077
  295TIP3   OH2  827   1.996   6.063   3.918
  295TIP3    H1  828   1.970   5.973   3.940
  295TIP3    H2  829   1.917   6.104   3.886
  296TIP3   OH2  830   0.337   4.841   4.887
  296TIP3    H1  831   0.358   4.758   4.929
  296TIP3    H2  832   0.398   4.846   4.813
  297TIP3   OH2  833   1.858   0.768   2.781
  297TIP3    H1  834   1.838   0.760   2.688
  297TIP3    H2  835   1.838   0.859   2.802
  298TIP3   OH2  836   4.139   2.989   2.361
  298TIP3    H1  837   4.232   3.010   2.359
  298TIP3    H2  838   4.123   2.943   2.279
  299TIP3   OH2  839   3.328   2.778   3.374
  299TIP3    H1  840   3.371   2.716   3.432
  299TIP3    H2  841   3.307   2.727   3.296
  300TIP3   OH2  842   7.296   1.605   1.253
  300TIP3    H1  843   7.320   1.523   1.295
  300TIP3    H2  844   7.221   1.583   1.198
  301TIP3   OH2  845   1.286   2.579   5.298
  301TIP3    H1  846   1.259   2.651   5.355
  301TIP3    H2  847   1.345   2.526   5.353
  302TIP3   OH2  848   0.453   4.020   2.824
  302TIP3    H1  849   0.468   3.953   2.757
  302TIP3    H2  850   0.528   4.079   2.816
  303TIP3   OH2  851   7.873   5.167   6.545
  303TIP3    H1  852   7.858   5.199   6.456
  303TIP3    H2  853   7.948   5.216   6.576
  304TIP3   OH2  854   2.373   3.844   6.382
  304TIP3    H1  855   2.424   3.775   6.425
  304TIP3    H2  856   2.282   3.820   6.397
  305TIP3   OH2  857   5.659   3.370   6.360
  305TIP3    H1  858   5.754   3.377   6.358
  305TIP3    H2  859   5.629   3.418   6.283
  306TIP3   OH2  860   3.166   4.165   1.013
  306TIP3    H1  861   3.090   4.127   1.056
  306TIP3    H2  862   3.143   4.164   0.920
  307TIP3   OH2  863   4.584   2.380   1.965
  307TIP3    H1  864   4.623   2.405   2.049
  307TIP3    H2  865   4.613   2.449   1.904
  308TIP3   OH2  866   4.402   6.999   2.200
  308TIP3    H1  867   4.342   6.986   2.127
  308TIP3    H2  868   4.482   7.032   2.160
  309TIP3   OH2  869   4.955   7.290   6.369
  309TIP3    H1  870   4.920   7.334   6.291
  309TIP3    H2  871   4.923   7.341   6.443
  310TIP3   OH2  872   8.035   7.267   6.682
  310TIP3    H1  873   8.128   7.259   6.660
  310TIP3    H2  874   8.008   7.178   6.705
  311TIP3   OH2  875   5.364   6.877   1.274
  311TIP3    H1  876   5.419   6.822   1.331
  311TIP3    H2  877   5.361   6.830   1.191
  312TIP3   OH2  878   2.791   7.475   3.284
  312TIP3    H1  879   2.861   7.455   3.347
  312TIP3    H2  880   2.836   7.514   3.209
  313TIP3   OH2  881   2.210  -0.016   4.625
  313TIP3    H1  882   2.210  -0.014   4.529
  313TIP3    H2  883   2.198  -0.109   4.647
  314TIP3   OH2  884   1.884   7.349   3.770
  314TIP3    H1  885   1.889   7.374   3.862
  314TIP3    H2  886   1.967   7.303   3.754
  315TIP3   OH2  887   2.305   3.245   4.734
  315TIP3    H1  888   2.221   3.246   4.687
  315TIP3    H2  889   2.349   3.325   4.706
  316TIP3   OH2  890   2.664   0.757   2.445
  316TIP3    H1  891   2.688   0.666   2.456
  316TIP3    H2  892   2.739   0.807   2.478
  317TIP3   OH2  893   2.488   7.500   3.582
  317TIP3    H1  894   2.408   7.491   3.531
  317TIP3    H2  895   2.503   7.595   3.586
  318TIP3   OH2  896   7.735   4.245   4.465
  318TIP3    H1  897   7.712   4.221   4.375
  318TIP3    H2  898   7.814   4.194   4.484
  319TIP3   OH2  899   5.733   7.315   4.114
  319TIP3    H1  900   5.641   7.335   4.129
  319TIP3    H2  901   5.768   7.294   4.201
  320TIP3   OH2  902   6.129   7.264   3.957
  320TIP3    H1  903   6.048   7.231   3.918
  320TIP3    H2  904   6.132   7.225   4.044
  321TIP3   OH2  905   3.167   0.589   6.626
  321TIP3    H1  906   3.206   0.568   6.711
  321TIP3    H2  907   3.206   0.527   6.565
  322TIP3   OH2  908   2.661   2.533   5.252
  322TIP3    H1  909   2.633   2.519   5.162
  322TIP3    H2  910   2.678   2.445   5.286
  323TIP3   OH2  911   7.258   6.440   4.449
  323TIP3    H1  912   7.273   6.389   4.369
  323TIP3    H2  913   7.213   6.519   4.418
  324TIP3   OH2  914   6.566   4.093   3.695
  324TIP3    H1  915   6.582   4.002   3.670
  324TIP3    H2  916   6.609   4.144   3.627
  325TIP3   OH2  917   4.004   5.100   3.454
  325TIP3    H1  918   3.967   5.093   3.542
  325TIP3    H2  919   4.088   5.053   3.459
  326TIP3   OH2  920   7.240   2.823   3.142
  326TIP3    H1  921   7.295   2.871   3.080
  326TIP3    H2  922   7.259   2.864   3.227
  327TIP3   OH2  923   3.315   3.885   4.535
  327TIP3    H1  924   3.408   3.869   4.549
  327TIP3    H2  925   3.311   3.977   4.506
  328TIP3   OH2  926   4.020   1.569   4.802
  328TIP3    H1  927   4.102   1.618   4.794
  328TIP3    H2  928   4.031   1.494   4.744
  329TIP3   OH2  929   2.157   3.758   1.538
  329TIP3    H1  930   2.103   3.822   1.583
  329TIP3    H2  931   2.096   3.690   1.509
  330TIP3   OH2  932   2.958   0.971   3.611
  330TIP3    H1  933   2.899   0.982   3.685
  330TIP3    H2  934   3.030   0.918   3.644
  331TIP3   OH2  935   4.197   2.574   1.203
  331TIP3    H1  936   4.197   2.534   1.116
  331TIP3    H2  937   4.105   2.591   1.222
  332TIP3   OH2  938   1.746   5.283   0.156
  332TIP3    H1  939   1.762   5.190   0.136
  332TIP3    H2  940   1.665   5.283   0.206
  333TIP3   OH2  941   6.645   6.481   1.922
  333TIP3    H1  942   6.598   6.564   1.930
  333TIP3    H2  943   6.640   6.459   1.829
  334TIP3   OH2  944   4.038   1.897   3.305
  334TIP3    H1  945   3.980   1.871   3.234
  334TIP3    H2  946   3.982   1.899   3.383
  335TIP3   OH2  947   6.811   3.546   0.126
  335TIP3    H1  948   6.861   3.542   0.044
  335TIP3    H2  949   6.821   3.637   0.155
  336TIP3   OH2  950   5.664   6.856   2.041
  336TIP3    H1  951   5.667   6.762   2.058
  336TIP3    H2  952   5.644   6.863   1.948
  337TIP3   OH2  953   1.785   3.369   2.681
  337TIP3    H1  954   1.828   3.400   2.761
  337TIP3    H2  955   1.701   3.333   2.710
  338TIP3   OH2  956   4.731   2.500   2.766
  338TIP3    H1  957   4.704   2.584   2.728
  338TIP3    H2  958   4.826   2.510   2.779
  339TIP3   OH2  959   4.846   5.843   2.487
  339TIP3    H1  960   4.806   5.842   2.574
  339TIP3    H2  961   4.938   5.821   2.502
  340TIP3   OH2  962   0.937   0.370   0.893
  340TIP3    H1  963   0.910   0.411   0.811
  340TIP3    H2  964   1.029   0.396   0.904
  341TIP3   OH2  965   2.277   3.664   3.066
  341TIP3    H1  966   2.312   3.597   3.125
  341TIP3    H2  967   2.319   3.745   3.094
  342TIP3   OH2  968   7.130   6.503   4.090
  342TIP3    H1  969   7.143   6.588   4.133
  342TIP3    H2  970   7.191   6.504   4.016
  343TIP3   OH2  971   3.386   3.569   2.925
  343TIP3    H1  972   3.472   3.567   2.884
  343TIP3    H2  973   3.349   3.482   2.907
  344TIP3   OH2  974   5.807   6.446   0.823
  344TIP3    H1  975   5.854   6.466   0.742
  344TIP3    H2  976   5.825   6.520   0.881
  345TIP3   OH2  977   6.125   4.511   5.074
  345TIP3    H1  978   6.132   4.429   5.026
  345TIP3    H2  979   6.083   4.571   5.012
  346TIP3   OH2  980   6.169   0.538   5.008
  346TIP3    H1  981   6.201   0.628   5.018
  346TIP3    H2  982   6.123   0.538   4.924
  347TIP3   OH2  983   6.846   4.746   0.362
  347TIP3    H1  984   6.848   4.763   0.457
  347TIP3    H2  985   6.935   4.763   0.333
  348TIP3   OH2  986   2.051   4.343   6.253
  348TIP3    H1  987   2.041   4.309   6.342
  348TIP3    H2  988   1.963   4.368   6.226
  349TIP3   OH2  989   0.060   5.447   3.017
  349TIP3    H1  990   0.088   5.367   2.973
  349TIP3    H2  991  -0.001   5.488   2.956
  350TIP3   OH2  992   0.264   5.604   3.042
  350TIP3    H1  993   0.189   5.659   3.066
  350TIP3    H2  994   0.225   5.520   3.017
  351TIP3   OH2  995   4.090   2.862   6.250
  351TIP3    H1  996   4.119   2.828   6.334
  351TIP3    H2  997   4.150   2.825   6.185
  352TIP3   OH2  998   5.449   4.769   6.388
  352TIP3    H1  999   5.523   4.716   6.418
  352TIP3    H2 1000   5.440   4.747   6.295
  353TIP3   OH2 1001   7.579   3.905   1.887
  353TIP3    H1 1002   7.636   3.834   1.918
  353TIP3    H2 1003   7.596   3.909   1.793
  354TIP3   OH2 1004   4.025   0.986   1.577
  354TIP3    H1 1005   4.028   1.073   1.538
  354TIP3    H2 1006   4.019   0.926   1.503
  355TIP3   OH2 1007   2.246   1.267   0.893
  355TIP3    H1 1008   2.193   1.341   0.863
  355TIP3    H2 1009   2.293   1.300   0.969
  356TIP3   OH2 1010   8.221   2.620   3.821
  356TIP3    H1 1011   8.229   2.551   3.886
  356TIP3    H2 1012   8.149   2.590   3.764
  357TIP3   OH2 1013   4.627   2.617   5.807
  357TIP3    H1 1014   4.630   2.530   5.768
  357TIP3    H2 1015   4.709   2.658   5.781
  358TIP3   OH2 1016   6.678   2.496   6.377
  358TIP3    H1 1017   6.754   2.443   6.401
  358TIP3    H2 1018   6.647   2.533   6.460
  359TIP3   OH2 1019   0.310   5.752   0.090
  359TIP3    H1 1020   0.285   5.842   0.113
  359TIP3    H2 1021   0.389   5.735   0.143
  360TIP3   OH2 1022   5.708   0.068   3.158
  360TIP3    H1 1023   5.613   0.057   3.157
  360TIP3    H2 1024   5.722   0.152   3.203
  361TIP3   OH2 1025   3.000   7.383   0.765
  361TIP3    H1 1026   3.025   7.341   0.847
  361TIP3    H2 1027   2.963   7.313   0.712
  362TIP3   OH2 1028   0.995   1.328   2.168
  362TIP3    H1 1029   1.008   1.344   2.261
  362TIP3    H2 1030   1.041   1.400   2.124
  363TIP3   OH2 1031   0.229   6.026   3.236
  363TIP3    H1 1032   0.233   6.010   3.142
  363TIP3    H2 1033   0.176   6.105   3.245
  364TIP3   OH2 1034   6.502   4.508   4.178
  364TIP3    H1 1035   6.509   4.589   4.129
  364TIP3    H2 1036   6.577   4.455   4.150
  365TIP3   OH2 1037   7.437   3.629   0.618
  365TIP3    H1 1038   7.412   3.542   0.650
  365TIP3    H2 1039   7.462   3.615   0.527
  366TIP3   OH2 1040   1.246   5.148   3.889
  366TIP3    H1 1041   1.283   5.110   3.809
  366TIP3    H2 1042   1.221   5.072   3.942
  367TIP3   OH2 1043   0.373   5.813   1.365
  367TIP3    H1 1044   0.385   5.843   1.275
  367TIP3    H2 1045   0.392   5.890   1.418
  368TIP3   OH2 1046   3.545   3.424   3.133
  368TIP3    H1 1047   3.477   3.408   3.068
  368TIP3    H2 1048   3.571   3.515   3.119
  369TIP3   OH2 1049   7.917   2.899   4.116
  369TIP3    H1 1050   7.981   2.937   4.176
  369TIP3    H2 1051   7.832   2.919   4.156
  370TIP3   OH2 1052   7.401   7.553   2.043
  370TIP3    H1 1053   7.340   7.626   2.031
  370TIP3    H2 1054   7.435   7.535   1.955
  371TIP3   OH2 1055   0.620   1.440   6.139
  371TIP3    H1 1056   0.529   1.466   6.152
  371TIP3    H2 1057   0.669   1.522   6.136
  372TIP3   OH2 1058   7.204   7.796   4.134
  372TIP3    H1 1059   7.217   7.818   4.042
  372TIP3    H2 1060   7.143   7.722   4.133
  373TIP3   OH2 1061   5.730   1.912   1.633
  373TIP3    H1 1062   5.797   1.865   1.583
  373TIP3    H2 1063   5.708   1.987   1.578
  374TIP3   OH2 1064   3.628   5.400   5.983
  374TIP3    H1 1065   3.637   5.308   5.958
  374TIP3    H2 1066   3.545   5.427   5.944
  375TIP3   OH2 1067   7.568   4.054   5.787
  375TIP3    H1 1068   7.505   4.068   5.858
  375TIP3    H2 1069   7.623   4.133   5.789
  376TIP3   OH2 1070   6.967   2.295   1.190
  376TIP3    H1 1071   7.019   2.326   1.116
  376TIP3    H2 1072   6.907   2.367   1.210
  377TIP3   OH2 1073   8.018   0.921   1.561
  377TIP3    H1 1074   8.055   0.946   1.477
  377TIP3    H2 1075   8.094   0.916   1.620
  378TIP3   OH2 1076   0.712   2.596   6.200
  378TIP3    H1 1077   0.662   2.654   6.258
  378TIP3    H2 1078   0.645   2.540   6.160
  379TIP3   OH2 1079   1.105   2.259   0.555
  379TIP3    H1 1080   1.101   2.305   0.639
  379TIP3    H2 1081   1.098   2.166   0.578
  380TIP3   OH2 1082   1.339   6.987   2.006
  380TIP3    H1 1083   1.311   6.898   2.026
  380TIP3    H2 1084   1.406   7.007   2.071
  381TIP3   OH2 1085   5.594   6.983   1.553
  381TIP3    H1 1086   5.604   6.935   1.470
  381TIP3    H2 1087   5.684   7.006   1.578
  382TIP3   OH2 1088   1.288   2.451   6.243
  382TIP3    H1 1089   1.257   2.371   6.286
  382TIP3    H2 1090   1.286   2.430   6.150
  383TIP3   OH2 1091   0.480   0.883   3.162
  383TIP3    H1 1092   0.427   0.960   3.178
  383TIP3    H2 1093   0.560   0.916   3.122
  384TIP3   OH2 1094   2.435   4.813   1.846
  384TIP3    H1 1095   2.461   4.896   1.806
  384TIP3    H2 1096   2.516   4.779   1.883
  385TIP3   OH2 1097   2.206   6.122   0.410
  385TIP3    H1 1098   2.137   6.066   0.445
  385TIP3    H2 1099   2.260   6.063   0.357
  386TIP3   OH2 1100   6.406   7.771   4.065
  386TIP3    H1 1101   6.388   7.806   3.978
  386TIP3    H2 1102   6.452   7.688   4.049
  387TIP3   OH2 1103   7.006   6.981   6.134
  387TIP3    H1 1104   7.088   7.017   6.100
  387TIP3    H2 1105   7.013   6.886   6.120
  388TIP3   OH2 1106   3.654   0.655   3.318
  388TIP3    H1 1107   3.685   0.576   3.275
  388TIP3    H2 1108   3.705   0.661   3.399
  389TIP3   OH2 1109   1.344   2.925   6.099
  389TIP3    H1 1110   1.391   2.866   6.041
  389TIP3    H2 1111   1.285   2.973   6.041
  390TIP3   OH2 1112   1.470   2.205   3.560
  390TIP3    H1 1113   1.501   2.118   3.537
  390TIP3    H2 1114   1.376   2.194   3.576
  391TIP3   OH2 1115   8.027   1.373   5.898
  391TIP3    H1 1116   8.093   1.388   5.965
  391TIP3    H2 1117   7.944   1.393   5.942
  392TIP3   OH2 1118   5.916   1.719   6.102
  392TIP3    H1 1119   5.859   1.778   6.052
  392TIP3    H2 1120   5.861   1.687   6.173
  393TIP3   OH2 1121   6.301   5.923   2.603
  393TIP3    H1 1122   6.335   5.902   2.516
  393TIP3    H2 1123   6.216   5.878   2.606
  394TIP3   OH2 1124   5.931   5.423   1.252
  394TIP3    H1 1125   6.015   5.442   1.210
  394TIP3    H2 1126   5.868   5.481   1.209
  395TIP3   OH2 1127   3.768   5.248   5.078
  395TIP3    H1 1128   3.814   5.270   4.998
  395TIP3    H2 1129   3.676   5.268   5.059
  396TIP3   OH2 1130   4.195   0.634   1.172
  396TIP3    H1 1131   4.242   0.621   1.255
  396TIP3    H2 1132   4.202   0.729   1.156
  397TIP3   OH2 1133   2.010   0.175   0.762
  397TIP3    H1 1134   2.050   0.258   0.735
  397TIP3    H2 1135   1.933   0.166   0.706
  398TIP3   OH2 1136   5.240   5.787   6.247
  398TIP3    H1 1137   5.213   5.711   6.194
  398TIP3    H2 1138   5.186   5.859   6.214
  399TIP3   OH2 1139   1.224   1.901   3.229
  399TIP3    H1 1140   1.311   1.867   3.207
  399TIP3    H2 1141   1.200   1.855   3.309
  400TIP3   OH2 1142   7.528   6.641   1.081
  400TIP3    H1 1143   7.590   6.673   1.016
  400TIP3    H2 1144   7.467   6.714   1.093
  401TIP3   OH2 1145   2.347   0.861   4.754
  401TIP3    H1 1146   2.415   0.928   4.752
  401TIP3    H2 1147   2.269   0.906   4.785
  402TIP3   OH2 1148   4.797   6.373   2.553
  402TIP3    H1 1149   4.861   6.412   2.612
  402TIP3    H2 1150   4.804   6.425   2.473
  403TIP3   OH2 1151   0.566   4.073   1.460
  403TIP3    H1 1152   0.540   4.003   1.401
  403TIP3    H2 1153   0.636   4.119   1.414
  404TIP3   OH2 1154   2.042   7.073   3.001
  404TIP3    H1 1155   2.033   6.982   2.973
  404TIP3    H2 1156   2.074   7.068   3.091
  405TIP3   OH2 1157   3.534   2.423   5.200
  405TIP3    H1 1158   3.481   2.462   5.131
  405TIP3    H2 1159   3.498   2.459   5.282
  406TIP3   OH2 1160   0.577   4.338   6.514
  406TIP3    H1 1161   0.616   4.253   6.494
  406TIP3    H2 1162   0.503   4.318   6.570
  407TIP3   OH2 1163   0.547   6.516   1.703
  407TIP3    H1 1164   0.473   6.543   1.758
  407TIP3    H2 1165   0.620   6.569   1.733
  408TIP3   OH2 1166   1.368   5.971   1.569
  408TIP3    H1 1167   1.412   6.039   1.518
  408TIP3    H2 1168   1.290   5.949   1.518
  409TIP3   OH2 1169   4.416   4.155   0.559
  409TIP3    H1 1170   4.326   4.137   0.587
  409TIP3    H2 1171   4.452   4.069   0.538
  410TIP3   OH2 1172   5.946   5.754   4.605
  410TIP3    H1 1173   5.887   5.705   4.548
  410TIP3    H2 1174   5.962   5.836   4.558
  411TIP3   OH2 1175   2.355   6.826   4.930
  411TIP3    H1 1176   2.293   6.887   4.889
  411TIP3    H2 1177   2.311   6.799   5.011
  412TIP3   OH2 1178   1.032   1.415   6.656
  412TIP3    H1 1179   1.020   1.498   6.610
  412TIP3    H2 1180   1.007   1.434   6.747
  413TIP3   OH2 1181   1.631   1.347   2.498
  413TIP3    H1 1182   1.719   1.361   2.531
  413TIP3    H2 1183   1.632   1.258   2.463
  414TIP3   OH2 1184   7.936   3.504   4.952
  414TIP3    H1 1185   7.855   3.494   4.902
  414TIP3    H2 1186   7.907   3.516   5.042
  415TIP3   OH2 1187   3.639   6.163   3.394
  415TIP3    H1 1188   3.603   6.250   3.408
  415TIP3    H2 1189   3.599   6.109   3.463
  416TIP3   OH2 1190   2.268   1.521   2.394
  416TIP3    H1 1191   2.196   1.459   2.385
  416TIP3    H2 1192   2.248   1.572   2.473
  417TIP3   OH2 1193   2.122   5.879   0.585
  417TIP3    H1 1194   2.148   5.827   0.509
  417TIP3    H2 1195   2.034   5.910   0.563
  418TIP3   OH2 1196   0.628   1.042   1.148
  418TIP3    H1 1197   0.569   1.020   1.221
  418TIP3    H2 1198   0.614   1.136   1.133
  419TIP3   OH2 1199   0.385   6.336   6.227
  419TIP3    H1 1200   0.453   6.389   6.185
  419TIP3    H2 1201   0.337   6.397   6.282
  420TIP3   OH2 1202   5.032   0.010   1.486
  420TIP3    H1 1203   5.106  -0.026   1.437
  420TIP3    H2 1204   4.960  -0.050   1.468
  421TIP3   OH2 1205   3.445   1.133   1.151
  421TIP3    H1 1206   3.415   1.220   1.176
  421TIP3    H2 1207   3.467   1.140   1.058
  422TIP3   OH2 1208   1.746   2.766   3.138
  422TIP3    H1 1209   1.755   2.736   3.229
  422TIP3    H2 1210   1.808   2.712   3.090
  423TIP3   OH2 1211   6.119   0.063   6.574
  423TIP3    H1 1212   6.156   0.048   6.487
  423TIP3    H2 1213   6.128  -0.021   6.619
  424TIP3   OH2 1214   7.703   4.626   6.381
  424TIP3    H1 1215   7.701   4.535   6.353
  424TIP3    H2 1216   7.619   4.662   6.353
  425TIP3   OH2 1217   3.043   6.606   2.426
  425TIP3    H1 1218   3.061   6.697   2.400
  425TIP3    H2 1219   2.973   6.578   2.367
  426TIP3   OH2 1220   4.923   0.497   5.409
  426TIP3    H1 1221   4.945   0.505   5.317
  426TIP3    H2 1222   5.001   0.526   5.456
  427TIP3   OH2 1223   1.762   3.034   5.683
  427TIP3    H1 1224   1.753   3.104   5.748
  427TIP3    H2 1225   1.831   2.978   5.718
  428TIP3   OH2 1226   3.543   3.319   3.947
  428TIP3    H1 1227   3.620   3.282   3.904
  428TIP3    H2 1228   3.575   3.400   3.989
  429TIP3   OH2 1229   5.252   7.554   3.311
  429TIP3    H1 1230   5.282   7.484   3.369
  429TIP3    H2 1231   5.165   7.525   3.282
  430TIP3   OH2 1232   2.457   2.734   4.427
  430TIP3    H1 1233   2.494   2.800   4.486
  430TIP3    H2 1234   2.363   2.753   4.426
  431TIP3   OH2 1235   0.925   2.741   6.131
  431TIP3    H1 1236   0.851   2.686   6.152
  431TIP3    H2 1237   0.977   2.745   6.211
  432TIP3   OH2 1238   1.132   5.036   3.555
  432TIP3    H1 1239   1.216   5.053   3.513
  432TIP3    H2 1240   1.147   4.956   3.606
  433TIP3   OH2 1241   3.081   3.532   4.658
  433TIP3    H1 1242   3.136   3.466   4.616
  433TIP3    H2 1243   3.097   3.520   4.752
  434TIP3   OH2 1244   5.040   3.367   3.529
  434TIP3    H1 1245   5.026   3.273   3.526
  434TIP3    H2 1246   5.113   3.383   3.469
  435TIP3   OH2 1247   5.963   5.445   3.765
  435TIP3    H1 1248   5.874   5.418   3.744
  435TIP3    H2 1249   5.972   5.430   3.859
  436TIP3   OH2 1250   7.809   5.939   4.088
  436TIP3    H1 1251   7.745   5.922   4.020
  436TIP3    H2 1252   7.759   5.978   4.159
  437TIP3   OH2 1253   3.539   6.237   3.888
  437TIP3    H1 1254   3.553   6.164   3.949
  437TIP3    H2 1255   3.600   6.219   3.815
  438TIP3   OH2 1256   3.188   6.839   0.221
  438TIP3    H1 1257   3.227   6.840   0.134
  438TIP3    H2 1258   3.181   6.932   0.245
  439TIP3   OH2 1259   5.468   4.521   0.087
  439TIP3    H1 1260   5.419   4.439   0.078
  439TIP3    H2 1261   5.558   4.492   0.106
  440TIP3   OH2 1262   8.046   6.990   6.679
  440TIP3    H1 1263   8.083   6.963   6.595
  440TIP3    H2 1264   8.079   6.926   6.742
  441TIP3   OH2 1265   7.400   7.759   2.847
  441TIP3    H1 1266   7.381   7.666   2.854
  441TIP3    H2 1267   7.484   7.770   2.892
  442TIP3   OH2 1268   2.373   5.331   1.411
  442TIP3    H1 1269   2.394   5.414   1.455
  442TIP3    H2 1270   2.430   5.329   1.334
  443TIP3   OH2 1271   7.563   0.153   3.269
  443TIP3    H1 1272   7.580   0.198   3.186
  443TIP3    H2 1273   7.522   0.071   3.243
  444TIP3   OH2 1274   4.180   6.019   1.269
  444TIP3    H1 1275   4.256   6.053   1.316
  444TIP3    H2 1276   4.205   6.023   1.177
  445TIP3   OH2 1277   7.367   3.894   3.046
  445TIP3    H1 1278   7.316   3.878   3.126
  445TIP3    H2 1279   7.407   3.810   3.026
  446TIP3   OH2 1280   3.069   1.701   4.704
  446TIP3    H1 1281   3.080   1.785   4.748
  446TIP3    H2 1282   3.158   1.675   4.679
  447TIP3   OH2 1283   8.104   7.153   5.086
  447TIP3    H1 1284   8.025   7.201   5.110
  447TIP3    H2 1285   8.174   7.218   5.090
  448TIP3   OH2 1286   0.541   2.722   4.124
  448TIP3    H1 1287   0.455   2.708   4.086
  448TIP3    H2 1288   0.600   2.668   4.072
  449TIP3   OH2 1289   7.304   6.298   3.528
  449TIP3    H1 1290   7.335   6.374   3.481
  449TIP3    H2 1291   7.240   6.257   3.470
  450TIP3   OH2 1292   6.953   4.253   3.709
  450TIP3    H1 1293   7.001   4.174   3.731
  450TIP3    H2 1294   7.020   4.313   3.674
  451TIP3   OH2 1295   7.559   2.939   2.575
  451TIP3    H1 1296   7.646   2.909   2.547
  451TIP3    H2 1297   7.577   3.004   2.643
  452TIP3   OH2 1298   2.262   5.600   1.135
  452TIP3    H1 1299   2.324   5.566   1.072
  452TIP3    H2 1300   2.314   5.622   1.212
  453TIP3   OH2 1301   6.456   7.874   6.543
  453TIP3    H1 1302   6.435   7.894   6.452
  453TIP3    H2 1303   6.509   7.794   6.538
  454TIP3   OH2 1304   8.171   7.120   4.529
  454TIP3    H1 1305   8.168   7.099   4.622
  454TIP3    H2 1306   8.186   7.036   4.486
  455TIP3   OH2 1307   1.393   3.563   3.543
  455TIP3    H1 1308   1.465   3.589   3.486
  455TIP3    H2 1309   1.421   3.589   3.630
  456TIP3   OH2 1310   6.111   3.718   3.163
  456TIP3    H1 1311   6.188   3.726   3.108
  456TIP3    H2 1312   6.119   3.788   3.227
  457TIP3   OH2 1313   2.875   3.243   0.363
  457TIP3    H1 1314   2.785   3.231   0.331
  457TIP3    H2 1315   2.914   3.306   0.302
  458TIP3   OH2 1316   0.155   5.277   0.650
  458TIP3    H1 1317   0.182   5.262   0.560
  458TIP3    H2 1318   0.190   5.202   0.699
  459TIP3   OH2 1319   1.973   1.185   1.079
  459TIP3    H1 1320   1.965   1.122   1.150
  459TIP3    H2 1321   2.053   1.233   1.098
  460TIP3   OH2 1322   7.024   5.340   5.605
  460TIP3    H1 1323   7.030   5.251   5.638
  460TIP3    H2 1324   7.073   5.338   5.522
  461TIP3   OH2 1325   4.012   4.044   0.059
  461TIP3    H1 1326   4.077   4.076   0.122
  461TIP3    H2 1327   3.985   4.122   0.011
  462TIP3   OH2 1328   1.778   1.578   6.011
  462TIP3    H1 1329   1.826   1.540   6.085
  462TIP3    H2 1330   1.699   1.614   6.050
  463TIP3   OH2 1331   5.231   2.348   4.237
  463TIP3    H1 1332   5.288   2.307   4.302
  463TIP3    H2 1333   5.283   2.421   4.203
  464TIP3   OH2 1334   4.664   4.958   1.216
  464TIP3    H1 1335   4.673   5.034   1.273
  464TIP3    H2 1336   4.598   4.904   1.260
  465TIP3   OH2 1337   2.610   2.143   0.587
  465TIP3    H1 1338   2.674   2.071   0.587
  465TIP3    H2 1339   2.604   2.170   0.496
  466TIP3   OH2 1340   6.735   4.012   5.554
  466TIP3    H1 1341   6.816   3.975   5.589
  466TIP3    H2 1342   6.666   3.976   5.609
  467TIP3   OH2 1343   1.963   5.252   5.725
  467TIP3    H1 1344   1.958   5.326   5.664
  467TIP3    H2 1345   1.922   5.283   5.805
  468TIP3   OH2 1346   6.028   5.739   3.797
  468TIP3    H1 1347   6.092   5.698   3.739
  468TIP3    H2 1348   5.947   5.741   3.746
  469TIP3   OH2 1349   3.310   4.797   5.589
  469TIP3    H1 1350   3.280   4.749   5.512
  469TIP3    H2 1351   3.280   4.886   5.576
  470TIP3   OH2 1352   2.818   2.103   4.775
  470TIP3    H1 1353   2.763   2.025   4.781
  470TIP3    H2 1354   2.757   2.176   4.777
  471TIP3   OH2 1355   2.765   6.570   0.703
  471TIP3    H1 1356   2.795   6.610   0.785
  471TIP3    H2 1357   2.672   6.552   0.718
  472TIP3   OH2 1358   3.626   5.484   1.298
  472TIP3    H1 1359   3.558   5.443   1.244
  472TIP3    H2 1360   3.704   5.430   1.284
  473TIP3   OH2 1361   4.853   2.713   5.089
  473TIP3    H1 1362   4.813   2.801   5.091
  473TIP3    H2 1363   4.837   2.681   5.001
  474TIP3   OH2 1364   8.165   4.416   0.121
  474TIP3    H1 1365   8.153   4.377   0.208
  474TIP3    H2 1366   8.258   4.434   0.115
  475TIP3   OH2 1367   7.597   0.364   4.308
  475TIP3    H1 1368   7.626   0.283   4.267
  475TIP3    H2 1369   7.677   0.413   4.324
  476TIP3   OH2 1370   2.844   1.877   2.851
  476TIP3    H1 1371   2.876   1.846   2.766
  476TIP3    H2 1372   2.805   1.800   2.891
  477TIP3   OH2 1373   4.254   4.602   6.543
  477TIP3    H1 1374   4.216   4.662   6.480
  477TIP3    H2 1375   4.292   4.659   6.610
  478TIP3   OH2 1376   0.447   7.148   4.525
  478TIP3    H1 1377   0.420   7.239   4.520
  478TIP3    H2 1378   0.496   7.133   4.444
  479TIP3   OH2 1379   7.583   3.159   5.908
  479TIP3    H1 1380   7.623   3.162   5.821
  479TIP3    H2 1381   7.534   3.241   5.914
  480TIP3   OH2 1382   6.765   0.740   1.677
  480TIP3    H1 1383   6.695   0.685   1.642
  480TIP3    H2 1384   6.796   0.693   1.754
  481TIP3   OH2 1385   3.446   3.978   6.138
  481TIP3    H1 1386   3.401   4.033   6.202
  481TIP3    H2 1387   3.385   3.975   6.063
  482TIP3   OH2 1388   1.305   1.295   6.604
  482TIP3    H1 1389   1.227   1.348   6.623
  482TIP3    H2 1390   1.355   1.348   6.542
  483TIP3   OH2 1391   2.169   3.857   6.089
  483TIP3    H1 1392   2.244   3.908   6.117
  483TIP3    H2 1393   2.097   3.887   6.145
  484TIP3   OH2 1394   5.200   0.682   6.516
  484TIP3    H1 1395   5.156   0.766   6.533
  484TIP3    H2 1396   5.229   0.652   6.602
  485TIP3   OH2 1397   2.002   7.139   0.583
  485TIP3    H1 1398   1.925   7.094   0.549
  485TIP3    H2 1399   1.968   7.199   0.649
  486TIP3   OH2 1400   3.159   5.956   4.362
  486TIP3    H1 1401   3.204   5.887   4.412
  486TIP3    H2 1402   3.071   5.959   4.398
  487TIP3   OH2 1403   3.824   3.004   2.796
  487TIP3    H1 1404   3.863   2.924   2.831
  487TIP3    H2 1405   3.731   2.981   2.784
  488TIP3   OH2 1406   0.219   4.998   2.091
  488TIP3    H1 1407   0.182   5.073   2.045
  488TIP3    H2 1408   0.311   5.021   2.107
  489TIP3   OH2 1409   1.134   7.729   3.691
  489TIP3    H1 1410   1.110   7.640   3.665
  489TIP3    H2 1411   1.143   7.776   3.609
  490TIP3   OH2 1412   5.699   5.454   4.155
  490TIP3    H1 1413   5.642   5.523   4.189
  490TIP3    H2 1414   5.758   5.499   4.095
  491TIP3   OH2 1415   8.192   4.648   1.921
  491TIP3    H1 1416   8.128   4.588   1.959
  491TIP3    H2 1417   8.276   4.605   1.933
  492TIP3   OH2 1418   0.223   5.835   4.045
  492TIP3    H1 1419   0.299   5.777   4.043
  492TIP3    H2 1420   0.261   5.923   4.041
  493TIP3   OH2 1421   5.319   0.022   0.098
  493TIP3    H1 1422   5.384   0.007   0.167
  493TIP3    H2 1423   5.258  -0.050   0.107
  494TIP3   OH2 1424   4.785   0.802   0.045
  494TIP3    H1 1425   4.838   0.881   0.052
  494TIP3    H2 1426   4.822   0.742   0.109
  495TIP3   OH2 1427   6.769   1.894   6.206
  495TIP3    H1 1428   6.753   1.988   6.197
  495TIP3    H2 1429   6.851   1.888   6.254
  496TIP3   OH2 1430   1.704   2.530   4.857
  496TIP3    H1 1431   1.781   2.475   4.843
  496TIP3    H2 1432   1.630   2.470   4.849
  497TIP3   OH2 1433   5.453   1.051   5.399
  497TIP3    H1 1434   5.493   1.099   5.471
  497TIP3    H2 1435   5.518   1.053   5.329
  498TIP3   OH2 1436   6.132   4.105   2.169
  498TIP3    H1 1437   6.130   4.145   2.083
  498TIP3    H2 1438   6.137   4.011   2.152
  499TIP3   OH2 1439   1.390   2.554   2.084
  499TIP3    H1 1440   1.413   2.497   2.011
  499TIP3    H2 1441   1.367   2.637   2.043
  500TIP3   OH2 1442   3.754   6.771   2.160
  500TIP3    H1 1443   3.711   6.855   2.144
  500TIP3    H2 1444   3.796   6.781   2.245
  501TIP3   OH2 1445   6.276   2.042   1.957
  501TIP3    H1 1446   6.343   1.994   2.006
  501TIP3    H2 1447   6.231   2.094   2.023
  502TIP3   OH2 1448   1.055   0.770   0.452
  502TIP3    H1 1449   1.119   0.707   0.418
  502TIP3    H2 1450   1.101   0.816   0.522
  503TIP3   OH2 1451   4.811   4.557   0.336
  503TIP3    H1 1452   4.842   4.603   0.258
  503TIP3    H2 1453   4.867   4.589   0.407
  504TIP3   OH2 1454   5.204   1.486   4.821
  504TIP3    H1 1455   5.167   1.540   4.892
  504TIP3    H2 1456   5.179   1.397   4.845
  505TIP3   OH2 1457   6.720   0.084   4.442
  505TIP3    H1 1458   6.702   0.072   4.349
  505TIP3    H2 1459   6.811   0.056   4.452
  506TIP3   OH2 1460   0.555   2.041   3.933
  506TIP3    H1 1461   0.606   2.002   3.862
  506TIP3    H2 1462   0.556   2.135   3.914
  507TIP3   OH2 1463   1.270   7.649   2.594
  507TIP3    H1 1464   1.229   7.697   2.522
  507TIP3    H2 1465   1.294   7.564   2.556
  508TIP3   OH2 1466   2.774   6.139  -0.064
  508TIP3    H1 1467   2.851   6.156  -0.009
  508TIP3    H2 1468   2.699   6.153  -0.005
  509TIP3   OH2 1469   1.732   1.400   3.561
  509TIP3    H1 1470   1.760   1.443   3.480
  509TIP3    H2 1471   1.669   1.334   3.533
  510TIP3   OH2 1472   8.009   0.593   5.017
  510TIP3    H1 1473   7.964   0.525   4.968
  510TIP3    H2 1474   7.953   0.671   5.008
  511TIP3   OH2 1475   6.562   5.890   2.970
  511TIP3    H1 1476   6.623   5.822   2.943
  511TIP3    H2 1477   6.589   5.913   3.059
  512TIP3   OH2 1478   2.393   4.692   0.761
  512TIP3    H1 1479   2.400   4.600   0.733
  512TIP3    H2 1480   2.461   4.702   0.827
  513TIP3   OH2 1481   0.095   5.603   5.511
  513TIP3    H1 1482   0.025   5.632   5.569
  513TIP3    H2 1483   0.108   5.510   5.533
  514TIP3   OH2 1484   3.177   3.846   4.796
  514TIP3    H1 1485   3.152   3.757   4.820
  514TIP3    H2 1486   3.249   3.834   4.734
  515TIP3   OH2 1487   0.259   0.749   3.054
  515TIP3    H1 1488   0.321   0.801   3.104
  515TIP3    H2 1489   0.298   0.741   2.967
  516TIP3   OH2 1490   2.216   6.410   3.802
  516TIP3    H1 1491   2.158   6.351   3.752
  516TIP3    H2 1492   2.198   6.388   3.893
  517TIP3   OH2 1493   4.263   5.619   4.739
  517TIP3    H1 1494   4.315   5.667   4.673
  517TIP3    H2 1495   4.291   5.656   4.822
  518TIP3   OH2 1496   5.727   0.956   4.953
  518TIP3    H1 1497   5.790   0.899   4.997
  518TIP3    H2 1498   5.645   0.907   4.955
  519TIP3   OH2 1499   7.691   4.651   2.181
  519TIP3    H1 1500   7.661   4.600   2.257
  519TIP3    H2 1501   7.781   4.675   2.202
  520TIP3   OH2 1502   0.729   3.344   1.427
  520TIP3    H1 1503   0.749   3.301   1.344
  520TIP3    H2 1504   0.642   3.382   1.415
  521TIP3   OH2 1505   0.848   2.190   0.044
  521TIP3    H1 1506   0.923   2.199   0.103
  521TIP3    H2 1507   0.874   2.236  -0.035
  522TIP3   OH2 1508   4.095   6.198   4.423
  522TIP3    H1 1509   4.077   6.272   4.482
  522TIP3    H2 1510   4.014   6.148   4.423
  523TIP3   OH2 1511   0.091   7.571   1.250
  523TIP3    H1 1512   0.113   7.562   1.157
  523TIP3    H2 1513   0.065   7.482   1.277
  524TIP3   OH2 1514   3.934   6.097   0.884
  524TIP3    H1 1515   4.021   6.066   0.912
  524TIP3    H2 1516   3.879   6.087   0.961
  525TIP3   OH2 1517   2.187   0.006   6.331
  525TIP3    H1 1518   2.108  -0.009   6.384
  525TIP3    H2 1519   2.222   0.089   6.363
  526TIP3   OH2 1520   7.697   0.223   6.600
  526TIP3    H1 1521   7.738   0.283   6.538
  526TIP3    H2 1522   7.618   0.193   6.555
  527TIP3   OH2 1523   0.965   3.251   2.504
  527TIP3    H1 1524   0.993   3.342   2.504
  527TIP3    H2 1525   0.881   3.251   2.550
  528TIP3   OH2 1526   3.598   3.854   3.992
  528TIP3    H1 1527   3.541   3.789   3.950
  528TIP3    H2 1528   3.549   3.936   3.985
  529TIP3   OH2 1529   1.807   5.642   5.368
  529TIP3    H1 1530   1.774   5.629   5.280
  529TIP3    H2 1531   1.839   5.732   5.370
  530TIP3   OH2 1532   3.537   0.700   4.086
  530TIP3    H1 1533   3.593   0.747   4.024
  530TIP3    H2 1534   3.559   0.608   4.073
  531TIP3   OH2 1535   6.894   2.178   1.825
  531TIP3    H1 1536   6.925   2.103   1.875
  531TIP3    H2 1537   6.808   2.151   1.792
  532TIP3   OH2 1538   7.350   4.776   1.692
  532TIP3    H1 1539   7.355   4.742   1.602
  532TIP3    H2 1540   7.258   4.762   1.717
  533TIP3   OH2 1541   7.187   6.322   5.121
  533TIP3    H1 1542   7.228   6.237   5.105
  533TIP3    H2 1543   7.250   6.370   5.176
  534TIP3   OH2 1544   5.669   2.876   6.549
  534TIP3    H1 1545   5.608   2.812   6.584
  534TIP3    H2 1546   5.624   2.913   6.473
  535TIP3   OH2 1547   0.163   2.890   2.657
  535TIP3    H1 1548   0.116   2.810   2.679
  535TIP3    H2 1549   0.255   2.868   2.668
  536TIP3   OH2 1550   0.705   4.230   4.987
  536TIP3    H1 1551   0.740   4.258   5.071
  536TIP3    H2 1552   0.750   4.286   4.923
  537TIP3   OH2 1553   3.422   6.052   3.146
  537TIP3    H1 1554   3.349   6.105   3.114
  537TIP3    H2 1555   3.494   6.114   3.156
  538TIP3   OH2 1556   1.618   6.424   5.632
  538TIP3    H1 1557   1.602   6.475   5.712
  538TIP3    H2 1558   1.609   6.333   5.659
  539TIP3   OH2 1559   3.711   7.062   0.082
  539TIP3    H1 1560   3.667   7.142   0.053
  539TIP3    H2 1561   3.803   7.075   0.058
  540TIP3   OH2 1562   2.321   2.435   6.536
  540TIP3    H1 1563   2.267   2.364   6.499
  540TIP3    H2 1564   2.403   2.430   6.487
  541TIP3   OH2 1565   5.046   7.219   1.360
  541TIP3    H1 1566   4.964   7.225   1.310
  541TIP3    H2 1567   5.018   7.214   1.451
  542TIP3   OH2 1568   6.598   5.094   5.082
  542TIP3    H1 1569   6.508   5.078   5.110
  542TIP3    H2 1570   6.641   5.132   5.158
  543TIP3   OH2 1571   5.205   2.834   2.700
  543TIP3    H1 1572   5.182   2.743   2.683
  543TIP3    H2 1573   5.300   2.834   2.707
  544TIP3   OH2 1574   3.553   0.889   0.000
  544TIP3    H1 1575   3.517   0.850   0.080
  544TIP3    H2 1576   3.491   0.864  -0.068
  545TIP3   OH2 1577   2.773   5.429   1.514
  545TIP3    H1 1578   2.739   5.514   1.541
  545TIP3    H2 1579   2.759   5.426   1.419
  546TIP3   OH2 1580   7.945   1.528   3.183
  546TIP3    H1 1581   7.984   1.614   3.199
  546TIP3    H2 1582   7.892   1.511   3.261
  547TIP3   OH2 1583   7.944   5.508   2.748
  547TIP3    H1 1584   7.879   5.576   2.764
  547TIP3    H2 1585   7.971   5.480   2.835
  548TIP3   OH2 1586   0.815   0.918   1.954
  548TIP3    H1 1587   0.775   0.939   2.038
  548TIP3    H2 1588   0.819   1.001   1.907
  549TIP3   OH2 1589   1.134   3.690   3.686
  549TIP3    H1 1590   1.130   3.673   3.592
  549TIP3    H2 1591   1.221   3.727   3.700
  550TIP3   OH2 1592   5.268   7.089   5.396
  550TIP3    H1 1593   5.203   7.019   5.399
  550TIP3    H2 1594   5.327   7.070   5.470
  551TIP3   OH2 1595   1.345   2.828   2.018
  551TIP3    H1 1596   1.294   2.868   2.088
  551TIP3    H2 1597   1.429   2.873   2.020
  552TIP3   OH2 1598   7.938   2.474   0.067
  552TIP3    H1 1599   8.017   2.517   0.034
  552TIP3    H2 1600   7.898   2.539   0.126
  553TIP3   OH2 1601   4.128   6.953   2.580
  553TIP3    H1 1602   4.138   6.876   2.636
  553TIP3    H2 1603   4.173   7.023   2.627
  554TIP3   OH2 1604   4.534   5.201   0.352
  554TIP3    H1 1605   4.459   5.217   0.409
  554TIP3    H2 1606   4.497   5.150   0.279
  555TIP3   OH2 1607   7.691   1.894   4.028
  555TIP3    H1 1608   7.769   1.899   4.082
  555TIP3    H2 1609   7.706   1.818   3.971
  556TIP3   OH2 1610   7.202   5.310   6.087
  556TIP3    H1 1611   7.118   5.352   6.069
  556TIP3    H2 1612   7.207   5.238   6.025
  557TIP3   OH2 1613   0.554   1.021   0.094
  557TIP3    H1 1614   0.481   1.043   0.152
  557TIP3    H2 1615   0.631   1.021   0.150
  558TIP3   OH2 1616   5.735   3.138   2.825
  558TIP3    H1 1617   5.641   3.127   2.838
  558TIP3    H2 1618   5.744   3.228   2.791
  559TIP3   OH2 1619   3.126   7.254   4.412
  559TIP3    H1 1620   3.140   7.277   4.504
  559TIP3    H2 1621   3.032   7.243   4.404
  560TIP3   OH2 1622   1.707   6.412   3.975
  560TIP3    H1 1623   1.777   6.463   3.936
  560TIP3    H2 1624   1.637   6.475   3.993
  561TIP3   OH2 1625   7.456   0.417   0.625
  561TIP3    H1 1626   7.500   0.462   0.697
  561TIP3    H2 1627   7.364   0.412   0.652
  562TIP3   OH2 1628   6.278   7.766   1.458
  562TIP3    H1 1629   6.212   7.829   1.487
  562TIP3    H2 1630   6.273   7.695   1.523
  563TIP3   OH2 1631   6.773   1.250   6.687
  563TIP3    H1 1632   6.756   1.257   6.781
  563TIP3    H2 1633   6.843   1.186   6.679
  564TIP3   OH2 1634   7.622   4.658   3.190
  564TIP3    H1 1635   7.543   4.689   3.233
  564TIP3    H2 1636   7.624   4.703   3.106
  565TIP3   OH2 1637   6.349   5.340   2.635
  565TIP3    H1 1638   6.258   5.366   2.643
  565TIP3    H2 1639   6.347   5.244   2.631
  566TIP3   OH2 1640   7.072   4.451   0.470
  566TIP3    H1 1641   7.048   4.433   0.379
  566TIP3    H2 1642   7.109   4.368   0.501
  567TIP3   OH2 1643   1.547   1.758   6.144
  567TIP3    H1 1644   1.555   1.849   6.173
  567TIP3    H2 1645   1.460   1.753   6.104
  568TIP3   OH2 1646   2.964   5.303   2.439
  568TIP3    H1 1647   2.967   5.396   2.418
  568TIP3    H2 1648   2.921   5.299   2.524
  569TIP3   OH2 1649   3.589   7.703   0.310
  569TIP3    H1 1650   3.601   7.672   0.400
  569TIP3    H2 1651   3.570   7.796   0.319
  570TIP3   OH2 1652   2.694   5.326   6.472
  570TIP3    H1 1653   2.671   5.419   6.467
  570TIP3    H2 1654   2.783   5.322   6.438
  571TIP3   OH2 1655   0.756   5.598   2.071
  571TIP3    H1 1656   0.749   5.583   1.977
  571TIP3    H2 1657   0.840   5.644   2.081
  572TIP3   OH2 1658   7.520   2.701   3.474
  572TIP3    H1 1659   7.467   2.633   3.516
  572TIP3    H2 1660   7.589   2.720   3.537
  573TIP3   OH2 1661   4.492   1.238   5.197
  573TIP3    H1 1662   4.506   1.253   5.103
  573TIP3    H2 1663   4.520   1.148   5.211
  574TIP3   OH2 1664   1.947   5.464   4.077
  574TIP3    H1 1665   1.965   5.417   4.158
  574TIP3    H2 1666   2.022   5.522   4.065
  575TIP3   OH2 1667   5.354   1.436   5.646
  575TIP3    H1 1668   5.330   1.447   5.738
  575TIP3    H2 1669   5.448   1.455   5.644
  576TIP3   OH2 1670   6.428   0.382   2.513
  576TIP3    H1 1671   6.464   0.321   2.449
  576TIP3    H2 1672   6.504   0.420   2.557
  577TIP3   OH2 1673   7.854   6.712   0.697
  577TIP3    H1 1674   7.888   6.680   0.780
  577TIP3    H2 1675   7.857   6.636   0.639
  578TIP3   OH2 1676   6.822   5.892   3.543
  578TIP3    H1 1677   6.877   5.814   3.541
  578TIP3    H2 1678   6.733   5.860   3.527
  579TIP3   OH2 1679   3.497   2.354   1.771
  579TIP3    H1 1680   3.491   2.308   1.855
  579TIP3    H2 1681   3.407   2.377   1.750
  580TIP3   OH2 1682   3.216   6.684   0.852
  580TIP3    H1 1683   3.186   6.596   0.830
  580TIP3    H2 1684   3.278   6.671   0.924
  581TIP3   OH2 1685   3.325   0.635   5.845
  581TIP3    H1 1686   3.357   0.596   5.927
  581TIP3    H2 1687   3.336   0.567   5.780
  582TIP3   OH2 1688   2.249   3.507   2.357
  582TIP3    H1 1689   2.341   3.502   2.334
  582TIP3    H2 1690   2.241   3.588   2.408
  583TIP3   OH2 1691   5.781   3.951   3.081
  583TIP3    H1 1692   5.863   3.912   3.049
  583TIP3    H2 1693   5.798   4.045   3.079
  584TIP3   OH2 1694   1.324   3.276   3.791
  584TIP3    H1 1695   1.228   3.275   3.781
  584TIP3    H2 1696   1.347   3.369   3.790
  585TIP3   OH2 1697   1.437   4.365   4.664
  585TIP3    H1 1698   1.416   4.294   4.602
  585TIP3    H2 1699   1.532   4.376   4.655
  586TIP3   OH2 1700   7.929   1.511   0.553
  586TIP3    H1 1701   7.940   1.592   0.602
  586TIP3    H2 1702   7.916   1.444   0.619
  587TIP3   OH2 1703   6.041   7.423  -0.044
  587TIP3    H1 1704   6.049   7.480   0.033
  587TIP3    H2 1705   5.947   7.418  -0.060
  588TIP3   OH2 1706   7.404   5.215   5.396
  588TIP3    H1 1707   7.375   5.196   5.307
  588TIP3    H2 1708   7.487   5.261   5.386
  589TIP3   OH2 1709   0.192   7.304   1.090
  589TIP3    H1 1710   0.226   7.304   1.180
  589TIP3    H2 1711   0.225   7.385   1.052
  590TIP3   OH2 1712   7.461   6.735   0.363
  590TIP3    H1 1713   7.429   6.820   0.392
  590TIP3    H2 1714   7.508   6.700   0.438
  591TIP3   OH2 1715   2.141   5.787   4.362
  591TIP3    H1 1716   2.161   5.768   4.454
  591TIP3    H2 1717   2.047   5.772   4.355
  592TIP3   OH2 1718   0.585   6.187   6.558
  592TIP3    H1 1719   0.569   6.179   6.652
  592TIP3    H2 1720   0.640   6.265   6.551
  593TIP3   OH2 1721   5.917   0.473   4.198
  593TIP3    H1 1722   5.880   0.481   4.110
  593TIP3    H2 1723   5.905   0.381   4.221
  594TIP3   OH2 1724   2.123   2.111   6.279
  594TIP3    H1 1725   2.203   2.102   6.332
  594TIP3    H2 1726   2.098   2.021   6.259
  595TIP3   OH2 1727   2.492   7.367   1.033
  595TIP3    H1 1728   2.536   7.448   1.007
  595TIP3    H2 1729   2.554   7.323   1.091
  596TIP3   OH2 1730   5.367   0.798   5.463
  596TIP3    H1 1731   5.364   0.892   5.444
  596TIP3    H2 1732   5.459   0.780   5.482
  597TIP3   OH2 1733   3.551   7.570   1.719
  597TIP3    H1 1734   3.464   7.610   1.717
  597TIP3    H2 1735   3.588   7.589   1.633
  598TIP3   OH2 1736   6.919   0.204   5.218
  598TIP3    H1 1737   6.988   0.267   5.240
  598TIP3    H2 1738   6.902   0.218   5.125
  599TIP3   OH2 1739   3.131   5.470   6.045
  599TIP3    H1 1740   3.204   5.443   6.100
  599TIP3    H2 1741   3.071   5.395   6.045
  600TIP3   OH2 1742   5.082   5.135   1.372
  600TIP3    H1 1743   5.068   5.105   1.282
  600TIP3    H2 1744   5.069   5.230   1.367
  601TIP3   OH2 1745   4.895   3.195   2.874
  601TIP3    H1 1746   4.824   3.172   2.815
  601TIP3    H2 1747   4.927   3.279   2.843
  602TIP3   OH2 1748   5.448   5.933   0.782
  602TIP3    H1 1749   5.489   5.977   0.708
  602TIP3    H2 1750   5.367   5.896   0.747
  603TIP3   OH2 1751   7.548   7.264   5.951
  603TIP3    H1 1752   7.550   7.360   5.949
  603TIP3    H2 1753   7.639   7.238   5.956
  604TIP3   OH2 1754   0.613   5.021   3.506
  604TIP3    H1 1755   0.533   5.065   3.534
  604TIP3    H2 1756   0.679   5.090   3.504
  605TIP3   OH2 1757   0.205   5.808   1.095
  605TIP3    H1 1758   0.155   5.730   1.120
  605TIP3    H2 1759   0.138   5.870   1.066
  606TIP3   OH2 1760   1.524   6.443   4.305
  606TIP3    H1 1761   1.608   6.429   4.348
  606TIP3    H2 1762   1.462   6.460   4.376
  607TIP3   OH2 1763   6.264   6.102   4.031
  607TIP3    H1 1764   6.256   6.026   3.973
  607TIP3    H2 1765   6.293   6.173   3.973
  608TIP3   OH2 1766   1.021   0.193   4.755
  608TIP3    H1 1767   1.070   0.111   4.753
  608TIP3    H2 1768   0.943   0.173   4.807
  609TIP3   OH2 1769   7.538   2.717   6.622
  609TIP3    H1 1770   7.500   2.633   6.600
  609TIP3    H2 1771   7.602   2.733   6.553
  610TIP3   OH2 1772   7.199   1.738   4.890
  610TIP3    H1 1773   7.130   1.763   4.952
  610TIP3    H2 1774   7.281   1.759   4.935
  611TIP3   OH2 1775   2.801   0.286   2.990
  611TIP3    H1 1776   2.815   0.369   2.945
  611TIP3    H2 1777   2.714   0.257   2.961
  612TIP3   OH2 1778   3.599   6.582   1.568
  612TIP3    H1 1779   3.608   6.565   1.662
  612TIP3    H2 1780   3.675   6.539   1.529
  613TIP3   OH2 1781   0.421   1.351   4.057
  613TIP3    H1 1782   0.425   1.334   4.151
  613TIP3    H2 1783   0.461   1.437   4.047
  614TIP3   OH2 1784   3.139   3.566   0.905
  614TIP3    H1 1785   3.175   3.640   0.953
  614TIP3    H2 1786   3.082   3.521   0.967
  615TIP3   OH2 1787   0.677   1.723   5.593
  615TIP3    H1 1788   0.621   1.648   5.614
  615TIP3    H2 1789   0.682   1.724   5.498
  616TIP3   OH2 1790   6.878   2.349   4.920
  616TIP3    H1 1791   6.942   2.289   4.883
  616TIP3    H2 1792   6.841   2.301   4.995
  617TIP3   OH2 1793   5.532   7.578   3.571
  617TIP3    H1 1794   5.540   7.651   3.510
  617TIP3    H2 1795   5.603   7.519   3.547
  618TIP3   OH2 1796   5.161   5.637   4.406
  618TIP3    H1 1797   5.112   5.635   4.325
  618TIP3    H2 1798   5.185   5.729   4.417
  619TIP3   OH2 1799   3.027   6.497   6.723
  619TIP3    H1 1800   2.963   6.450   6.671
  619TIP3    H2 1801   2.979   6.571   6.760
  620TIP3   OH2 1802   5.227   6.291   0.847
  620TIP3    H1 1803   5.257   6.361   0.789
  620TIP3    H2 1804   5.306   6.260   0.891
  621TIP3   OH2 1805   4.371   4.991   1.689
  621TIP3    H1 1806   4.298   4.931   1.675
  621TIP3    H2 1807   4.351   5.066   1.632
  622TIP3   OH2 1808   7.905   4.588   4.443
  622TIP3    H1 1809   7.938   4.670   4.406
  622TIP3    H2 1810   7.953   4.578   4.525
  623TIP3   OH2 1811   0.762   7.137   6.023
  623TIP3    H1 1812   0.724   7.052   6.001
  623TIP3    H2 1813   0.693   7.200   6.006
  624TIP3   OH2 1814   5.174   3.487   6.274
  624TIP3    H1 1815   5.223   3.434   6.337
  624TIP3    H2 1816   5.162   3.571   6.318
  625TIP3   OH2 1817  -0.078   5.530   1.040
  625TIP3    H1 1818  -0.001   5.533   1.096
  625TIP3    H2 1819  -0.084   5.439   1.013
  626TIP3   OH2 1820   6.444   3.403   2.317
  626TIP3    H1 1821   6.532   3.432   2.293
  626TIP3    H2 1822   6.397   3.483   2.339
  627TIP3   OH2 1823   1.803   0.246   5.328
  627TIP3    H1 1824   1.891   0.243   5.291
  627TIP3    H2 1825   1.756   0.174   5.286
  628TIP3   OH2 1826   1.945   5.391   5.984
  628TIP3    H1 1827   1.859   5.400   6.026
  628TIP3    H2 1828   1.985   5.316   6.027
  629TIP3   OH2 1829   2.898   6.101   6.250
  629TIP3    H1 1830   2.870   6.062   6.332
  629TIP3    H2 1831   2.993   6.092   6.250
  630TIP3   OH2 1832   3.823   3.609   6.442
  630TIP3    H1 1833   3.889   3.561   6.494
  630TIP3    H2 1834   3.874   3.668   6.387
  631TIP3   OH2 1835   5.063   5.172   0.756
  631TIP3    H1 1836   5.112   5.144   0.679
  631TIP3    H2 1837   4.980   5.205   0.722
  632TIP3   OH2 1838   5.521   4.497   4.463
  632TIP3    H1 1839   5.601   4.531   4.425
  632TIP3    H2 1840   5.505   4.552   4.540
  633TIP3   OH2 1841   0.596   6.393   6.035
  633TIP3    H1 1842   0.574   6.423   5.947
  633TIP3    H2 1843   0.677   6.344   6.024
  634TIP3   OH2 1844   2.655   4.150   3.212
  634TIP3    H1 1845   2.598   4.136   3.288
  634TIP3    H2 1846   2.697   4.066   3.198
  635TIP3   OH2 1847   2.071   2.390   1.247
  635TIP3    H1 1848   2.115   2.317   1.291
  635TIP3    H2 1849   2.139   2.429   1.192
  636TIP3   OH2 1850   1.146   2.694   4.630
  636TIP3    H1 1851   1.086   2.730   4.565
  636TIP3    H2 1852   1.231   2.732   4.608
  637TIP3   OH2 1853   5.213  -0.008   2.542
  637TIP3    H1 1854   5.250  -0.045   2.622
  637TIP3    H2 1855   5.129  -0.052   2.532
  638TIP3   OH2 1856   1.835   2.070   3.498
  638TIP3    H1 1857   1.746   2.104   3.508
  638TIP3    H2 1858   1.887   2.145   3.469
  639TIP3   OH2 1859   1.792   4.364   6.193
  639TIP3    H1 1860   1.742   4.291   6.160
  639TIP3    H2 1861   1.734   4.440   6.185
  640TIP3   OH2 1862   4.424   0.666   0.214
  640TIP3    H1 1863   4.419   0.748   0.165
  640TIP3    H2 1864   4.343   0.663   0.264
  641TIP3   OH2 1865   5.254   7.257   3.393
  641TIP3    H1 1866   5.349   7.260   3.398
  641TIP3    H2 1867   5.225   7.256   3.485
  642TIP3   OH2 1868   5.457   1.531   5.317
  642TIP3    H1 1869   5.511   1.495   5.247
  642TIP3    H2 1870   5.436   1.456   5.373
  643TIP3   OH2 1871   7.862   4.382   5.311
  643TIP3    H1 1872   7.828   4.468   5.288
  643TIP3    H2 1873   7.934   4.367   5.251
  644TIP3   OH2 1874   1.839   0.509   2.410
  644TIP3    H1 1875   1.900   0.437   2.397
  644TIP3    H2 1876   1.776   0.476   2.474
  645TIP3   OH2 1877   0.398   0.619   2.059
  645TIP3    H1 1878   0.453   0.570   2.121
  645TIP3    H2 1879   0.318   0.637   2.107
  646TIP3   OH2 1880   4.909   6.805   0.773
  646TIP3    H1 1881   4.926   6.745   0.700
  646TIP3    H2 1882   4.957   6.767   0.846
  647TIP3   OH2 1883   4.406   1.232   2.783
  647TIP3    H1 1884   4.406   1.295   2.856
  647TIP3    H2 1885   4.498   1.210   2.771
  648TIP3   OH2 1886   1.995   4.247   0.541
  648TIP3    H1 1887   2.064   4.310   0.519
  648TIP3    H2 1888   1.922   4.301   0.571
  649TIP3   OH2 1889   7.356   4.771   2.054
  649TIP3    H1 1890   7.370   4.858   2.015
  649TIP3    H2 1891   7.353   4.788   2.148
  650TIP3   OH2 1892   3.576   6.989   2.119
  650TIP3    H1 1893   3.508   7.005   2.185
  650TIP3    H2 1894   3.608   7.076   2.095
  651TIP3   OH2 1895   8.283   0.517   5.582
  651TIP3    H1 1896   8.208   0.475   5.541
  651TIP3    H2 1897   8.249   0.601   5.613
  652TIP3   OH2 1898   5.601   0.975   4.683
  652TIP3    H1 1899   5.513   0.966   4.719
  652TIP3    H2 1900   5.630   0.885   4.667
  653TIP3   OH2 1901   2.716   4.837   1.873
  653TIP3    H1 1902   2.684   4.902   1.810
  653TIP3    H2 1903   2.701   4.877   1.959
  654TIP3   OH2 1904   5.012   0.015   5.619
  654TIP3    H1 1905   5.037  -0.060   5.565
  654TIP3    H2 1906   5.065   0.088   5.586
  655TIP3   OH2 1907   7.187   7.029   6.439
  655TIP3    H1 1908   7.217   6.939   6.450
  655TIP3    H2 1909   7.162   7.056   6.528
  656TIP3   OH2 1910   1.481   4.302   6.579
  656TIP3    H1 1911   1.466   4.273   6.489
  656TIP3    H2 1912   1.572   4.333   6.579
  657TIP3   OH2 1913   1.087   6.843   0.015
  657TIP3    H1 1914   1.080   6.801  -0.071
  657TIP3    H2 1915   1.179   6.867   0.022
  658TIP3   OH2 1916   6.892   0.357   3.779
  658TIP3    H1 1917   6.890   0.282   3.720
  658TIP3    H2 1918   6.982   0.388   3.776
  659TIP3   OH2 1919   0.372   4.882   3.611
  659TIP3    H1 1920   0.435   4.856   3.679
  659TIP3    H2 1921   0.293   4.907   3.659
  660TIP3   OH2 1922   0.604   6.574   6.254
  660TIP3    H1 1923   0.673   6.512   6.275
  660TIP3    H2 1924   0.614   6.592   6.161
  661TIP3   OH2 1925   8.089   2.599   0.834
  661TIP3    H1 1926   8.082   2.535   0.763
  661TIP3    H2 1927   8.121   2.679   0.792
  662TIP3   OH2 1928   6.774   7.553   0.144
  662TIP3    H1 1929   6.692   7.537   0.097
  662TIP3    H2 1930   6.752   7.621   0.207
  663TIP3   OH2 1931   6.783   3.237   5.472
  663TIP3    H1 1932   6.751   3.196   5.553
  663TIP3    H2 1933   6.708   3.237   5.413
  664TIP3   OH2 1934   2.042   7.170   2.298
  664TIP3    H1 1935   2.109   7.110   2.264
  664TIP3    H2 1936   2.044   7.244   2.238
  665TIP3   OH2 1937   3.408   7.155   5.804
  665TIP3    H1 1938   3.386   7.232   5.750
  665TIP3    H2 1939   3.359   7.083   5.765
  666TIP3   OH2 1940   7.980   3.427   4.705
  666TIP3    H1 1941   7.999   3.473   4.787
  666TIP3    H2 1942   8.066   3.396   4.675
  667TIP3   OH2 1943   6.295   4.483   1.668
  667TIP3    H1 1944   6.289   4.389   1.650
  667TIP3    H2 1945   6.389   4.500   1.679
  668TIP3   OH2 1946   2.797   7.684   3.844
  668TIP3    H1 1947   2.775   7.728   3.763
  668TIP3    H2 1948   2.762   7.595   3.835
  669TIP3   OH2 1949   6.524   2.347   3.367
  669TIP3    H1 1950   6.531   2.255   3.392
  669TIP3    H2 1951   6.443   2.352   3.316
  670TIP3   OH2 1952   6.251   3.114   2.114
  670TIP3    H1 1953   6.189   3.061   2.064
  670TIP3    H2 1954   6.279   3.057   2.186
  671TIP3   OH2 1955   4.013   7.493   6.174
  671TIP3    H1 1956   3.974   7.432   6.236
  671TIP3    H2 1957   3.943   7.556   6.155
  672TIP3   OH2 1958   0.981   2.163   1.065
  672TIP3    H1 1959   0.955   2.237   1.120
  672TIP3    H2 1960   0.909   2.101   1.072
  673TIP3   OH2 1961   8.251   0.998   0.964
  673TIP3    H1 1962   8.236   0.926   1.025
  673TIP3    H2 1963   8.334   1.036   0.992
  674TIP3   OH2 1964   2.539   3.013   0.853
  674TIP3    H1 1965   2.511   3.103   0.834
  674TIP3    H2 1966   2.502   2.995   0.939
  675TIP3   OH2 1967   0.842   3.541   4.712
  675TIP3    H1 1968   0.922   3.488   4.720
  675TIP3    H2 1969   0.781   3.483   4.667
  676TIP3   OH2 1970   6.478   0.305   5.327
  676TIP3    H1 1971   6.513   0.361   5.397
  676TIP3    H2 1972   6.388   0.287   5.354
  677TIP3   OH2 1973   0.161   1.117   0.479
  677TIP3    H1 1974   0.195   1.040   0.433
  677TIP3    H2 1975   0.178   1.099   0.571
  678TIP3   OH2 1976   0.501   1.890   2.465
  678TIP3    H1 1977   0.494   1.968   2.410
  678TIP3    H2 1978   0.462   1.821   2.412
  679TIP3   OH2 1979   6.227   0.595   5.523
  679TIP3    H1 1980   6.207   0.575   5.614
  679TIP3    H2 1981   6.318   0.568   5.512
  680TIP3   OH2 1982   4.718   0.211   0.350
  680TIP3    H1 1983   4.742   0.304   0.347
  680TIP3    H2 1984   4.782   0.168   0.293
  681TIP3   OH2 1985   2.329   7.683   2.244
  681TIP3    H1 1986   2.350   7.609   2.300
  681TIP3    H2 1987   2.257   7.727   2.289
  682TIP3   OH2 1988   2.880   6.859   2.114
  682TIP3    H1 1989   2.824   6.874   2.190
  682TIP3    H2 1990   2.857   6.771   2.083
  683TIP3   OH2 1991   2.818   6.344   6.576
  683TIP3    H1 1992   2.728   6.311   6.588
  683TIP3    H2 1993   2.824   6.362   6.482
  684TIP3   OH2 1994   2.337   0.798   0.236
  684TIP3    H1 1995   2.299   0.858   0.300
  684TIP3    H2 1996   2.340   0.714   0.281
  685TIP3   OH2 1997   1.854   5.435   2.900
  685TIP3    H1 1998   1.823   5.356   2.856
  685TIP3    H2 1999   1.924   5.468   2.844
  686TIP3   OH2 2000   6.299   1.495   1.133
  686TIP3    H1 2001   6.376   1.439   1.124
  686TIP3    H2 2002   6.272   1.514   1.043
  687TIP3   OH2 2003   0.181   4.653   1.279
  687TIP3    H1 2004   0.150   4.569   1.313
  687TIP3    H2 2005   0.222   4.631   1.196
  688TIP3   OH2 2006   0.651   1.484   3.749
  688TIP3    H1 2007   0.580   1.438   3.704
  688TIP3    H2 2008   0.696   1.532   3.680
  689TIP3   OH2 2009   6.292   1.533   3.906
  689TIP3    H1 2010   6.298   1.624   3.876
  689TIP3    H2 2011   6.376   1.495   3.879
  690TIP3   OH2 2012   1.319   0.567   5.736
  690TIP3    H1 2013   1.323   0.632   5.666
  690TIP3    H2 2014   1.233   0.527   5.728
  691TIP3   OH2 2015   7.250   7.064   3.229
  691TIP3    H1 2016   7.257   7.131   3.161
  691TIP3    H2 2017   7.197   6.995   3.189
  692TIP3   OH2 2018   7.773   5.960   0.638
  692TIP3    H1 2019   7.844   5.963   0.574
  692TIP3    H2 2020   7.757   5.867   0.653
  693TIP3   OH2 2021   7.380   3.610   5.684
  693TIP3    H1 2022   7.445   3.541   5.697
  693TIP3    H2 2023   7.304   3.565   5.648
  694TIP3   OH2 2024   6.851   6.642   6.679
  694TIP3    H1 2025   6.814   6.580   6.617
  694TIP3    H2 2026   6.865   6.722   6.627
  695TIP3   OH2 2027   5.970   1.027   5.590
  695TIP3    H1 2028   6.040   0.970   5.559
  695TIP3    H2 2029   6.005   1.067   5.670
  696TIP3   OH2 2030   4.196   3.644   6.428
  696TIP3    H1 2031   4.188   3.679   6.339
  696TIP3    H2 2032   4.145   3.704   6.482
  697TIP3   OH2 2033   6.928   5.783   4.158
  697TIP3    H1 2034   6.914   5.874   4.131
  697TIP3    H2 2035   6.980   5.789   4.238
  698TIP3   OH2 2036   2.647   4.620   4.037
  698TIP3    H1 2037   2.588   4.694   4.050
  698TIP3    H2 2038   2.603   4.566   3.972
  699TIP3   OH2 2039   6.564   5.238   1.865
  699TIP3    H1 2040   6.582   5.257   1.958
  699TIP3    H2 2041   6.651   5.224   1.827
  700TIP3   OH2 2042   1.209   7.634   2.889
  700TIP3    H1 2043   1.229   7.725   2.911
  700TIP3    H2 2044   1.228   7.628   2.795
  701TIP3   OH2 2045   0.304   3.989   4.866
  701TIP3    H1 2046   0.305   3.919   4.932
  701TIP3    H2 2047   0.213   3.991   4.835
  702TIP3   OH2 2048   7.273   6.607   6.048
  702TIP3    H1 2049   7.318   6.627   5.966
  702TIP3    H2 2050   7.343   6.601   6.113
  703TIP3   OH2 2051   3.468   5.563   6.550
  703TIP3    H1 2052   3.401   5.623   6.581
  703TIP3    H2 2053   3.428   5.476   6.559
  704TIP3   OH2 2054   4.484   2.530   5.117
  704TIP3    H1 2055   4.452   2.559   5.032
  704TIP3    H2 2056   4.407   2.527   5.173
  705TIP3   OH2 2057   2.646   6.480   5.109
  705TIP3    H1 2058   2.607   6.509   5.026
  705TIP3    H2 2059   2.583   6.416   5.143
  706TIP3   OH2 2060   3.983   4.857   1.457
  706TIP3    H1 2061   3.989   4.932   1.516
  706TIP3    H2 2062   3.894   4.861   1.422
  707TIP3   OH2 2063   6.287   4.990   0.644
  707TIP3    H1 2064   6.224   4.971   0.575
  707TIP3    H2 2065   6.311   4.905   0.680
  708TIP3   OH2 2066   2.881   4.308   4.665
  708TIP3    H1 2067   2.852   4.312   4.574
  708TIP3    H2 2068   2.966   4.264   4.662
  709TIP3   OH2 2069   0.211   7.016   5.348
  709TIP3    H1 2070   0.195   7.062   5.265
  709TIP3    H2 2071   0.305   7.000   5.348
  710TIP3   OH2 2072   1.622   6.430   6.646
  710TIP3    H1 2073   1.663   6.517   6.655
  710TIP3    H2 2074   1.565   6.423   6.722
  711TIP3   OH2 2075   6.455   3.710   6.124
  711TIP3    H1 2076   6.441   3.755   6.041
  711TIP3    H2 2077   6.550   3.711   6.136
  712TIP3   OH2 2078   6.322   2.189   5.456
  712TIP3    H1 2079   6.314   2.149   5.542
  712TIP3    H2 2080   6.234   2.182   5.418
  713TIP3   OH2 2081   5.507   7.403   3.144
  713TIP3    H1 2082   5.536   7.355   3.222
  713TIP3    H2 2083   5.513   7.495   3.168
  714TIP3   OH2 2084   6.970   1.356   3.285
  714TIP3    H1 2085   6.874   1.353   3.290
  714TIP3    H2 2086   6.989   1.362   3.191
  715TIP3   OH2 2087   5.165   5.341   0.950
  715TIP3    H1 2088   5.101   5.358   1.019
  715TIP3    H2 2089   5.131   5.265   0.904
  716TIP3   OH2 2090   3.914   1.869   0.754
  716TIP3    H1 2091   3.962   1.951   0.741
  716TIP3    H2 2092   3.945   1.812   0.683
  717TIP3   OH2 2093   2.029   0.705   0.319
  717TIP3    H1 2094   1.958   0.658   0.363
  717TIP3    H2 2095   2.080   0.636   0.276
  718TIP3   OH2 2096   4.434   4.358   0.118
  718TIP3    H1 2097   4.376   4.404   0.057
  718TIP3    H2 2098   4.520   4.363   0.076
  719TIP3   OH2 2099   4.147   7.249   5.966
  719TIP3    H1 2100   4.162   7.341   5.946
  719TIP3    H2 2101   4.060   7.231   5.931
  720TIP3   OH2 2102   4.080   2.672   2.806
  720TIP3    H1 2103   4.110   2.750   2.852
  720TIP3    H2 2104   4.109   2.685   2.715
  721TIP3   OH2 2105   0.658   6.687   2.617
  721TIP3    H1 2106   0.569   6.661   2.592
  721TIP3    H2 2107   0.668   6.775   2.581
  722TIP3   OH2 2108   4.388   2.940   4.527
  722TIP3    H1 2109   4.355   2.977   4.609
  722TIP3    H2 2110   4.398   3.015   4.468
  723TIP3   OH2 2111   1.871   1.182   2.320
  723TIP3    H1 2112   1.784   1.149   2.342
  723TIP3    H2 2113   1.876   1.174   2.225
  724TIP3   OH2 2114   6.422   7.564   1.147
  724TIP3    H1 2115   6.342   7.513   1.158
  724TIP3    H2 2116   6.492   7.502   1.168
  725TIP3   OH2 2117   7.676   5.582   4.390
  725TIP3    H1 2118   7.742   5.614   4.452
  725TIP3    H2 2119   7.598   5.633   4.410
  726TIP3   OH2 2120   3.629   3.093   4.768
  726TIP3    H1 2121   3.682   3.088   4.848
  726TIP3    H2 2122   3.566   3.162   4.785
  727TIP3   OH2 2123   4.189   2.297   1.227
  727TIP3    H1 2124   4.193   2.376   1.281
  727TIP3    H2 2125   4.193   2.330   1.137
  728TIP3   OH2 2126   4.937   6.111   3.283
  728TIP3    H1 2127   4.996   6.173   3.326
  728TIP3    H2 2128   4.977   6.097   3.197
  729TIP3   OH2 2129   4.069   5.327   1.184
  729TIP3    H1 2130   4.096   5.417   1.201
  729TIP3    H2 2131   4.078   5.282   1.268
  730TIP3   OH2 2132   0.133   4.127   3.820
  730TIP3    H1 2133   0.065   4.180   3.862
  730TIP3    H2 2134   0.113   4.134   3.726
  731TIP3   OH2 2135   1.354   1.968   6.600
  731TIP3    H1 2136   1.356   1.896   6.537
  731TIP3    H2 2137   1.299   2.035   6.560
  732TIP3   OH2 2138   6.935   6.698   3.467
  732TIP3    H1 2139   6.891   6.779   3.444
  732TIP3    H2 2140   7.025   6.724   3.487
  733TIP3   OH2 2141   2.495   0.189   5.601
  733TIP3    H1 2142   2.462   0.243   5.530
  733TIP3    H2 2143   2.564   0.136   5.560
  734TIP3   OH2 2144   8.132   2.176   0.917
  734TIP3    H1 2145   8.187   2.172   0.839
  734TIP3    H2 2146   8.043   2.181   0.882
  735TIP3   OH2 2147   3.898   1.970   5.541
  735TIP3    H1 2148   3.938   1.969   5.454
  735TIP3    H2 2149   3.901   1.879   5.570
  736TIP3   OH2 2150   3.941   5.462   5.812
  736TIP3    H1 2151   3.886   5.457   5.734
  736TIP3    H2 2152   4.030   5.467   5.778
  737TIP3   OH2 2153   7.711   1.624   0.789
  737TIP3    H1 2154   7.646   1.555   0.799
  737TIP3    H2 2155   7.713   1.668   0.875
  738TIP3   OH2 2156   0.859   0.900   5.457
  738TIP3    H1 2157   0.904   0.982   5.436
  738TIP3    H2 2158   0.772   0.927   5.487
  739TIP3   OH2 2159   2.181   3.484   1.009
  739TIP3    H1 2160   2.219   3.519   0.929
  739TIP3    H2 2161   2.096   3.527   1.016
  740TIP3   OH2 2162   5.793   6.958   1.283
  740TIP3    H1 2163   5.856   7.023   1.315
  740TIP3    H2 2164   5.742   7.006   1.217
  741TIP3   OH2 2165   6.235   4.395   0.741
  741TIP3    H1 2166   6.242   4.454   0.816
  741TIP3    H2 2167   6.185   4.445   0.676
  742TIP3   OH2 2168   2.886   6.594   5.657
  742TIP3    H1 2169   2.892   6.677   5.705
  742TIP3    H2 2170   2.969   6.551   5.673
  743TIP3   OH2 2171   5.897   0.240   5.887
  743TIP3    H1 2172   5.870   0.152   5.914
  743TIP3    H2 2173   5.818   0.293   5.894
  744TIP3   OH2 2174   4.852   3.843   1.661
  744TIP3    H1 2175   4.785   3.774   1.660
  744TIP3    H2 2176   4.802   3.924   1.651
  745TIP3   OH2 2177   3.477   5.029   0.288
  745TIP3    H1 2178   3.427   4.980   0.222
  745TIP3    H2 2179   3.480   5.119   0.254
  746TIP3   OH2 2180   4.844   5.207   6.466
  746TIP3    H1 2181   4.886   5.273   6.522
  746TIP3    H2 2182   4.876   5.228   6.378
  747TIP3   OH2 2183   1.510   0.881   1.761
  747TIP3    H1 2184   1.584   0.823   1.779
  747TIP3    H2 2185   1.548   0.968   1.756
  748TIP3   OH2 2186   6.936   4.155   0.473
  748TIP3    H1 2187   6.920   4.063   0.491
  748TIP3    H2 2188   7.015   4.176   0.523
  749TIP3   OH2 2189   1.979   3.402   6.504
  749TIP3    H1 2190   1.963   3.310   6.483
  749TIP3    H2 2191   1.940   3.414   6.591
  750TIP3   OH2 2192   3.429   5.401   4.932
  750TIP3    H1 2193   3.354   5.455   4.907
  750TIP3    H2 2194   3.404   5.363   5.016
  751TIP3   OH2 2195   6.177   5.014   6.633
  751TIP3    H1 2196   6.217   4.958   6.566
  751TIP3    H2 2197   6.199   4.972   6.716
  752TIP3   OH2 2198   5.071   1.370   5.278
  752TIP3    H1 2199   5.081   1.463   5.297
  752TIP3    H2 2200   5.150   1.329   5.312
  753TIP3   OH2 2201   6.547   5.403   1.341
  753TIP3    H1 2202   6.494   5.456   1.282
  753TIP3    H2 2203   6.521   5.432   1.429
  754TIP3   OH2 2204   5.246   2.191   5.976
  754TIP3    H1 2205   5.273   2.103   5.949
  754TIP3    H2 2206   5.151   2.188   5.975
  755TIP3   OH2 2207   0.229   2.328   5.688
  755TIP3    H1 2208   0.171   2.388   5.734
  755TIP3    H2 2209   0.171   2.273   5.635
  756TIP3   OH2 2210   2.479   1.793   4.990
  756TIP3    H1 2211   2.384   1.809   4.991
  756TIP3    H2 2212   2.490   1.713   5.042
  757TIP3   OH2 2213   6.603   3.064   3.606
  757TIP3    H1 2214   6.660   3.097   3.537
  757TIP3    H2 2215   6.517   3.060   3.565
  758TIP3   OH2 2216   5.305   3.762   4.580
  758TIP3    H1 2217   5.249   3.816   4.635
  758TIP3    H2 2218   5.260   3.757   4.496
  759TIP3   OH2 2219   2.621   1.249   0.773
  759TIP3    H1 2220   2.570   1.211   0.703
  759TIP3    H2 2221   2.641   1.176   0.832
  760TIP3   OH2 2222   7.651   3.155   2.758
  760TIP3    H1 2223   7.642   3.240   2.715
  760TIP3    H2 2224   7.745   3.144   2.773
  761TIP3   OH2 2225   5.332   2.873   3.848
  761TIP3    H1 2226   5.304   2.784   3.824
  761TIP3    H2 2227   5.358   2.866   3.940
  762TIP3   OH2 2228   8.063   1.413   0.287
  762TIP3    H1 2229   7.996   1.387   0.223
  762TIP3    H2 2230   8.021   1.483   0.338
  763TIP3   OH2 2231   5.887   6.103   2.329
  763TIP3    H1 2232   5.894   6.008   2.323
  763TIP3    H2 2233   5.792   6.120   2.326
  764TIP3   OH2 2234   2.392   5.875   2.030
  764TIP3    H1 2235   2.404   5.966   2.057
  764TIP3    H2 2236   2.345   5.882   1.946
  765TIP3   OH2 2237   6.115   0.160   1.967
  765TIP3    H1 2238   6.114   0.068   1.992
  765TIP3    H2 2239   6.057   0.165   1.891
  766TIP3   OH2 2240   1.760   5.351   6.178
  766TIP3    H1 2241   1.775   5.274   6.233
  766TIP3    H2 2242   1.700   5.406   6.229
  767TIP3   OH2 2243   0.844   7.320   1.591
  767TIP3    H1 2244   0.925   7.271   1.603
  767TIP3    H2 2245   0.850   7.393   1.653
  768TIP3   OH2 2246   0.219   6.466   1.595
  768TIP3    H1 2247   0.179   6.471   1.681
  768TIP3    H2 2248   0.311   6.446   1.613
  769TIP3   OH2 2249   4.055   4.961   4.751
  769TIP3    H1 2250   4.023   5.051   4.756
  769TIP3    H2 2251   3.975   4.908   4.741
  770TIP3   OH2 2252   4.784   2.893   4.083
  770TIP3    H1 2253   4.715   2.842   4.040
  770TIP3    H2 2254   4.828   2.831   4.141
  771TIP3   OH2 2255   7.263   3.174   6.709
  771TIP3    H1 2256   7.296   3.092   6.745
  771TIP3    H2 2257   7.169   3.161   6.702
  772TIP3   OH2 2258   3.889   1.202   1.462
  772TIP3    H1 2259   3.932   1.280   1.495
  772TIP3    H2 2260   3.807   1.234   1.425
  773TIP3   OH2 2261   0.677   4.749   6.476
  773TIP3    H1 2262   0.602   4.707   6.434
  773TIP3    H2 2263   0.711   4.683   6.536
  774TIP3   OH2 2264   4.549   2.363   1.063
  774TIP3    H1 2265   4.468   2.372   1.013
  774TIP3    H2 2266   4.568   2.452   1.093
  775TIP3   OH2 2267   5.043   7.533   3.601
  775TIP3    H1 2268   5.072   7.442   3.592
  775TIP3    H2 2269   5.026   7.543   3.695
  776TIP3   OH2 2270   1.104   6.800   6.447
  776TIP3    H1 2271   1.188   6.816   6.403
  776TIP3    H2 2272   1.039   6.840   6.389
  777TIP3   OH2 2273   2.081   6.616   5.849
  777TIP3    H1 2274   2.065   6.541   5.792
  777TIP3    H2 2275   2.176   6.616   5.862
  778TIP3   OH2 2276   0.844   4.102   1.365
  778TIP3    H1 2277   0.901   4.064   1.433
  778TIP3    H2 2278   0.818   4.027   1.311
  779TIP3   OH2 2279   0.568   0.395   1.013
  779TIP3    H1 2280   0.585   0.301   0.999
  779TIP3    H2 2281   0.637   0.423   1.073
  780TIP3   OH2 2282   0.804   1.711   4.625
  780TIP3    H1 2283   0.823   1.804   4.629
  780TIP3    H2 2284   0.885   1.671   4.594
  781TIP3   OH2 2285   3.392   1.319   1.817
  781TIP3    H1 2286   3.313   1.331   1.870
  781TIP3    H2 2287   3.434   1.405   1.816
  782TIP3   OH2 2288   3.211   6.909   1.801
  782TIP3    H1 2289   3.284   6.930   1.743
  782TIP3    H2 2290   3.231   6.821   1.833
  783TIP3   OH2 2291   7.808   5.826   2.170
  783TIP3    H1 2292   7.832   5.828   2.262
  783TIP3    H2 2293   7.889   5.845   2.123
  784TIP3   OH2 2294   0.622   2.790   0.383
  784TIP3    H1 2295   0.528   2.771   0.380
  784TIP3    H2 2296   0.649   2.794   0.292
  785TIP3   OH2 2297   2.589   4.969   2.803
  785TIP3    H1 2298   2.669   4.996   2.759
  785TIP3    H2 2299   2.619   4.920   2.880
  786TIP3   OH2 2300   0.987   7.361   1.343
  786TIP3    H1 2301   0.924   7.341   1.413
  786TIP3    H2 2302   0.962   7.448   1.313
  787TIP3   OH2 2303   0.279   4.661   3.798
  787TIP3    H1 2304   0.246   4.576   3.769
  787TIP3    H2 2305   0.202   4.717   3.802
  788TIP3   OH2 2306   3.070   7.068   5.971
  788TIP3    H1 2307   3.130   7.000   5.999
  788TIP3    H2 2308   3.091   7.083   5.878
  789TIP3   OH2 2309   0.111   1.908   0.845
  789TIP3    H1 2310   0.199   1.938   0.870
  789TIP3    H2 2311   0.092   1.955   0.764
  790TIP3   OH2 2312   5.814   7.064   2.159
  790TIP3    H1 2313   5.780   7.006   2.091
  790TIP3    H2 2314   5.893   7.021   2.190
  791TIP3   OH2 2315   7.809   7.165   0.627
  791TIP3    H1 2316   7.815   7.070   0.623
  791TIP3    H2 2317   7.825   7.186   0.720
  792TIP3   OH2 2318   6.703   0.873   2.109
  792TIP3    H1 2319   6.784   0.841   2.069
  792TIP3    H2 2320   6.709   0.968   2.100
  793TIP3   OH2 2321   7.544   5.043   6.037
  793TIP3    H1 2322   7.629   5.001   6.022
  793TIP3    H2 2323   7.535   5.044   6.133
  794TIP3   OH2 2324   2.408   3.441   5.534
  794TIP3    H1 2325   2.493   3.434   5.491
  794TIP3    H2 2326   2.395   3.535   5.546
  795TIP3   OH2 2327   6.853   5.931   0.818
  795TIP3    H1 2328   6.879   5.883   0.897
  795TIP3    H2 2329   6.935   5.954   0.775
  796TIP3   OH2 2330   5.411   1.829   1.105
  796TIP3    H1 2331   5.359   1.749   1.106
  796TIP3    H2 2332   5.495   1.803   1.066
  797TIP3   OH2 2333   6.987   6.291   2.756
  797TIP3    H1 2334   6.925   6.336   2.699
  797TIP3    H2 2335   6.963   6.199   2.750
  798TIP3   OH2 2336   0.574   0.576   1.700
  798TIP3    H1 2337   0.586   0.547   1.790
  798TIP3    H2 2338   0.644   0.533   1.651
  799TIP3   OH2 2339   4.753   4.838   5.516
  799TIP3    H1 2340   4.761   4.913   5.575
  799TIP3    H2 2341   4.666   4.802   5.535
  800TIP3   OH2 2342   2.657   5.654   5.262
  800TIP3    H1 2343   2.668   5.747   5.246
  800TIP3    H2 2344   2.692   5.611   5.184
  801TIP3   OH2 2345   1.769   3.052   3.855
  801TIP3    H1 2346   1.751   2.962   3.827
  801TIP3    H2 2347   1.742   3.106   3.781
  802TIP3   OH2 2348   3.169   5.670   3.557
  802TIP3    H1 2349   3.152   5.756   3.520
  802TIP3    H2 2350   3.220   5.624   3.491
  803TIP3   OH2 2351   3.207   6.698   2.650
  803TIP3    H1 2352   3.297   6.677   2.628
  803TIP3    H2 2353   3.159   6.692   2.567
  804TIP3   OH2 2354   3.752   1.483   3.040
  804TIP3    H1 2355   3.716   1.446   2.960
  804TIP3    H2 2356   3.676   1.517   3.087
  805TIP3   OH2 2357   5.546   0.879   1.569
  805TIP3    H1 2358   5.481   0.858   1.636
  805TIP3    H2 2359   5.573   0.969   1.589
  806TIP3   OH2 2360   0.794   0.285   0.090
  806TIP3    H1 2361   0.743   0.241   0.022
  806TIP3    H2 2362   0.835   0.213   0.139
  807TIP3   OH2 2363   5.180   5.465   5.541
  807TIP3    H1 2364   5.153   5.414   5.617
  807TIP3    H2 2365   5.252   5.520   5.572
  808TIP3   OH2 2366   3.573   7.279   2.557
  808TIP3    H1 2367   3.579   7.184   2.566
  808TIP3    H2 2368   3.560   7.310   2.646
  809TIP3   OH2 2369   3.184   1.077   1.880
  809TIP3    H1 2370   3.241   1.152   1.864
  809TIP3    H2 2371   3.172   1.036   1.794
  810TIP3   OH2 2372   5.013   4.441   5.341
  810TIP3    H1 2373   4.949   4.387   5.386
  810TIP3    H2 2374   5.016   4.522   5.391
  811TIP3   OH2 2375   3.790   2.589   1.629
  811TIP3    H1 2376   3.763   2.650   1.698
  811TIP3    H2 2377   3.727   2.604   1.558
  812TIP3   OH2 2378   6.892   7.103   3.115
  812TIP3    H1 2379   6.943   7.022   3.107
  812TIP3    H2 2380   6.954   7.173   3.095
  813TIP3   OH2 2381   5.136   3.090   1.694
  813TIP3    H1 2382   5.091   3.125   1.617
  813TIP3    H2 2383   5.225   3.073   1.664
  814TIP3   OH2 2384   7.653   2.957   3.824
  814TIP3    H1 2385   7.661   2.870   3.787
  814TIP3    H2 2386   7.634   2.942   3.917
  815TIP3   OH2 2387   4.445  -0.047   1.603
  815TIP3    H1 2388   4.539  -0.052   1.617
  815TIP3    H2 2389   4.414   0.017   1.668
  816TIP3   OH2 2390   0.948   1.422   2.893
  816TIP3    H1 2391   0.906   1.370   2.824
  816TIP3    H2 2392   0.984   1.498   2.848
  817TIP3   OH2 2393   6.295   7.235   2.053
  817TIP3    H1 2394   6.361   7.288   2.096
  817TIP3    H2 2395   6.212   7.277   2.076
  818TIP3   OH2 2396   6.661   1.863   1.343
  818TIP3    H1 2397   6.714   1.911   1.279
  818TIP3    H2 2398   6.713   1.864   1.423
  819TIP3   OH2 2399   4.271   1.332   3.478
  819TIP3    H1 2400   4.179   1.307   3.491
  819TIP3    H2 2401   4.285   1.322   3.383
  820TIP3   OH2 2402   6.814   1.885   3.779
  820TIP3    H1 2403   6.730   1.853   3.813
  820TIP3    H2 2404   6.864   1.806   3.760
  821TIP3   OH2 2405   7.760   1.664   3.895
  821TIP3    H1 2406   7.808   1.674   3.977
  821TIP3    H2 2407   7.723   1.575   3.900
  822TIP3   OH2 2408   7.974   2.502   2.967
  822TIP3    H1 2409   7.992   2.503   3.061
  822TIP3    H2 2410   8.009   2.418   2.936
  823TIP3   OH2 2411   6.800   5.152   3.080
  823TIP3    H1 2412   6.860   5.084   3.109
  823TIP3    H2 2413   6.756   5.115   3.004
  824TIP3   OH2 2414   6.890   3.909   0.601
  824TIP3    H1 2415   6.928   3.847   0.538
  824TIP3    H2 2416   6.796   3.888   0.601
  825TIP3   OH2 2417   4.857   1.310   3.546
  825TIP3    H1 2418   4.781   1.341   3.497
  825TIP3    H2 2419   4.823   1.239   3.601
  826TIP3   OH2 2420   0.709   6.411   2.438
  826TIP3    H1 2421   0.732   6.491   2.390
  826TIP3    H2 2422   0.737   6.429   2.528
  827TIP3   OH2 2423   7.968   6.732   4.299
  827TIP3    H1 2424   7.980   6.698   4.387
  827TIP3    H2 2425   7.967   6.827   4.310
  828TIP3   OH2 2426   4.513   6.855   4.087
  828TIP3    H1 2427   4.507   6.911   4.165
  828TIP3    H2 2428   4.521   6.767   4.122
  829TIP3   OH2 2429   7.662   7.364   6.639
  829TIP3    H1 2430   7.588   7.307   6.619
  829TIP3    H2 2431   7.735   7.327   6.590
  830TIP3   OH2 2432   7.005   1.701   6.557
  830TIP3    H1 2433   7.053   1.619   6.562
  830TIP3    H2 2434   6.950   1.702   6.635
  831TIP3   OH2 2435   5.606   5.357   0.265
  831TIP3    H1 2436   5.565   5.402   0.190
  831TIP3    H2 2437   5.576   5.266   0.258
  832TIP3   OH2 2438   2.667   4.466   5.223
  832TIP3    H1 2439   2.587   4.509   5.193
  832TIP3    H2 2440   2.665   4.476   5.318
  833TIP3   OH2 2441   0.698   1.156   3.515
  833TIP3    H1 2442   0.605   1.154   3.541
  833TIP3    H2 2443   0.699   1.114   3.429
  834TIP3   OH2 2444   5.990   6.236   0.559
  834TIP3    H1 2445   6.056   6.261   0.495
  834TIP3    H2 2446   5.922   6.304   0.551
  835TIP3   OH2 2447   1.793   5.008   2.140
  835TIP3    H1 2448   1.745   5.087   2.167
  835TIP3    H2 2449   1.879   5.041   2.115
  836TIP3   OH2 2450   2.395   7.156   4.865
  836TIP3    H1 2451   2.478   7.154   4.817
  836TIP3    H2 2452   2.411   7.099   4.940
  837TIP3   OH2 2453   2.426   0.833   3.494
  837TIP3    H1 2454   2.440   0.915   3.541
  837TIP3    H2 2455   2.416   0.859   3.403
  838TIP3   OH2 2456   6.146   5.433   3.154
  838TIP3    H1 2457   6.067   5.381   3.167
  838TIP3    H2 2458   6.188   5.434   3.240
  839TIP3   OH2 2459   4.180   7.761   3.993
  839TIP3    H1 2460   4.257   7.744   4.047
  839TIP3    H2 2461   4.205   7.729   3.906
  840TIP3   OH2 2462   4.937   3.239   0.641
  840TIP3    H1 2463   4.918   3.152   0.676
  840TIP3    H2 2464   4.893   3.240   0.556
  841TIP3   OH2 2465   3.078   6.197   6.023
  841TIP3    H1 2466   2.987   6.226   6.024
  841TIP3    H2 2467   3.075   6.106   6.051
  842TIP3   OH2 2468   5.958   5.774   1.722
  842TIP3    H1 2469   6.037   5.742   1.767
  842TIP3    H2 2470   5.991   5.836   1.657
  843TIP3   OH2 2471   1.119   7.361   4.592
  843TIP3    H1 2472   1.076   7.390   4.673
  843TIP3    H2 2473   1.141   7.443   4.547
  844TIP3   OH2 2474   7.901   3.061   2.235
  844TIP3    H1 2475   7.963   3.115   2.285
  844TIP3    H2 2476   7.922   2.971   2.259
  845TIP3   OH2 2477   6.882   4.156   5.901
  845TIP3    H1 2478   6.793   4.148   5.868
  845TIP3    H2 2479   6.884   4.240   5.947
  846TIP3   OH2 2480   0.805   2.085   1.870
  846TIP3    H1 2481   0.748   2.016   1.836
  846TIP3    H2 2482   0.760   2.166   1.847
  847TIP3   OH2 2483   4.113   7.119   4.426
  847TIP3    H1 2484   4.146   7.123   4.516
  847TIP3    H2 2485   4.018   7.125   4.436
  848TIP3   OH2 2486   6.181   0.397   5.271
  848TIP3    H1 2487   6.189   0.462   5.201
  848TIP3    H2 2488   6.118   0.334   5.239
  849TIP3   OH2 2489   3.971   0.406   0.659
  849TIP3    H1 2490   4.038   0.468   0.686
  849TIP3    H2 2491   3.971   0.339   0.727
  850TIP3   OH2 2492   6.251   0.827   1.322
  850TIP3    H1 2493   6.174   0.772   1.308
  850TIP3    H2 2494   6.215   0.912   1.348
  851TIP3   OH2 2495   2.596   3.412   3.407
  851TIP3    H1 2496   2.638   3.460   3.478
  851TIP3    H2 2497   2.597   3.321   3.437
  852TIP3   OH2 2498   1.451   5.881   0.375
  852TIP3    H1 2499   1.458   5.976   0.377
  852TIP3    H2 2500   1.456   5.854   0.467
  853TIP3   OH2 2501   2.672   5.941   5.681
  853TIP3    H1 2502   2.746   5.889   5.714
  853TIP3    H2 2503   2.632   5.886   5.614
  854TIP3   OH2 2504   2.175   0.732   5.193
  854TIP3    H1 2505   2.099   0.757   5.140
  854TIP3    H2 2506   2.249   0.778   5.152
  855TIP3   OH2 2507   4.982   6.476   5.217
  855TIP3    H1 2508   5.015   6.564   5.199
  855TIP3    H2 2509   5.052   6.418   5.187
  856TIP3   OH2 2510   6.175   6.416   3.955
  856TIP3    H1 2511   6.183   6.494   3.901
  856TIP3    H2 2512   6.203   6.344   3.898
  857TIP3   OH2 2513   6.436   3.025   1.110
  857TIP3    H1 2514   6.479   3.016   1.195
  857TIP3    H2 2515   6.454   2.942   1.065
  858TIP3   OH2 2516   6.138   4.808   1.558
  858TIP3    H1 2517   6.093   4.748   1.498
  858TIP3    H2 2518   6.099   4.894   1.539
  859TIP3   OH2 2519   6.080   1.494   1.313
  859TIP3    H1 2520   6.085   1.460   1.402
  859TIP3    H2 2521   6.169   1.485   1.278
  860TIP3   OH2 2522   5.976   6.783   1.797
  860TIP3    H1 2523   5.919   6.709   1.822
  860TIP3    H2 2524   6.010   6.816   1.880
  861TIP3   OH2 2525   5.275   2.547   6.170
  861TIP3    H1 2526   5.276   2.626   6.115
  861TIP3    H2 2527   5.307   2.577   6.255
  862TIP3   OH2 2528   4.199   1.048   4.230
  862TIP3    H1 2529   4.113   1.075   4.262
  862TIP3    H2 2530   4.248   1.023   4.308
  863TIP3   OH2 2531   5.637   0.198   5.726
  863TIP3    H1 2532   5.638   0.285   5.686
  863TIP3    H2 2533   5.655   0.137   5.655
  864TIP3   OH2 2534   1.323   3.261   4.827
  864TIP3    H1 2535   1.347   3.255   4.735
  864TIP3    H2 2536   1.396   3.306   4.869
  865TIP3   OH2 2537   5.881   0.867   6.259
  865TIP3    H1 2538   5.824   0.943   6.268
  865TIP3    H2 2539   5.855   0.828   6.175
  866TIP3   OH2 2540   0.501   2.464   0.800
  866TIP3    H1 2541   0.539   2.521   0.733
  866TIP3    H2 2542   0.548   2.487   0.880
  867TIP3   OH2 2543   0.708   2.758   2.864
  867TIP3    H1 2544   0.676   2.668   2.875
  867TIP3    H2 2545   0.781   2.765   2.925
  868TIP3   OH2 2546   1.640   6.125   4.366
  868TIP3    H1 2547   1.692   6.177   4.305
  868TIP3    H2 2548   1.601   6.056   4.312
  869TIP3   OH2 2549   4.249   5.080   2.707
  869TIP3    H1 2550   4.269   4.989   2.727
  869TIP3    H2 2551   4.195   5.076   2.628
  870TIP3   OH2 2552   2.452   2.765   3.850
  870TIP3    H1 2553   2.443   2.669   3.847
  870TIP3    H2 2554   2.404   2.791   3.928
  871TIP3   OH2 2555   3.903   1.896   6.416
  871TIP3    H1 2556   3.934   1.987   6.422
  871TIP3    H2 2557   3.941   1.863   6.334
  872TIP3   OH2 2558   6.543   5.000   1.354
  872TIP3    H1 2559   6.518   4.911   1.380
  872TIP3    H2 2560   6.461   5.039   1.324
  873TIP3   OH2 2561   4.395   3.548   4.609
  873TIP3    H1 2562   4.441   3.464   4.608
  873TIP3    H2 2563   4.303   3.525   4.626
  874TIP3   OH2 2564   5.741   0.746   1.415
  874TIP3    H1 2565   5.747   0.652   1.431
  874TIP3    H2 2566   5.648   0.766   1.426
  875TIP3   OH2 2567   0.932   7.384   4.381
  875TIP3    H1 2568   0.942   7.326   4.456
  875TIP3    H2 2569   0.989   7.347   4.314
  876TIP3   OH2 2570   3.848   3.243   3.289
  876TIP3    H1 2571   3.762   3.226   3.327
  876TIP3    H2 2572   3.830   3.265   3.197
  877TIP3   OH2 2573   4.274   4.261   5.204
  877TIP3    H1 2574   4.312   4.191   5.151
  877TIP3    H2 2575   4.253   4.330   5.141
  878TIP3   OH2 2576   2.712   3.269   2.680
  878TIP3    H1 2577   2.804   3.293   2.671
  878TIP3    H2 2578   2.673   3.343   2.728
  879TIP3   OH2 2579   0.887   6.256   6.699
  879TIP3    H1 2580   0.814   6.257   6.761
  879TIP3    H2 2581   0.946   6.325   6.731
  880TIP3   OH2 2582   3.326   2.602   2.047
  880TIP3    H1 2583   3.284   2.560   2.122
  880TIP3    H2 2584   3.417   2.573   2.052
  881TIP3   OH2 2585   7.683   4.179   5.333
  881TIP3    H1 2586   7.771   4.147   5.314
  881TIP3    H2 2587   7.686   4.272   5.313
  882TIP3   OH2 2588   3.788   0.581   4.343
  882TIP3    H1 2589   3.847   0.643   4.299
  882TIP3    H2 2590   3.701   0.620   4.334
  883TIP3   OH2 2591   3.591   1.690   6.497
  883TIP3    H1 2592   3.592   1.614   6.555
  883TIP3    H2 2593   3.665   1.743   6.525
  884TIP3   OH2 2594   2.028   3.199   5.019
  884TIP3    H1 2595   2.013   3.220   4.926
  884TIP3    H2 2596   2.071   3.277   5.054
  885TIP3   OH2 2597   0.498   7.661   3.622
  885TIP3    H1 2598   0.432   7.726   3.646
  885TIP3    H2 2599   0.449   7.578   3.617
  886TIP3   OH2 2600   1.640   3.810   1.815
  886TIP3    H1 2601   1.668   3.720   1.827
  886TIP3    H2 2602   1.682   3.859   1.886
  887TIP3   OH2 2603   1.594   0.688   1.399
  887TIP3    H1 2604   1.659   0.758   1.393
  887TIP3    H2 2605   1.646   0.608   1.408
  888TIP3   OH2 2606   5.835   4.535   0.289
  888TIP3    H1 2607   5.748   4.538   0.329
  888TIP3    H2 2608   5.829   4.465   0.225
  889TIP3   OH2 2609   1.644   6.381   0.302
  889TIP3    H1 2610   1.699   6.457   0.320
  889TIP3    H2 2611   1.655   6.324   0.377
  890TIP3   OH2 2612   3.975   1.312   2.782
  890TIP3    H1 2613   3.928   1.231   2.800
  890TIP3    H2 2614   4.044   1.315   2.849
  891TIP3   OH2 2615   7.466   6.989   0.506
  891TIP3    H1 2616   7.547   7.013   0.461
  891TIP3    H2 2617   7.465   7.043   0.585
  892TIP3   OH2 2618   6.049   2.956   3.702
  892TIP3    H1 2619   6.099   2.949   3.621
  892TIP3    H2 2620   6.034   3.050   3.713
  893TIP3   OH2 2621   6.180   7.802   4.434
  893TIP3    H1 2622   6.124   7.840   4.366
  893TIP3    H2 2623   6.163   7.708   4.430
  894TIP3   OH2 2624   0.032   3.782   2.211
  894TIP3    H1 2625   0.124   3.798   2.231
  894TIP3    H2 2626   0.027   3.787   2.116
  895TIP3   OH2 2627   0.271   6.690   1.434
  895TIP3    H1 2628   0.309   6.624   1.493
  895TIP3    H2 2629   0.179   6.694   1.459
  896TIP3   OH2 2630   2.816   2.888   6.695
  896TIP3    H1 2631   2.749   2.822   6.678
  896TIP3    H2 2632   2.766   2.967   6.716
  897TIP3   OH2 2633   1.975   2.196   5.477
  897TIP3    H1 2634   1.911   2.229   5.413
  897TIP3    H2 2635   1.939   2.111   5.504
  898TIP3   OH2 2636   7.181   1.873   5.510
  898TIP3    H1 2637   7.187   1.866   5.415
  898TIP3    H2 2638   7.124   1.800   5.536
  899TIP3   OH2 2639   5.969   0.617   1.914
  899TIP3    H1 2640   5.897   0.641   1.855
  899TIP3    H2 2641   5.959   0.676   1.989
  900TIP3   OH2 2642   6.222   0.653   6.481
  900TIP3    H1 2643   6.189   0.689   6.399
  900TIP3    H2 2644   6.168   0.694   6.548
  901TIP3   OH2 2645   3.004   5.232   0.226
  901TIP3    H1 2646   3.089   5.227   0.183
  901TIP3    H2 2647   3.008   5.167   0.296
  902TIP3   OH2 2648   4.795   4.424   3.175
  902TIP3    H1 2649   4.788   4.341   3.222
  902TIP3    H2 2650   4.769   4.490   3.239
  903TIP3   OH2 2651   3.582   0.857   6.514
  903TIP3    H1 2652   3.535   0.904   6.445
  903TIP3    H2 2653   3.671   0.847   6.480
  904TIP3   OH2 2654   4.397   7.203   3.246
  904TIP3    H1 2655   4.460   7.266   3.280
  904TIP3    H2 2656   4.414   7.200   3.152
  905TIP3   OH2 2657   0.629   4.585   4.460
  905TIP3    H1 2658   0.671   4.511   4.415
  905TIP3    H2 2659   0.587   4.634   4.390
  906TIP3   OH2 2660   5.554   3.255   4.553
  906TIP3    H1 2661   5.463   3.233   4.538
  906TIP3    H2 2662   5.586   3.187   4.613
  907TIP3   OH2 2663   4.296   3.749   3.928
  907TIP3    H1 2664   4.373   3.709   3.888
  907TIP3    H2 2665   4.238   3.768   3.854
  908TIP3   OH2 2666   7.653   3.198   1.189
  908TIP3    H1 2667   7.594   3.126   1.168
  908TIP3    H2 2668   7.690   3.175   1.274
  909TIP3   OH2 2669   5.820   4.755   1.709
  909TIP3    H1 2670   5.819   4.843   1.746
  909TIP3    H2 2671   5.829   4.697   1.785
  910TIP3   OH2 2672   2.531   0.910   1.941
  910TIP3    H1 2673   2.616   0.887   1.980
  910TIP3    H2 2674   2.504   0.989   1.987
  911TIP3   OH2 2675   5.429   1.080   3.331
  911TIP3    H1 2676   5.512   1.116   3.362
  911TIP3    H2 2677   5.418   1.119   3.244
  912TIP3   OH2 2678   2.449   1.205   4.456
  912TIP3    H1 2679   2.538   1.233   4.436
  912TIP3    H2 2680   2.458   1.114   4.484
  913TIP3   OH2 2681   0.237   2.527   0.744
  913TIP3    H1 2682   0.325   2.497   0.724
  913TIP3    H2 2683   0.218   2.488   0.830
  914TIP3   OH2 2684   7.062   1.406   3.022
  914TIP3    H1 2685   7.065   1.493   3.061
  914TIP3    H2 2686   7.077   1.421   2.929
  915TIP3   OH2 2687   0.148   4.287   5.605
  915TIP3    H1 2688   0.096   4.367   5.617
  915TIP3    H2 2689   0.093   4.231   5.550
  916TIP3   OH2 2690   5.912   5.633   5.795
  916TIP3    H1 2691   5.824   5.661   5.771
  916TIP3    H2 2692   5.953   5.608   5.712
  917TIP3   OH2 2693   5.731   2.883   2.704
  917TIP3    H1 2694   5.757   2.961   2.753
  917TIP3    H2 2695   5.811   2.851   2.664
  918TIP3   OH2 2696   2.436   5.411   2.984
  918TIP3    H1 2697   2.478   5.389   3.067
  918TIP3    H2 2698   2.363   5.468   3.008
  919TIP3   OH2 2699   5.059   7.615   0.202
  919TIP3    H1 2700   4.966   7.599   0.215
  919TIP3    H2 2701   5.063   7.695   0.150
  920TIP3   OH2 2702   4.302   3.851   5.268
  920TIP3    H1 2703   4.284   3.898   5.186
  920TIP3    H2 2704   4.250   3.771   5.261
  921TIP3   OH2 2705   1.644   0.662   4.539
  921TIP3    H1 2706   1.598   0.736   4.579
  921TIP3    H2 2707   1.576   0.597   4.523
  922TIP3   OH2 2708   4.072   6.218   5.772
  922TIP3    H1 2709   4.070   6.156   5.845
  922TIP3    H2 2710   4.140   6.281   5.796
  923TIP3   OH2 2711   7.943   2.247   3.218
  923TIP3    H1 2712   7.972   2.221   3.306
  923TIP3    H2 2713   7.927   2.341   3.226
  924TIP3   OH2 2714   6.857   6.495   2.969
  924TIP3    H1 2715   6.949   6.523   2.976
  924TIP3    H2 2716   6.829   6.484   3.060
  925TIP3   OH2 2717   4.355   6.099   5.567
  925TIP3    H1 2718   4.440   6.055   5.569
  925TIP3    H2 2719   4.328   6.097   5.475
  926TIP3   OH2 2720   3.428   0.122   6.621
  926TIP3    H1 2721   3.337   0.116   6.591
  926TIP3    H2 2722   3.470   0.044   6.585
  927TIP3   OH2 2723   6.604   1.767   2.662
  927TIP3    H1 2724   6.659   1.785   2.738
  927TIP3    H2 2725   6.626   1.678   2.636
  928TIP3   OH2 2726   0.344   5.192   5.308
  928TIP3    H1 2727   0.428   5.174   5.265
  928TIP3    H2 2728   0.283   5.129   5.269
  929TIP3   OH2 2729   3.326   4.650   1.642
  929TIP3    H1 2730   3.285   4.649   1.729
  929TIP3    H2 2731   3.305   4.564   1.605
  930TIP3   OH2 2732   0.044   6.280   6.065
  930TIP3    H1 2733   0.105   6.228   6.013
  930TIP3    H2 2734   0.068   6.371   6.047
  931TIP3   OH2 2735   6.695   6.836   4.503
  931TIP3    H1 2736   6.764   6.830   4.569
  931TIP3    H2 2737   6.731   6.893   4.435
  932TIP3   OH2 2738   0.363   4.058   1.045
  932TIP3    H1 2739   0.426   4.069   0.974
  932TIP3    H2 2740   0.379   3.970   1.078
  933TIP3   OH2 2741   2.392   2.150   2.808
  933TIP3    H1 2742   2.438   2.231   2.789
  933TIP3    H2 2743   2.310   2.178   2.849
  934TIP3   OH2 2744   0.287   6.884   3.551
  934TIP3    H1 2745   0.195   6.857   3.559
  934TIP3    H2 2746   0.329   6.848   3.630
  935TIP3   OH2 2747   7.873   6.825   4.747
  935TIP3    H1 2748   7.818   6.759   4.789
  935TIP3    H2 2749   7.824   6.851   4.670
  936TIP3   OH2 2750   3.923   1.090   4.293
  936TIP3    H1 2751   3.879   1.164   4.252
  936TIP3    H2 2752   3.877   1.013   4.260
  937TIP3   OH2 2753   4.559   1.901   0.738
  937TIP3    H1 2754   4.498   1.939   0.801
  937TIP3    H2 2755   4.553   1.807   0.753
  938TIP3   OH2 2756   4.603   0.622   4.247
  938TIP3    H1 2757   4.653   0.541   4.241
  938TIP3    H2 2758   4.593   0.637   4.341
  939TIP3   OH2 2759   5.787   2.681   2.901
  939TIP3    H1 2760   5.783   2.730   2.983
  939TIP3    H2 2761   5.751   2.741   2.836
  940TIP3   OH2 2762   6.035   6.935   2.306
  940TIP3    H1 2763   6.093   6.998   2.350
  940TIP3    H2 2764   6.030   6.861   2.366
  941TIP3   OH2 2765   0.423   7.511   6.152
  941TIP3    H1 2766   0.511   7.487   6.122
  941TIP3    H2 2767   0.399   7.440   6.212
  942TIP3   OH2 2768   7.837   2.723   2.043
  942TIP3    H1 2769   7.907   2.686   1.990
  942TIP3    H2 2770   7.876   2.738   2.128
  943TIP3   OH2 2771   2.365   5.108   5.638
  943TIP3    H1 2772   2.411   5.038   5.683
  943TIP3    H2 2773   2.272   5.086   5.646
  944TIP3   OH2 2774   2.042   1.915   5.746
  944TIP3    H1 2775   2.077   1.997   5.783
  944TIP3    H2 2776   2.117   1.876   5.701
  945TIP3   OH2 2777   3.269   7.417  -0.011
  945TIP3    H1 2778   3.325   7.369  -0.073
  945TIP3    H2 2779   3.330   7.474   0.036
  946TIP3   OH2 2780   3.643   7.244   2.067
  946TIP3    H1 2781   3.626   7.332   2.098
  946TIP3    H2 2782   3.628   7.248   1.972
  947TIP3   OH2 2783   7.252   2.265   6.033
  947TIP3    H1 2784   7.279   2.176   6.056
  947TIP3    H2 2785   7.167   2.277   6.077
  948TIP3   OH2 2786   0.835   6.123   2.421
  948TIP3    H1 2787   0.821   6.133   2.515
  948TIP3    H2 2788   0.850   6.213   2.389
  949TIP3   OH2 2789   5.486   3.159   3.679
  949TIP3    H1 2790   5.442   3.177   3.762
  949TIP3    H2 2791   5.466   3.236   3.625
  950TIP3   OH2 2792   2.368   5.472   3.740
  950TIP3    H1 2793   2.452   5.515   3.725
  950TIP3    H2 2794   2.379   5.426   3.823
  951TIP3   OH2 2795   0.896   2.563   5.565
  951TIP3    H1 2796   0.875   2.574   5.658
  951TIP3    H2 2797   0.827   2.507   5.531
  952TIP3   OH2 2798   5.314   7.392   1.925
  952TIP3    H1 2799   5.382   7.459   1.919
  952TIP3    H2 2800   5.235   7.436   1.893
  953TIP3   OH2 2801   3.843   2.968   5.977
  953TIP3    H1 2802   3.903   3.015   6.034
  953TIP3    H2 2803   3.899   2.934   5.907
  954TIP3   OH2 2804   2.234   5.478   5.836
  954TIP3    H1 2805   2.151   5.484   5.883
  954TIP3    H2 2806   2.288   5.548   5.874
  955TIP3   OH2 2807   2.745   0.717   5.130
  955TIP3    H1 2808   2.810   0.681   5.070
  955TIP3    H2 2809   2.663   0.714   5.081
  956TIP3   OH2 2810   7.368   0.735   5.565
  956TIP3    H1 2811   7.333   0.824   5.557
  956TIP3    H2 2812   7.350   0.709   5.655
  957TIP3   OH2 2813   8.241   1.461   0.724
  957TIP3    H1 2814   8.158   1.436   0.765
  957TIP3    H2 2815   8.263   1.386   0.667
  958TIP3   OH2 2816   3.328   7.037   5.004
  958TIP3    H1 2817   3.352   6.985   5.081
  958TIP3    H2 2818   3.266   6.982   4.956
  959TIP3   OH2 2819   7.776   6.787   5.293
  959TIP3    H1 2820   7.861   6.819   5.265
  959TIP3    H2 2821   7.767   6.817   5.384
  960TIP3   OH2 2822   0.846   1.340   4.631
  960TIP3    H1 2823   0.850   1.257   4.678
  960TIP3    H2 2824   0.791   1.323   4.555
  961TIP3   OH2 2825   1.691   3.697   1.105
  961TIP3    H1 2826   1.709   3.769   1.166
  961TIP3    H2 2827   1.612   3.725   1.058
  962TIP3   OH2 2828   2.213   6.624   4.261
  962TIP3    H1 2829   2.120   6.606   4.249
  962TIP3    H2 2830   2.234   6.584   4.346
  963TIP3   OH2 2831   6.974   3.492   6.623
  963TIP3    H1 2832   6.925   3.547   6.561
  963TIP3    H2 2833   6.907   3.442   6.669
  964TIP3   OH2 2834   3.238   0.067   0.208
  964TIP3    H1 2835   3.250   0.161   0.193
  964TIP3    H2 2836   3.154   0.061   0.253
  965TIP3   OH2 2837   3.044   6.991   6.541
  965TIP3    H1 2838   3.132   6.993   6.503
  965TIP3    H2 2839   3.053   7.036   6.625
  966TIP3   OH2 2840   1.329   4.581   4.768
  966TIP3    H1 2841   1.375   4.516   4.715
  966TIP3    H2 2842   1.244   4.541   4.787
  967TIP3   OH2 2843   2.321   4.958   0.345
  967TIP3    H1 2844   2.377   4.984   0.272
  967TIP3    H2 2845   2.372   4.975   0.423
  968TIP3   OH2 2846   3.463   0.613   2.869
  968TIP3    H1 2847   3.433   0.685   2.813
  968TIP3    H2 2848   3.542   0.646   2.911
  969TIP3   OH2 2849   6.564   3.994   4.949
  969TIP3    H1 2850   6.623   4.068   4.965
  969TIP3    H2 2851   6.619   3.917   4.958
  970TIP3   OH2 2852   0.141   4.149   0.744
  970TIP3    H1 2853   0.181   4.184   0.823
  970TIP3    H2 2854   0.195   4.182   0.672
  971TIP3   OH2 2855   4.026   5.658   2.738
  971TIP3    H1 2856   4.065   5.660   2.650
  971TIP3    H2 2857   4.083   5.600   2.788
  972TIP3   OH2 2858   2.235   6.451   4.470
  972TIP3    H1 2859   2.291   6.388   4.514
  972TIP3    H2 2860   2.166   6.398   4.429
  973TIP3   OH2 2861   1.460   3.821   5.206
  973TIP3    H1 2862   1.439   3.751   5.268
  973TIP3    H2 2863   1.528   3.872   5.250
  974TIP3   OH2 2864   2.418   2.092   2.077
  974TIP3    H1 2865   2.377   2.014   2.113
  974TIP3    H2 2866   2.382   2.164   2.128
  975TIP3   OH2 2867   7.819   2.189   0.446
  975TIP3    H1 2868   7.780   2.270   0.415
  975TIP3    H2 2869   7.873   2.158   0.373
  976TIP3   OH2 2870   5.906   1.652   3.307
  976TIP3    H1 2871   5.989   1.623   3.269
  976TIP3    H2 2872   5.914   1.630   3.400
  977TIP3   OH2 2873   3.692   1.764   4.494
  977TIP3    H1 2874   3.769   1.767   4.438
  977TIP3    H2 2875   3.635   1.699   4.453
  978TIP3   OH2 2876   3.108   5.188   2.914
  978TIP3    H1 2877   3.169   5.241   2.861
  978TIP3    H2 2878   3.129   5.211   3.004
  979TIP3   OH2 2879   3.208   4.818   0.673
  979TIP3    H1 2880   3.216   4.734   0.628
  979TIP3    H2 2881   3.239   4.882   0.610
  980TIP3   OH2 2882   2.711   3.337   0.798
  980TIP3    H1 2883   2.634   3.371   0.753
  980TIP3    H2 2884   2.783   3.349   0.736
  981TIP3   OH2 2885   6.249   7.748   5.466
  981TIP3    H1 2886   6.187   7.676   5.476
  981TIP3    H2 2887   6.232   7.805   5.541
  982TIP3   OH2 2888   5.916   1.144   2.573
  982TIP3    H1 2889   6.008   1.142   2.599
  982TIP3    H2 2890   5.884   1.056   2.590
  983TIP3   OH2 2891   5.046   4.454   5.071
  983TIP3    H1 2892   5.129   4.455   5.024
  983TIP3    H2 2893   5.068   4.477   5.161
  984TIP3   OH2 2894   7.541   4.365   4.069
  984TIP3    H1 2895   7.510   4.338   3.983
  984TIP3    H2 2896   7.471   4.421   4.103
  985TIP3   OH2 2897   0.481   1.697   6.745
  985TIP3    H1 2898   0.512   1.752   6.673
  985TIP3    H2 2899   0.397   1.736   6.770
  986TIP3   OH2 2900   4.053   2.696   1.867
  986TIP3    H1 2901   3.994   2.671   1.938
  986TIP3    H2 2902   4.120   2.628   1.868
  987TIP3   OH2 2903   7.541   6.026   4.991
  987TIP3    H1 2904   7.600   5.951   5.002
  987TIP3    H2 2905   7.507   6.017   4.903
  988TIP3   OH2 2906   3.627   2.226   3.725
  988TIP3    H1 2907   3.706   2.280   3.728
  988TIP3    H2 2908   3.583   2.244   3.809
  989TIP3   OH2 2909   7.658   1.254   3.389
  989TIP3    H1 2910   7.573   1.258   3.345
  989TIP3    H2 2911   7.720   1.228   3.321
  990TIP3   OH2 2912   5.101   4.260   0.739
  990TIP3    H1 2913   5.134   4.278   0.827
  990TIP3    H2 2914   5.027   4.200   0.752
  991TIP3   OH2 2915   6.113   0.352   3.388
  991TIP3    H1 2916   6.048   0.351   3.318
  991TIP3    H2 2917   6.168   0.276   3.372
  992TIP3   OH2 2918   0.091   4.706   4.934
  992TIP3    H1 2919   0.175   4.753   4.941
  992TIP3    H2 2920   0.100   4.633   4.996
  993TIP3   OH2 2921   2.700   5.235   4.341
  993TIP3    H1 2922   2.682   5.156   4.393
  993TIP3    H2 2923   2.617   5.256   4.300
  994TIP3   OH2 2924   0.562   7.268   0.672
  994TIP3    H1 2925   0.475   7.229   0.683
  994TIP3    H2 2926   0.614   7.230   0.743
  995TIP3   OH2 2927   3.896   7.036   2.420
  995TIP3    H1 2928   3.824   6.977   2.398
  995TIP3    H2 2929   3.951   6.986   2.481
  996TIP3   OH2 2930   1.003   1.960   5.696
  996TIP3    H1 2931   1.076   2.011   5.663
  996TIP3    H2 2932   0.941   2.025   5.730
  997TIP3   OH2 2933   0.294   4.373   2.718
  997TIP3    H1 2934   0.248   4.328   2.648
  997TIP3    H2 2935   0.235   4.443   2.745
  998TIP3   OH2 2936   1.422   4.129   2.601
  998TIP3    H1 2937   1.489   4.183   2.644
  998TIP3    H2 2938   1.471   4.061   2.556
  999TIP3   OH2 2939   5.737   4.052   4.229
  999TIP3    H1 2940   5.827   4.019   4.223
  999TIP3    H2 2941   5.714   4.043   4.321
 1000TIP3   OH2 2942   0.129   2.991   5.543
 1000TIP3    H1 2943   0.153   3.076   5.506
 1000TIP3    H2 2944   0.034   2.988   5.537
 1001TIP3   OH2 2945   4.748   7.840   5.244
 1001TIP3    H1 2946   4.682   7.800   5.301
 1001TIP3    H2 2947   4.761   7.777   5.174
 1002TIP3   OH2 2948   5.915   7.043   0.271
 1002TIP3    H1 2949   5.949   6.955   0.287
 1002TIP3    H2 2950   5.820   7.032   0.269
 1003TIP3   OH2 2951   7.573   5.584   5.394
 1003TIP3    H1 2952   7.667   5.594   5.406
 1003TIP3    H2 2953   7.563   5.507   5.338
 1004TIP3   OH2 2954   4.445   5.701   1.634
 1004TIP3    H1 2955   4.385   5.638   1.595
 1004TIP3    H2 2956   4.392   5.745   1.701
 1005TIP3   OH2 2957   5.060   6.743   1.005
 1005TIP3    H1 2958   5.060   6.661   1.054
 1005TIP3    H2 2959   5.033   6.809   1.069
 1006TIP3   OH2 2960   2.641   1.111   1.669
 1006TIP3    H1 2961   2.621   1.204   1.653
 1006TIP3    H2 2962   2.728   1.111   1.709
 1007TIP3   OH2 2963   6.750   7.693   2.904
 1007TIP3    H1 2964   6.666   7.735   2.918
 1007TIP3    H2 2965   6.734   7.626   2.837
 1008TIP3   OH2 2966   6.072   4.268   2.606
 1008TIP3    H1 2967   6.014   4.216   2.661
 1008TIP3    H2 2968   6.032   4.265   2.519
 1009TIP3   OH2 2969   1.891   1.451   1.270
 1009TIP3    H1 2970   1.849   1.381   1.320
 1009TIP3    H2 2971   1.828   1.524   1.274
 1010TIP3   OH2 2972   7.575   6.134   4.724
 1010TIP3    H1 2973   7.666   6.156   4.747
 1010TIP3    H2 2974   7.522   6.180   4.789
 1011TIP3   OH2 2975   4.545   0.689   6.021
 1011TIP3    H1 2976   4.597   0.679   5.941
 1011TIP3    H2 2977   4.587   0.631   6.085
 1012TIP3   OH2 2978   7.994   7.794   2.265
 1012TIP3    H1 2979   8.057   7.722   2.263
 1012TIP3    H2 2980   7.961   7.794   2.355
 1013TIP3   OH2 2981   5.228   5.981  -0.051
 1013TIP3    H1 2982   5.313   5.939  -0.068
 1013TIP3    H2 2983   5.250   6.074  -0.039
 1014TIP3   OH2 2984   6.640   6.331   3.399
 1014TIP3    H1 2985   6.664   6.328   3.307
 1014TIP3    H2 2986   6.669   6.418   3.429
 1015TIP3   OH2 2987   1.661   7.426   5.495
 1015TIP3    H1 2988   1.694   7.494   5.436
 1015TIP3    H2 2989   1.623   7.474   5.569
 1016TIP3   OH2 2990   2.523   6.276   3.078
 1016TIP3    H1 2991   2.585   6.328   3.130
 1016TIP3    H2 2992   2.533   6.309   2.989
 1017TIP3   OH2 2993   2.812   6.073   2.094
 1017TIP3    H1 2994   2.892   6.069   2.146
 1017TIP3    H2 2995   2.745   6.031   2.149
 1018TIP3   OH2 2996   2.796   6.854   0.685
 1018TIP3    H1 2997   2.770   6.901   0.606
 1018TIP3    H2 2998   2.760   6.766   0.673
 1019TIP3   OH2 2999   5.023   0.689   0.197
 1019TIP3    H1 3000   5.038   0.639   0.117
 1019TIP3    H2 3001   5.048   0.629   0.267
 1020TIP3   OH2 3002   6.352   4.372   5.476
 1020TIP3    H1 3003   6.259   4.360   5.460
 1020TIP3    H2 3004   6.358   4.394   5.569
 1021TIP3   OH2 3005   6.198   0.343   1.721
 1021TIP3    H1 3006   6.255   0.420   1.716
 1021TIP3    H2 3007   6.252   0.276   1.762
 1022TIP3   OH2 3008   5.353   0.363   2.933
 1022TIP3    H1 3009   5.333   0.379   3.025
 1022TIP3    H2 3010   5.320   0.274   2.917
 1023TIP3   OH2 3011   0.403   7.485   5.472
 1023TIP3    H1 3012   0.419   7.579   5.485
 1023TIP3    H2 3013   0.327   7.465   5.526
 1024TIP3   OH2 3014   6.789   5.154   2.322
 1024TIP3    H1 3015   6.768   5.228   2.379
 1024TIP3    H2 3016   6.871   5.179   2.279
 1025TIP3   OH2 3017   1.599   2.842   3.442
 1025TIP3    H1 3018   1.580   2.892   3.363
 1025TIP3    H2 3019   1.687   2.869   3.467
 1026TIP3   OH2 3020   3.830   6.022   0.173
 1026TIP3    H1 3021   3.868   6.023   0.085
 1026TIP3    H2 3022   3.754   5.965   0.166
 1027TIP3   OH2 3023   3.796   1.878   3.152
 1027TIP3    H1 3024   3.715   1.922   3.177
 1027TIP3    H2 3025   3.804   1.894   3.058
 1028TIP3   OH2 3026   4.168   0.366   4.948
 1028TIP3    H1 3027   4.202   0.392   4.863
 1028TIP3    H2 3028   4.238   0.312   4.986
 1029TIP3   OH2 3029   6.117   1.107   3.870
 1029TIP3    H1 3030   6.118   1.016   3.899
 1029TIP3    H2 3031   6.139   1.103   3.777
 1030TIP3   OH2 3032   5.401   3.262   3.926
 1030TIP3    H1 3033   5.477   3.207   3.942
 1030TIP3    H2 3034   5.372   3.290   4.013
 1031TIP3   OH2 3035   8.287   6.793   0.301
 1031TIP3    H1 3036   8.368   6.801   0.250
 1031TIP3    H2 3037   8.317   6.782   0.392
 1032TIP3   OH2 3038   2.018   3.365   4.295
 1032TIP3    H1 3039   1.926   3.372   4.319
 1032TIP3    H2 3040   2.060   3.442   4.334
 1033TIP3   OH2 3041   4.352   2.319   1.740
 1033TIP3    H1 3042   4.368   2.410   1.768
 1033TIP3    H2 3043   4.333   2.272   1.822
 1034TIP3   OH2 3044   2.387   5.653   0.699
 1034TIP3    H1 3045   2.292   5.644   0.689
 1034TIP3    H2 3046   2.399   5.736   0.744
 1035TIP3   OH2 3047   4.777   2.425   1.532
 1035TIP3    H1 3048   4.695   2.383   1.558
 1035TIP3    H2 3049   4.826   2.357   1.486
 1036TIP3   OH2 3050   7.434   3.210   4.435
 1036TIP3    H1 3051   7.525   3.235   4.418
 1036TIP3    H2 3052   7.436   3.169   4.521
 1037TIP3   OH2 3053   4.222   1.610   3.254
 1037TIP3    H1 3054   4.233   1.515   3.247
 1037TIP3    H2 3055   4.188   1.636   3.168
 1038TIP3   OH2 3056   2.713   0.851   2.790
 1038TIP3    H1 3057   2.763   0.831   2.711
 1038TIP3    H2 3058   2.779   0.856   2.859
 1039TIP3   OH2 3059   1.967   6.848   5.809
 1039TIP3    H1 3060   1.969   6.875   5.718
 1039TIP3    H2 3061   2.019   6.768   5.812
 1040TIP3   OH2 3062   0.317   3.906   3.837
 1040TIP3    H1 3063   0.254   3.976   3.849
 1040TIP3    H2 3064   0.266   3.835   3.798
 1041TIP3   OH2 3065   0.384   1.412   0.134
 1041TIP3    H1 3066   0.397   1.338   0.193
 1041TIP3    H2 3067   0.300   1.395   0.092
 1042TIP3   OH2 3068   0.914   6.407   4.343
 1042TIP3    H1 3069   0.907   6.497   4.375
 1042TIP3    H2 3070   0.856   6.356   4.400
 1043TIP3   OH2 3071   4.582   2.738   2.280
 1043TIP3    H1 3072   4.631   2.663   2.245
 1043TIP3    H2 3073   4.609   2.743   2.371
 1044TIP3   OH2 3074   3.849   1.963   3.567
 1044TIP3    H1 3075   3.849   1.978   3.662
 1044TIP3    H2 3076   3.763   1.927   3.548
 1045TIP3   OH2 3077   3.401   3.986   5.707
 1045TIP3    H1 3078   3.460   3.911   5.718
 1045TIP3    H2 3079   3.339   3.978   5.780
 1046TIP3   OH2 3080   2.609   3.985   1.713
 1046TIP3    H1 3081   2.610   3.997   1.808
 1046TIP3    H2 3082   2.550   4.053   1.681
 1047TIP3   OH2 3083   1.737   7.049   0.618
 1047TIP3    H1 3084   1.689   7.115   0.668
 1047TIP3    H2 3085   1.692   6.966   0.639
 1048TIP3   OH2 3086   5.198   3.846   3.234
 1048TIP3    H1 3087   5.261   3.909   3.200
 1048TIP3    H2 3088   5.240   3.809   3.312
 1049TIP3   OH2 3089   6.853   6.010   1.584
 1049TIP3    H1 3090   6.802   6.075   1.536
 1049TIP3    H2 3091   6.944   6.034   1.567
 1050TIP3   OH2 3092   3.191   4.313   3.915
 1050TIP3    H1 3093   3.125   4.315   3.847
 1050TIP3    H2 3094   3.273   4.295   3.869
 1051TIP3   OH2 3095   0.823   6.735   5.747
 1051TIP3    H1 3096   0.738   6.772   5.725
 1051TIP3    H2 3097   0.880   6.758   5.674
 1052TIP3   OH2 3098   6.201   4.662   4.383
 1052TIP3    H1 3099   6.198   4.661   4.479
 1052TIP3    H2 3100   6.153   4.741   4.358
 1053TIP3   OH2 3101   0.278   3.596   4.107
 1053TIP3    H1 3102   0.349   3.539   4.078
 1053TIP3    H2 3103   0.210   3.584   4.041
 1054TIP3   OH2 3104   6.370   4.959   2.131
 1054TIP3    H1 3105   6.396   4.892   2.069
 1054TIP3    H2 3106   6.446   4.968   2.189
 1055TIP3   OH2 3107   7.691   0.515   5.132
 1055TIP3    H1 3108   7.627   0.454   5.169
 1055TIP3    H2 3109   7.756   0.459   5.089
 1056TIP3   OH2 3110   1.423   0.412   0.572
 1056TIP3    H1 3111   1.447   0.464   0.649
 1056TIP3    H2 3112   1.345   0.364   0.599
 1057TIP3   OH2 3113   6.653   3.314   0.170
 1057TIP3    H1 3114   6.722   3.309   0.104
 1057TIP3    H2 3115   6.652   3.405   0.197
 1058TIP3   OH2 3116   3.673   1.932   5.284
 1058TIP3    H1 3117   3.759   1.896   5.262
 1058TIP3    H2 3118   3.663   2.008   5.227
 1059TIP3   OH2 3119   5.107   2.608   2.620
 1059TIP3    H1 3120   5.068   2.563   2.695
 1059TIP3    H2 3121   5.080   2.558   2.544
 1060TIP3   OH2 3122   7.613   4.541   4.443
 1060TIP3    H1 3123   7.591   4.603   4.512
 1060TIP3    H2 3124   7.701   4.510   4.465
 1061TIP3   OH2 3125   0.384   5.409   1.031
 1061TIP3    H1 3126   0.412   5.317   1.030
 1061TIP3    H2 3127   0.319   5.415   0.960
 1062TIP3   OH2 3128   6.358   3.780   0.486
 1062TIP3    H1 3129   6.308   3.725   0.546
 1062TIP3    H2 3130   6.294   3.842   0.450
 1063TIP3   OH2 3131   0.717   7.613   6.741
 1063TIP3    H1 3132   0.802   7.578   6.716
 1063TIP3    H2 3133   0.677   7.642   6.659
 1064TIP3   OH2 3134   6.441   0.125   6.564
 1064TIP3    H1 3135   6.390   0.187   6.512
 1064TIP3    H2 3136   6.443   0.164   6.652
 1065TIP3   OH2 3137   1.174   0.876   0.692
 1065TIP3    H1 3138   1.127   0.904   0.770
 1065TIP3    H2 3139   1.264   0.861   0.723
 1066TIP3   OH2 3140   3.992   1.804   2.342
 1066TIP3    H1 3141   4.048   1.860   2.396
 1066TIP3    H2 3142   3.942   1.752   2.404
 1067TIP3   OH2 3143   2.525   1.487   1.957
 1067TIP3    H1 3144   2.460   1.452   2.019
 1067TIP3    H2 3145   2.473   1.539   1.895
 1068TIP3   OH2 3146   7.433   7.067   5.757
 1068TIP3    H1 3147   7.480   6.987   5.779
 1068TIP3    H2 3148   7.484   7.137   5.799
 1069TIP3   OH2 3149   8.004   6.714   3.840
 1069TIP3    H1 3150   7.981   6.753   3.924
 1069TIP3    H2 3151   7.920   6.695   3.798
 1070TIP3   OH2 3152   4.040   1.896   4.025
 1070TIP3    H1 3153   4.063   1.950   4.101
 1070TIP3    H2 3154   4.103   1.824   4.027
 1071TIP3   OH2 3155   6.249   6.037   0.059
 1071TIP3    H1 3156   6.307   6.062   0.131
 1071TIP3    H2 3157   6.184   6.106   0.056
 1072TIP3   OH2 3158   0.242   2.387   5.132
 1072TIP3    H1 3159   0.188   2.458   5.168
 1072TIP3    H2 3160   0.218   2.384   5.040
 1073TIP3   OH2 3161   7.651   6.409   0.746
 1073TIP3    H1 3162   7.619   6.430   0.833
 1073TIP3    H2 3163   7.746   6.402   0.756
 1074TIP3   OH2 3164   5.478   0.332   2.478
 1074TIP3    H1 3165   5.430   0.307   2.399
 1074TIP3    H2 3166   5.418   0.312   2.549
 1075TIP3   OH2 3167   4.392   6.050   3.373
 1075TIP3    H1 3168   4.432   5.978   3.422
 1075TIP3    H2 3169   4.463   6.088   3.322
 1076TIP3   OH2 3170   1.127   4.683   1.968
 1076TIP3    H1 3171   1.173   4.732   1.899
 1076TIP3    H2 3172   1.196   4.637   2.015
 1077TIP3   OH2 3173   6.969   3.859   5.622
 1077TIP3    H1 3174   6.980   3.791   5.554
 1077TIP3    H2 3175   7.040   3.921   5.605
 1078TIP3   OH2 3176   3.362   1.352   4.318
 1078TIP3    H1 3177   3.425   1.282   4.338
 1078TIP3    H2 3178   3.404   1.402   4.249
 1079TIP3   OH2 3179   2.795   5.819   3.325
 1079TIP3    H1 3180   2.701   5.824   3.310
 1079TIP3    H2 3181   2.816   5.902   3.368
 1080TIP3   OH2 3182   8.056   0.557   6.328
 1080TIP3    H1 3183   8.095   0.470   6.330
 1080TIP3    H2 3184   8.123   0.612   6.288
 1081TIP3   OH2 3185   1.724   2.319   3.642
 1081TIP3    H1 3186   1.703   2.394   3.698
 1081TIP3    H2 3187   1.639   2.287   3.613
 1082TIP3   OH2 3188   2.653   0.634   3.837
 1082TIP3    H1 3189   2.665   0.677   3.753
 1082TIP3    H2 3190   2.560   0.610   3.839
 1083TIP3   OH2 3191   3.035   1.290   1.630
 1083TIP3    H1 3192   3.047   1.242   1.712
 1083TIP3    H2 3193   3.112   1.347   1.624
 1084TIP3   OH2 3194   2.497   7.770   1.346
 1084TIP3    H1 3195   2.566   7.709   1.320
 1084TIP3    H2 3196   2.498   7.837   1.279
 1085TIP3   OH2 3197   2.608   4.553   5.790
 1085TIP3    H1 3198   2.658   4.543   5.871
 1085TIP3    H2 3199   2.672   4.585   5.726
 1086TIP3   OH2 3200   2.124   5.456   4.638
 1086TIP3    H1 3201   2.195   5.424   4.581
 1086TIP3    H2 3202   2.124   5.551   4.626
 1087TIP3   OH2 3203   2.361   4.439   5.816
 1087TIP3    H1 3204   2.359   4.344   5.826
 1087TIP3    H2 3205   2.453   4.462   5.820
 1088TIP3   OH2 3206   1.888   6.881   0.433
 1088TIP3    H1 3207   1.925   6.793   0.433
 1088TIP3    H2 3208   1.812   6.875   0.491
 1089TIP3   OH2 3209   6.274   7.232   1.318
 1089TIP3    H1 3210   6.365   7.228   1.289
 1089TIP3    H2 3211   6.279   7.244   1.412
 1090TIP3   OH2 3212   1.081   4.953   0.097
 1090TIP3    H1 3213   1.003   4.974   0.045
 1090TIP3    H2 3214   1.116   5.039   0.123
 1091TIP3   OH2 3215   4.985   7.636   3.849
 1091TIP3    H1 3216   4.937   7.692   3.910
 1091TIP3    H2 3217   5.075   7.636   3.882
 1092TIP3   OH2 3218   7.229   3.637   3.908
 1092TIP3    H1 3219   7.192   3.711   3.860
 1092TIP3    H2 3220   7.160   3.609   3.967
 1093TIP3   OH2 3221   5.227   1.207   2.819
 1093TIP3    H1 3222   5.206   1.115   2.834
 1093TIP3    H2 3223   5.246   1.212   2.725
 1094TIP3   OH2 3224   8.164   7.587   2.629
 1094TIP3    H1 3225   8.180   7.677   2.602
 1094TIP3    H2 3226   8.227   7.535   2.580
 1095TIP3   OH2 3227   2.110   3.054   2.637
 1095TIP3    H1 3228   2.083   3.079   2.549
 1095TIP3    H2 3229   2.140   3.136   2.677
 1096TIP3   OH2 3230   3.288   2.114   5.230
 1096TIP3    H1 3231   3.200   2.121   5.267
 1096TIP3    H2 3232   3.297   2.022   5.207
 1097TIP3   OH2 3233   4.494   0.447   0.638
 1097TIP3    H1 3234   4.588   0.467   0.639
 1097TIP3    H2 3235   4.487   0.372   0.579
 1098TIP3   OH2 3236   4.076   1.122   0.624
 1098TIP3    H1 3237   4.164   1.114   0.662
 1098TIP3    H2 3238   4.080   1.204   0.573
 1099TIP3   OH2 3239   5.308   5.162   0.253
 1099TIP3    H1 3240   5.254   5.182   0.177
 1099TIP3    H2 3241   5.275   5.079   0.286
 1100TIP3   OH2 3242   7.188   1.264   0.263
 1100TIP3    H1 3243   7.196   1.243   0.170
 1100TIP3    H2 3244   7.259   1.216   0.305
 1101TIP3   OH2 3245   3.812   5.749   6.355
 1101TIP3    H1 3246   3.902   5.734   6.324
 1101TIP3    H2 3247   3.792   5.839   6.328
 1102TIP3   OH2 3248   4.873   7.219   5.879
 1102TIP3    H1 3249   4.908   7.170   5.954
 1102TIP3    H2 3250   4.944   7.220   5.815
 1103TIP3   OH2 3251   5.358   2.632   2.371
 1103TIP3    H1 3252   5.364   2.693   2.444
 1103TIP3    H2 3253   5.361   2.687   2.293
 1104TIP3   OH2 3254   6.397   4.208   3.389
 1104TIP3    H1 3255   6.371   4.165   3.470
 1104TIP3    H2 3256   6.330   4.275   3.375
 1105TIP3   OH2 3257   3.896   1.030   2.803
 1105TIP3    H1 3258   3.848   0.954   2.836
 1105TIP3    H2 3259   3.988   1.007   2.815
 1106TIP3   OH2 3260   4.913   6.955   1.746
 1106TIP3    H1 3261   4.849   6.885   1.732
 1106TIP3    H2 3262   4.974   6.947   1.673
 1107TIP3   OH2 3263   5.594   4.671   2.696
 1107TIP3    H1 3264   5.601   4.763   2.673
 1107TIP3    H2 3265   5.660   4.627   2.642
 1108TIP3   OH2 3266   3.622   6.083   4.103
 1108TIP3    H1 3267   3.585   6.122   4.183
 1108TIP3    H2 3268   3.711   6.057   4.128
 1109TIP3   OH2 3269   1.313   7.202   1.458
 1109TIP3    H1 3270   1.375   7.129   1.464
 1109TIP3    H2 3271   1.353   7.272   1.510
 1110TIP3   OH2 3272   2.267   1.653   6.779
 1110TIP3    H1 3273   2.300   1.587   6.719
 1110TIP3    H2 3274   2.344   1.707   6.799
 1111TIP3   OH2 3275   6.307   6.089   2.971
 1111TIP3    H1 3276   6.358   6.138   2.907
 1111TIP3    H2 3277   6.371   6.059   3.036
 1112TIP3   OH2 3278   0.955   4.265   5.782
 1112TIP3    H1 3279   0.967   4.360   5.785
 1112TIP3    H2 3280   0.952   4.238   5.874
 1113TIP3   OH2 3281   4.341   1.463   6.405
 1113TIP3    H1 3282   4.269   1.441   6.465
 1113TIP3    H2 3283   4.301   1.456   6.317
 1114TIP3   OH2 3284   4.024   5.042   5.771
 1114TIP3    H1 3285   4.038   5.089   5.688
 1114TIP3    H2 3286   3.970   4.967   5.747
 1115TIP3   OH2 3287   2.329   6.229   2.398
 1115TIP3    H1 3288   2.415   6.258   2.429
 1115TIP3    H2 3289   2.280   6.210   2.477
 1116TIP3   OH2 3290   1.166   6.282   3.433
 1116TIP3    H1 3291   1.160   6.279   3.528
 1116TIP3    H2 3292   1.260   6.276   3.415
 1117TIP3   OH2 3293   2.332   7.480   5.254
 1117TIP3    H1 3294   2.237   7.478   5.265
 1117TIP3    H2 3295   2.346   7.530   5.173
 1118TIP3   OH2 3296   5.173   5.353   5.059
 1118TIP3    H1 3297   5.176   5.449   5.050
 1118TIP3    H2 3298   5.198   5.337   5.150
 1119TIP3   OH2 3299   5.724   5.208   2.215
 1119TIP3    H1 3300   5.649   5.256   2.180
 1119TIP3    H2 3301   5.764   5.167   2.138
 1120TIP3   OH2 3302   6.523   6.975   6.653
 1120TIP3    H1 3303   6.500   7.068   6.652
 1120TIP3    H2 3304   6.607   6.971   6.699
 1121TIP3   OH2 3305   3.544   5.038   0.714
 1121TIP3    H1 3306   3.577   5.086   0.790
 1121TIP3    H2 3307   3.512   4.955   0.750
 1122TIP3   OH2 3308   2.264   1.310   2.994
 1122TIP3    H1 3309   2.237   1.219   3.003
 1122TIP3    H2 3310   2.190   1.353   2.952
 1123TIP3   OH2 3311   0.682   7.072   0.178
 1123TIP3    H1 3312   0.685   7.158   0.136
 1123TIP3    H2 3313   0.663   7.091   0.269
 1124TIP3   OH2 3314   3.739   5.749   6.766
 1124TIP3    H1 3315   3.648   5.780   6.776
 1124TIP3    H2 3316   3.734   5.680   6.700
 1125TIP3   OH2 3317   5.709   7.356   5.672
 1125TIP3    H1 3318   5.749   7.430   5.718
 1125TIP3    H2 3319   5.615   7.371   5.679
 1126TIP3   OH2 3320   3.511   6.398   3.433
 1126TIP3    H1 3321   3.534   6.429   3.521
 1126TIP3    H2 3322   3.524   6.473   3.377
 1127TIP3   OH2 3323   1.603   6.344   1.940
 1127TIP3    H1 3324   1.681   6.400   1.945
 1127TIP3    H2 3325   1.555   6.362   2.020
 1128TIP3   OH2 3326   6.243   6.824   3.194
 1128TIP3    H1 3327   6.226   6.913   3.226
 1128TIP3    H2 3328   6.184   6.769   3.246
 1129TIP3   OH2 3329   6.566   5.962   3.342
 1129TIP3    H1 3330   6.498   5.922   3.288
 1129TIP3    H2 3331   6.649   5.934   3.302
 1130TIP3   OH2 3332   2.985   7.617   2.814
 1130TIP3    H1 3333   3.018   7.707   2.809
 1130TIP3    H2 3334   3.016   7.576   2.733
 1131TIP3   OH2 3335   6.150   4.611   6.319
 1131TIP3    H1 3336   6.240   4.584   6.337
 1131TIP3    H2 3337   6.152   4.640   6.228
 1132TIP3   OH2 3338   5.103   7.523   2.106
 1132TIP3    H1 3339   5.097   7.476   2.023
 1132TIP3    H2 3340   5.026   7.494   2.155
 1133TIP3   OH2 3341   7.276   1.296   1.718
 1133TIP3    H1 3342   7.191   1.253   1.711
 1133TIP3    H2 3343   7.257   1.390   1.712
 1134TIP3   OH2 3344   1.706   3.909   5.282
 1134TIP3    H1 3345   1.713   3.968   5.206
 1134TIP3    H2 3346   1.785   3.855   5.277
 1135TIP3   OH2 3347   7.727   2.362   4.276
 1135TIP3    H1 3348   7.815   2.340   4.306
 1135TIP3    H2 3349   7.680   2.389   4.355
 1136TIP3   OH2 3350   0.818   7.443   5.262
 1136TIP3    H1 3351   0.850   7.366   5.310
 1136TIP3    H2 3352   0.724   7.445   5.280
 1137TIP3   OH2 3353   2.999   0.504   1.198
 1137TIP3    H1 3354   3.055   0.435   1.236
 1137TIP3    H2 3355   2.978   0.561   1.272
 1138TIP3   OH2 3356   0.928   0.985   6.494
 1138TIP3    H1 3357   0.903   1.076   6.482
 1138TIP3    H2 3358   0.914   0.969   6.588
 1139TIP3   OH2 3359   4.463   4.770   1.257
 1139TIP3    H1 3360   4.368   4.760   1.263
 1139TIP3    H2 3361   4.498   4.692   1.301
 1140TIP3   OH2 3362   2.177   7.512   2.554
 1140TIP3    H1 3363   2.148   7.426   2.585
 1140TIP3    H2 3364   2.097   7.565   2.554
 1141TIP3   OH2 3365   5.394   2.394   3.857
 1141TIP3    H1 3366   5.418   2.441   3.936
 1141TIP3    H2 3367   5.374   2.305   3.887
 1142TIP3   OH2 3368   3.314   7.743   3.618
 1142TIP3    H1 3369   3.303   7.795   3.698
 1142TIP3    H2 3370   3.408   7.733   3.609
 1143TIP3   OH2 3371   0.626   0.631   6.500
 1143TIP3    H1 3372   0.673   0.548   6.509
 1143TIP3    H2 3373   0.690   0.691   6.460
 1144TIP3   OH2 3374   5.972   6.750   0.348
 1144TIP3    H1 3375   5.968   6.722   0.257
 1144TIP3    H2 3376   6.064   6.744   0.372
 1145TIP3   OH2 3377   3.570   6.476   1.864
 1145TIP3    H1 3378   3.548   6.389   1.830
 1145TIP3    H2 3379   3.580   6.463   1.958
 1146TIP3   OH2 3380   3.577   3.188   3.277
 1146TIP3    H1 3381   3.527   3.269   3.265
 1146TIP3    H2 3382   3.602   3.162   3.188
 1147TIP3   OH2 3383   2.959   2.423   2.991
 1147TIP3    H1 3384   3.015   2.357   2.948
 1147TIP3    H2 3385   2.908   2.460   2.919
 1148TIP3   OH2 3386   5.781   6.634   6.592
 1148TIP3    H1 3387   5.756   6.726   6.583
 1148TIP3    H2 3388   5.877   6.636   6.594
 1149TIP3   OH2 3389   2.618   5.297   5.299
 1149TIP3    H1 3390   2.697   5.274   5.251
 1149TIP3    H2 3391   2.648   5.318   5.387
 1150TIP3   OH2 3392   6.683   0.136   1.185
 1150TIP3    H1 3393   6.671   0.124   1.091
 1150TIP3    H2 3394   6.765   0.185   1.192
 1151TIP3   OH2 3395   4.565   3.750   4.519
 1151TIP3    H1 3396   4.611   3.804   4.583
 1151TIP3    H2 3397   4.514   3.689   4.571
 1152TIP3   OH2 3398   7.798   3.812   4.685
 1152TIP3    H1 3399   7.856   3.816   4.761
 1152TIP3    H2 3400   7.757   3.726   4.690
 1153TIP3   OH2 3401   4.945   5.911   3.715
 1153TIP3    H1 3402   5.037   5.904   3.689
 1153TIP3    H2 3403   4.923   6.003   3.703
 1154TIP3   OH2 3404   5.605   2.312   6.718
 1154TIP3    H1 3405   5.628   2.388   6.771
 1154TIP3    H2 3406   5.524   2.338   6.674
 1155TIP3   OH2 3407   3.483   7.528   1.408
 1155TIP3    H1 3408   3.567   7.573   1.412
 1155TIP3    H2 3409   3.475   7.501   1.316
 1156TIP3   OH2 3410   1.117   6.312   3.737
 1156TIP3    H1 3411   1.057   6.289   3.807
 1156TIP3    H2 3412   1.204   6.310   3.778
 1157TIP3   OH2 3413   0.232   2.233   4.345
 1157TIP3    H1 3414   0.324   2.230   4.373
 1157TIP3    H2 3415   0.184   2.189   4.415
 1158TIP3   OH2 3416   0.434   3.419   2.185
 1158TIP3    H1 3417   0.392   3.488   2.134
 1158TIP3    H2 3418   0.486   3.369   2.121
 1159TIP3   OH2 3419   3.476   4.239   5.651
 1159TIP3    H1 3420   3.423   4.159   5.652
 1159TIP3    H2 3421   3.565   4.208   5.668
 1160TIP3   OH2 3422   3.134   7.691   6.348
 1160TIP3    H1 3423   3.115   7.645   6.430
 1160TIP3    H2 3424   3.223   7.664   6.326
 1161TIP3   OH2 3425   6.405   0.767   4.806
 1161TIP3    H1 3426   6.331   0.746   4.749
 1161TIP3    H2 3427   6.368   0.769   4.894
 1162TIP3   OH2 3428   5.412   7.647   1.606
 1162TIP3    H1 3429   5.339   7.631   1.546
 1162TIP3    H2 3430   5.471   7.705   1.558
 1163TIP3   OH2 3431   4.390   2.331   4.344
 1163TIP3    H1 3432   4.397   2.422   4.374
 1163TIP3    H2 3433   4.458   2.323   4.277
 1164TIP3   OH2 3434   5.752   4.923   1.166
 1164TIP3    H1 3435   5.666   4.948   1.200
 1164TIP3    H2 3436   5.808   4.919   1.243
 1165TIP3   OH2 3437   8.314   7.823   3.678
 1165TIP3    H1 3438   8.322   7.734   3.714
 1165TIP3    H2 3439   8.277   7.874   3.749
 1166TIP3   OH2 3440   6.771   1.243   3.111
 1166TIP3    H1 3441   6.743   1.223   3.022
 1166TIP3    H2 3442   6.779   1.157   3.153
 1167TIP3   OH2 3443   4.800   5.684   5.711
 1167TIP3    H1 3444   4.859   5.693   5.636
 1167TIP3    H2 3445   4.713   5.685   5.672
 1168TIP3   OH2 3446   2.514   4.178   0.551
 1168TIP3    H1 3447   2.583   4.111   0.548
 1168TIP3    H2 3448   2.435   4.130   0.578
 1169TIP3   OH2 3449   6.597   4.760   4.144
 1169TIP3    H1 3450   6.609   4.845   4.101
 1169TIP3    H2 3451   6.541   4.779   4.219
 1170TIP3   OH2 3452   1.494   1.467   1.137
 1170TIP3    H1 3453   1.547   1.388   1.126
 1170TIP3    H2 3454   1.554   1.530   1.178
 1171TIP3   OH2 3455   2.813   1.609   2.264
 1171TIP3    H1 3456   2.861   1.566   2.192
 1171TIP3    H2 3457   2.832   1.554   2.340
 1172TIP3   OH2 3458   3.119   0.072   3.300
 1172TIP3    H1 3459   3.099   0.085   3.207
 1172TIP3    H2 3460   3.034   0.054   3.341
 1173TIP3   OH2 3461   3.733   3.160   4.116
 1173TIP3    H1 3462   3.648   3.182   4.153
 1173TIP3    H2 3463   3.727   3.066   4.096
 1174TIP3   OH2 3464   1.150   0.309   2.468
 1174TIP3    H1 3465   1.142   0.317   2.563
 1174TIP3    H2 3466   1.059   0.312   2.436
 1175TIP3   OH2 3467   3.819   7.005   3.448
 1175TIP3    H1 3468   3.898   7.044   3.412
 1175TIP3    H2 3469   3.754   7.075   3.445
 1176TIP3   OH2 3470   6.758   5.632   1.639
 1176TIP3    H1 3471   6.733   5.543   1.615
 1176TIP3    H2 3472   6.741   5.684   1.561
 1177TIP3   OH2 3473   4.083   0.886   1.099
 1177TIP3    H1 3474   4.079   0.877   1.004
 1177TIP3    H2 3475   4.070   0.979   1.115
 1178TIP3   OH2 3476   2.753   7.694   2.366
 1178TIP3    H1 3477   2.720   7.622   2.419
 1178TIP3    H2 3478   2.801   7.749   2.428
 1179TIP3   OH2 3479   4.087   2.130   4.198
 1179TIP3    H1 3480   4.066   2.222   4.185
 1179TIP3    H2 3481   4.160   2.130   4.260
 1180TIP3   OH2 3482   7.557   5.470   4.695
 1180TIP3    H1 3483   7.514   5.384   4.698
 1180TIP3    H2 3484   7.623   5.461   4.626
 1181TIP3   OH2 3485   0.776   5.443   5.496
 1181TIP3    H1 3486   0.692   5.477   5.526
 1181TIP3    H2 3487   0.819   5.518   5.454
 1182TIP3   OH2 3488   3.238   2.366   2.996
 1182TIP3    H1 3489   3.230   2.386   2.902
 1182TIP3    H2 3490   3.240   2.271   3.000
 1183TIP3   OH2 3491   5.806   4.342   5.854
 1183TIP3    H1 3492   5.754   4.386   5.787
 1183TIP3    H2 3493   5.886   4.314   5.808
 1184TIP3   OH2 3494   3.951   1.535   1.230
 1184TIP3    H1 3495   3.902   1.487   1.163
 1184TIP3    H2 3496   3.883   1.579   1.281
 1185TIP3   OH2 3497   1.255   6.803   2.302
 1185TIP3    H1 3498   1.164   6.787   2.327
 1185TIP3    H2 3499   1.265   6.760   2.217
 1186TIP3   OH2 3500   3.374   0.505   3.180
 1186TIP3    H1 3501   3.448   0.470   3.130
 1186TIP3    H2 3502   3.297   0.462   3.143
 1187TIP3   OH2 3503   6.786   0.967   1.120
 1187TIP3    H1 3504   6.837   0.895   1.159
 1187TIP3    H2 3505   6.699   0.959   1.160
 1188TIP3   OH2 3506   3.779   1.323   3.703
 1188TIP3    H1 3507   3.806   1.237   3.734
 1188TIP3    H2 3508   3.733   1.362   3.778
 1189TIP3   OH2 3509   7.531   2.855   0.545
 1189TIP3    H1 3510   7.621   2.837   0.572
 1189TIP3    H2 3511   7.498   2.916   0.610
 1190TIP3   OH2 3512   3.794   6.336   4.382
 1190TIP3    H1 3513   3.750   6.385   4.313
 1190TIP3    H2 3514   3.801   6.397   4.455
 1191TIP3   OH2 3515   1.413   4.494   3.687
 1191TIP3    H1 3516   1.443   4.545   3.763
 1191TIP3    H2 3517   1.483   4.506   3.622
 1192TIP3   OH2 3518   2.337   4.086   6.651
 1192TIP3    H1 3519   2.321   4.004   6.697
 1192TIP3    H2 3520   2.327   4.154   6.717
 1193TIP3   OH2 3521   4.253   1.033   4.762
 1193TIP3    H1 3522   4.196   1.058   4.834
 1193TIP3    H2 3523   4.307   0.962   4.798
 1194TIP3   OH2 3524   2.482   6.218   5.061
 1194TIP3    H1 3525   2.546   6.184   4.998
 1194TIP3    H2 3526   2.514   6.189   5.146
 1195TIP3   OH2 3527   3.621   1.963   6.311
 1195TIP3    H1 3528   3.664   1.910   6.243
 1195TIP3    H2 3529   3.689   1.977   6.377
 1196TIP3   OH2 3530   5.788   7.693   5.641
 1196TIP3    H1 3531   5.816   7.766   5.696
 1196TIP3    H2 3532   5.693   7.701   5.637
 1197TIP3   OH2 3533   0.177   6.539   6.001
 1197TIP3    H1 3534   0.268   6.568   6.005
 1197TIP3    H2 3535   0.166   6.510   5.910
 1198TIP3   OH2 3536   8.027   7.130   1.739
 1198TIP3    H1 3537   7.966   7.178   1.683
 1198TIP3    H2 3538   7.979   7.116   1.821
 1199TIP3   OH2 3539   5.487   0.330   0.173
 1199TIP3    H1 3540   5.509   0.237   0.169
 1199TIP3    H2 3541   5.391   0.332   0.165
 1200TIP3   OH2 3542   6.657   6.177   5.317
 1200TIP3    H1 3543   6.681   6.128   5.239
 1200TIP3    H2 3544   6.626   6.262   5.285
 1201TIP3   OH2 3545   6.327   2.213   2.384
 1201TIP3    H1 3546   6.384   2.289   2.399
 1201TIP3    H2 3547   6.255   2.225   2.445
 1202TIP3   OH2 3548   4.035   0.611   0.945
 1202TIP3    H1 3549   3.947   0.575   0.935
 1202TIP3    H2 3550   4.067   0.574   1.027
 1203TIP3   OH2 3551   7.942   0.474   6.055
 1203TIP3    H1 3552   7.957   0.391   6.100
 1203TIP3    H2 3553   8.024   0.491   6.008
 1204TIP3   OH2 3554   7.268   6.770   6.505
 1204TIP3    H1 3555   7.279   6.744   6.413
 1204TIP3    H2 3556   7.283   6.689   6.554
 1205TIP3   OH2 3557   8.242   6.861   2.009
 1205TIP3    H1 3558   8.199   6.831   1.929
 1205TIP3    H2 3559   8.185   6.831   2.079
 1206TIP3   OH2 3560   1.272   3.802   2.624
 1206TIP3    H1 3561   1.349   3.783   2.677
 1206TIP3    H2 3562   1.237   3.884   2.659
 1207TIP3   OH2 3563   2.094   6.959   4.688
 1207TIP3    H1 3564   2.055   7.044   4.706
 1207TIP3    H2 3565   2.083   6.910   4.770
 1208TIP3   OH2 3566   2.966   7.775   5.535
 1208TIP3    H1 3567   2.928   7.708   5.592
 1208TIP3    H2 3568   3.019   7.726   5.472
 1209TIP3   OH2 3569   0.229   6.807   3.016
 1209TIP3    H1 3570   0.133   6.799   3.009
 1209TIP3    H2 3571   0.255   6.853   2.937
 1210TIP3   OH2 3572   1.787   2.993   1.431
 1210TIP3    H1 3573   1.785   2.988   1.335
 1210TIP3    H2 3574   1.818   3.082   1.449
 1211TIP3   OH2 3575   3.114   4.295   3.450
 1211TIP3    H1 3576   3.109   4.221   3.390
 1211TIP3    H2 3577   3.205   4.324   3.445
 1212TIP3   OH2 3578   2.734   6.063   3.111
 1212TIP3    H1 3579   2.825   6.093   3.107
 1212TIP3    H2 3580   2.716   6.052   3.204
 1213TIP3   OH2 3581   2.483   6.472   2.086
 1213TIP3    H1 3582   2.390   6.454   2.101
 1213TIP3    H2 3583   2.487   6.503   1.995
 1214TIP3   OH2 3584   7.607   5.040   4.416
 1214TIP3    H1 3585   7.663   4.990   4.356
 1214TIP3    H2 3586   7.594   5.124   4.371
 1215TIP3   OH2 3587   2.494   2.862   2.047
 1215TIP3    H1 3588   2.416   2.875   1.994
 1215TIP3    H2 3589   2.495   2.768   2.066
 1216TIP3   OH2 3590   2.797   3.142   0.956
 1216TIP3    H1 3591   2.739   3.066   0.955
 1216TIP3    H2 3592   2.746   3.212   0.914
 1217TIP3   OH2 3593   5.241   7.795   3.471
 1217TIP3    H1 3594   5.256   7.721   3.413
 1217TIP3    H2 3595   5.155   7.828   3.445
 1218TIP3   OH2 3596   3.679   1.864   5.790
 1218TIP3    H1 3597   3.623   1.833   5.719
 1218TIP3    H2 3598   3.685   1.958   5.777
 1219TIP3   OH2 3599   6.469   5.614   1.159
 1219TIP3    H1 3600   6.437   5.697   1.194
 1219TIP3    H2 3601   6.509   5.638   1.075
 1220TIP3   OH2 3602   6.523   0.231   2.774
 1220TIP3    H1 3603   6.528   0.158   2.836
 1220TIP3    H2 3604   6.447   0.212   2.719
 1221TIP3   OH2 3605   0.348   4.231   5.785
 1221TIP3    H1 3606   0.265   4.248   5.740
 1221TIP3    H2 3607   0.352   4.136   5.795
 1222TIP3   OH2 3608   7.384   0.655   6.036
 1222TIP3    H1 3609   7.410   0.744   6.013
 1222TIP3    H2 3610   7.330   0.626   5.963
 1223TIP3   OH2 3611   5.220   5.798   0.948
 1223TIP3    H1 3612   5.179   5.734   0.888
 1223TIP3    H2 3613   5.223   5.879   0.897
 1224TIP3   OH2 3614   4.895   4.270   6.725
 1224TIP3    H1 3615   4.815   4.275   6.672
 1224TIP3    H2 3616   4.957   4.222   6.670
 1225TIP3   OH2 3617   1.449   7.029   4.214
 1225TIP3    H1 3618   1.459   6.957   4.277
 1225TIP3    H2 3619   1.401   6.990   4.141
 1226TIP3   OH2 3620   3.341   6.200   6.004
 1226TIP3    H1 3621   3.361   6.287   5.970
 1226TIP3    H2 3622   3.246   6.196   6.007
 1227TIP3   OH2 3623   6.911   7.380   0.603
 1227TIP3    H1 3624   6.982   7.351   0.546
 1227TIP3    H2 3625   6.838   7.395   0.544
 1228TIP3   OH2 3626   8.299   3.677  -0.032
 1228TIP3    H1 3627   8.293   3.737   0.043
 1228TIP3    H2 3628   8.300   3.590   0.008
 1229TIP3   OH2 3629   5.310   0.574   0.863
 1229TIP3    H1 3630   5.323   0.668   0.862
 1229TIP3    H2 3631   5.289   0.551   0.772
 1230TIP3   OH2 3632   7.808   0.569   4.190
 1230TIP3    H1 3633   7.882   0.628   4.175
 1230TIP3    H2 3634   7.845   0.497   4.242
 1231TIP3   OH2 3635   2.102   1.864   6.690
 1231TIP3    H1 3636   2.154   1.787   6.713
 1231TIP3    H2 3637   2.137   1.934   6.745
 1232TIP3   OH2 3638   4.801   5.513   6.205
 1232TIP3    H1 3639   4.728   5.454   6.185
 1232TIP3    H2 3640   4.761   5.600   6.211
 1233TIP3   OH2 3641   6.932   3.592   5.197
 1233TIP3    H1 3642   6.865   3.657   5.221
 1233TIP3    H2 3643   6.894   3.508   5.222
 1234TIP3   OH2 3644   5.202   2.970   5.804
 1234TIP3    H1 3645   5.258   3.034   5.848
 1234TIP3    H2 3646   5.193   3.003   5.714
 1235TIP3   OH2 3647   5.621   2.472   2.975
 1235TIP3    H1 3648   5.706   2.502   2.941
 1235TIP3    H2 3649   5.620   2.504   3.065
 1236TIP3   OH2 3650   3.066   0.780   0.684
 1236TIP3    H1 3651   3.053   0.692   0.720
 1236TIP3    H2 3652   3.131   0.769   0.615
 1237TIP3   OH2 3653   3.481   4.865   1.909
 1237TIP3    H1 3654   3.398   4.910   1.925
 1237TIP3    H2 3655   3.474   4.783   1.957
 1238TIP3   OH2 3656   4.652   6.354   5.247
 1238TIP3    H1 3657   4.589   6.311   5.305
 1238TIP3    H2 3658   4.602   6.423   5.204
 1239TIP3   OH2 3659   2.006   2.354   5.096
 1239TIP3    H1 3660   2.061   2.373   5.172
 1239TIP3    H2 3661   2.064   2.306   5.036
 1240TIP3   OH2 3662   4.875   3.938   1.386
 1240TIP3    H1 3663   4.961   3.917   1.422
 1240TIP3    H2 3664   4.831   3.986   1.456
 1241TIP3   OH2 3665   2.022   0.771   4.156
 1241TIP3    H1 3666   2.069   0.711   4.097
 1241TIP3    H2 3667   1.999   0.716   4.231
 1242TIP3   OH2 3668   0.649   4.963   5.396
 1242TIP3    H1 3669   0.647   5.018   5.474
 1242TIP3    H2 3670   0.629   5.022   5.324
 1243TIP3   OH2 3671   2.215   1.743   6.161
 1243TIP3    H1 3672   2.276   1.797   6.111
 1243TIP3    H2 3673   2.131   1.755   6.116
 1244TIP3   OH2 3674   7.036   3.711   0.179
 1244TIP3    H1 3675   7.128   3.689   0.173
 1244TIP3    H2 3676   7.013   3.700   0.271
 1245TIP3   OH2 3677   5.518   5.796   1.621
 1245TIP3    H1 3678   5.547   5.706   1.606
 1245TIP3    H2 3679   5.573   5.827   1.693
 1246TIP3   OH2 3680   5.317   3.138   0.600
 1246TIP3    H1 3681   5.364   3.059   0.626
 1246TIP3    H2 3682   5.387   3.201   0.580
 1247TIP3   OH2 3683   6.604   6.378   3.806
 1247TIP3    H1 3684   6.671   6.340   3.863
 1247TIP3    H2 3685   6.651   6.402   3.726
 1248TIP3   OH2 3686   0.111   7.799   2.194
 1248TIP3    H1 3687   0.094   7.876   2.139
 1248TIP3    H2 3688   0.076   7.726   2.144
 1249TIP3   OH2 3689   6.380   0.456   4.007
 1249TIP3    H1 3690   6.311   0.405   3.965
 1249TIP3    H2 3691   6.342   0.486   4.089
 1250TIP3   OH2 3692   4.164   6.191   5.240
 1250TIP3    H1 3693   4.133   6.184   5.330
 1250TIP3    H2 3694   4.253   6.156   5.243
 1251TIP3   OH2 3695   7.546   6.149   6.160
 1251TIP3    H1 3696   7.544   6.133   6.066
 1251TIP3    H2 3697   7.455   6.168   6.183
 1252TIP3   OH2 3698   0.503   6.632   1.169
 1252TIP3    H1 3699   0.478   6.719   1.201
 1252TIP3    H2 3700   0.544   6.589   1.244
 1253TIP3   OH2 3701   0.693   1.939   6.133
 1253TIP3    H1 3702   0.674   1.996   6.207
 1253TIP3    H2 3703   0.765   1.982   6.087
 1254TIP3   OH2 3704   5.342   6.402   6.333
 1254TIP3    H1 3705   5.395   6.460   6.388
 1254TIP3    H2 3706   5.362   6.314   6.364
 1255TIP3   OH2 3707   2.604   5.307   1.747
 1255TIP3    H1 3708   2.639   5.343   1.828
 1255TIP3    H2 3709   2.653   5.351   1.678
 1256TIP3   OH2 3710   5.129   7.461   6.670
 1256TIP3    H1 3711   5.215   7.439   6.635
 1256TIP3    H2 3712   5.148   7.520   6.744
 1257TIP3   OH2 3713   3.368   7.087   2.266
 1257TIP3    H1 3714   3.346   7.040   2.346
 1257TIP3    H2 3715   3.345   7.178   2.285
 1258TIP3   OH2 3716   1.690   5.075   0.478
 1258TIP3    H1 3717   1.616   5.134   0.494
 1258TIP3    H2 3718   1.766   5.133   0.473
 1259TIP3   OH2 3719   4.447   1.088   5.458
 1259TIP3    H1 3720   4.366   1.038   5.447
 1259TIP3    H2 3721   4.419   1.179   5.458
 1260TIP3   OH2 3722   2.189   5.862   6.685
 1260TIP3    H1 3723   2.215   5.789   6.742
 1260TIP3    H2 3724   2.218   5.940   6.732
 1261TIP3   OH2 3725   5.818   0.186   0.721
 1261TIP3    H1 3726   5.821   0.277   0.751
 1261TIP3    H2 3727   5.753   0.144   0.777
 1262TIP3   OH2 3728   6.706   4.416   6.506
 1262TIP3    H1 3729   6.629   4.467   6.529
 1262TIP3    H2 3730   6.776   4.451   6.561
 1263TIP3   OH2 3731   2.006   0.943   5.092
 1263TIP3    H1 3732   1.930   0.978   5.046
 1263TIP3    H2 3733   2.012   0.994   5.173
 1264TIP3   OH2 3734   8.030   6.626   1.367
 1264TIP3    H1 3735   8.034   6.607   1.273
 1264TIP3    H2 3736   7.953   6.681   1.378
 1265TIP3   OH2 3737   8.222   7.277   0.754
 1265TIP3    H1 3738   8.222   7.299   0.848
 1265TIP3    H2 3739   8.132   7.250   0.736
 1266TIP3   OH2 3740   6.496   2.839   2.945
 1266TIP3    H1 3741   6.494   2.900   3.019
 1266TIP3    H2 3742   6.568   2.779   2.966
 1267TIP3   OH2 3743   7.325   4.507   4.213
 1267TIP3    H1 3744   7.235   4.473   4.220
 1267TIP3    H2 3745   7.314   4.602   4.207
 1268TIP3   OH2 3746   1.180   6.356   4.288
 1268TIP3    H1 3747   1.220   6.419   4.348
 1268TIP3    H2 3748   1.086   6.360   4.309
 1269TIP3   OH2 3749   1.416   5.176   2.263
 1269TIP3    H1 3750   1.485   5.173   2.329
 1269TIP3    H2 3751   1.341   5.216   2.308
 1270TIP3   OH2 3752   3.951   1.048   4.558
 1270TIP3    H1 3753   3.965   1.075   4.467
 1270TIP3    H2 3754   3.872   0.994   4.555
 1271TIP3   OH2 3755   0.518   3.543   0.614
 1271TIP3    H1 3756   0.471   3.515   0.536
 1271TIP3    H2 3757   0.449   3.573   0.674
 1272TIP3   OH2 3758   5.732   1.437   5.276
 1272TIP3    H1 3759   5.788   1.363   5.255
 1272TIP3    H2 3760   5.696   1.466   5.192
 1273TIP3   OH2 3761   1.851   1.281   2.799
 1273TIP3    H1 3762   1.903   1.205   2.774
 1273TIP3    H2 3763   1.899   1.356   2.764
 1274TIP3   OH2 3764   3.784   0.970   6.753
 1274TIP3    H1 3765   3.710   0.912   6.733
 1274TIP3    H2 3766   3.854   0.910   6.780
 1275TIP3   OH2 3767   7.008   0.493   5.703
 1275TIP3    H1 3768   6.935   0.537   5.658
 1275TIP3    H2 3769   7.081   0.500   5.641
 1276TIP3   OH2 3770   1.232   0.705   6.203
 1276TIP3    H1 3771   1.279   0.707   6.120
 1276TIP3    H2 3772   1.252   0.618   6.239
 1277TIP3   OH2 3773   2.533   6.480   0.813
 1277TIP3    H1 3774   2.515   6.526   0.895
 1277TIP3    H2 3775   2.467   6.514   0.752
 1278TIP3   OH2 3776   3.591   4.461   1.996
 1278TIP3    H1 3777   3.511   4.512   2.007
 1278TIP3    H2 3778   3.563   4.383   1.948
 1279TIP3   OH2 3779   2.090   5.844   3.437
 1279TIP3    H1 3780   2.088   5.898   3.358
 1279TIP3    H2 3781   2.182   5.844   3.465
 1280TIP3   OH2 3782   7.489   6.582   3.050
 1280TIP3    H1 3783   7.499   6.536   2.967
 1280TIP3    H2 3784   7.481   6.513   3.115
 1281TIP3   OH2 3785   1.180   1.907   3.955
 1281TIP3    H1 3786   1.235   1.830   3.940
 1281TIP3    H2 3787   1.124   1.882   4.029
 1282TIP3   OH2 3788   4.840   6.326   3.012
 1282TIP3    H1 3789   4.870   6.309   2.923
 1282TIP3    H2 3790   4.920   6.323   3.065
 1283TIP3   OH2 3791   2.078   7.638   1.377
 1283TIP3    H1 3792   2.104   7.603   1.292
 1283TIP3    H2 3793   1.995   7.683   1.360
 1284TIP3   OH2 3794   2.143   4.994   1.487
 1284TIP3    H1 3795   2.152   4.966   1.579
 1284TIP3    H2 3796   2.228   4.975   1.448
 1285TIP3   OH2 3797   5.248   7.661   0.383
 1285TIP3    H1 3798   5.168   7.652   0.331
 1285TIP3    H2 3799   5.217   7.657   0.474
 1286TIP3   OH2 3800   2.673   0.469   0.700
 1286TIP3    H1 3801   2.748   0.412   0.720
 1286TIP3    H2 3802   2.597   0.417   0.724
 1287TIP3   OH2 3803   6.513   4.422   4.430
 1287TIP3    H1 3804   6.527   4.468   4.348
 1287TIP3    H2 3805   6.450   4.353   4.409
 1288TIP3   OH2 3806   2.551   3.683   1.085
 1288TIP3    H1 3807   2.562   3.589   1.101
 1288TIP3    H2 3808   2.479   3.709   1.142
 1289TIP3   OH2 3809   2.814   3.952   2.424
 1289TIP3    H1 3810   2.720   3.952   2.405
 1289TIP3    H2 3811   2.826   3.879   2.484
 1290TIP3   OH2 3812   4.236   0.089   3.428
 1290TIP3    H1 3813   4.297   0.124   3.492
 1290TIP3    H2 3814   4.267   0.124   3.344
 1291TIP3   OH2 3815   7.375   0.274   1.578
 1291TIP3    H1 3816   7.323   0.194   1.569
 1291TIP3    H2 3817   7.463   0.249   1.553
 1292TIP3   OH2 3818   6.089   3.087   0.785
 1292TIP3    H1 3819   6.116   3.131   0.866
 1292TIP3    H2 3820   6.168   3.046   0.752
 1293TIP3   OH2 3821   5.408   3.317   5.143
 1293TIP3    H1 3822   5.330   3.335   5.197
 1293TIP3    H2 3823   5.379   3.335   5.053
 1294TIP3   OH2 3824   4.380   1.702   0.983
 1294TIP3    H1 3825   4.372   1.789   0.944
 1294TIP3    H2 3826   4.291   1.667   0.980
 1295TIP3   OH2 3827   4.036   4.223   3.242
 1295TIP3    H1 3828   4.011   4.132   3.226
 1295TIP3    H2 3829   3.961   4.274   3.214
 1296TIP3   OH2 3830   0.164   6.048   3.682
 1296TIP3    H1 3831   0.093   5.993   3.649
 1296TIP3    H2 3832   0.243   6.015   3.639
 1297TIP3   OH2 3833   7.070   5.301   1.303
 1297TIP3    H1 3834   6.975   5.290   1.297
 1297TIP3    H2 3835   7.083   5.350   1.384
 1298TIP3   OH2 3836   4.787   5.435   3.497
 1298TIP3    H1 3837   4.837   5.483   3.563
 1298TIP3    H2 3838   4.703   5.416   3.538
 1299TIP3   OH2 3839   2.740   4.180   6.382
 1299TIP3    H1 3840   2.662   4.124   6.378
 1299TIP3    H2 3841   2.705   4.269   6.388
 1300TIP3   OH2 3842   7.753   4.140   6.742
 1300TIP3    H1 3843   7.789   4.099   6.663
 1300TIP3    H2 3844   7.695   4.209   6.709
 1301TIP3   OH2 3845   5.331   2.809   6.000
 1301TIP3    H1 3846   5.261   2.847   5.946
 1301TIP3    H2 3847   5.370   2.741   5.945
 1302TIP3   OH2 3848   0.482   5.735   4.490
 1302TIP3    H1 3849   0.563   5.785   4.480
 1302TIP3    H2 3850   0.497   5.656   4.439
 1303TIP3   OH2 3851   6.503   4.618   5.413
 1303TIP3    H1 3852   6.503   4.637   5.320
 1303TIP3    H2 3853   6.467   4.529   5.420
 1304TIP3   OH2 3854   2.751   0.499   2.482
 1304TIP3    H1 3855   2.710   0.451   2.554
 1304TIP3    H2 3856   2.762   0.433   2.413
 1305TIP3   OH2 3857   2.603   4.468   4.680
 1305TIP3    H1 3858   2.680   4.422   4.714
 1305TIP3    H2 3859   2.638   4.527   4.613
 1306TIP3   OH2 3860   6.290   5.146   5.289
 1306TIP3    H1 3861   6.337   5.065   5.269
 1306TIP3    H2 3862   6.328   5.212   5.231
 1307TIP3   OH2 3863   2.290   3.486   4.135
 1307TIP3    H1 3864   2.294   3.417   4.202
 1307TIP3    H2 3865   2.319   3.444   4.055
 1308TIP3   OH2 3866   0.380   1.429   0.753
 1308TIP3    H1 3867   0.355   1.470   0.836
 1308TIP3    H2 3868   0.476   1.427   0.755
 1309TIP3   OH2 3869   3.346   1.416   2.817
 1309TIP3    H1 3870   3.422   1.473   2.801
 1309TIP3    H2 3871   3.376   1.353   2.882
 1310TIP3   OH2 3872   2.304   5.972   2.711
 1310TIP3    H1 3873   2.280   5.916   2.786
 1310TIP3    H2 3874   2.362   6.038   2.749
 1311TIP3   OH2 3875   8.200   1.347   1.597
 1311TIP3    H1 3876   8.192   1.430   1.643
 1311TIP3    H2 3877   8.141   1.287   1.643
 1312TIP3   OH2 3878   5.610   5.578   0.859
 1312TIP3    H1 3879   5.552   5.540   0.792
 1312TIP3    H2 3880   5.692   5.596   0.813
 1313TIP3   OH2 3881   1.514   1.348   4.139
 1313TIP3    H1 3882   1.571   1.418   4.171
 1313TIP3    H2 3883   1.569   1.269   4.142
 1314TIP3   OH2 3884   6.497   0.763   6.470
 1314TIP3    H1 3885   6.524   0.791   6.557
 1314TIP3    H2 3886   6.408   0.730   6.481
 1315TIP3   OH2 3887   3.407   6.205   0.976
 1315TIP3    H1 3888   3.332   6.231   1.030
 1315TIP3    H2 3889   3.464   6.282   0.976
 1316TIP3   OH2 3890   0.507   5.056   0.297
 1316TIP3    H1 3891   0.592   5.018   0.274
 1316TIP3    H2 3892   0.529   5.130   0.354
 1317TIP3   OH2 3893   2.020   6.454   2.542
 1317TIP3    H1 3894   2.095   6.416   2.588
 1317TIP3    H2 3895   1.980   6.513   2.606
 1318TIP3   OH2 3896   2.035   1.881   3.961
 1318TIP3    H1 3897   2.056   1.943   4.030
 1318TIP3    H2 3898   2.118   1.866   3.915
 1319TIP3   OH2 3899   3.090   7.431   6.274
 1319TIP3    H1 3900   3.005   7.411   6.234
 1319TIP3    H2 3901   3.096   7.527   6.270
 1320TIP3   OH2 3902   7.128   1.380   5.667
 1320TIP3    H1 3903   7.185   1.312   5.702
 1320TIP3    H2 3904   7.130   1.367   5.573
 1321TIP3   OH2 3905   4.051   7.131   1.840
 1321TIP3    H1 3906   3.971   7.111   1.792
 1321TIP3    H2 3907   4.062   7.226   1.831
 1322TIP3   OH2 3908   0.134   3.470   4.742
 1322TIP3    H1 3909   0.161   3.439   4.829
 1322TIP3    H2 3910   0.215   3.476   4.693
 1323TIP3   OH2 3911   1.495   7.478   2.435
 1323TIP3    H1 3912   1.547   7.484   2.354
 1323TIP3    H2 3913   1.558   7.494   2.505
 1324TIP3   OH2 3914   1.683   7.394   0.092
 1324TIP3    H1 3915   1.643   7.431   0.013
 1324TIP3    H2 3916   1.609   7.361   0.143
 1325TIP3   OH2 3917   5.717   7.021   2.661
 1325TIP3    H1 3918   5.660   7.045   2.588
 1325TIP3    H2 3919   5.770   7.100   2.676
 1326TIP3   OH2 3920   0.543   0.621   3.796
 1326TIP3    H1 3921   0.594   0.682   3.742
 1326TIP3    H2 3922   0.477   0.585   3.736
 1327TIP3   OH2 3923   2.283   7.815   4.186
 1327TIP3    H1 3924   2.282   7.891   4.244
 1327TIP3    H2 3925   2.314   7.743   4.241
 1328TIP3   OH2 3926   3.823   0.240   4.691
 1328TIP3    H1 3927   3.759   0.266   4.624
 1328TIP3    H2 3928   3.813   0.305   4.760
 1329TIP3   OH2 3929   4.561   6.619   2.119
 1329TIP3    H1 3930   4.651   6.639   2.144
 1329TIP3    H2 3931   4.507   6.664   2.184
 1330TIP3   OH2 3932   2.944   2.952   6.296
 1330TIP3    H1 3933   2.951   2.876   6.238
 1330TIP3    H2 3934   2.932   3.026   6.237
 1331TIP3   OH2 3935   2.617   6.601   4.849
 1331TIP3    H1 3936   2.639   6.595   4.756
 1331TIP3    H2 3937   2.567   6.682   4.857
 1332TIP3   OH2 3938   5.121   0.932   6.590
 1332TIP3    H1 3939   5.152   0.961   6.676
 1332TIP3    H2 3940   5.026   0.943   6.595
 1333TIP3   OH2 3941   5.871   7.335   2.006
 1333TIP3    H1 3942   5.826   7.259   1.969
 1333TIP3    H2 3943   5.867   7.322   2.101
 1334TIP3   OH2 3944   3.386   1.926   4.995
 1334TIP3    H1 3945   3.303   1.890   4.965
 1334TIP3    H2 3946   3.417   1.980   4.922
 1335TIP3   OH2 3947   4.804   2.741   5.433
 1335TIP3    H1 3948   4.894   2.719   5.409
 1335TIP3    H2 3949   4.781   2.815   5.376
 1336TIP3   OH2 3950   4.433   2.338   3.772
 1336TIP3    H1 3951   4.389   2.386   3.702
 1336TIP3    H2 3952   4.439   2.248   3.740
 1337TIP3   OH2 3953   4.570   7.267   5.448
 1337TIP3    H1 3954   4.550   7.195   5.508
 1337TIP3    H2 3955   4.638   7.317   5.492
 1338TIP3   OH2 3956   3.446   5.694   5.041
 1338TIP3    H1 3957   3.390   5.721   4.969
 1338TIP3    H2 3958   3.481   5.609   5.013
 1339TIP3   OH2 3959   1.863   0.360   6.218
 1339TIP3    H1 3960   1.869   0.440   6.270
 1339TIP3    H2 3961   1.815   0.386   6.140
 1340TIP3   OH2 3962   0.806   5.278   1.935
 1340TIP3    H1 3963   0.824   5.355   1.881
 1340TIP3    H2 3964   0.716   5.292   1.966
 1341TIP3   OH2 3965   4.762   2.804   6.456
 1341TIP3    H1 3966   4.744   2.897   6.443
 1341TIP3    H2 3967   4.844   2.788   6.409
 1342TIP3   OH2 3968   4.930   7.497   4.865
 1342TIP3    H1 3969   4.902   7.471   4.777
 1342TIP3    H2 3970   5.013   7.543   4.851
 1343TIP3   OH2 3971   1.389   7.701   5.316
 1343TIP3    H1 3972   1.383   7.767   5.385
 1343TIP3    H2 3973   1.363   7.747   5.237
 1344TIP3   OH2 3974   7.909   1.473   5.660
 1344TIP3    H1 3975   7.941   1.436   5.742
 1344TIP3    H2 3976   7.903   1.398   5.600
 1345TIP3   OH2 3977   8.198   5.940   5.352
 1345TIP3    H1 3978   8.135   6.001   5.316
 1345TIP3    H2 3979   8.231   5.982   5.432
 1346TIP3   OH2 3980   6.250   0.964   6.650
 1346TIP3    H1 3981   6.202   0.911   6.585
 1346TIP3    H2 3982   6.266   0.904   6.722
 1347TIP3   OH2 3983   0.279   7.787   5.265
 1347TIP3    H1 3984   0.364   7.801   5.223
 1347TIP3    H2 3985   0.216   7.795   5.194
 1348TIP3   OH2 3986   4.626   4.332   1.627
 1348TIP3    H1 3987   4.650   4.332   1.719
 1348TIP3    H2 3988   4.546   4.385   1.623
 1349TIP3   OH2 3989   2.369   4.469   1.103
 1349TIP3    H1 3990   2.422   4.390   1.091
 1349TIP3    H2 3991   2.299   4.462   1.037
 1350TIP3   OH2 3992   6.752   5.686   0.669
 1350TIP3    H1 3993   6.657   5.679   0.679
 1350TIP3    H2 3994   6.776   5.763   0.722
 1351TIP3   OH2 3995   3.630   4.548   2.251
 1351TIP3    H1 3996   3.633   4.548   2.155
 1351TIP3    H2 3997   3.720   4.567   2.278
 1352TIP3   OH2 3998   7.134   2.324   0.086
 1352TIP3    H1 3999   7.181   2.282   0.158
 1352TIP3    H2 4000   7.176   2.291   0.007
 1353TIP3   OH2 4001   6.008   4.163   2.876
 1353TIP3    H1 4002   5.981   4.254   2.886
 1353TIP3    H2 4003   6.089   4.156   2.926
 1354TIP3   OH2 4004   0.455   1.904   5.956
 1354TIP3    H1 4005   0.470   1.932   5.866
 1354TIP3    H2 4006   0.542   1.907   5.997
 1355TIP3   OH2 4007   7.705   4.880   5.452
 1355TIP3    H1 4008   7.640   4.887   5.383
 1355TIP3    H2 4009   7.656   4.891   5.534
 1356TIP3   OH2 4010   5.839   6.487   0.536
 1356TIP3    H1 4011   5.753   6.481   0.493
 1356TIP3    H2 4012   5.883   6.560   0.492
 1357TIP3   OH2 4013   1.965   7.398   0.188
 1357TIP3    H1 4014   2.007   7.327   0.139
 1357TIP3    H2 4015   1.876   7.402   0.152
 1358TIP3   OH2 4016   8.087   0.703   4.756
 1358TIP3    H1 4017   8.118   0.742   4.838
 1358TIP3    H2 4018   8.046   0.621   4.782
 1359TIP3   OH2 4019   7.504   5.735   3.614
 1359TIP3    H1 4020   7.467   5.654   3.649
 1359TIP3    H2 4021   7.521   5.716   3.522
 1360TIP3   OH2 4022   5.831   3.096   0.136
 1360TIP3    H1 4023   5.761   3.086   0.072
 1360TIP3    H2 4024   5.808   3.175   0.184
 1361TIP3   OH2 4025   2.167   3.565   1.888
 1361TIP3    H1 4026   2.121   3.499   1.940
 1361TIP3    H2 4027   2.247   3.584   1.938
 1362TIP3   OH2 4028   7.911   4.348   6.480
 1362TIP3    H1 4029   7.827   4.330   6.437
 1362TIP3    H2 4030   7.976   4.337   6.410
 1363TIP3   OH2 4031   4.224   4.316   6.555
 1363TIP3    H1 4032   4.319   4.302   6.548
 1363TIP3    H2 4033   4.213   4.410   6.537
 1364TIP3   OH2 4034   3.857   6.235   3.194
 1364TIP3    H1 4035   3.903   6.284   3.261
 1364TIP3    H2 4036   3.796   6.179   3.242
 1365TIP3   OH2 4037   5.810   2.375   2.042
 1365TIP3    H1 4038   5.729   2.331   2.014
 1365TIP3    H2 4039   5.872   2.358   1.971
 1366TIP3   OH2 4040   1.827   1.944   3.769
 1366TIP3    H1 4041   1.900   1.912   3.822
 1366TIP3    H2 4042   1.868   1.994   3.699
 1367TIP3   OH2 4043   1.853   1.215   1.678
 1367TIP3    H1 4044   1.858   1.121   1.696
 1367TIP3    H2 4045   1.926   1.233   1.619
 1368TIP3   OH2 4046   4.066   3.776   6.612
 1368TIP3    H1 4047   3.993   3.838   6.611
 1368TIP3    H2 4048   4.085   3.764   6.705
 1369TIP3   OH2 4049   2.412   2.282   4.852
 1369TIP3    H1 4050   2.387   2.371   4.829
 1369TIP3    H2 4051   2.482   2.260   4.790
 1370TIP3   OH2 4052   4.515   2.196   0.591
 1370TIP3    H1 4053   4.538   2.287   0.575
 1370TIP3    H2 4054   4.596   2.156   0.623
 1371TIP3   OH2 4055   0.428   5.557   3.635
 1371TIP3    H1 4056   0.522   5.577   3.634
 1371TIP3    H2 4057   0.406   5.545   3.542
 1372TIP3   OH2 4058   7.707   4.524   2.792
 1372TIP3    H1 4059   7.763   4.462   2.839
 1372TIP3    H2 4060   7.629   4.532   2.846
 1373TIP3   OH2 4061   1.953   0.170   1.896
 1373TIP3    H1 4062   1.953   0.138   1.986
 1373TIP3    H2 4063   1.867   0.210   1.884
 1374TIP3   OH2 4064   4.697   6.762   1.854
 1374TIP3    H1 4065   4.647   6.741   1.933
 1374TIP3    H2 4066   4.632   6.758   1.784
 1375TIP3   OH2 4067   2.148   5.700   0.385
 1375TIP3    H1 4068   2.226   5.654   0.354
 1375TIP3    H2 4069   2.099   5.720   0.306
 1376TIP3   OH2 4070   4.091   4.098   6.041
 1376TIP3    H1 4071   4.044   4.017   6.022
 1376TIP3    H2 4072   4.039   4.140   6.111
 1377TIP3   OH2 4073   0.308   6.524   6.441
 1377TIP3    H1 4074   0.381   6.565   6.488
 1377TIP3    H2 4075   0.314   6.431   6.463
 1378TIP3   OH2 4076   5.319   1.756   4.142
 1378TIP3    H1 4077   5.344   1.664   4.154
 1378TIP3    H2 4078   5.272   1.756   4.058
 1379TIP3   OH2 4079   1.690   2.196   1.679
 1379TIP3    H1 4080   1.670   2.131   1.611
 1379TIP3    H2 4081   1.713   2.275   1.630
 1380TIP3   OH2 4082   1.359   7.323   2.259
 1380TIP3    H1 4083   1.424   7.276   2.207
 1380TIP3    H2 4084   1.408   7.352   2.336
 1381TIP3   OH2 4085   6.134   1.305   2.053
 1381TIP3    H1 4086   6.084   1.263   1.983
 1381TIP3    H2 4087   6.098   1.393   2.059
 1382TIP3   OH2 4088   2.831   2.576   2.791
 1382TIP3    H1 4089   2.742   2.566   2.756
 1382TIP3    H2 4090   2.877   2.628   2.725
 1383TIP3   OH2 4091   5.411   5.532   3.951
 1383TIP3    H1 4092   5.461   5.454   3.926
 1383TIP3    H2 4093   5.475   5.591   3.989
 1384TIP3   OH2 4094   1.994   6.449   0.388
 1384TIP3    H1 4095   2.060   6.407   0.333
 1384TIP3    H2 4096   1.928   6.481   0.326
 1385TIP3   OH2 4097   6.233   2.425   4.379
 1385TIP3    H1 4098   6.305   2.483   4.403
 1385TIP3    H2 4099   6.157   2.461   4.424
 1386TIP3   OH2 4100   1.564   2.794   0.010
 1386TIP3    H1 4101   1.596   2.870  -0.039
 1386TIP3    H2 4102   1.473   2.783  -0.018
 1387TIP3   OH2 4103   3.309   1.369   0.122
 1387TIP3    H1 4104   3.284   1.430   0.053
 1387TIP3    H2 4105   3.233   1.313   0.134
 1388TIP3   OH2 4106   3.466   4.487   1.355
 1388TIP3    H1 4107   3.558   4.465   1.340
 1388TIP3    H2 4108   3.455   4.574   1.316
 1389TIP3   OH2 4109   6.311   2.852   5.159
 1389TIP3    H1 4110   6.394   2.849   5.112
 1389TIP3    H2 4111   6.309   2.939   5.198
 1390TIP3   OH2 4112   4.007   2.809   1.601
 1390TIP3    H1 4113   3.957   2.728   1.609
 1390TIP3    H2 4114   4.082   2.797   1.659
 1391TIP3   OH2 4115   7.272   5.899   6.466
 1391TIP3    H1 4116   7.272   5.819   6.413
 1391TIP3    H2 4117   7.198   5.950   6.433
 1392TIP3   OH2 4118   1.608   7.511   2.186
 1392TIP3    H1 4119   1.668   7.557   2.245
 1392TIP3    H2 4120   1.635   7.540   2.099
 1393TIP3   OH2 4121   1.634   7.492   1.535
 1393TIP3    H1 4122   1.561   7.484   1.596
 1393TIP3    H2 4123   1.663   7.583   1.543
 1394TIP3   OH2 4124   2.643   0.373   3.537
 1394TIP3    H1 4125   2.717   0.433   3.525
 1394TIP3    H2 4126   2.573   0.429   3.572
 1395TIP3   OH2 4127   3.335   3.725   0.263
 1395TIP3    H1 4128   3.352   3.635   0.291
 1395TIP3    H2 4129   3.411   3.749   0.211
 1396TIP3   OH2 4130   3.210   4.491   1.173
 1396TIP3    H1 4131   3.288   4.462   1.221
 1396TIP3    H2 4132   3.228   4.465   1.082
 1397TIP3   OH2 4133   4.538   6.586   5.036
 1397TIP3    H1 4134   4.457   6.613   4.993
 1397TIP3    H2 4135   4.607   6.635   4.991
 1398TIP3   OH2 4136   4.325   1.549   4.318
 1398TIP3    H1 4137   4.323   1.540   4.413
 1398TIP3    H2 4138   4.418   1.545   4.295
 1399TIP3   OH2 4139   4.391   2.360   5.982
 1399TIP3    H1 4140   4.399   2.313   5.899
 1399TIP3    H2 4141   4.297   2.381   5.988
 1400TIP3   OH2 4142   0.762   2.193   4.445
 1400TIP3    H1 4143   0.746   2.172   4.353
 1400TIP3    H2 4144   0.775   2.288   4.446
 1401TIP3   OH2 4145   4.426   0.473   1.130
 1401TIP3    H1 4146   4.332   0.482   1.139
 1401TIP3    H2 4147   4.443   0.492   1.037
 1402TIP3   OH2 4148   7.342   5.297   2.549
 1402TIP3    H1 4149   7.270   5.250   2.507
 1402TIP3    H2 4150   7.419   5.274   2.496
 1403TIP3   OH2 4151   1.069   4.926   6.124
 1403TIP3    H1 4152   0.988   4.880   6.145
 1403TIP3    H2 4153   1.044   4.991   6.059
 1404TIP3   OH2 4154   6.791   4.447   0.502
 1404TIP3    H1 4155   6.857   4.381   0.524
 1404TIP3    H2 4156   6.777   4.437   0.408
 1405TIP3   OH2 4157   0.161   1.421   1.884
 1405TIP3    H1 4158   0.122   1.334   1.875
 1405TIP3    H2 4159   0.090   1.476   1.916
 1406TIP3   OH2 4160   5.364   7.611   1.159
 1406TIP3    H1 4161   5.307   7.534   1.166
 1406TIP3    H2 4162   5.305   7.685   1.151
 1407TIP3   OH2 4163   5.245   1.712   5.571
 1407TIP3    H1 4164   5.159   1.719   5.611
 1407TIP3    H2 4165   5.256   1.618   5.552
 1408TIP3   OH2 4166  -0.015   5.278   3.587
 1408TIP3    H1 4167  -0.047   5.362   3.554
 1408TIP3    H2 4168   0.048   5.302   3.655
 1409TIP3   OH2 4169   6.141   7.368   3.483
 1409TIP3    H1 4170   6.205   7.301   3.456
 1409TIP3    H2 4171   6.058   7.320   3.489
 1410TIP3   OH2 4172   6.604   2.604   5.734
 1410TIP3    H1 4173   6.627   2.695   5.718
 1410TIP3    H2 4174   6.626   2.559   5.653
 1411TIP3   OH2 4175   7.659   6.382   3.386
 1411TIP3    H1 4176   7.610   6.354   3.309
 1411TIP3    H2 4177   7.592   6.415   3.447
 1412TIP3   OH2 4178   0.711   2.236   5.112
 1412TIP3    H1 4179   0.781   2.276   5.060
 1412TIP3    H2 4180   0.664   2.311   5.150
 1413TIP3   OH2 4181   7.668   4.672   3.596
 1413TIP3    H1 4182   7.643   4.757   3.632
 1413TIP3    H2 4183   7.685   4.689   3.503
 1414TIP3   OH2 4184   6.128   7.267   0.735
 1414TIP3    H1 4185   6.049   7.230   0.695
 1414TIP3    H2 4186   6.193   7.197   0.730
 1415TIP3   OH2 4187   5.024   3.463   4.510
 1415TIP3    H1 4188   5.025   3.484   4.604
 1415TIP3    H2 4189   4.943   3.504   4.478
 1416TIP3   OH2 4190   1.541   0.960   2.141
 1416TIP3    H1 4191   1.485   1.011   2.083
 1416TIP3    H2 4192   1.484   0.889   2.172
 1417TIP3   OH2 4193   1.105   3.052   1.537
 1417TIP3    H1 4194   1.016   3.021   1.519
 1417TIP3    H2 4195   1.150   3.043   1.453
 1418TIP3   OH2 4196   1.276   1.595   4.830
 1418TIP3    H1 4197   1.336   1.632   4.765
 1418TIP3    H2 4198   1.228   1.671   4.863
 1419TIP3   OH2 4199   7.634   2.249   0.159
 1419TIP3    H1 4200   7.582   2.181   0.202
 1419TIP3    H2 4201   7.631   2.323   0.220
 1420TIP3   OH2 4202   6.372   5.046   4.198
 1420TIP3    H1 4203   6.297   5.103   4.210
 1420TIP3    H2 4204   6.375   4.992   4.277
 1421TIP3   OH2 4205   3.910   2.737   0.795
 1421TIP3    H1 4206   3.982   2.677   0.813
 1421TIP3    H2 4207   3.831   2.683   0.800
 1422TIP3   OH2 4208   1.973   6.421   0.660
 1422TIP3    H1 4209   1.960   6.419   0.565
 1422TIP3    H2 4210   1.982   6.329   0.684
 1423TIP3   OH2 4211   3.343   7.302   0.715
 1423TIP3    H1 4212   3.312   7.320   0.626
 1423TIP3    H2 4213   3.266   7.265   0.759
 1424TIP3   OH2 4214   1.134   1.197   5.837
 1424TIP3    H1 4215   1.093   1.282   5.853
 1424TIP3    H2 4216   1.062   1.135   5.835
 1425TIP3   OH2 4217   1.203   7.160   0.519
 1425TIP3    H1 4218   1.182   7.170   0.612
 1425TIP3    H2 4219   1.299   7.153   0.517
 1426TIP3   OH2 4220   4.389   1.566   1.824
 1426TIP3    H1 4221   4.296   1.547   1.830
 1426TIP3    H2 4222   4.427   1.528   1.903
 1427TIP3   OH2 4223   8.130   1.074   3.168
 1427TIP3    H1 4224   8.065   1.131   3.210
 1427TIP3    H2 4225   8.203   1.133   3.148
 1428TIP3   OH2 4226   0.976   7.412   6.731
 1428TIP3    H1 4227   0.993   7.422   6.825
 1428TIP3    H2 4228   0.958   7.319   6.720
 1429TIP3   OH2 4229   1.259   0.200   5.866
 1429TIP3    H1 4230   1.316   0.124   5.875
 1429TIP3    H2 4231   1.229   0.197   5.776
 1430TIP3   OH2 4232   1.100   1.759   2.298
 1430TIP3    H1 4233   1.145   1.804   2.369
 1430TIP3    H2 4234   1.120   1.811   2.220
 1431TIP3   OH2 4235   0.674   3.891   2.071
 1431TIP3    H1 4236   0.756   3.877   2.023
 1431TIP3    H2 4237   0.613   3.924   2.006
 1432TIP3   OH2 4238   2.200   6.475   6.288
 1432TIP3    H1 4239   2.215   6.557   6.240
 1432TIP3    H2 4240   2.107   6.457   6.274
 1433TIP3   OH2 4241   6.111   2.584   0.504
 1433TIP3    H1 4242   6.184   2.524   0.496
 1433TIP3    H2 4243   6.098   2.619   0.416
 1434TIP3   OH2 4244   5.556   6.087   3.541
 1434TIP3    H1 4245   5.595   6.068   3.626
 1434TIP3    H2 4246   5.471   6.042   3.544
 1435TIP3   OH2 4247   2.451   0.864   3.793
 1435TIP3    H1 4248   2.480   0.808   3.720
 1435TIP3    H2 4249   2.532   0.904   3.826
 1436TIP3   OH2 4250   2.914   5.276   5.980
 1436TIP3    H1 4251   2.897   5.292   6.073
 1436TIP3    H2 4252   2.830   5.251   5.943
 1437TIP3   OH2 4253   6.445   2.690   4.794
 1437TIP3    H1 4254   6.388   2.633   4.845
 1437TIP3    H2 4255   6.386   2.757   4.759
 1438TIP3   OH2 4256   1.154   5.043   4.378
 1438TIP3    H1 4257   1.185   4.982   4.445
 1438TIP3    H2 4258   1.191   5.128   4.404
 1439TIP3   OH2 4259   1.551   4.121   3.915
 1439TIP3    H1 4260   1.539   4.116   4.009
 1439TIP3    H2 4261   1.632   4.170   3.903
 1440TIP3   OH2 4262   4.543   3.895   0.614
 1440TIP3    H1 4263   4.637   3.882   0.622
 1440TIP3    H2 4264   4.518   3.943   0.694
 1441TIP3   OH2 4265   0.424   4.881   5.839
 1441TIP3    H1 4266   0.456   4.884   5.749
 1441TIP3    H2 4267   0.372   4.800   5.843
 1442TIP3   OH2 4268   6.288   2.629   1.823
 1442TIP3    H1 4269   6.218   2.686   1.793
 1442TIP3    H2 4270   6.339   2.684   1.883
 1443TIP3   OH2 4271   6.132   7.565   6.266
 1443TIP3    H1 4272   6.131   7.634   6.332
 1443TIP3    H2 4273   6.160   7.608   6.186
 1444TIP3   OH2 4274   6.874   2.319   6.421
 1444TIP3    H1 4275   6.835   2.233   6.432
 1444TIP3    H2 4276   6.938   2.326   6.492
 1445TIP3   OH2 4277   7.856   5.192   4.724
 1445TIP3    H1 4278   7.914   5.120   4.699
 1445TIP3    H2 4279   7.800   5.156   4.793
 1446TIP3   OH2 4280   8.057   4.714   0.725
 1446TIP3    H1 4281   8.148   4.744   0.719
 1446TIP3    H2 4282   8.009   4.791   0.754
 1447TIP3   OH2 4283   4.352   7.143   5.719
 1447TIP3    H1 4284   4.356   7.113   5.809
 1447TIP3    H2 4285   4.300   7.223   5.722
 1448TIP3   OH2 4286   3.822   1.454   6.589
 1448TIP3    H1 4287   3.824   1.547   6.610
 1448TIP3    H2 4288   3.913   1.431   6.574
 1449TIP3   OH2 4289   1.767   3.366   0.747
 1449TIP3    H1 4290   1.713   3.365   0.826
 1449TIP3    H2 4291   1.756   3.279   0.709
 1450TIP3   OH2 4292   1.635   4.690   3.272
 1450TIP3    H1 4293   1.661   4.672   3.182
 1450TIP3    H2 4294   1.549   4.730   3.266
 1451TIP3   OH2 4295   7.250   7.039   4.970
 1451TIP3    H1 4296   7.252   7.070   4.880
 1451TIP3    H2 4297   7.295   7.107   5.020
 1452TIP3   OH2 4298   2.559   1.700   6.490
 1452TIP3    H1 4299   2.543   1.709   6.584
 1452TIP3    H2 4300   2.654   1.699   6.481
 1453TIP3   OH2 4301   2.825   4.630   1.738
 1453TIP3    H1 4302   2.795   4.708   1.785
 1453TIP3    H2 4303   2.864   4.663   1.658
 1454TIP3   OH2 4304   6.430   4.553   4.666
 1454TIP3    H1 4305   6.378   4.628   4.638
 1454TIP3    H2 4306   6.466   4.518   4.585
 1455TIP3   OH2 4307   6.852   2.773   1.369
 1455TIP3    H1 4308   6.845   2.847   1.430
 1455TIP3    H2 4309   6.915   2.803   1.303
 1456TIP3   OH2 4310   2.249   2.310   1.454
 1456TIP3    H1 4311   2.209   2.266   1.529
 1456TIP3    H2 4312   2.338   2.332   1.483
 1457TIP3   OH2 4313   0.385   1.572   4.385
 1457TIP3    H1 4314   0.326   1.632   4.339
 1457TIP3    H2 4315   0.472   1.607   4.369
 1458TIP3   OH2 4316   8.044   5.152   3.692
 1458TIP3    H1 4317   8.126   5.197   3.672
 1458TIP3    H2 4318   7.991   5.161   3.613
 1459TIP3   OH2 4319   7.128   7.631   0.332
 1459TIP3    H1 4320   7.099   7.559   0.276
 1459TIP3    H2 4321   7.049   7.658   0.379
 1460TIP3   OH2 4322   1.112   5.580   2.177
 1460TIP3    H1 4323   1.146   5.568   2.266
 1460TIP3    H2 4324   1.073   5.667   2.178
 1461TIP3   OH2 4325   3.752   3.218   1.350
 1461TIP3    H1 4326   3.796   3.146   1.395
 1461TIP3    H2 4327   3.676   3.176   1.308
 1462TIP3   OH2 4328   5.952   4.698   2.155
 1462TIP3    H1 4329   5.972   4.634   2.223
 1462TIP3    H2 4330   6.036   4.718   2.115
 1463TIP3   OH2 4331   5.266   6.095   6.469
 1463TIP3    H1 4332   5.356   6.068   6.454
 1463TIP3    H2 4333   5.249   6.073   6.561
 1464TIP3   OH2 4334   4.851   4.374   2.902
 1464TIP3    H1 4335   4.866   4.411   2.989
 1464TIP3    H2 4336   4.789   4.303   2.917
 1465TIP3   OH2 4337   6.304   1.671   4.599
 1465TIP3    H1 4338   6.266   1.584   4.587
 1465TIP3    H2 4339   6.274   1.698   4.686
 1466TIP3   OH2 4340   0.932   3.528   3.813
 1466TIP3    H1 4341   0.878   3.581   3.872
 1466TIP3    H2 4342   0.991   3.591   3.771
 1467TIP3   OH2 4343   0.410   0.199   1.208
 1467TIP3    H1 4344   0.476   0.245   1.259
 1467TIP3    H2 4345   0.353   0.159   1.274
 1468TIP3   OH2 4346   3.459   2.429   0.310
 1468TIP3    H1 4347   3.456   2.393   0.398
 1468TIP3    H2 4348   3.547   2.409   0.278
 1469TIP3   OH2 4349   1.483   7.561   5.688
 1469TIP3    H1 4350   1.391   7.548   5.708
 1469TIP3    H2 4351   1.488   7.648   5.649
 1470TIP3   OH2 4352   6.596   5.495   3.404
 1470TIP3    H1 4353   6.567   5.419   3.454
 1470TIP3    H2 4354   6.609   5.462   3.315
 1471TIP3   OH2 4355   6.410   1.504   0.360
 1471TIP3    H1 4356   6.488   1.450   0.374
 1471TIP3    H2 4357   6.439   1.571   0.299
 1472TIP3   OH2 4358   3.612   5.882   0.351
 1472TIP3    H1 4359   3.537   5.942   0.358
 1472TIP3    H2 4360   3.572   5.798   0.327
 1473TIP3   OH2 4361   7.521   0.180   2.162
 1473TIP3    H1 4362   7.585   0.112   2.139
 1473TIP3    H2 4363   7.451   0.169   2.098
 1474TIP3   OH2 4364   6.903   6.649   6.336
 1474TIP3    H1 4365   6.978   6.608   6.379
 1474TIP3    H2 4366   6.941   6.692   6.259
 1475TIP3   OH2 4367   4.622   0.967   3.095
 1475TIP3    H1 4368   4.535   0.990   3.126
 1475TIP3    H2 4369   4.676   0.965   3.175
 1476TIP3   OH2 4370   0.766   6.485   2.762
 1476TIP3    H1 4371   0.719   6.475   2.846
 1476TIP3    H2 4372   0.728   6.563   2.723
 1477TIP3   OH2 4373   4.963   0.933   4.800
 1477TIP3    H1 4374   4.951   0.972   4.713
 1477TIP3    H2 4375   4.879   0.894   4.822
 1478TIP3   OH2 4376   5.957   6.682   0.071
 1478TIP3    H1 4377   5.924   6.595   0.050
 1478TIP3    H2 4378   6.023   6.700   0.004
 1479TIP3   OH2 4379   6.835   5.618   0.413
 1479TIP3    H1 4380   6.813   5.596   0.503
 1479TIP3    H2 4381   6.930   5.628   0.414
 1480TIP3   OH2 4382   4.973   2.782   3.629
 1480TIP3    H1 4383   5.032   2.798   3.556
 1480TIP3    H2 4384   4.972   2.864   3.678
 1481TIP3   OH2 4385   5.206   2.873   5.165
 1481TIP3    H1 4386   5.167   2.944   5.216
 1481TIP3    H2 4387   5.294   2.905   5.144
 1482TIP3   OH2 4388   2.964   0.663   4.162
 1482TIP3    H1 4389   2.938   0.743   4.208
 1482TIP3    H2 4390   2.883   0.613   4.152
 1483TIP3   OH2 4391   2.006   2.632   2.871
 1483TIP3    H1 4392   2.043   2.544   2.863
 1483TIP3    H2 4393   2.082   2.690   2.866
 1484TIP3   OH2 4394   6.427   7.774   1.922
 1484TIP3    H1 4395   6.464   7.686   1.912
 1484TIP3    H2 4396   6.498   7.825   1.961
 1485TIP3   OH2 4397   4.046   2.819   0.551
 1485TIP3    H1 4398   4.007   2.822   0.638
 1485TIP3    H2 4399   4.140   2.803   0.567
 1486TIP3   OH2 4400   8.198   3.253   3.946
 1486TIP3    H1 4401   8.162   3.247   3.858
 1486TIP3    H2 4402   8.208   3.162   3.974
 1487TIP3   OH2 4403   3.649   3.781   0.941
 1487TIP3    H1 4404   3.693   3.707   0.983
 1487TIP3    H2 4405   3.718   3.845   0.926
 1488TIP3   OH2 4406   7.544   5.728   4.770
 1488TIP3    H1 4407   7.631   5.767   4.757
 1488TIP3    H2 4408   7.547   5.647   4.719
 1489TIP3   OH2 4409   6.112   2.400   1.188
 1489TIP3    H1 4410   6.139   2.446   1.267
 1489TIP3    H2 4411   6.098   2.469   1.123
 1490TIP3   OH2 4412   2.908   0.896   1.411
 1490TIP3    H1 4413   2.982   0.952   1.385
 1490TIP3    H2 4414   2.846   0.904   1.339
 1491TIP3   OH2 4415   7.456   7.136   0.225
 1491TIP3    H1 4416   7.430   7.186   0.302
 1491TIP3    H2 4417   7.388   7.153   0.160
 1492TIP3   OH2 4418   3.161   5.530   2.142
 1492TIP3    H1 4419   3.106   5.518   2.219
 1492TIP3    H2 4420   3.106   5.579   2.080
 1493TIP3   OH2 4421   5.432   1.689   6.534
 1493TIP3    H1 4422   5.367   1.714   6.469
 1493TIP3    H2 4423   5.453   1.597   6.514
 1494TIP3   OH2 4424   0.208   3.997   4.393
 1494TIP3    H1 4425   0.179   3.950   4.315
 1494TIP3    H2 4426   0.130   4.007   4.446
 1495TIP3   OH2 4427   0.144   2.132   6.188
 1495TIP3    H1 4428   0.172   2.158   6.276
 1495TIP3    H2 4429   0.049   2.130   6.192
 1496TIP3   OH2 4430   4.264   1.899   4.384
 1496TIP3    H1 4431   4.174   1.877   4.410
 1496TIP3    H2 4432   4.276   1.989   4.413
 1497TIP3   OH2 4433   1.482   2.164   2.599
 1497TIP3    H1 4434   1.396   2.137   2.569
 1497TIP3    H2 4435   1.470   2.187   2.691
 1498TIP3   OH2 4436   3.931   3.709   0.741
 1498TIP3    H1 4437   3.984   3.651   0.795
 1498TIP3    H2 4438   3.865   3.652   0.701
 1499TIP3   OH2 4439   7.417   5.525   6.105
 1499TIP3    H1 4440   7.362   5.446   6.112
 1499TIP3    H2 4441   7.373   5.578   6.038
 1500TIP3   OH2 4442   2.941   2.383   0.497
 1500TIP3    H1 4443   2.947   2.288   0.491
 1500TIP3    H2 4444   3.030   2.414   0.479
 1501TIP3   OH2 4445   1.420   6.994   0.390
 1501TIP3    H1 4446   1.357   6.957   0.451
 1501TIP3    H2 4447   1.445   7.078   0.428
 1502TIP3   OH2 4448   0.582   3.330   2.955
 1502TIP3    H1 4449   0.645   3.264   2.985
 1502TIP3    H2 4450   0.630   3.380   2.889
 1503TIP3   OH2 4451   4.310   0.517   4.751
 1503TIP3    H1 4452   4.389   0.467   4.771
 1503TIP3    H2 4453   4.314   0.531   4.656
 1504TIP3   OH2 4454   5.379   0.844   0.907
 1504TIP3    H1 4455   5.369   0.800   0.992
 1504TIP3    H2 4456   5.450   0.907   0.921
 1505TIP3   OH2 4457   6.378   6.700   4.868
 1505TIP3    H1 4458   6.366   6.766   4.799
 1505TIP3    H2 4459   6.472   6.701   4.885
 1506TIP3   OH2 4460   1.421   5.095   1.335
 1506TIP3    H1 4461   1.403   5.182   1.301
 1506TIP3    H2 4462   1.395   5.099   1.427
 1507TIP3   OH2 4463   5.995   5.962   3.466
 1507TIP3    H1 4464   6.050   5.899   3.420
 1507TIP3    H2 4465   6.055   6.033   3.490
 1508TIP3   OH2 4466   3.017   2.446   2.030
 1508TIP3    H1 4467   2.981   2.362   2.055
 1508TIP3    H2 4468   3.066   2.476   2.107
 1509TIP3   OH2 4469   7.260   1.810   0.212
 1509TIP3    H1 4470   7.213   1.863   0.148
 1509TIP3    H2 4471   7.213   1.824   0.294
 1510TIP3   OH2 4472   8.175   0.142   1.301
 1510TIP3    H1 4473   8.084   0.143   1.273
 1510TIP3    H2 4474   8.222   0.194   1.235
 1511TIP3   OH2 4475   6.205   7.691   0.710
 1511TIP3    H1 4476   6.138   7.707   0.776
 1511TIP3    H2 4477   6.207   7.770   0.657
 1512TIP3   OH2 4478   5.667   2.320   0.339
 1512TIP3    H1 4479   5.601   2.336   0.272
 1512TIP3    H2 4480   5.652   2.229   0.366
 1513TIP3   OH2 4481   1.775   2.224   5.973
 1513TIP3    H1 4482   1.708   2.289   5.953
 1513TIP3    H2 4483   1.789   2.177   5.891
 1514TIP3   OH2 4484   0.192   5.121   4.169
 1514TIP3    H1 4485   0.242   5.087   4.243
 1514TIP3    H2 4486   0.172   5.211   4.193
 1515TIP3   OH2 4487   2.834   7.719   6.392
 1515TIP3    H1 4488   2.786   7.802   6.403
 1515TIP3    H2 4489   2.771   7.652   6.420
 1516TIP3   OH2 4490   0.837   7.055   4.166
 1516TIP3    H1 4491   0.815   6.963   4.184
 1516TIP3    H2 4492   0.920   7.069   4.211
 1517TIP3   OH2 4493   4.175   5.042   5.317
 1517TIP3    H1 4494   4.249   4.990   5.284
 1517TIP3    H2 4495   4.130   5.071   5.238
 1518TIP3   OH2 4496   1.798   1.659   0.429
 1518TIP3    H1 4497   1.884   1.656   0.389
 1518TIP3    H2 4498   1.809   1.614   0.513
 1519TIP3   OH2 4499   2.656   6.734   5.997
 1519TIP3    H1 4500   2.577   6.734   6.051
 1519TIP3    H2 4501   2.706   6.810   6.027
 1520TIP3   OH2 4502   5.514   6.583   6.461
 1520TIP3    H1 4503   5.499   6.645   6.532
 1520TIP3    H2 4504   5.608   6.566   6.464
 1521TIP3   OH2 4505   5.220   0.292   2.632
 1521TIP3    H1 4506   5.263   0.300   2.717
 1521TIP3    H2 4507   5.214   0.198   2.616
 1522TIP3   OH2 4508   5.518   5.514   4.885
 1522TIP3    H1 4509   5.461   5.528   4.960
 1522TIP3    H2 4510   5.605   5.503   4.923
 1523TIP3   OH2 4511   8.179   3.311   6.036
 1523TIP3    H1 4512   8.239   3.266   6.096
 1523TIP3    H2 4513   8.236   3.347   5.968
 1524TIP3   OH2 4514   4.988   1.657   5.328
 1524TIP3    H1 4515   5.055   1.722   5.310
 1524TIP3    H2 4516   4.906   1.707   5.330
 1525TIP3   OH2 4517   0.674   2.196   3.069
 1525TIP3    H1 4518   0.594   2.203   3.017
 1525TIP3    H2 4519   0.734   2.145   3.015
 1526TIP3   OH2 4520   2.113   1.002   3.895
 1526TIP3    H1 4521   2.030   0.983   3.939
 1526TIP3    H2 4522   2.159   0.918   3.895
 1527TIP3   OH2 4523   5.756   1.823   0.101
 1527TIP3    H1 4524   5.752   1.728   0.112
 1527TIP3    H2 4525   5.771   1.836   0.007
 1528TIP3   OH2 4526   1.530   1.115   5.793
 1528TIP3    H1 4527   1.502   1.187   5.851
 1528TIP3    H2 4528   1.462   1.048   5.803
 1529TIP3   OH2 4529   3.995   3.791   6.250
 1529TIP3    H1 4530   4.083   3.828   6.244
 1529TIP3    H2 4531   3.967   3.781   6.158
 1530TIP3   OH2 4532   6.001   4.451   6.631
 1530TIP3    H1 4533   5.965   4.375   6.677
 1530TIP3    H2 4534   5.949   4.457   6.551
 1531TIP3   OH2 4535   3.019   6.626   1.933
 1531TIP3    H1 4536   3.085   6.640   2.001
 1531TIP3    H2 4537   3.070   6.619   1.852
 1532TIP3   OH2 4538   5.779   4.768   4.153
 1532TIP3    H1 4539   5.776   4.796   4.061
 1532TIP3    H2 4540   5.757   4.848   4.202
 1533TIP3   OH2 4541   7.252   4.704   0.155
 1533TIP3    H1 4542   7.187   4.725   0.222
 1533TIP3    H2 4543   7.201   4.690   0.075
 1534TIP3   OH2 4544   1.766   0.718   3.021
 1534TIP3    H1 4545   1.818   0.717   2.940
 1534TIP3    H2 4546   1.801   0.792   3.070
 1535TIP3   OH2 4547   4.014   1.610   3.059
 1535TIP3    H1 4548   3.928   1.568   3.061
 1535TIP3    H2 4549   4.002   1.688   3.004
 1536TIP3   OH2 4550   2.662   3.384   5.406
 1536TIP3    H1 4551   2.659   3.423   5.319
 1536TIP3    H2 4552   2.718   3.443   5.457
 1537TIP3   OH2 4553   3.155  -0.025   1.163
 1537TIP3    H1 4554   3.064  -0.006   1.139
 1537TIP3    H2 4555   3.187   0.055   1.204
 1538TIP3   OH2 4556   3.996   2.853   1.207
 1538TIP3    H1 4557   3.982   2.759   1.223
 1538TIP3    H2 4558   3.932   2.876   1.140
 1539TIP3   OH2 4559   1.567   2.554   0.474
 1539TIP3    H1 4560   1.498   2.616   0.451
 1539TIP3    H2 4561   1.548   2.476   0.422
 1540TIP3   OH2 4562   0.334   3.308   2.486
 1540TIP3    H1 4563   0.288   3.391   2.502
 1540TIP3    H2 4564   0.340   3.268   2.573
 1541TIP3   OH2 4565   4.548   7.707   1.916
 1541TIP3    H1 4566   4.518   7.622   1.882
 1541TIP3    H2 4567   4.520   7.709   2.007
 1542TIP3   OH2 4568   3.534   1.183   5.330
 1542TIP3    H1 4569   3.478   1.260   5.328
 1542TIP3    H2 4570   3.475   1.111   5.352
 1543TIP3   OH2 4571   7.361   0.351   2.332
 1543TIP3    H1 4572   7.413   0.292   2.277
 1543TIP3    H2 4573   7.279   0.362   2.284
 1544TIP3   OH2 4574   1.938   6.231   3.078
 1544TIP3    H1 4575   1.948   6.297   3.147
 1544TIP3    H2 4576   1.862   6.261   3.027
 1545TIP3   OH2 4577   0.948   5.499   4.637
 1545TIP3    H1 4578   0.937   5.478   4.729
 1545TIP3    H2 4579   0.999   5.426   4.602
 1546TIP3   OH2 4580   3.743   7.297   2.330
 1546TIP3    H1 4581   3.672   7.299   2.394
 1546TIP3    H2 4582   3.708   7.244   2.258
 1547TIP3   OH2 4583   7.218   2.852   2.507
 1547TIP3    H1 4584   7.126   2.868   2.485
 1547TIP3    H2 4585   7.247   2.786   2.444
 1548TIP3   OH2 4586   0.062   7.078   0.617
 1548TIP3    H1 4587  -0.007   7.067   0.552
 1548TIP3    H2 4588   0.023   7.135   0.684
 1549TIP3   OH2 4589   6.521   0.289   4.320
 1549TIP3    H1 4590   6.587   0.270   4.387
 1549TIP3    H2 4591   6.569   0.334   4.251
 1550TIP3   OH2 4592   3.450   3.737   5.836
 1550TIP3    H1 4593   3.503   3.661   5.815
 1550TIP3    H2 4594   3.367   3.700   5.866
 1551TIP3   OH2 4595   1.489   4.530   0.230
 1551TIP3    H1 4596   1.548   4.506   0.159
 1551TIP3    H2 4597   1.521   4.481   0.305
 1552TIP3   OH2 4598   4.737   6.046   0.490
 1552TIP3    H1 4599   4.707   6.128   0.530
 1552TIP3    H2 4600   4.703   6.049   0.401
 1553TIP3   OH2 4601   2.641   0.707   6.600
 1553TIP3    H1 4602   2.643   0.661   6.684
 1553TIP3    H2 4603   2.549   0.731   6.588
 1554TIP3   OH2 4604   6.702   6.977   1.939
 1554TIP3    H1 4605   6.659   6.897   1.969
 1554TIP3    H2 4606   6.705   7.033   2.017
 1555TIP3   OH2 4607   2.388   6.431   5.478
 1555TIP3    H1 4608   2.474   6.469   5.493
 1555TIP3    H2 4609   2.359   6.401   5.565
 1556TIP3   OH2 4610   2.059   4.637   3.425
 1556TIP3    H1 4611   2.135   4.691   3.401
 1556TIP3    H2 4612   2.081   4.603   3.512
 1557TIP3   OH2 4613   3.906   3.246   0.984
 1557TIP3    H1 4614   3.984   3.237   1.039
 1557TIP3    H2 4615   3.941   3.251   0.895
 1558TIP3   OH2 4616   6.129   3.813   4.951
 1558TIP3    H1 4617   6.126   3.781   5.041
 1558TIP3    H2 4618   6.219   3.796   4.923
 1559TIP3   OH2 4619   2.720   5.512   2.464
 1559TIP3    H1 4620   2.708   5.527   2.558
 1559TIP3    H2 4621   2.790   5.573   2.439
 1560TIP3   OH2 4622   7.957   3.731   1.637
 1560TIP3    H1 4623   7.913   3.652   1.667
 1560TIP3    H2 4624   8.046   3.703   1.616
 1561TIP3   OH2 4625   6.335   5.800   1.561
 1561TIP3    H1 4626   6.257   5.852   1.578
 1561TIP3    H2 4627   6.376   5.790   1.646
 1562TIP3   OH2 4628   6.556   5.942   4.187
 1562TIP3    H1 4629   6.575   5.976   4.274
 1562TIP3    H2 4630   6.472   5.982   4.164
 1563TIP3   OH2 4631   6.147   6.616   6.354
 1563TIP3    H1 4632   6.167   6.655   6.440
 1563TIP3    H2 4633   6.164   6.523   6.366
 1564TIP3   OH2 4634   6.979   1.416   1.948
 1564TIP3    H1 4635   7.064   1.378   1.966
 1564TIP3    H2 4636   6.950   1.374   1.867
 1565TIP3   OH2 4637   7.764   0.874   1.414
 1565TIP3    H1 4638   7.831   0.871   1.482
 1565TIP3    H2 4639   7.796   0.938   1.351
 1566TIP3   OH2 4640   3.505   6.479   6.775
 1566TIP3    H1 4641   3.432   6.430   6.813
 1566TIP3    H2 4642   3.562   6.412   6.738
 1567TIP3   OH2 4643   4.073   6.655   4.719
 1567TIP3    H1 4644   4.052   6.745   4.693
 1567TIP3    H2 4645   3.990   6.620   4.753
 1568TIP3   OH2 4646   5.899   6.843   2.539
 1568TIP3    H1 4647   5.836   6.773   2.523
 1568TIP3    H2 4648   5.857   6.898   2.605
 1569TIP3   OH2 4649   1.730   4.596   5.080
 1569TIP3    H1 4650   1.788   4.522   5.060
 1569TIP3    H2 4651   1.642   4.564   5.058
 1570TIP3   OH2 4652   8.160   7.581   2.250
 1570TIP3    H1 4653   8.219   7.589   2.175
 1570TIP3    H2 4654   8.123   7.493   2.242
 1571TIP3   OH2 4655   3.731   3.375   6.112
 1571TIP3    H1 4656   3.774   3.360   6.028
 1571TIP3    H2 4657   3.657   3.315   6.112
 1572TIP3   OH2 4658   0.494   7.720   4.041
 1572TIP3    H1 4659   0.399   7.728   4.042
 1572TIP3    H2 4660   0.516   7.689   3.953
 1573TIP3   OH2 4661   2.482   4.863   2.238
 1573TIP3    H1 4662   2.391   4.834   2.233
 1573TIP3    H2 4663   2.487   4.913   2.319
 1574TIP3   OH2 4664   3.971   0.521   5.577
 1574TIP3    H1 4665   3.907   0.451   5.561
 1574TIP3    H2 4666   4.010   0.538   5.491
 1575TIP3   OH2 4667   4.791   3.571   3.368
 1575TIP3    H1 4668   4.776   3.553   3.461
 1575TIP3    H2 4669   4.739   3.650   3.350
 1576TIP3   OH2 4670   7.681   1.756   3.388
 1576TIP3    H1 4671   7.634   1.704   3.323
 1576TIP3    H2 4672   7.754   1.701   3.415
 1577TIP3   OH2 4673   8.255   7.648   0.046
 1577TIP3    H1 4674   8.276   7.626  -0.045
 1577TIP3    H2 4675   8.310   7.589   0.098
 1578TIP3   OH2 4676   1.509   5.485   4.328
 1578TIP3    H1 4677   1.541   5.533   4.404
 1578TIP3    H2 4678   1.558   5.522   4.254
 1579TIP3   OH2 4679   2.495   6.820   6.187
 1579TIP3    H1 4680   2.435   6.885   6.149
 1579TIP3    H2 4681   2.552   6.871   6.244
 1580TIP3   OH2 4682   2.016   4.613   1.651
 1580TIP3    H1 4683   1.988   4.524   1.673
 1580TIP3    H2 4684   1.934   4.659   1.629
 1581TIP3   OH2 4685   6.335   6.237   3.786
 1581TIP3    H1 4686   6.316   6.153   3.746
 1581TIP3    H2 4687   6.424   6.258   3.758
 1582TIP3   OH2 4688   3.666   1.211   2.574
 1582TIP3    H1 4689   3.645   1.271   2.645
 1582TIP3    H2 4690   3.655   1.124   2.612
 1583TIP3   OH2 4691   2.792   6.344   3.417
 1583TIP3    H1 4692   2.744   6.333   3.499
 1583TIP3    H2 4693   2.865   6.282   3.422
 1584TIP3   OH2 4694   1.875   5.925   1.392
 1584TIP3    H1 4695   1.904   6.000   1.340
 1584TIP3    H2 4696   1.851   5.963   1.477
 1585TIP3   OH2 4697   0.330   4.866   4.140
 1585TIP3    H1 4698   0.272   4.939   4.123
 1585TIP3    H2 4699   0.271   4.793   4.162
 1586TIP3   OH2 4700   4.338   4.390   5.686
 1586TIP3    H1 4701   4.286   4.452   5.635
 1586TIP3    H2 4702   4.381   4.443   5.752
 1587TIP3   OH2 4703   2.116   4.765   1.233
 1587TIP3    H1 4704   2.049   4.814   1.280
 1587TIP3    H2 4705   2.085   4.762   1.142
 1588TIP3   OH2 4706   2.491   0.476   4.395
 1588TIP3    H1 4707   2.436   0.553   4.392
 1588TIP3    H2 4708   2.528   0.468   4.307
 1589TIP3   OH2 4709   2.851   4.258   2.654
 1589TIP3    H1 4710   2.856   4.345   2.614
 1589TIP3    H2 4711   2.784   4.212   2.604
 1590TIP3   OH2 4712   8.291   0.031   3.441
 1590TIP3    H1 4713   8.322   0.073   3.522
 1590TIP3    H2 4714   8.196   0.045   3.442
 1591TIP3   OH2 4715   6.167   6.431   0.740
 1591TIP3    H1 4716   6.240   6.441   0.801
 1591TIP3    H2 4717   6.098   6.390   0.792
 1592TIP3   OH2 4718   1.633   0.613   2.210
 1592TIP3    H1 4719   1.618   0.686   2.270
 1592TIP3    H2 4720   1.710   0.568   2.245
 1593TIP3   OH2 4721   3.424   2.447   4.133
 1593TIP3    H1 4722   3.421   2.401   4.217
 1593TIP3    H2 4723   3.517   2.454   4.112
 1594TIP3   OH2 4724   6.935   0.042   1.917
 1594TIP3    H1 4725   6.860   0.010   1.867
 1594TIP3    H2 4726   6.988   0.088   1.852
 1595TIP3   OH2 4727   0.926   0.399   2.322
 1595TIP3    H1 4728   0.884   0.344   2.387
 1595TIP3    H2 4729   0.896   0.364   2.238
 1596TIP3   OH2 4730   6.703   1.531   2.555
 1596TIP3    H1 4731   6.787   1.578   2.547
 1596TIP3    H2 4732   6.721   1.461   2.618
 1597TIP3   OH2 4733   0.368   0.363   1.843
 1597TIP3    H1 4734   0.292   0.305   1.855
 1597TIP3    H2 4735   0.333   0.451   1.861
 1598TIP3   OH2 4736   0.245   2.651   6.493
 1598TIP3    H1 4737   0.168   2.690   6.534
 1598TIP3    H2 4738   0.249   2.692   6.407
 1599TIP3   OH2 4739   4.520   6.778   2.796
 1599TIP3    H1 4740   4.562   6.772   2.882
 1599TIP3    H2 4741   4.432   6.811   2.814
 1600TIP3   OH2 4742   7.404   6.804   1.526
 1600TIP3    H1 4743   7.327   6.795   1.581
 1600TIP3    H2 4744   7.440   6.715   1.521
 1601TIP3   OH2 4745   2.333   0.538   2.249
 1601TIP3    H1 4746   2.334   0.493   2.333
 1601TIP3    H2 4747   2.423   0.568   2.237
 1602TIP3   OH2 4748   5.355   6.597   5.608
 1602TIP3    H1 4749   5.339   6.502   5.608
 1602TIP3    H2 4750   5.437   6.607   5.658
 1603TIP3   OH2 4751   6.321   4.432   5.750
 1603TIP3    H1 4752   6.242   4.486   5.752
 1603TIP3    H2 4753   6.372   4.463   5.824
 1604TIP3   OH2 4754   7.246   3.777   5.877
 1604TIP3    H1 4755   7.281   3.844   5.819
 1604TIP3    H2 4756   7.251   3.696   5.826
 1605TIP3   OH2 4757   3.167   4.651   3.849
 1605TIP3    H1 4758   3.185   4.703   3.928
 1605TIP3    H2 4759   3.072   4.639   3.849
 1606TIP3   OH2 4760   5.614   6.524   0.391
 1606TIP3    H1 4761   5.611   6.569   0.306
 1606TIP3    H2 4762   5.568   6.583   0.451
 1607TIP3   OH2 4763   4.120   4.351   0.081
 1607TIP3    H1 4764   4.179   4.282   0.110
 1607TIP3    H2 4765   4.168   4.397   0.012
 1608TIP3   OH2 4766   8.138   0.219   5.703
 1608TIP3    H1 4767   8.131   0.314   5.701
 1608TIP3    H2 4768   8.217   0.200   5.652
 1609TIP3   OH2 4769   5.509   7.448   6.295
 1609TIP3    H1 4770   5.434   7.485   6.248
 1609TIP3    H2 4771   5.483   7.451   6.387
 1610TIP3   OH2 4772   6.968   5.817   3.044
 1610TIP3    H1 4773   7.030   5.858   2.984
 1610TIP3    H2 4774   7.006   5.732   3.065
 1611TIP3   OH2 4775   6.931   5.830   5.472
 1611TIP3    H1 4776   6.920   5.836   5.567
 1611TIP3    H2 4777   6.965   5.741   5.458
 1612TIP3   OH2 4778   1.612   2.954   2.039
 1612TIP3    H1 4779   1.635   3.034   2.086
 1612TIP3    H2 4780   1.646   2.883   2.093
 1613TIP3   OH2 4781   2.212   4.035   5.541
 1613TIP3    H1 4782   2.219   3.967   5.607
 1613TIP3    H2 4783   2.157   3.997   5.473
 1614TIP3   OH2 4784   1.784   7.411   4.014
 1614TIP3    H1 4785   1.695   7.446   4.010
 1614TIP3    H2 4786   1.830   7.472   4.073
 1615TIP3   OH2 4787   6.209   2.150   1.155
 1615TIP3    H1 4788   6.187   2.135   1.063
 1615TIP3    H2 4789   6.182   2.241   1.171
 1616TIP3   OH2 4790   5.712   7.640   4.372
 1616TIP3    H1 4791   5.697   7.679   4.458
 1616TIP3    H2 4792   5.750   7.554   4.391
 1617TIP3   OH2 4793   4.345   6.775   6.482
 1617TIP3    H1 4794   4.349   6.684   6.513
 1617TIP3    H2 4795   4.436   6.801   6.470
 1618TIP3   OH2 4796   3.461   7.183   1.050
 1618TIP3    H1 4797   3.479   7.160   0.959
 1618TIP3    H2 4798   3.391   7.123   1.077
 1619TIP3   OH2 4799   1.213   0.274   1.774
 1619TIP3    H1 4800   1.219   0.353   1.721
 1619TIP3    H2 4801   1.132   0.231   1.745
 1620TIP3   OH2 4802   0.333   7.525   3.371
 1620TIP3    H1 4803   0.280   7.580   3.314
 1620TIP3    H2 4804   0.301   7.544   3.459
 1621TIP3   OH2 4805   3.556   2.332   2.466
 1621TIP3    H1 4806   3.609   2.335   2.545
 1621TIP3    H2 4807   3.465   2.334   2.497
 1622TIP3   OH2 4808   0.024   0.817   0.085
 1622TIP3    H1 4809   0.094   0.822   0.021
 1622TIP3    H2 4810   0.025   0.726   0.115
 1623TIP3   OH2 4811   1.239   3.191   4.225
 1623TIP3    H1 4812   1.149   3.206   4.195
 1623TIP3    H2 4813   1.238   3.101   4.258
 1624TIP3   OH2 4814   3.954   0.119   6.535
 1624TIP3    H1 4815   4.008   0.073   6.471
 1624TIP3    H2 4816   3.959   0.065   6.614
 1625TIP3   OH2 4817   1.905   4.274   2.551
 1625TIP3    H1 4818   1.995   4.298   2.528
 1625TIP3    H2 4819   1.857   4.357   2.548
 1626TIP3   OH2 4820   7.903   2.555   3.622
 1626TIP3    H1 4821   7.960   2.517   3.555
 1626TIP3    H2 4822   7.923   2.505   3.701
 1627TIP3   OH2 4823   7.037   0.532   2.541
 1627TIP3    H1 4824   7.053   0.560   2.451
 1627TIP3    H2 4825   7.124   0.535   2.582
 1628TIP3   OH2 4826   0.687   5.836   2.219
 1628TIP3    H1 4827   0.664   5.905   2.157
 1628TIP3    H2 4828   0.739   5.774   2.167
 1629TIP3   OH2 4829   7.249   2.219   5.302
 1629TIP3    H1 4830   7.263   2.312   5.314
 1629TIP3    H2 4831   7.293   2.178   5.376
 1630TIP3   OH2 4832   0.451   4.830   1.023
 1630TIP3    H1 4833   0.495   4.747   1.045
 1630TIP3    H2 4834   0.491   4.894   1.082
 1631TIP3   OH2 4835   6.813   1.530   3.525
 1631TIP3    H1 4836   6.813   1.437   3.502
 1631TIP3    H2 4837   6.722   1.550   3.545
 1632TIP3   OH2 4838   5.740   0.801   3.696
 1632TIP3    H1 4839   5.747   0.730   3.633
 1632TIP3    H2 4840   5.675   0.771   3.760
 1633TIP3   OH2 4841   7.972   4.123   2.443
 1633TIP3    H1 4842   7.908   4.081   2.385
 1633TIP3    H2 4843   7.919   4.178   2.501
 1634TIP3   OH2 4844   5.900   2.884   5.734
 1634TIP3    H1 4845   5.815   2.904   5.694
 1634TIP3    H2 4846   5.897   2.790   5.752
 1635TIP3   OH2 4847   6.774   0.351   0.655
 1635TIP3    H1 4848   6.820   0.318   0.732
 1635TIP3    H2 4849   6.732   0.432   0.684
 1636TIP3   OH2 4850   5.992   5.217   2.598
 1636TIP3    H1 4851   5.906   5.201   2.637
 1636TIP3    H2 4852   5.972   5.241   2.507
 1637TIP3   OH2 4853   0.304   4.996   3.151
 1637TIP3    H1 4854   0.370   4.957   3.208
 1637TIP3    H2 4855   0.235   4.930   3.145
 1638TIP3   OH2 4856   6.530   1.478   2.836
 1638TIP3    H1 4857   6.522   1.388   2.804
 1638TIP3    H2 4858   6.440   1.510   2.839
 1639TIP3   OH2 4859   7.252   1.174   2.341
 1639TIP3    H1 4860   7.203   1.170   2.423
 1639TIP3    H2 4861   7.301   1.092   2.338
 1640TIP3   OH2 4862   2.745   3.874   3.221
 1640TIP3    H1 4863   2.695   3.865   3.303
 1640TIP3    H2 4864   2.807   3.801   3.223
 1641TIP3   OH2 4865   6.129   6.406   0.116
 1641TIP3    H1 4866   6.129   6.497   0.143
 1641TIP3    H2 4867   6.139   6.409   0.021
 1642TIP3   OH2 4868   5.270   6.250   1.126
 1642TIP3    H1 4869   5.256   6.155   1.127
 1642TIP3    H2 4870   5.276   6.275   1.218
 1643TIP3   OH2 4871   4.640   6.289   0.504
 1643TIP3    H1 4872   4.611   6.339   0.427
 1643TIP3    H2 4873   4.723   6.328   0.529
 1644TIP3   OH2 4874   2.875   7.152   6.385
 1644TIP3    H1 4875   2.895   7.229   6.438
 1644TIP3    H2 4876   2.938   7.087   6.412
 1645TIP3   OH2 4877   6.497   7.631   0.751
 1645TIP3    H1 4878   6.408   7.665   0.746
 1645TIP3    H2 4879   6.491   7.544   0.712
 1646TIP3   OH2 4880   1.458   3.623   3.817
 1646TIP3    H1 4881   1.500   3.704   3.788
 1646TIP3    H2 4882   1.477   3.618   3.911
 1647TIP3   OH2 4883   6.515   2.462   2.328
 1647TIP3    H1 4884   6.594   2.499   2.287
 1647TIP3    H2 4885   6.446   2.475   2.263
 1648TIP3   OH2 4886   2.795   3.759   1.557
 1648TIP3    H1 4887   2.760   3.835   1.509
 1648TIP3    H2 4888   2.833   3.703   1.490
 1649TIP3   OH2 4889   5.621   1.552   3.098
 1649TIP3    H1 4890   5.592   1.509   3.018
 1649TIP3    H2 4891   5.677   1.623   3.068
 1650TIP3   OH2 4892   0.451   7.745   1.892
 1650TIP3    H1 4893   0.425   7.712   1.806
 1650TIP3    H2 4894   0.420   7.836   1.893
 1651TIP3   OH2 4895   3.053   1.794   5.360
 1651TIP3    H1 4896   3.140   1.780   5.400
 1651TIP3    H2 4897   3.060   1.756   5.273
 1652TIP3   OH2 4898   6.728   3.249   0.457
 1652TIP3    H1 4899   6.647   3.211   0.422
 1652TIP3    H2 4900   6.707   3.341   0.473
 1653TIP3   OH2 4901   1.091   3.182   6.240
 1653TIP3    H1 4902   1.134   3.219   6.317
 1653TIP3    H2 4903   1.138   3.100   6.223
 1654TIP3   OH2 4904   3.085   5.628   0.319
 1654TIP3    H1 4905   3.062   5.607   0.410
 1654TIP3    H2 4906   3.035   5.566   0.267
 1655TIP3   OH2 4907   4.430   3.296   2.949
 1655TIP3    H1 4908   4.415   3.355   2.875
 1655TIP3    H2 4909   4.348   3.296   2.997
 1656TIP3   OH2 4910   3.178   2.713   2.837
 1656TIP3    H1 4911   3.152   2.740   2.925
 1656TIP3    H2 4912   3.249   2.772   2.813
 1657TIP3   OH2 4913   8.123   5.265   2.234
 1657TIP3    H1 4914   8.186   5.320   2.280
 1657TIP3    H2 4915   8.175   5.214   2.172
 1658TIP3   OH2 4916   6.122   6.005   1.056
 1658TIP3    H1 4917   6.030   6.018   1.081
 1658TIP3    H2 4918   6.120   5.995   0.961
 1659TIP3   OH2 4919   5.101   1.890   6.626
 1659TIP3    H1 4920   5.187   1.883   6.586
 1659TIP3    H2 4921   5.056   1.809   6.601
 1660TIP3   OH2 4922   0.956   7.209   5.793
 1660TIP3    H1 4923   0.978   7.116   5.786
 1660TIP3    H2 4924   0.879   7.211   5.851
 1661TIP3   OH2 4925   7.711   3.216   2.117
 1661TIP3    H1 4926   7.664   3.249   2.194
 1661TIP3    H2 4927   7.779   3.159   2.152
 1662TIP3   OH2 4928   2.652   6.188   0.660
 1662TIP3    H1 4929   2.582   6.235   0.613
 1662TIP3    H2 4930   2.669   6.111   0.605
 1663TIP3   OH2 4931   3.386   0.740   0.818
 1663TIP3    H1 4932   3.405   0.651   0.847
 1663TIP3    H2 4933   3.361   0.730   0.726
 1664TIP3   OH2 4934   8.025   7.781   0.283
 1664TIP3    H1 4935   7.972   7.812   0.210
 1664TIP3    H2 4936   8.008   7.687   0.288
 1665TIP3   OH2 4937   0.895   1.347   0.669
 1665TIP3    H1 4938   0.967   1.315   0.724
 1665TIP3    H2 4939   0.937   1.377   0.589
 1666TIP3   OH2 4940   4.170   3.277   4.208
 1666TIP3    H1 4941   4.161   3.347   4.143
 1666TIP3    H2 4942   4.132   3.200   4.165
 1667TIP3   OH2 4943   1.129   3.484   1.724
 1667TIP3    H1 4944   1.042   3.465   1.689
 1667TIP3    H2 4945   1.175   3.400   1.721
 1668TIP3   OH2 4946   8.289   7.603   2.013
 1668TIP3    H1 4947   8.354   7.577   1.948
 1668TIP3    H2 4948   8.234   7.667   1.968
 1669TIP3   OH2 4949   1.580   0.894   3.553
 1669TIP3    H1 4950   1.617   0.936   3.630
 1669TIP3    H2 4951   1.636   0.922   3.481
 1670TIP3   OH2 4952   8.065   7.572   3.727
 1670TIP3    H1 4953   8.030   7.656   3.758
 1670TIP3    H2 4954   7.989   7.514   3.724
 1671TIP3   OH2 4955   0.833   2.369   1.186
 1671TIP3    H1 4956   0.799   2.434   1.125
 1671TIP3    H2 4957   0.766   2.364   1.255
 1672TIP3   OH2 4958   1.724   0.574   3.277
 1672TIP3    H1 4959   1.634   0.603   3.294
 1672TIP3    H2 4960   1.742   0.604   3.188
 1673TIP3   OH2 4961   7.220   4.768   0.932
 1673TIP3    H1 4962   7.225   4.682   0.890
 1673TIP3    H2 4963   7.144   4.762   0.990
 1674TIP3   OH2 4964  -0.059   5.472   6.104
 1674TIP3    H1 4965   0.014   5.483   6.165
 1674TIP3    H2 4966  -0.051   5.546   6.043
 1675TIP3   OH2 4967   2.776   7.091   2.856
 1675TIP3    H1 4968   2.703   7.039   2.889
 1675TIP3    H2 4969   2.834   7.101   2.931
 1676TIP3   OH2 4970   3.423   3.876   0.802
 1676TIP3    H1 4971   3.356   3.879   0.870
 1676TIP3    H2 4972   3.501   3.842   0.847
 1677TIP3   OH2 4973   5.085   2.351   6.168
 1677TIP3    H1 4974   5.135   2.276   6.134
 1677TIP3    H2 4975   5.151   2.417   6.189
 1678TIP3   OH2 4976   0.916   7.169   3.612
 1678TIP3    H1 4977   0.864   7.171   3.693
 1678TIP3    H2 4978   0.887   7.090   3.567
 1679TIP3   OH2 4979   5.024   0.038   6.299
 1679TIP3    H1 4980   5.016   0.123   6.257
 1679TIP3    H2 4981   4.962  -0.018   6.252
 1680TIP3   OH2 4982   7.082   0.655   3.635
 1680TIP3    H1 4983   7.084   0.677   3.542
 1680TIP3    H2 4984   7.022   0.718   3.673
 1681TIP3   OH2 4985   0.027   4.383   4.971
 1681TIP3    H1 4986   0.102   4.409   4.917
 1681TIP3    H2 4987   0.044   4.425   5.056
 1682TIP3   OH2 4988   8.226   5.606   0.766
 1682TIP3    H1 4989   8.204   5.595   0.859
 1682TIP3    H2 4990   8.316   5.572   0.759
 1683TIP3   OH2 4991   4.744   7.747   0.319
 1683TIP3    H1 4992   4.662   7.739   0.368
 1683TIP3    H2 4993   4.811   7.716   0.378
 1684TIP3   OH2 4994   7.440   4.405   0.419
 1684TIP3    H1 4995   7.401   4.418   0.332
 1684TIP3    H2 4996   7.466   4.314   0.420
 1685TIP3   OH2 4997   0.097   6.160   0.479
 1685TIP3    H1 4998   0.091   6.108   0.559
 1685TIP3    H2 4999   0.048   6.110   0.414
 1686TIP3   OH2 5000   5.101   6.778   2.589
 1686TIP3    H1 5001   5.108   6.802   2.497
 1686TIP3    H2 5002   5.152   6.845   2.635
 1687TIP3   OH2 5003   2.179   3.656   5.228
 1687TIP3    H1 5004   2.240   3.713   5.181
 1687TIP3    H2 5005   2.213   3.567   5.213
 1688TIP3   OH2 5006   3.983   0.361   6.685
 1688TIP3    H1 5007   3.924   0.312   6.628
 1688TIP3    H2 5008   3.971   0.321   6.772
 1689TIP3   OH2 5009   1.825   6.490   1.717
 1689TIP3    H1 5010   1.837   6.485   1.812
 1689TIP3    H2 5011   1.839   6.583   1.696
 1690TIP3   OH2 5012   7.750   1.842   5.515
 1690TIP3    H1 5013   7.659   1.830   5.486
 1690TIP3    H2 5014   7.756   1.792   5.596
 1691TIP3   OH2 5015   7.518   2.315   6.714
 1691TIP3    H1 5016   7.605   2.351   6.729
 1691TIP3    H2 5017   7.458   2.381   6.751
 1692TIP3   OH2 5018   6.299   2.177   0.150
 1692TIP3    H1 5019   6.252   2.219   0.222
 1692TIP3    H2 5020   6.230   2.158   0.086
 1693TIP3   OH2 5021   4.137   1.838   5.003
 1693TIP3    H1 5022   4.089   1.913   5.039
 1693TIP3    H2 5023   4.138   1.853   4.909
 1694TIP3   OH2 5024   0.340   6.890   6.014
 1694TIP3    H1 5025   0.311   6.863   6.101
 1694TIP3    H2 5026   0.314   6.819   5.956
 1695TIP3   OH2 5027   2.197   1.795   4.901
 1695TIP3    H1 5028   2.125   1.763   4.955
 1695TIP3    H2 5029   2.155   1.846   4.832
 1696TIP3   OH2 5030   0.154   2.596   1.285
 1696TIP3    H1 5031   0.088   2.619   1.220
 1696TIP3    H2 5032   0.158   2.672   1.343
 1697TIP3   OH2 5033   7.183   1.294   0.931
 1697TIP3    H1 5034   7.108   1.242   0.960
 1697TIP3    H2 5035   7.254   1.229   0.922
 1698TIP3   OH2 5036   1.155   4.152   1.085
 1698TIP3    H1 5037   1.159   4.125   1.177
 1698TIP3    H2 5038   1.103   4.084   1.042
 1699TIP3   OH2 5039   4.156   6.713   2.689
 1699TIP3    H1 5040   4.187   6.636   2.643
 1699TIP3    H2 5041   4.061   6.703   2.692
 1700TIP3   OH2 5042   2.218   2.279   6.770
 1700TIP3    H1 5043   2.137   2.234   6.794
 1700TIP3    H2 5044   2.190   2.367   6.744
 1701TIP3   OH2 5045   7.069   5.967   2.007
 1701TIP3    H1 5046   7.080   6.048   1.957
 1701TIP3    H2 5047   7.057   5.899   1.941
 1702TIP3   OH2 5048   8.000   2.097   3.814
 1702TIP3    H1 5049   7.964   2.017   3.777
 1702TIP3    H2 5050   8.066   2.126   3.751
 1703TIP3   OH2 5051   1.493   7.269   0.266
 1703TIP3    H1 5052   1.506   7.331   0.338
 1703TIP3    H2 5053   1.553   7.196   0.286
 1704TIP3   OH2 5054   8.111   1.140   2.310
 1704TIP3    H1 5055   8.167   1.107   2.380
 1704TIP3    H2 5056   8.058   1.065   2.284
 1705TIP3   OH2 5057   2.027   7.344   2.091
 1705TIP3    H1 5058   2.120   7.363   2.078
 1705TIP3    H2 5059   2.001   7.298   2.011
 1706TIP3   OH2 5060   5.602   1.541   0.777
 1706TIP3    H1 5061   5.674   1.493   0.817
 1706TIP3    H2 5062   5.600   1.625   0.823
 1707TIP3   OH2 5063   0.980   7.056   1.343
 1707TIP3    H1 5064   0.971   7.046   1.437
 1707TIP3    H2 5065   0.903   7.107   1.316
 1708TIP3   OH2 5066   8.156   0.211   4.637
 1708TIP3    H1 5067   8.111   0.291   4.664
 1708TIP3    H2 5068   8.245   0.220   4.672
 1709TIP3   OH2 5069   0.370   1.595   2.705
 1709TIP3    H1 5070   0.318   1.592   2.786
 1709TIP3    H2 5071   0.461   1.592   2.735
 1710TIP3   OH2 5072   6.213   6.997   0.341
 1710TIP3    H1 5073   6.268   6.959   0.272
 1710TIP3    H2 5074   6.133   7.024   0.297
 1711TIP3   OH2 5075   1.126   3.975   0.189
 1711TIP3    H1 5076   1.149   3.999   0.099
 1711TIP3    H2 5077   1.099   3.883   0.183
 1712TIP3   OH2 5078   2.280   2.671   1.340
 1712TIP3    H1 5079   2.333   2.660   1.261
 1712TIP3    H2 5080   2.214   2.735   1.315
 1713TIP3   OH2 5081   4.897   3.677   2.813
 1713TIP3    H1 5082   4.928   3.747   2.757
 1713TIP3    H2 5083   4.907   3.710   2.902
 1714TIP3   OH2 5084   4.384   6.053   5.278
 1714TIP3    H1 5085   4.359   5.971   5.322
 1714TIP3    H2 5086   4.463   6.030   5.229
 1715TIP3   OH2 5087   7.416   4.924   2.634
 1715TIP3    H1 5088   7.376   4.928   2.546
 1715TIP3    H2 5089   7.422   4.831   2.653
 1716TIP3   OH2 5090   6.261   0.146   0.323
 1716TIP3    H1 5091   6.275   0.197   0.244
 1716TIP3    H2 5092   6.165   0.143   0.333
 1717TIP3   OH2 5093   2.632   0.127   1.727
 1717TIP3    H1 5094   2.610   0.041   1.761
 1717TIP3    H2 5095   2.549   0.164   1.697
 1718TIP3   OH2 5096   7.484   0.958   2.753
 1718TIP3    H1 5097   7.523   0.957   2.840
 1718TIP3    H2 5098   7.558   0.953   2.693
 1719TIP3   OH2 5099   2.367   0.470   0.688
 1719TIP3    H1 5100   2.375   0.552   0.737
 1719TIP3    H2 5101   2.374   0.402   0.754
 1720TIP3   OH2 5102   2.477   3.902   5.878
 1720TIP3    H1 5103   2.422   3.968   5.920
 1720TIP3    H2 5104   2.535   3.953   5.821
 1721TIP3   OH2 5105   3.397   0.033   3.337
 1721TIP3    H1 5106   3.449   0.073   3.267
 1721TIP3    H2 5107   3.324  -0.010   3.291
 1722TIP3   OH2 5108   1.012   4.264   3.332
 1722TIP3    H1 5109   1.095   4.304   3.358
 1722TIP3    H2 5110   0.980   4.221   3.411
 1723TIP3   OH2 5111   6.723   0.148   0.478
 1723TIP3    H1 5112   6.631   0.126   0.487
 1723TIP3    H2 5113   6.736   0.223   0.536
 1724TIP3   OH2 5114   0.119   4.963   5.673
 1724TIP3    H1 5115   0.201   4.915   5.665
 1724TIP3    H2 5116   0.067   4.936   5.598
 1725TIP3   OH2 5117   4.801   2.161   4.325
 1725TIP3    H1 5118   4.727   2.117   4.282
 1725TIP3    H2 5119   4.870   2.094   4.328
 1726TIP3   OH2 5120   5.743   2.184   3.502
 1726TIP3    H1 5121   5.826   2.157   3.464
 1726TIP3    H2 5122   5.767   2.227   3.584
 1727TIP3   OH2 5123   7.846   1.678   1.209
 1727TIP3    H1 5124   7.829   1.724   1.291
 1727TIP3    H2 5125   7.934   1.705   1.184
 1728TIP3   OH2 5126   6.701   1.156   2.880
 1728TIP3    H1 5127   6.688   1.063   2.899
 1728TIP3    H2 5128   6.623   1.182   2.833
 1729TIP3   OH2 5129   1.392   4.879   3.927
 1729TIP3    H1 5130   1.417   4.787   3.934
 1729TIP3    H2 5131   1.353   4.899   4.012
 1730TIP3   OH2 5132   2.726   0.125   3.452
 1730TIP3    H1 5133   2.764   0.067   3.518
 1730TIP3    H2 5134   2.729   0.212   3.492
 1731TIP3   OH2 5135   0.742   5.856   4.431
 1731TIP3    H1 5136   0.715   5.937   4.387
 1731TIP3    H2 5137   0.822   5.881   4.478
 1732TIP3   OH2 5138   5.785   4.775   2.377
 1732TIP3    H1 5139   5.753   4.692   2.412
 1732TIP3    H2 5140   5.803   4.758   2.285
 1733TIP3   OH2 5141   2.143   1.288   4.867
 1733TIP3    H1 5142   2.181   1.264   4.951
 1733TIP3    H2 5143   2.093   1.368   4.885
 1734TIP3   OH2 5144   2.305   1.702   3.346
 1734TIP3    H1 5145   2.244   1.767   3.380
 1734TIP3    H2 5146   2.297   1.707   3.251
 1735TIP3   OH2 5147   8.179   2.853   1.195
 1735TIP3    H1 5148   8.085   2.868   1.202
 1735TIP3    H2 5149   8.218   2.940   1.209
 1736TIP3   OH2 5150   6.253   6.064   1.310
 1736TIP3    H1 5151   6.199   6.045   1.386
 1736TIP3    H2 5152   6.202   6.031   1.236
 1737TIP3   OH2 5153   4.052   4.804   2.180
 1737TIP3    H1 5154   4.125   4.745   2.203
 1737TIP3    H2 5155   4.090   4.891   2.182
 1738TIP3   OH2 5156   3.563   7.139   2.851
 1738TIP3    H1 5157   3.531   7.224   2.880
 1738TIP3    H2 5158   3.500   7.076   2.886
 1739TIP3   OH2 5159   4.695   4.217   3.870
 1739TIP3    H1 5160   4.626   4.272   3.834
 1739TIP3    H2 5161   4.658   4.180   3.949
 1740TIP3   OH2 5162   1.328   3.009   3.739
 1740TIP3    H1 5163   1.287   2.992   3.655
 1740TIP3    H2 5164   1.317   3.104   3.752
 1741TIP3   OH2 5165   3.277   7.243   3.347
 1741TIP3    H1 5166   3.338   7.244   3.421
 1741TIP3    H2 5167   3.202   7.193   3.378
 1742TIP3   OH2 5168   7.268   7.302   6.357
 1742TIP3    H1 5169   7.203   7.233   6.373
 1742TIP3    H2 5170   7.225   7.361   6.295
 1743TIP3   OH2 5171   2.842   5.686   4.341
 1743TIP3    H1 5172   2.782   5.619   4.375
 1743TIP3    H2 5173   2.832   5.681   4.246
 1744TIP3   OH2 5174   7.973   7.386   0.494
 1744TIP3    H1 5175   7.954   7.436   0.414
 1744TIP3    H2 5176   7.890   7.383   0.541
 1745TIP3   OH2 5177   4.398   6.428   3.021
 1745TIP3    H1 5178   4.451   6.492   3.068
 1745TIP3    H2 5179   4.309   6.465   3.022
 1746TIP3   OH2 5180   6.248   7.017   4.633
 1746TIP3    H1 5181   6.216   6.935   4.672
 1746TIP3    H2 5182   6.343   7.010   4.638
 1747TIP3   OH2 5183   3.011   1.323   0.101
 1747TIP3    H1 5184   2.955   1.394   0.070
 1747TIP3    H2 5185   2.989   1.249   0.045
 1748TIP3   OH2 5186   6.055   1.631   4.207
 1748TIP3    H1 5187   6.129   1.572   4.194
 1748TIP3    H2 5188   6.000   1.586   4.271
 1749TIP3   OH2 5189   7.870   1.172   2.448
 1749TIP3    H1 5190   7.823   1.092   2.425
 1749TIP3    H2 5191   7.955   1.163   2.405
 1750TIP3   OH2 5192   0.309   0.917   0.386
 1750TIP3    H1 5193   0.303   0.864   0.306
 1750TIP3    H2 5194   0.392   0.892   0.425
 1751TIP3   OH2 5195   4.730   7.350   2.593
 1751TIP3    H1 5196   4.678   7.296   2.533
 1751TIP3    H2 5197   4.798   7.291   2.626
 1752TIP3   OH2 5198   5.037   1.899   3.622
 1752TIP3    H1 5199   4.987   1.818   3.620
 1752TIP3    H2 5200   5.026   1.932   3.712
 1753TIP3   OH2 5201   1.179   6.502   4.032
 1753TIP3    H1 5202   1.251   6.559   4.005
 1753TIP3    H2 5203   1.201   6.478   4.122
 1754TIP3   OH2 5204   4.596   0.204   2.693
 1754TIP3    H1 5205   4.690   0.213   2.704
 1754TIP3    H2 5206   4.585   0.175   2.602
 1755TIP3   OH2 5207   8.336   7.243   3.412
 1755TIP3    H1 5208   8.319   7.154   3.380
 1755TIP3    H2 5209   8.268   7.296   3.370
 1756TIP3   OH2 5210   7.022   5.484   1.032
 1756TIP3    H1 5211   7.051   5.562   1.079
 1756TIP3    H2 5212   7.093   5.421   1.043
 1757TIP3   OH2 5213   2.778   0.208   6.528
 1757TIP3    H1 5214   2.814   0.201   6.616
 1757TIP3    H2 5215   2.792   0.122   6.489
 1758TIP3   OH2 5216   5.160   1.050   3.926
 1758TIP3    H1 5217   5.110   1.123   3.889
 1758TIP3    H2 5218   5.175   1.075   4.017
 1759TIP3   OH2 5219   3.825   6.784   0.130
 1759TIP3    H1 5220   3.905   6.788   0.182
 1759TIP3    H2 5221   3.799   6.876   0.119
 1760TIP3   OH2 5222   2.314   0.453   1.728
 1760TIP3    H1 5223   2.362   0.527   1.693
 1760TIP3    H2 5224   2.318   0.465   1.823
 1761TIP3   OH2 5225   6.553   2.835   5.020
 1761TIP3    H1 5226   6.628   2.803   5.070
 1761TIP3    H2 5227   6.542   2.771   4.950
 1762TIP3   OH2 5228   1.770   4.467   3.889
 1762TIP3    H1 5229   1.778   4.549   3.842
 1762TIP3    H2 5230   1.760   4.401   3.821
 1763TIP3   OH2 5231   5.659   3.489   4.112
 1763TIP3    H1 5232   5.715   3.444   4.175
 1763TIP3    H2 5233   5.611   3.554   4.163
 1764TIP3   OH2 5234   4.636   7.004   2.012
 1764TIP3    H1 5235   4.683   6.930   1.972
 1764TIP3    H2 5236   4.704   7.054   2.056
 1765TIP3   OH2 5237   0.304   0.838   5.442
 1765TIP3    H1 5238   0.215   0.840   5.406
 1765TIP3    H2 5239   0.297   0.789   5.523
 1766TIP3   OH2 5240   4.030   6.040   4.076
 1766TIP3    H1 5241   4.036   5.981   4.152
 1766TIP3    H2 5242   4.024   5.981   4.001
 1767TIP3   OH2 5243   3.262   6.206   5.593
 1767TIP3    H1 5244   3.273   6.158   5.675
 1767TIP3    H2 5245   3.326   6.167   5.534
 1768TIP3   OH2 5246   4.304   0.651   6.313
 1768TIP3    H1 5247   4.275   0.634   6.223
 1768TIP3    H2 5248   4.334   0.566   6.345
 1769TIP3   OH2 5249   4.637   3.046   0.444
 1769TIP3    H1 5250   4.696   3.107   0.399
 1769TIP3    H2 5251   4.579   3.013   0.376
 1770TIP3   OH2 5252   3.002   4.546   0.307
 1770TIP3    H1 5253   2.921   4.544   0.358
 1770TIP3    H2 5254   3.037   4.457   0.315
 1771TIP3   OH2 5255   2.033   6.163   5.458
 1771TIP3    H1 5256   1.989   6.089   5.417
 1771TIP3    H2 5257   1.986   6.240   5.426
 1772TIP3   OH2 5258   3.158   5.083   1.765
 1772TIP3    H1 5259   3.204   5.110   1.685
 1772TIP3    H2 5260   3.224   5.087   1.834
 1773TIP3   OH2 5261   4.659   1.557   0.643
 1773TIP3    H1 5262   4.667   1.463   0.653
 1773TIP3    H2 5263   4.749   1.588   0.634
 1774TIP3   OH2 5264   6.963   1.336   6.124
 1774TIP3    H1 5265   6.947   1.424   6.158
 1774TIP3    H2 5266   6.881   1.289   6.139
 1775TIP3   OH2 5267   7.567   1.702   4.561
 1775TIP3    H1 5268   7.529   1.615   4.572
 1775TIP3    H2 5269   7.529   1.735   4.479
 1776TIP3   OH2 5270   8.094   4.477   0.598
 1776TIP3    H1 5271   8.060   4.559   0.634
 1776TIP3    H2 5272   8.065   4.410   0.660
 1777TIP3   OH2 5273   1.117   0.329   6.669
 1777TIP3    H1 5274   1.085   0.413   6.701
 1777TIP3    H2 5275   1.084   0.323   6.580
 1778TIP3   OH2 5276   1.373   7.745   6.422
 1778TIP3    H1 5277   1.404   7.714   6.336
 1778TIP3    H2 5278   1.357   7.665   6.472
 1779TIP3   OH2 5279   3.316   0.199   1.231
 1779TIP3    H1 5280   3.377   0.188   1.304
 1779TIP3    H2 5281   3.293   0.292   1.232
 1780TIP3   OH2 5282   2.209   5.186   3.662
 1780TIP3    H1 5283   2.239   5.166   3.574
 1780TIP3    H2 5284   2.182   5.277   3.659
 1781TIP3   OH2 5285   2.716   2.799   5.253
 1781TIP3    H1 5286   2.679   2.712   5.240
 1781TIP3    H2 5287   2.639   2.855   5.267
 1782TIP3   OH2 5288   3.908   1.848   0.332
 1782TIP3    H1 5289   3.826   1.803   0.354
 1782TIP3    H2 5290   3.886   1.900   0.255
 1783TIP3   OH2 5291   7.147   6.234   2.525
 1783TIP3    H1 5292   7.121   6.142   2.530
 1783TIP3    H2 5293   7.107   6.275   2.602
 1784TIP3   OH2 5294   1.548   3.593   4.094
 1784TIP3    H1 5295   1.577   3.510   4.132
 1784TIP3    H2 5296   1.627   3.646   4.091
 1785TIP3   OH2 5297   3.579   2.955   4.375
 1785TIP3    H1 5298   3.544   3.026   4.322
 1785TIP3    H2 5299   3.660   2.989   4.412
 1786TIP3   OH2 5300   4.461   2.769   0.952
 1786TIP3    H1 5301   4.401   2.818   1.008
 1786TIP3    H2 5302   4.505   2.836   0.899
 1787TIP3   OH2 5303   2.274   7.212   1.058
 1787TIP3    H1 5304   2.345   7.276   1.060
 1787TIP3    H2 5305   2.219   7.234   1.134
 1788TIP3   OH2 5306   1.993   3.373   2.512
 1788TIP3    H1 5307   1.903   3.349   2.534
 1788TIP3    H2 5308   1.985   3.438   2.442
 1789TIP3   OH2 5309   2.765   0.091   0.132
 1789TIP3    H1 5310   2.783   0.016   0.076
 1789TIP3    H2 5311   2.684   0.069   0.178
 1790TIP3   OH2 5312   2.666   5.428   3.476
 1790TIP3    H1 5313   2.720   5.463   3.405
 1790TIP3    H2 5314   2.651   5.502   3.534
 1791TIP3   OH2 5315   6.062   2.198   4.884
 1791TIP3    H1 5316   6.137   2.242   4.845
 1791TIP3    H2 5317   6.014   2.162   4.810
 1792TIP3   OH2 5318   6.820   0.406   2.405
 1792TIP3    H1 5319   6.753   0.460   2.446
 1792TIP3    H2 5320   6.901   0.432   2.448
 1793TIP3   OH2 5321   0.774   3.837   3.793
 1793TIP3    H1 5322   0.851   3.863   3.843
 1793TIP3    H2 5323   0.726   3.919   3.777
 1794TIP3   OH2 5324   1.323   1.586   5.635
 1794TIP3    H1 5325   1.385   1.578   5.563
 1794TIP3    H2 5326   1.345   1.515   5.695
 1795TIP3   OH2 5327   4.875   3.445   2.006
 1795TIP3    H1 5328   4.917   3.390   1.940
 1795TIP3    H2 5329   4.899   3.535   1.981
 1796TIP3   OH2 5330   2.996   2.257   4.139
 1796TIP3    H1 5331   2.957   2.318   4.202
 1796TIP3    H2 5332   3.046   2.313   4.080
 1797TIP3   OH2 5333   4.876   6.345   2.143
 1797TIP3    H1 5334   4.865   6.348   2.048
 1797TIP3    H2 5335   4.958   6.298   2.157
 1798TIP3   OH2 5336   3.622   5.683   0.768
 1798TIP3    H1 5337   3.531   5.712   0.780
 1798TIP3    H2 5338   3.669   5.763   0.745
 1799TIP3   OH2 5339   8.257   7.408   5.487
 1799TIP3    H1 5340   8.329   7.389   5.548
 1799TIP3    H2 5341   8.297   7.462   5.419
 1800TIP3   OH2 5342   7.464   4.152   5.147
 1800TIP3    H1 5343   7.394   4.163   5.211
 1800TIP3    H2 5344   7.538   4.120   5.197
 1801TIP3   OH2 5345   7.991   6.091   2.581
 1801TIP3    H1 5346   7.931   6.030   2.623
 1801TIP3    H2 5347   7.961   6.095   2.490
 1802TIP3   OH2 5348   1.630   3.366   1.027
 1802TIP3    H1 5349   1.611   3.447   0.979
 1802TIP3    H2 5350   1.620   3.390   1.119
 1803TIP3   OH2 5351   0.973   6.049   1.680
 1803TIP3    H1 5352   0.923   6.037   1.600
 1803TIP3    H2 5353   1.041   6.113   1.657
 1804TIP3   OH2 5354   6.254   5.576   6.188
 1804TIP3    H1 5355   6.206   5.509   6.238
 1804TIP3    H2 5356   6.215   5.572   6.101
 1805TIP3   OH2 5357   2.742   4.201   5.195
 1805TIP3    H1 5358   2.805   4.240   5.135
 1805TIP3    H2 5359   2.680   4.271   5.214
 1806TIP3   OH2 5360   7.752   4.003   1.682
 1806TIP3    H1 5361   7.710   4.088   1.668
 1806TIP3    H2 5362   7.773   3.971   1.594
 1807TIP3   OH2 5363   6.921   6.583   1.721
 1807TIP3    H1 5364   6.839   6.632   1.715
 1807TIP3    H2 5365   6.981   6.641   1.768
 1808TIP3   OH2 5366   1.972   0.667   4.955
 1808TIP3    H1 5367   1.899   0.701   5.006
 1808TIP3    H2 5368   1.931   0.616   4.885
 1809TIP3   OH2 5369   2.832   6.311   1.253
 1809TIP3    H1 5370   2.864   6.271   1.172
 1809TIP3    H2 5371   2.758   6.256   1.279
 1810TIP3   OH2 5372   0.164   4.759   1.615
 1810TIP3    H1 5373   0.184   4.705   1.692
 1810TIP3    H2 5374   0.087   4.718   1.576
 1811TIP3   OH2 5375   4.519   0.098   2.451
 1811TIP3    H1 5376   4.525   0.009   2.486
 1811TIP3    H2 5377   4.534   0.088   2.357
 1812TIP3   OH2 5378   2.183   3.395   2.123
 1812TIP3    H1 5379   2.213   3.415   2.212
 1812TIP3    H2 5380   2.249   3.335   2.088
 1813TIP3   OH2 5381   5.192   3.588   3.786
 1813TIP3    H1 5382   5.269   3.547   3.746
 1813TIP3    H2 5383   5.146   3.516   3.828
 1814TIP3   OH2 5384   4.181   2.366   5.399
 1814TIP3    H1 5385   4.104   2.308   5.402
 1814TIP3    H2 5386   4.179   2.413   5.482
 1815TIP3   OH2 5387   8.105   5.617   6.298
 1815TIP3    H1 5388   8.047   5.667   6.241
 1815TIP3    H2 5389   8.167   5.575   6.238
 1816TIP3   OH2 5390   0.738   3.689   5.897
 1816TIP3    H1 5391   0.653   3.648   5.880
 1816TIP3    H2 5392   0.720   3.754   5.965
 1817TIP3   OH2 5393   5.786   0.530   3.211
 1817TIP3    H1 5394   5.759   0.591   3.142
 1817TIP3    H2 5395   5.878   0.512   3.194
 1818TIP3   OH2 5396   5.551   0.831   3.388
 1818TIP3    H1 5397   5.513   0.919   3.401
 1818TIP3    H2 5398   5.528   0.809   3.297
 1819TIP3   OH2 5399   6.289   7.582   5.902
 1819TIP3    H1 5400   6.201   7.610   5.877
 1819TIP3    H2 5401   6.317   7.646   5.966
 1820TIP3   OH2 5402   0.725   0.239   4.561
 1820TIP3    H1 5403   0.702   0.151   4.530
 1820TIP3    H2 5404   0.656   0.262   4.622
 1821TIP3   OH2 5405   3.813   3.109   6.353
 1821TIP3    H1 5406   3.852   3.089   6.438
 1821TIP3    H2 5407   3.863   3.185   6.322
 1822TIP3   OH2 5408   7.915   2.637   4.124
 1822TIP3    H1 5409   7.829   2.600   4.141
 1822TIP3    H2 5410   7.901   2.731   4.119
 1823TIP3   OH2 5411   2.362   2.128   2.460
 1823TIP3    H1 5412   2.455   2.129   2.484
 1823TIP3    H2 5413   2.357   2.184   2.382
 1824TIP3   OH2 5414   3.966   4.180   4.582
 1824TIP3    H1 5415   3.989   4.224   4.500
 1824TIP3    H2 5416   3.955   4.088   4.557
 1825TIP3   OH2 5417   1.555   7.398   1.875
 1825TIP3    H1 5418   1.575   7.305   1.879
 1825TIP3    H2 5419   1.640   7.441   1.884
 1826TIP3   OH2 5420   1.453   5.520   3.209
 1826TIP3    H1 5421   1.402   5.594   3.243
 1826TIP3    H2 5422   1.542   5.555   3.201
 1827TIP3   OH2 5423   7.341   2.912   3.383
 1827TIP3    H1 5424   7.321   2.993   3.429
 1827TIP3    H2 5425   7.382   2.856   3.449
 1828TIP3   OH2 5426   0.680   2.530   1.000
 1828TIP3    H1 5427   0.751   2.594   0.994
 1828TIP3    H2 5428   0.628   2.559   1.075
 1829TIP3   OH2 5429   6.799   0.327   1.468
 1829TIP3    H1 5430   6.857   0.369   1.404
 1829TIP3    H2 5431   6.723   0.385   1.473
 1830TIP3   OH2 5432   2.050   5.481   6.679
 1830TIP3    H1 5433   2.120   5.538   6.710
 1830TIP3    H2 5434   1.971   5.511   6.725
 1831TIP3   OH2 5435   4.828   5.702   3.004
 1831TIP3    H1 5436   4.915   5.682   3.038
 1831TIP3    H2 5437   4.816   5.795   3.024
 1832TIP3   OH2 5438   8.124   1.734   0.594
 1832TIP3    H1 5439   8.159   1.813   0.554
 1832TIP3    H2 5440   8.179   1.663   0.560
 1833TIP3   OH2 5441   1.895   2.236   1.058
 1833TIP3    H1 5442   1.875   2.313   1.004
 1833TIP3    H2 5443   1.896   2.270   1.148
 1834TIP3   OH2 5444   1.929   6.019   6.304
 1834TIP3    H1 5445   1.865   5.966   6.352
 1834TIP3    H2 5446   1.969   6.074   6.371
 1835TIP3   OH2 5447   7.219   2.358   3.817
 1835TIP3    H1 5448   7.149   2.410   3.778
 1835TIP3    H2 5449   7.281   2.423   3.850
 1836TIP3   OH2 5450   7.335   5.083   0.901
 1836TIP3    H1 5451   7.313   5.037   0.820
 1836TIP3    H2 5452   7.253   5.124   0.928
 1837TIP3   OH2 5453   0.176   3.394   5.027
 1837TIP3    H1 5454   0.137   3.308   5.015
 1837TIP3    H2 5455   0.242   3.381   5.096
 1838TIP3   OH2 5456   6.308   0.204   5.118
 1838TIP3    H1 5457   6.366   0.229   5.190
 1838TIP3    H2 5458   6.226   0.180   5.160
 1839TIP3   OH2 5459   2.881   5.797   1.107
 1839TIP3    H1 5460   2.793   5.798   1.145
 1839TIP3    H2 5461   2.918   5.713   1.136
 1840TIP3   OH2 5462   5.692   2.253   5.722
 1840TIP3    H1 5463   5.704   2.238   5.816
 1840TIP3    H2 5464   5.751   2.191   5.679
 1841TIP3   OH2 5465   1.225   0.325   2.737
 1841TIP3    H1 5466   1.244   0.297   2.827
 1841TIP3    H2 5467   1.150   0.384   2.746
 1842TIP3   OH2 5468   3.114   4.897   3.511
 1842TIP3    H1 5469   3.185   4.888   3.447
 1842TIP3    H2 5470   3.132   4.831   3.578
 1843TIP3   OH2 5471   2.397   7.501   1.308
 1843TIP3    H1 5472   2.470   7.485   1.248
 1843TIP3    H2 5473   2.340   7.561   1.260
 1844TIP3   OH2 5474   7.160   3.429   6.369
 1844TIP3    H1 5475   7.132   3.485   6.441
 1844TIP3    H2 5476   7.181   3.489   6.298
 1845TIP3   OH2 5477   5.039   5.097   5.000
 1845TIP3    H1 5478   5.115   5.039   4.991
 1845TIP3    H2 5479   5.071   5.171   5.050
 1846TIP3   OH2 5480   3.977   3.205   3.979
 1846TIP3    H1 5481   3.919   3.216   4.055
 1846TIP3    H2 5482   3.918   3.198   3.904
 1847TIP3   OH2 5483   6.008   0.526   1.200
 1847TIP3    H1 5484   6.068   0.490   1.266
 1847TIP3    H2 5485   5.990   0.615   1.229
 1848TIP3   OH2 5486   7.877   6.013   4.448
 1848TIP3    H1 5487   7.939   5.948   4.416
 1848TIP3    H2 5488   7.798   5.998   4.397
 1849TIP3   OH2 5489   4.551   4.064   1.303
 1849TIP3    H1 5490   4.537   4.154   1.274
 1849TIP3    H2 5491   4.463   4.030   1.321
 1850TIP3   OH2 5492   3.016   0.772   5.359
 1850TIP3    H1 5493   2.937   0.789   5.308
 1850TIP3    H2 5494   2.997   0.691   5.407
 1851TIP3   OH2 5495   4.858   0.741   4.271
 1851TIP3    H1 5496   4.918   0.739   4.196
 1851TIP3    H2 5497   4.773   0.720   4.233
 1852TIP3   OH2 5498   5.665   7.123   1.058
 1852TIP3    H1 5499   5.585   7.138   1.007
 1852TIP3    H2 5500   5.643   7.154   1.146
 1853TIP3   OH2 5501   1.212   5.451   1.296
 1853TIP3    H1 5502   1.219   5.457   1.391
 1853TIP3    H2 5503   1.124   5.483   1.275
 1854TIP3   OH2 5504   6.810   5.641   2.434
 1854TIP3    H1 5505   6.778   5.726   2.463
 1854TIP3    H2 5506   6.880   5.661   2.372
 1855TIP3   OH2 5507   0.022   6.023   2.140
 1855TIP3    H1 5508   0.010   5.989   2.229
 1855TIP3    H2 5509  -0.065   6.017   2.101
 1856TIP3   OH2 5510   4.519   4.510   2.436
 1856TIP3    H1 5511   4.591   4.453   2.463
 1856TIP3    H2 5512   4.559   4.574   2.378
 1857TIP3   OH2 5513   5.109   0.616   5.997
 1857TIP3    H1 5514   5.166   0.641   6.070
 1857TIP3    H2 5515   5.160   0.636   5.919
 1858TIP3   OH2 5516   8.045   4.013   1.532
 1858TIP3    H1 5517   7.997   3.930   1.527
 1858TIP3    H2 5518   8.000   4.070   1.470
 1859TIP3   OH2 5519   2.121   0.301   4.936
 1859TIP3    H1 5520   2.143   0.218   4.893
 1859TIP3    H2 5521   2.112   0.363   4.864
 1860TIP3   OH2 5522   6.061   1.980   0.119
 1860TIP3    H1 5523   6.012   1.927   0.056
 1860TIP3    H2 5524   6.039   2.070   0.097
 1861TIP3   OH2 5525   0.725   4.805   3.893
 1861TIP3    H1 5526   0.759   4.850   3.970
 1861TIP3    H2 5527   0.630   4.810   3.903
 1862TIP3   OH2 5528   5.932   1.000   4.754
 1862TIP3    H1 5529   5.934   0.908   4.727
 1862TIP3    H2 5530   5.866   1.003   4.823
 1863TIP3   OH2 5531   6.373   1.427   4.881
 1863TIP3    H1 5532   6.294   1.479   4.897
 1863TIP3    H2 5533   6.360   1.391   4.793
 1864TIP3   OH2 5534   2.013   4.208   5.110
 1864TIP3    H1 5535   2.106   4.218   5.129
 1864TIP3    H2 5536   1.983   4.297   5.090
 1865TIP3   OH2 5537   1.355   6.605   2.799
 1865TIP3    H1 5538   1.425   6.661   2.833
 1865TIP3    H2 5539   1.304   6.663   2.743
 1866TIP3   OH2 5540   0.994   4.664   4.087
 1866TIP3    H1 5541   0.936   4.741   4.090
 1866TIP3    H2 5542   0.941   4.593   4.122
 1867TIP3   OH2 5543   4.741   4.749   2.615
 1867TIP3    H1 5544   4.689   4.766   2.536
 1867TIP3    H2 5545   4.789   4.668   2.595
 1868TIP3   OH2 5546   6.946   2.981   2.463
 1868TIP3    H1 5547   6.943   3.061   2.515
 1868TIP3    H2 5548   6.865   2.934   2.486
 1869TIP3   OH2 5549   1.219   2.925   4.309
 1869TIP3    H1 5550   1.134   2.896   4.342
 1869TIP3    H2 5551   1.267   2.844   4.293
 1870TIP3   OH2 5552   7.722   1.666   5.731
 1870TIP3    H1 5553   7.627   1.656   5.727
 1870TIP3    H2 5554   7.757   1.578   5.712
 1871TIP3   OH2 5555   5.587   7.322   1.736
 1871TIP3    H1 5556   5.495   7.298   1.743
 1871TIP3    H2 5557   5.597   7.400   1.791
 1872TIP3   OH2 5558   2.556   1.045   4.727
 1872TIP3    H1 5559   2.599   1.043   4.641
 1872TIP3    H2 5560   2.627   1.027   4.789
 1873TIP3   OH2 5561   3.080   5.124   3.776
 1873TIP3    H1 5562   3.055   5.049   3.722
 1873TIP3    H2 5563   3.175   5.128   3.770
 1874TIP3   OH2 5564   0.164   6.915   2.337
 1874TIP3    H1 5565   0.213   6.938   2.416
 1874TIP3    H2 5566   0.232   6.894   2.273
 1875TIP3   OH2 5567   2.078   6.694   0.521
 1875TIP3    H1 5568   2.040   6.640   0.591
 1875TIP3    H2 5569   2.125   6.632   0.466
 1876TIP3   OH2 5570   7.774   2.760   1.156
 1876TIP3    H1 5571   7.725   2.679   1.140
 1876TIP3    H2 5572   7.718   2.811   1.214
 1877TIP3   OH2 5573   7.622   4.690   4.192
 1877TIP3    H1 5574   7.645   4.641   4.271
 1877TIP3    H2 5575   7.679   4.767   4.195
 1878TIP3   OH2 5576   7.347   4.455   4.672
 1878TIP3    H1 5577   7.281   4.395   4.707
 1878TIP3    H2 5578   7.352   4.435   4.579
 1879TIP3   OH2 5579   4.210   0.675   5.611
 1879TIP3    H1 5580   4.263   0.664   5.690
 1879TIP3    H2 5581   4.142   0.608   5.618
 1880TIP3   OH2 5582   7.738   5.051   3.217
 1880TIP3    H1 5583   7.817   4.998   3.225
 1880TIP3    H2 5584   7.768   5.133   3.178
 1881TIP3   OH2 5585   0.555   6.510   1.420
 1881TIP3    H1 5586   0.560   6.508   1.516
 1881TIP3    H2 5587   0.559   6.418   1.394
 1882TIP3   OH2 5588   1.680   4.240   2.717
 1882TIP3    H1 5589   1.738   4.309   2.751
 1882TIP3    H2 5590   1.660   4.269   2.627
 1883TIP3   OH2 5591   4.419   1.205   4.079
 1883TIP3    H1 5592   4.479   1.134   4.102
 1883TIP3    H2 5593   4.342   1.189   4.134
 1884TIP3   OH2 5594   3.723   2.100   6.566
 1884TIP3    H1 5595   3.679   2.148   6.636
 1884TIP3    H2 5596   3.815   2.095   6.594
 1885TIP3   OH2 5597   4.756   2.542   6.286
 1885TIP3    H1 5598   4.712   2.562   6.204
 1885TIP3    H2 5599   4.830   2.603   6.289
 1886TIP3   OH2 5600   0.318   1.677   3.755
 1886TIP3    H1 5601   0.316   1.695   3.849
 1886TIP3    H2 5602   0.372   1.747   3.718
 1887TIP3   OH2 5603   4.640   3.165   3.839
 1887TIP3    H1 5604   4.654   3.102   3.768
 1887TIP3    H2 5605   4.631   3.249   3.795
 1888TIP3   OH2 5606   2.674   6.950   6.374
 1888TIP3    H1 5607   2.741   6.882   6.386
 1888TIP3    H2 5608   2.723   7.032   6.372
 1889TIP3   OH2 5609   0.950   1.315   1.434
 1889TIP3    H1 5610   0.984   1.239   1.480
 1889TIP3    H2 5611   0.941   1.382   1.501
 1890TIP3   OH2 5612   1.023   1.689   6.281
 1890TIP3    H1 5613   1.104   1.647   6.311
 1890TIP3    H2 5614   1.026   1.680   6.186
 1891TIP3   OH2 5615   3.540   4.244   1.810
 1891TIP3    H1 5616   3.541   4.173   1.874
 1891TIP3    H2 5617   3.455   4.237   1.767
 1892TIP3   OH2 5618   1.491   6.804   3.122
 1892TIP3    H1 5619   1.469   6.712   3.135
 1892TIP3    H2 5620   1.505   6.837   3.211
 1893TIP3   OH2 5621   7.960   1.681   4.114
 1893TIP3    H1 5622   7.950   1.762   4.164
 1893TIP3    H2 5623   7.935   1.612   4.175
 1894TIP3   OH2 5624   7.536   0.840   5.090
 1894TIP3    H1 5625   7.447   0.818   5.117
 1894TIP3    H2 5626   7.592   0.779   5.138
 1895TIP3   OH2 5627   5.550   0.975   1.223
 1895TIP3    H1 5628   5.481   1.014   1.277
 1895TIP3    H2 5629   5.629   0.983   1.276
 1896TIP3   OH2 5630   2.541   3.574   1.380
 1896TIP3    H1 5631   2.546   3.653   1.433
 1896TIP3    H2 5632   2.562   3.503   1.441
 1897TIP3   OH2 5633   1.150   3.067   5.527
 1897TIP3    H1 5634   1.113   3.099   5.444
 1897TIP3    H2 5635   1.095   3.106   5.595
 1898TIP3   OH2 5636   6.744   0.356   2.836
 1898TIP3    H1 5637   6.722   0.384   2.924
 1898TIP3    H2 5638   6.669   0.304   2.808
 1899TIP3   OH2 5639   1.467   4.021   1.132
 1899TIP3    H1 5640   1.543   4.068   1.098
 1899TIP3    H2 5641   1.393   4.056   1.082
 1900TIP3   OH2 5642   6.794   1.941   5.096
 1900TIP3    H1 5643   6.735   1.982   5.034
 1900TIP3    H2 5644   6.825   1.862   5.052
 1901TIP3   OH2 5645   4.525   5.232   4.051
 1901TIP3    H1 5646   4.501   5.251   4.142
 1901TIP3    H2 5647   4.587   5.301   4.028
 1902TIP3   OH2 5648   5.767   6.832   0.528
 1902TIP3    H1 5649   5.851   6.845   0.572
 1902TIP3    H2 5650   5.791   6.804   0.440
 1903TIP3   OH2 5651   6.144   1.894   4.144
 1903TIP3    H1 5652   6.236   1.871   4.147
 1903TIP3    H2 5653   6.098   1.810   4.146
 1904TIP3   OH2 5654   4.420   0.906   5.196
 1904TIP3    H1 5655   4.441   0.873   5.283
 1904TIP3    H2 5656   4.399   0.827   5.145
 1905TIP3   OH2 5657   7.457   7.537   6.523
 1905TIP3    H1 5658   7.453   7.511   6.431
 1905TIP3    H2 5659   7.480   7.457   6.571
 1906TIP3   OH2 5660   2.468   0.739   1.304
 1906TIP3    H1 5661   2.457   0.831   1.325
 1906TIP3    H2 5662   2.408   0.693   1.362
 1907TIP3   OH2 5663   7.354   6.469   6.267
 1907TIP3    H1 5664   7.348   6.386   6.219
 1907TIP3    H2 5665   7.293   6.458   6.340
 1908TIP3   OH2 5666   5.181   6.639   4.663
 1908TIP3    H1 5667   5.187   6.551   4.625
 1908TIP3    H2 5668   5.257   6.685   4.627
 1909TIP3   OH2 5669   7.905   3.334   6.051
 1909TIP3    H1 5670   7.999   3.335   6.034
 1909TIP3    H2 5671   7.866   3.369   5.971
 1910TIP3   OH2 5672   7.743   4.282   1.508
 1910TIP3    H1 5673   7.656   4.323   1.512
 1910TIP3    H2 5674   7.790   4.317   1.583
 1911TIP3   OH2 5675   4.934   1.534   0.537
 1911TIP3    H1 5676   4.943   1.439   0.546
 1911TIP3    H2 5677   4.885   1.545   0.455
 1912TIP3   OH2 5678   8.256   7.075   1.381
 1912TIP3    H1 5679   8.200   7.033   1.446
 1912TIP3    H2 5680   8.343   7.038   1.397
 1913TIP3   OH2 5681   2.774   7.083   5.730
 1913TIP3    H1 5682   2.752   7.111   5.642
 1913TIP3    H2 5683   2.833   7.152   5.763
 1914TIP3   OH2 5684   0.928   5.676   3.005
 1914TIP3    H1 5685   0.866   5.617   2.962
 1914TIP3    H2 5686   0.954   5.630   3.085
 1915TIP3   OH2 5687   0.101   6.327   2.944
 1915TIP3    H1 5688   0.098   6.414   2.903
 1915TIP3    H2 5689   0.177   6.284   2.905
 1916TIP3   OH2 5690   5.443   5.654   3.342
 1916TIP3    H1 5691   5.352   5.669   3.366
 1916TIP3    H2 5692   5.481   5.609   3.418
 1917TIP3   OH2 5693   8.067   6.278   5.311
 1917TIP3    H1 5694   8.037   6.199   5.266
 1917TIP3    H2 5695   7.986   6.320   5.340
 1918TIP3   OH2 5696   4.401   4.845   0.540
 1918TIP3    H1 5697   4.324   4.790   0.549
 1918TIP3    H2 5698   4.423   4.842   0.447
 1919TIP3   OH2 5699   2.603   6.188   0.241
 1919TIP3    H1 5700   2.557   6.192   0.324
 1919TIP3    H2 5701   2.613   6.094   0.223
 1920TIP3   OH2 5702   5.221   5.860   4.058
 1920TIP3    H1 5703   5.246   5.934   4.003
 1920TIP3    H2 5704   5.302   5.837   4.105
 1921TIP3   OH2 5705   1.471   4.123   4.189
 1921TIP3    H1 5706   1.545   4.117   4.249
 1921TIP3    H2 5707   1.433   4.035   4.189
 1922TIP3   OH2 5708   3.353   5.424   3.199
 1922TIP3    H1 5709   3.396   5.346   3.235
 1922TIP3    H2 5710   3.403   5.446   3.121
 1923TIP3   OH2 5711   0.887   6.031   4.141
 1923TIP3    H1 5712   0.856   5.952   4.098
 1923TIP3    H2 5713   0.920   6.086   4.070
 1924TIP3   OH2 5714   3.260   5.721   1.581
 1924TIP3    H1 5715   3.310   5.712   1.500
 1924TIP3    H2 5716   3.228   5.811   1.580
 1925TIP3   OH2 5717   2.761   5.180   2.292
 1925TIP3    H1 5718   2.837   5.233   2.315
 1925TIP3    H2 5719   2.689   5.242   2.287
 1926TIP3   OH2 5720   4.145   7.643   4.422
 1926TIP3    H1 5721   4.218   7.662   4.480
 1926TIP3    H2 5722   4.157   7.550   4.399
 1927TIP3   OH2 5723   1.864   4.794   5.622
 1927TIP3    H1 5724   1.829   4.883   5.610
 1927TIP3    H2 5725   1.959   4.806   5.622
 1928TIP3   OH2 5726   1.129   1.341   0.831
 1928TIP3    H1 5727   1.156   1.353   0.739
 1928TIP3    H2 5728   1.171   1.414   0.877
 1929TIP3   OH2 5729   5.434   5.232   2.214
 1929TIP3    H1 5730   5.339   5.241   2.202
 1929TIP3    H2 5731   5.471   5.263   2.131
 1930TIP3   OH2 5732   5.662   6.874   5.502
 1930TIP3    H1 5733   5.636   6.811   5.436
 1930TIP3    H2 5734   5.724   6.826   5.557
 1931TIP3   OH2 5735   7.067   1.821   0.711
 1931TIP3    H1 5736   7.053   1.909   0.747
 1931TIP3    H2 5737   6.998   1.768   0.750
 1932TIP3   OH2 5738   1.967   4.154   2.127
 1932TIP3    H1 5739   2.016   4.074   2.140
 1932TIP3    H2 5740   2.032   4.224   2.130
 1933TIP3   OH2 5741   2.235   1.423   1.772
 1933TIP3    H1 5742   2.205   1.355   1.833
 1933TIP3    H2 5743   2.184   1.500   1.796
 1934TIP3   OH2 5744   7.931   6.333   4.632
 1934TIP3    H1 5745   7.886   6.329   4.547
 1934TIP3    H2 5746   7.877   6.393   4.684
 1935TIP3   OH2 5747   7.124   0.985   0.965
 1935TIP3    H1 5748   7.055   0.938   1.012
 1935TIP3    H2 5749   7.155   0.922   0.899
 1936TIP3   OH2 5750   2.159   0.041   0.941
 1936TIP3    H1 5751   2.202   0.109   0.992
 1936TIP3    H2 5752   2.095   0.088   0.887
 1937TIP3   OH2 5753   1.522   7.660   6.654
 1937TIP3    H1 5754   1.551   7.586   6.708
 1937TIP3    H2 5755   1.597   7.678   6.597
 1938TIP3   OH2 5756   5.099   2.309   0.654
 1938TIP3    H1 5757   5.123   2.285   0.565
 1938TIP3    H2 5758   5.090   2.225   0.699
 1939TIP3   OH2 5759   3.662   7.689   5.952
 1939TIP3    H1 5760   3.749   7.711   5.986
 1939TIP3    H2 5761   3.630   7.620   6.010
 1940TIP3   OH2 5762   2.077   7.103   4.142
 1940TIP3    H1 5763   2.125   7.033   4.185
 1940TIP3    H2 5764   2.108   7.184   4.183
 1941TIP3   OH2 5765   2.684   5.943   5.184
 1941TIP3    H1 5766   2.681   5.989   5.100
 1941TIP3    H2 5767   2.773   5.955   5.215
 1942TIP3   OH2 5768   0.746   5.130   1.458
 1942TIP3    H1 5769   0.776   5.135   1.549
 1942TIP3    H2 5770   0.676   5.065   1.459
 1943TIP3   OH2 5771   1.627   5.497   3.780
 1943TIP3    H1 5772   1.607   5.464   3.693
 1943TIP3    H2 5773   1.579   5.580   3.786
 1944TIP3   OH2 5774   4.429   4.477   4.881
 1944TIP3    H1 5775   4.468   4.399   4.920
 1944TIP3    H2 5776   4.432   4.461   4.787
 1945TIP3   OH2 5777   6.264   3.376   6.205
 1945TIP3    H1 5778   6.352   3.341   6.194
 1945TIP3    H2 5779   6.276   3.454   6.259
 1946TIP3   OH2 5780   1.248   0.735   1.007
 1946TIP3    H1 5781   1.304   0.805   1.041
 1946TIP3    H2 5782   1.180   0.781   0.957
 1947TIP3   OH2 5783   0.228   4.976   6.338
 1947TIP3    H1 5784   0.218   5.062   6.297
 1947TIP3    H2 5785   0.320   4.973   6.366
 1948TIP3   OH2 5786   1.719   0.995   0.254
 1948TIP3    H1 5787   1.690   1.063   0.193
 1948TIP3    H2 5788   1.802   0.964   0.218
 1949TIP3   OH2 5789   8.255   0.746   6.190
 1949TIP3    H1 5790   8.284   0.741   6.099
 1949TIP3    H2 5791   8.285   0.831   6.220
 1950TIP3   OH2 5792   4.256   6.549   5.995
 1950TIP3    H1 5793   4.204   6.475   6.027
 1950TIP3    H2 5794   4.193   6.605   5.950
 1951TIP3   OH2 5795   4.314   7.414   3.850
 1951TIP3    H1 5796   4.345   7.368   3.772
 1951TIP3    H2 5797   4.296   7.503   3.819
 1952TIP3   OH2 5798   6.011   7.612   4.901
 1952TIP3    H1 5799   6.094   7.582   4.863
 1952TIP3    H2 5800   6.006   7.705   4.876
 1953TIP3   OH2 5801   6.644   7.119   2.988
 1953TIP3    H1 5802   6.730   7.119   3.031
 1953TIP3    H2 5803   6.664   7.105   2.895
 1954TIP3   OH2 5804   6.174   4.645   6.586
 1954TIP3    H1 5805   6.154   4.644   6.492
 1954TIP3    H2 5806   6.138   4.563   6.619
 1955TIP3   OH2 5807   7.072   0.991   6.132
 1955TIP3    H1 5808   6.980   0.985   6.156
 1955TIP3    H2 5809   7.116   1.019   6.212
 1956TIP3   OH2 5810   2.110   0.961   0.564
 1956TIP3    H1 5811   2.160   0.975   0.483
 1956TIP3    H2 5812   2.101   1.049   0.602
 1957TIP3   OH2 5813   6.934   6.884   6.550
 1957TIP3    H1 5814   6.908   6.972   6.576
 1957TIP3    H2 5815   6.908   6.877   6.458
 1958TIP3   OH2 5816   1.959   2.846   5.802
 1958TIP3    H1 5817   1.867   2.824   5.812
 1958TIP3    H2 5818   2.005   2.783   5.857
 1959TIP3   OH2 5819   2.318   5.172   3.395
 1959TIP3    H1 5820   2.374   5.126   3.332
 1959TIP3    H2 5821   2.280   5.244   3.345
 1960TIP3   OH2 5822   5.320   1.756   0.583
 1960TIP3    H1 5823   5.225   1.746   0.583
 1960TIP3    H2 5824   5.340   1.787   0.671
 1961TIP3   OH2 5825   5.110   7.568   0.664
 1961TIP3    H1 5826   5.128   7.573   0.758
 1961TIP3    H2 5827   5.046   7.637   0.649
 1962TIP3   OH2 5828   0.493   2.147   4.405
 1962TIP3    H1 5829   0.580   2.135   4.444
 1962TIP3    H2 5830   0.511   2.175   4.315
 1963TIP3   OH2 5831   3.966   7.215   2.127
 1963TIP3    H1 5832   3.885   7.226   2.077
 1963TIP3    H2 5833   4.026   7.172   2.065
 1964TIP3   OH2 5834   0.152   1.242   4.758
 1964TIP3    H1 5835   0.202   1.288   4.691
 1964TIP3    H2 5836   0.061   1.258   4.735
 1965TIP3   OH2 5837   4.534   4.146   5.872
 1965TIP3    H1 5838   4.535   4.224   5.927
 1965TIP3    H2 5839   4.473   4.086   5.916
 1966TIP3   OH2 5840   4.913   6.307   1.297
 1966TIP3    H1 5841   4.930   6.293   1.203
 1966TIP3    H2 5842   4.997   6.339   1.331
 1967TIP3   OH2 5843   7.458   3.186   3.167
 1967TIP3    H1 5844   7.468   3.194   3.262
 1967TIP3    H2 5845   7.473   3.275   3.134
 1968TIP3   OH2 5846   5.380   7.349   5.752
 1968TIP3    H1 5847   5.425   7.283   5.806
 1968TIP3    H2 5848   5.356   7.418   5.814
 1969TIP3   OH2 5849   0.510   5.810   0.279
 1969TIP3    H1 5850   0.574   5.761   0.331
 1969TIP3    H2 5851   0.441   5.833   0.342
 1970TIP3   OH2 5852   7.902   5.677   4.029
 1970TIP3    H1 5853   7.823   5.637   4.066
 1970TIP3    H2 5854   7.907   5.763   4.071
 1971TIP3   OH2 5855   1.366   1.296   1.294
 1971TIP3    H1 5856   1.365   1.387   1.264
 1971TIP3    H2 5857   1.335   1.301   1.385
 1972TIP3   OH2 5858   6.760   4.365   5.191
 1972TIP3    H1 5859   6.682   4.383   5.243
 1972TIP3    H2 5860   6.765   4.438   5.129
 1973TIP3   OH2 5861   2.655   2.293   2.081
 1973TIP3    H1 5862   2.716   2.260   2.015
 1973TIP3    H2 5863   2.573   2.247   2.063
 1974TIP3   OH2 5864   3.059   7.748   4.172
 1974TIP3    H1 5865   3.113   7.696   4.232
 1974TIP3    H2 5866   2.970   7.719   4.189
 1975TIP3   OH2 5867   4.247   0.112   2.453
 1975TIP3    H1 5868   4.327   0.103   2.401
 1975TIP3    H2 5869   4.276   0.102   2.544
 1976TIP3   OH2 5870   3.101   3.312   5.528
 1976TIP3    H1 5871   3.151   3.382   5.485
 1976TIP3    H2 5872   3.010   3.340   5.520
 1977TIP3   OH2 5873   4.289   7.366   1.123
 1977TIP3    H1 5874   4.211   7.311   1.127
 1977TIP3    H2 5875   4.277   7.429   1.193
 1978TIP3   OH2 5876   5.391   6.112   1.412
 1978TIP3    H1 5877   5.465   6.115   1.473
 1978TIP3    H2 5878   5.416   6.046   1.348
 1979TIP3   OH2 5879   6.450   6.097   2.000
 1979TIP3    H1 5880   6.381   6.056   1.948
 1979TIP3    H2 5881   6.529   6.089   1.946
 1980TIP3   OH2 5882   5.221   0.929   2.809
 1980TIP3    H1 5883   5.276   0.852   2.822
 1980TIP3    H2 5884   5.154   0.923   2.877
 1981TIP3   OH2 5885   1.245   0.421   6.268
 1981TIP3    H1 5886   1.292   0.436   6.187
 1981TIP3    H2 5887   1.307   0.372   6.323
 1982TIP3   OH2 5888   1.012   4.151   4.861
 1982TIP3    H1 5889   1.093   4.107   4.835
 1982TIP3    H2 5890   0.942   4.100   4.818
 1983TIP3   OH2 5891   2.658   2.905   3.964
 1983TIP3    H1 5892   2.647   2.866   4.051
 1983TIP3    H2 5893   2.596   2.857   3.909
 1984TIP3   OH2 5894   5.468   2.279   4.396
 1984TIP3    H1 5895   5.423   2.247   4.475
 1984TIP3    H2 5896   5.502   2.200   4.355
 1985TIP3   OH2 5897   5.301   0.864   4.325
 1985TIP3    H1 5898   5.206   0.869   4.332
 1985TIP3    H2 5899   5.324   0.927   4.258
 1986TIP3   OH2 5900   0.896   6.926   2.293
 1986TIP3    H1 5901   0.822   6.985   2.276
 1986TIP3    H2 5902   0.968   6.963   2.243
 1987TIP3   OH2 5903   1.242   4.107   1.631
 1987TIP3    H1 5904   1.264   4.184   1.684
 1987TIP3    H2 5905   1.325   4.060   1.623
 1988TIP3   OH2 5906   7.896   6.442   1.584
 1988TIP3    H1 5907   7.859   6.389   1.513
 1988TIP3    H2 5908   7.880   6.532   1.558
 1989TIP3   OH2 5909   8.337   1.242   0.265
 1989TIP3    H1 5910   8.265   1.301   0.287
 1989TIP3    H2 5911   8.376   1.218   0.349
 1990TIP3   OH2 5912   4.383   7.693   0.596
 1990TIP3    H1 5913   4.415   7.607   0.622
 1990TIP3    H2 5914   4.370   7.687   0.501
 1991TIP3   OH2 5915   4.943   5.145   5.440
 1991TIP3    H1 5916   4.988   5.067   5.409
 1991TIP3    H2 5917   4.912   5.189   5.361
 1992TIP3   OH2 5918   6.609   2.474   0.878
 1992TIP3    H1 5919   6.695   2.439   0.900
 1992TIP3    H2 5920   6.571   2.500   0.962
 1993TIP3   OH2 5921   4.745   3.221   3.553
 1993TIP3    H1 5922   4.693   3.173   3.488
 1993TIP3    H2 5923   4.825   3.169   3.562
 1994TIP3   OH2 5924   2.527   4.013   2.337
 1994TIP3    H1 5925   2.516   4.089   2.280
 1994TIP3    H2 5926   2.497   3.939   2.285
 1995TIP3   OH2 5927   0.594   2.492   3.684
 1995TIP3    H1 5928   0.647   2.458   3.612
 1995TIP3    H2 5929   0.559   2.575   3.652
 1996TIP3   OH2 5930   1.441   6.679   0.479
 1996TIP3    H1 5931   1.359   6.725   0.458
 1996TIP3    H2 5932   1.419   6.625   0.555
 1997TIP3   OH2 5933   2.402   5.282   2.734
 1997TIP3    H1 5934   2.414   5.188   2.751
 1997TIP3    H2 5935   2.431   5.324   2.815
 1998TIP3   OH2 5936   4.389   6.073   2.290
 1998TIP3    H1 5937   4.324   6.119   2.236
 1998TIP3    H2 5938   4.473   6.110   2.263
 1999TIP3   OH2 5939   7.573   6.905   1.276
 1999TIP3    H1 5940   7.562   6.863   1.361
 1999TIP3    H2 5941   7.490   6.889   1.230
 2000TIP3   OH2 5942   4.623   7.004   5.575
 2000TIP3    H1 5943   4.694   7.000   5.639
 2000TIP3    H2 5944   4.653   6.950   5.502
 2001TIP3   OH2 5945   8.155   3.715   0.717
 2001TIP3    H1 5946   8.195   3.641   0.671
 2001TIP3    H2 5947   8.156   3.786   0.654
 2002TIP3   OH2 5948   6.260   7.086   6.174
 2002TIP3    H1 5949   6.232   7.158   6.230
 2002TIP3    H2 5950   6.354   7.080   6.187
 2003TIP3   OH2 5951   0.300   6.664   0.560
 2003TIP3    H1 5952   0.308   6.572   0.534
 2003TIP3    H2 5953   0.391   6.694   0.570
 2004TIP3   OH2 5954   5.107   2.540   4.793
 2004TIP3    H1 5955   5.036   2.575   4.739
 2004TIP3    H2 5956   5.063   2.486   4.858
 2005TIP3   OH2 5957   5.397   7.224   0.949
 2005TIP3    H1 5958   5.366   7.261   0.866
 2005TIP3    H2 5959   5.385   7.129   0.939
 2006TIP3   OH2 5960   5.147   2.026   3.281
 2006TIP3    H1 5961   5.172   2.001   3.370
 2006TIP3    H2 5962   5.144   2.122   3.284
 2007TIP3   OH2 5963   5.867   2.227   1.153
 2007TIP3    H1 5964   5.957   2.252   1.174
 2007TIP3    H2 5965   5.854   2.259   1.064
 2008TIP3   OH2 5966   8.161   7.620   5.127
 2008TIP3    H1 5967   8.077   7.666   5.119
 2008TIP3    H2 5968   8.148   7.557   5.198
 2009TIP3   OH2 5969   5.497   1.811   5.755
 2009TIP3    H1 5970   5.506   1.736   5.813
 2009TIP3    H2 5971   5.527   1.780   5.670
 2010TIP3   OH2 5972   7.446   3.077   4.944
 2010TIP3    H1 5973   7.414   3.145   5.003
 2010TIP3    H2 5974   7.541   3.086   4.947
 2011TIP3   OH2 5975   7.478   6.237   4.041
 2011TIP3    H1 5976   7.563   6.261   4.078
 2011TIP3    H2 5977   7.495   6.228   3.947
 2012TIP3   OH2 5978   5.621   6.821   1.776
 2012TIP3    H1 5979   5.680   6.751   1.746
 2012TIP3    H2 5980   5.587   6.859   1.696
 2013TIP3   OH2 5981   1.477   0.546   4.038
 2013TIP3    H1 5982   1.383   0.527   4.036
 2013TIP3    H2 5983   1.519   0.464   4.012
 2014TIP3   OH2 5984   3.553   0.231   2.228
 2014TIP3    H1 5985   3.570   0.303   2.290
 2014TIP3    H2 5986   3.637   0.219   2.183
 2015TIP3   OH2 5987   8.277   0.346   4.960
 2015TIP3    H1 5988   8.187   0.317   4.976
 2015TIP3    H2 5989   8.278   0.437   4.987
 2016TIP3   OH2 5990   3.517   1.763   0.990
 2016TIP3    H1 5991   3.495   1.838   1.044
 2016TIP3    H2 5992   3.442   1.751   0.932
 2017TIP3   OH2 5993   4.128   6.452   3.653
 2017TIP3    H1 5994   4.138   6.402   3.735
 2017TIP3    H2 5995   4.060   6.406   3.605
 2018TIP3   OH2 5996   2.881   1.432   0.361
 2018TIP3    H1 5997   2.942   1.400   0.295
 2018TIP3    H2 5998   2.907   1.388   0.442
 2019TIP3   OH2 5999   7.993   0.657   1.347
 2019TIP3    H1 6000   7.992   0.713   1.426
 2019TIP3    H2 6001   7.953   0.575   1.376
 2020TIP3   OH2 6002   3.047   3.435   0.265
 2020TIP3    H1 6003   3.112   3.490   0.222
 2020TIP3    H2 6004   2.968   3.489   0.267
 2021TIP3   OH2 6005   7.026   3.286   5.188
 2021TIP3    H1 6006   7.042   3.261   5.278
 2021TIP3    H2 6007   6.957   3.227   5.158
 2022TIP3   OH2 6008   8.182   2.222   4.975
 2022TIP3    H1 6009   8.162   2.142   5.024
 2022TIP3    H2 6010   8.198   2.193   4.886
 2023TIP3   OH2 6011   3.582   5.501   1.573
 2023TIP3    H1 6012   3.495   5.468   1.595
 2023TIP3    H2 6013   3.595   5.474   1.482
 2024TIP3   OH2 6014   2.942   7.013   3.745
 2024TIP3    H1 6015   3.001   7.059   3.805
 2024TIP3    H2 6016   2.857   7.014   3.788
 2025TIP3   OH2 6017   4.018   2.053   2.170
 2025TIP3    H1 6018   3.940   2.082   2.123
 2025TIP3    H2 6019   4.004   1.960   2.184
 2026TIP3   OH2 6020   4.257   4.404   3.859
 2026TIP3    H1 6021   4.291   4.451   3.935
 2026TIP3    H2 6022   4.256   4.468   3.788
 2027TIP3   OH2 6023   2.317   5.120   0.809
 2027TIP3    H1 6024   2.246   5.184   0.802
 2027TIP3    H2 6025   2.375   5.139   0.735
 2028TIP3   OH2 6026   7.452   4.498   3.534
 2028TIP3    H1 6027   7.426   4.495   3.442
 2028TIP3    H2 6028   7.493   4.584   3.544
 2029TIP3   OH2 6029   0.305   0.156   0.158
 2029TIP3    H1 6030   0.214   0.143   0.131
 2029TIP3    H2 6031   0.317   0.251   0.158
 2030TIP3   OH2 6032   1.682   5.171   4.146
 2030TIP3    H1 6033   1.767   5.207   4.172
 2030TIP3    H2 6034   1.670   5.199   4.055
 2031TIP3   OH2 6035   6.879   1.115   4.752
 2031TIP3    H1 6036   6.960   1.065   4.762
 2031TIP3    H2 6037   6.869   1.126   4.658
 2032TIP3   OH2 6038   1.245   6.744   1.039
 2032TIP3    H1 6039   1.291   6.709   0.963
 2032TIP3    H2 6040   1.248   6.673   1.104
 2033TIP3   OH2 6041   0.545   7.356   4.937
 2033TIP3    H1 6042   0.564   7.324   5.025
 2033TIP3    H2 6043   0.488   7.289   4.900
 2034TIP3   OH2 6044   2.384   1.912   0.649
 2034TIP3    H1 6045   2.435   1.902   0.568
 2034TIP3    H2 6046   2.426   1.985   0.695
 2035TIP3   OH2 6047   2.320   2.043   4.574
 2035TIP3    H1 6048   2.340   2.039   4.668
 2035TIP3    H2 6049   2.366   1.968   4.537
 2036TIP3   OH2 6050   0.514   2.698   6.388
 2036TIP3    H1 6051   0.563   2.677   6.467
 2036TIP3    H2 6052   0.427   2.725   6.419
 2037TIP3   OH2 6053   4.403   2.811   2.878
 2037TIP3    H1 6054   4.419   2.717   2.871
 2037TIP3    H2 6055   4.307   2.818   2.885
 2038TIP3   OH2 6056   5.028   6.363   3.711
 2038TIP3    H1 6057   4.990   6.438   3.666
 2038TIP3    H2 6058   5.121   6.366   3.688
 2039TIP3   OH2 6059   3.940   3.208   5.406
 2039TIP3    H1 6060   4.002   3.157   5.458
 2039TIP3    H2 6061   3.993   3.244   5.335
 2040TIP3   OH2 6062   6.428   1.928   5.610
 2040TIP3    H1 6063   6.468   1.868   5.546
 2040TIP3    H2 6064   6.334   1.925   5.590
 2041TIP3   OH2 6065   4.913   5.130   3.859
 2041TIP3    H1 6066   5.007   5.143   3.844
 2041TIP3    H2 6067   4.904   5.036   3.873
 2042TIP3   OH2 6068   4.996   3.597   1.618
 2042TIP3    H1 6069   5.013   3.562   1.705
 2042TIP3    H2 6070   4.943   3.676   1.634
 2043TIP3   OH2 6071   4.491   7.467   0.677
 2043TIP3    H1 6072   4.547   7.390   0.678
 2043TIP3    H2 6073   4.420   7.446   0.737
 2044TIP3   OH2 6074   3.333   6.768   4.558
 2044TIP3    H1 6075   3.268   6.833   4.587
 2044TIP3    H2 6076   3.281   6.695   4.526
 2045TIP3   OH2 6077   4.266   4.576   3.417
 2045TIP3    H1 6078   4.333   4.626   3.464
 2045TIP3    H2 6079   4.300   4.572   3.327
 2046TIP3   OH2 6080   6.616   2.137   1.750
 2046TIP3    H1 6081   6.569   2.055   1.766
 2046TIP3    H2 6082   6.587   2.166   1.664
 2047TIP3   OH2 6083   6.348   4.043   1.151
 2047TIP3    H1 6084   6.365   4.018   1.242
 2047TIP3    H2 6085   6.259   4.010   1.134
 2048TIP3   OH2 6086   5.880   0.333   1.483
 2048TIP3    H1 6087   5.795   0.368   1.510
 2048TIP3    H2 6088   5.936   0.410   1.476
 2049TIP3   OH2 6089   0.770   3.948   5.045
 2049TIP3    H1 6090   0.763   4.024   4.988
 2049TIP3    H2 6091   0.764   3.873   4.985
 2050TIP3   OH2 6092   7.673   6.229   1.818
 2050TIP3    H1 6093   7.703   6.167   1.885
 2050TIP3    H2 6094   7.724   6.207   1.740
 2051TIP3   OH2 6095   4.719   0.154   3.813
 2051TIP3    H1 6096   4.753   0.093   3.878
 2051TIP3    H2 6097   4.790   0.164   3.749
 2052TIP3   OH2 6098   0.672   3.359   0.768
 2052TIP3    H1 6099   0.622   3.421   0.715
 2052TIP3    H2 6100   0.758   3.355   0.727
 2053TIP3   OH2 6101   7.827   7.598   4.770
 2053TIP3    H1 6102   7.823   7.636   4.858
 2053TIP3    H2 6103   7.791   7.510   4.780
 2054TIP3   OH2 6104   2.074   1.505   2.884
 2054TIP3    H1 6105   2.006   1.572   2.893
 2054TIP3    H2 6106   2.156   1.555   2.879
 2055TIP3   OH2 6107   1.871   4.816   3.950
 2055TIP3    H1 6108   1.867   4.904   3.912
 2055TIP3    H2 6109   1.806   4.766   3.900
 2056TIP3   OH2 6110   0.344   3.170   6.591
 2056TIP3    H1 6111   0.336   3.204   6.502
 2056TIP3    H2 6112   0.270   3.208   6.638
 2057TIP3   OH2 6113   6.177   2.715   4.514
 2057TIP3    H1 6114   6.262   2.758   4.524
 2057TIP3    H2 6115   6.142   2.750   4.431
 2058TIP3   OH2 6116   0.327   6.998   0.228
 2058TIP3    H1 6117   0.395   6.934   0.204
 2058TIP3    H2 6118   0.327   7.061   0.156
 2059TIP3   OH2 6119   5.715   7.777   0.354
 2059TIP3    H1 6120   5.679   7.825   0.428
 2059TIP3    H2 6121   5.757   7.844   0.299
 2060TIP3   OH2 6122   7.566   2.408   0.363
 2060TIP3    H1 6123   7.580   2.382   0.454
 2060TIP3    H2 6124   7.481   2.451   0.363
 2061TIP3   OH2 6125   3.655   0.974   5.585
 2061TIP3    H1 6126   3.587   0.964   5.652
 2061TIP3    H2 6127   3.677   0.884   5.560
 2062TIP3   OH2 6128   2.776   7.239   5.464
 2062TIP3    H1 6129   2.846   7.199   5.414
 2062TIP3    H2 6130   2.795   7.333   5.461
 2063TIP3   OH2 6131   1.588   7.205   6.329
 2063TIP3    H1 6132   1.629   7.287   6.302
 2063TIP3    H2 6133   1.505   7.203   6.282
 2064TIP3   OH2 6134   6.539   4.123   4.631
 2064TIP3    H1 6135   6.574   4.035   4.648
 2064TIP3    H2 6136   6.592   4.156   4.559
 2065TIP3   OH2 6137   0.448   4.292   1.983
 2065TIP3    H1 6138   0.484   4.245   1.908
 2065TIP3    H2 6139   0.492   4.254   2.059
 2066TIP3   OH2 6140   3.596   0.958   2.713
 2066TIP3    H1 6141   3.551   0.903   2.648
 2066TIP3    H2 6142   3.533   0.965   2.785
 2067TIP3   OH2 6143   1.929   2.245   3.827
 2067TIP3    H1 6144   1.862   2.286   3.772
 2067TIP3    H2 6145   1.880   2.205   3.899
 2068TIP3   OH2 6146   1.890   3.500   3.582
 2068TIP3    H1 6147   1.864   3.528   3.670
 2068TIP3    H2 6148   1.982   3.474   3.592
 2069TIP3   OH2 6149   4.213   4.885   3.220
 2069TIP3    H1 6150   4.233   4.792   3.228
 2069TIP3    H2 6151   4.121   4.887   3.192
 2070TIP3   OH2 6152   3.361   2.502   5.405
 2070TIP3    H1 6153   3.324   2.577   5.359
 2070TIP3    H2 6154   3.339   2.516   5.497
 2071TIP3   OH2 6155   6.729   6.669   0.872
 2071TIP3    H1 6156   6.798   6.683   0.808
 2071TIP3    H2 6157   6.650   6.700   0.829
 2072TIP3   OH2 6158   7.399   4.288   5.981
 2072TIP3    H1 6159   7.403   4.320   6.071
 2072TIP3    H2 6160   7.414   4.194   5.987
 2073TIP3   OH2 6161   1.581   7.059   6.561
 2073TIP3    H1 6162   1.672   7.067   6.591
 2073TIP3    H2 6163   1.579   7.108   6.479
 2074TIP3   OH2 6164   1.516   4.299   1.029
 2074TIP3    H1 6165   1.586   4.260   1.081
 2074TIP3    H2 6166   1.458   4.340   1.094
 2075TIP3   OH2 6167   7.161   0.848   4.495
 2075TIP3    H1 6168   7.071   0.850   4.527
 2075TIP3    H2 6169   7.168   0.765   4.447
 2076TIP3   OH2 6170   8.000   6.068   3.766
 2076TIP3    H1 6171   8.053   6.107   3.836
 2076TIP3    H2 6172   8.020   5.974   3.771
 2077TIP3   OH2 6173   6.272   3.376   2.023
 2077TIP3    H1 6174   6.251   3.299   2.075
 2077TIP3    H2 6175   6.364   3.368   2.002
 2078TIP3   OH2 6176   0.498   1.834   4.697
 2078TIP3    H1 6177   0.435   1.776   4.739
 2078TIP3    H2 6178   0.473   1.834   4.604
 2079TIP3   OH2 6179   4.916   4.082   2.226
 2079TIP3    H1 6180   4.938   4.036   2.306
 2079TIP3    H2 6181   4.943   4.173   2.241
 2080TIP3   OH2 6182   6.817   4.477   2.715
 2080TIP3    H1 6183   6.839   4.477   2.622
 2080TIP3    H2 6184   6.850   4.394   2.748
 2081TIP3   OH2 6185   7.687   5.819   6.008
 2081TIP3    H1 6186   7.626   5.858   5.946
 2081TIP3    H2 6187   7.757   5.884   6.018
 2082TIP3   OH2 6188   3.988   1.251   6.260
 2082TIP3    H1 6189   4.002   1.210   6.174
 2082TIP3    H2 6190   3.893   1.257   6.268
 2083TIP3   OH2 6191   3.475   3.752   3.450
 2083TIP3    H1 6192   3.548   3.690   3.440
 2083TIP3    H2 6193   3.490   3.818   3.383
 2084TIP3   OH2 6194   7.600   2.472   2.670
 2084TIP3    H1 6195   7.650   2.426   2.737
 2084TIP3    H2 6196   7.608   2.565   2.693
 2085TIP3   OH2 6197   7.154   5.729   0.720
 2085TIP3    H1 6198   7.178   5.819   0.741
 2085TIP3    H2 6199   7.223   5.676   0.760
 2086TIP3   OH2 6200   5.406   5.134   0.957
 2086TIP3    H1 6201   5.326   5.183   0.979
 2086TIP3    H2 6202   5.477   5.195   0.976
 2087TIP3   OH2 6203   5.082   4.237   4.689
 2087TIP3    H1 6204   5.046   4.238   4.600
 2087TIP3    H2 6205   5.009   4.211   4.744
 2088TIP3   OH2 6206   1.286   4.700   0.163
 2088TIP3    H1 6207   1.293   4.777   0.220
 2088TIP3    H2 6208   1.358   4.643   0.190
 2089TIP3   OH2 6209   5.319   7.243   4.104
 2089TIP3    H1 6210   5.373   7.320   4.116
 2089TIP3    H2 6211   5.378   7.177   4.067
 2090TIP3   OH2 6212   7.109   7.435   2.684
 2090TIP3    H1 6213   7.151   7.391   2.610
 2090TIP3    H2 6214   7.058   7.506   2.644
 2091TIP3   OH2 6215   2.295   6.209   1.558
 2091TIP3    H1 6216   2.231   6.141   1.539
 2091TIP3    H2 6217   2.379   6.163   1.564
 2092TIP3   OH2 6218   0.584   3.646   3.728
 2092TIP3    H1 6219   0.639   3.707   3.777
 2092TIP3    H2 6220   0.619   3.559   3.749
 2093TIP3   OH2 6221   5.291   6.017   3.388
 2093TIP3    H1 6222   5.261   5.955   3.321
 2093TIP3    H2 6223   5.346   6.079   3.341
 2094TIP3   OH2 6224   5.361   0.332   3.264
 2094TIP3    H1 6225   5.402   0.246   3.258
 2094TIP3    H2 6226   5.392   0.369   3.346
 2095TIP3   OH2 6227   1.250   4.254   6.153
 2095TIP3    H1 6228   1.305   4.234   6.077
 2095TIP3    H2 6229   1.232   4.348   6.146
 2096TIP3   OH2 6230   1.468   1.505   0.278
 2096TIP3    H1 6231   1.519   1.448   0.336
 2096TIP3    H2 6232   1.449   1.451   0.202
 2097TIP3   OH2 6233   3.344   6.217   6.566
 2097TIP3    H1 6234   3.316   6.264   6.645
 2097TIP3    H2 6235   3.371   6.131   6.598
 2098TIP3   OH2 6236   1.469   1.216   4.582
 2098TIP3    H1 6237   1.465   1.121   4.595
 2098TIP3    H2 6238   1.501   1.250   4.666
 2099TIP3   OH2 6239   6.033   0.584   3.531
 2099TIP3    H1 6240   5.941   0.610   3.532
 2099TIP3    H2 6241   6.030   0.491   3.509
 2100TIP3   OH2 6242   8.206   2.411   3.966
 2100TIP3    H1 6243   8.258   2.339   3.929
 2100TIP3    H2 6244   8.200   2.391   4.059
 2101TIP3   OH2 6245   0.770   1.599   0.290
 2101TIP3    H1 6246   0.757   1.522   0.346
 2101TIP3    H2 6247   0.696   1.598   0.230
 2102TIP3   OH2 6248   8.033   7.103   2.298
 2102TIP3    H1 6249   8.085   7.030   2.332
 2102TIP3    H2 6250   7.942   7.074   2.309
 2103TIP3   OH2 6251   4.356   0.169   1.117
 2103TIP3    H1 6252   4.378   0.102   1.052
 2103TIP3    H2 6253   4.273   0.206   1.087
 2104TIP3   OH2 6254   1.735   4.073   2.372
 2104TIP3    H1 6255   1.744   4.149   2.314
 2104TIP3    H2 6256   1.776   4.101   2.454
 2105TIP3   OH2 6257   6.647   1.168   5.614
 2105TIP3    H1 6258   6.681   1.164   5.525
 2105TIP3    H2 6259   6.714   1.124   5.667
 2106TIP3   OH2 6260   2.026   2.448   2.399
 2106TIP3    H1 6261   2.064   2.365   2.430
 2106TIP3    H2 6262   1.968   2.422   2.327
 2107TIP3   OH2 6263   4.016   3.227   2.461
 2107TIP3    H1 6264   4.069   3.274   2.397
 2107TIP3    H2 6265   4.027   3.135   2.437
 2108TIP3   OH2 6266   3.073   3.176   4.364
 2108TIP3    H1 6267   3.133   3.105   4.388
 2108TIP3    H2 6268   2.986   3.136   4.370
 2109TIP3   OH2 6269   1.341   3.242   1.872
 2109TIP3    H1 6270   1.345   3.283   1.958
 2109TIP3    H2 6271   1.250   3.214   1.863
 2110TIP3   OH2 6272   4.248   2.633   3.113
 2110TIP3    H1 6273   4.206   2.560   3.066
 2110TIP3    H2 6274   4.341   2.619   3.100
 2111TIP3   OH2 6275   2.990   3.589   6.670
 2111TIP3    H1 6276   2.999   3.608   6.763
 2111TIP3    H2 6277   2.905   3.547   6.661
 2112TIP3   OH2 6278   5.201   1.643   1.066
 2112TIP3    H1 6279   5.112   1.611   1.083
 2112TIP3    H2 6280   5.211   1.636   0.971
 2113TIP3   OH2 6281   1.505   4.721   6.544
 2113TIP3    H1 6282   1.477   4.680   6.463
 2113TIP3    H2 6283   1.466   4.808   6.542
 2114TIP3   OH2 6284   5.755   7.471   3.470
 2114TIP3    H1 6285   5.775   7.447   3.380
 2114TIP3    H2 6286   5.835   7.510   3.504
 2115TIP3   OH2 6287   4.920   2.453   0.159
 2115TIP3    H1 6288   4.868   2.442   0.239
 2115TIP3    H2 6289   5.006   2.481   0.190
 2116TIP3   OH2 6290   5.663   3.969   5.327
 2116TIP3    H1 6291   5.586   3.973   5.270
 2116TIP3    H2 6292   5.638   4.022   5.403
 2117TIP3   OH2 6293   4.072   5.724   5.441
 2117TIP3    H1 6294   3.991   5.694   5.398
 2117TIP3    H2 6295   4.043   5.757   5.526
 2118TIP3   OH2 6296   5.042   3.031   6.261
 2118TIP3    H1 6297   5.132   3.000   6.252
 2118TIP3    H2 6298   4.988   2.956   6.237
 2119TIP3   OH2 6299   8.211   2.305   1.160
 2119TIP3    H1 6300   8.185   2.275   1.073
 2119TIP3    H2 6301   8.130   2.301   1.211
 2120TIP3   OH2 6302   2.088   7.409   4.899
 2120TIP3    H1 6303   2.024   7.444   4.960
 2120TIP3    H2 6304   2.101   7.318   4.928
 2121TIP3   OH2 6305   4.807   3.167   6.179
 2121TIP3    H1 6306   4.838   3.258   6.179
 2121TIP3    H2 6307   4.881   3.117   6.214
 2122TIP3   OH2 6308   6.172   1.156   4.154
 2122TIP3    H1 6309   6.256   1.113   4.146
 2122TIP3    H2 6310   6.127   1.138   4.071
 2123TIP3   OH2 6311   2.764   1.302   4.109
 2123TIP3    H1 6312   2.736   1.304   4.018
 2123TIP3    H2 6313   2.852   1.341   4.108
 2124TIP3   OH2 6314   1.711   4.267   2.128
 2124TIP3    H1 6315   1.801   4.235   2.125
 2124TIP3    H2 6316   1.715   4.345   2.184
 2125TIP3   OH2 6317   7.180   7.349   2.431
 2125TIP3    H1 6318   7.157   7.269   2.385
 2125TIP3    H2 6319   7.175   7.418   2.364
 2126TIP3   OH2 6320   1.686   2.604   1.885
 2126TIP3    H1 6321   1.610   2.566   1.841
 2126TIP3    H2 6322   1.759   2.585   1.827
 2127TIP3   OH2 6323   1.371   6.949   6.412
 2127TIP3    H1 6324   1.304   7.016   6.402
 2127TIP3    H2 6325   1.437   6.988   6.469
 2128TIP3   OH2 6326   4.193   2.425   2.488
 2128TIP3    H1 6327   4.154   2.394   2.406
 2128TIP3    H2 6328   4.150   2.509   2.506
 2129TIP3   OH2 6329   6.752   6.766   5.165
 2129TIP3    H1 6330   6.807   6.787   5.241
 2129TIP3    H2 6331   6.676   6.720   5.203
 2130TIP3   OH2 6332   3.257   5.994   3.976
 2130TIP3    H1 6333   3.339   5.951   4.000
 2130TIP3    H2 6334   3.269   6.085   4.004
 2131TIP3   OH2 6335   5.181   2.796   1.354
 2131TIP3    H1 6336   5.244   2.851   1.307
 2131TIP3    H2 6337   5.096   2.836   1.336
 2132TIP3   OH2 6338   6.028   4.545   2.638
 2132TIP3    H1 6339   5.983   4.500   2.709
 2132TIP3    H2 6340   6.076   4.476   2.592
 2133TIP3   OH2 6341   7.642   2.380   0.638
 2133TIP3    H1 6342   7.595   2.345   0.714
 2133TIP3    H2 6343   7.638   2.475   0.650
 2134TIP3   OH2 6344   3.577   1.483   6.706
 2134TIP3    H1 6345   3.541   1.398   6.683
 2134TIP3    H2 6346   3.671   1.476   6.687
 2135TIP3   OH2 6347   7.396   3.371   0.712
 2135TIP3    H1 6348   7.453   3.370   0.789
 2135TIP3    H2 6349   7.434   3.305   0.654
 2136TIP3   OH2 6350   6.511   0.996   1.921
 2136TIP3    H1 6351   6.433   1.034   1.960
 2136TIP3    H2 6352   6.547   0.940   1.989
 2137TIP3   OH2 6353   1.926   0.772   1.574
 2137TIP3    H1 6354   1.927   0.715   1.497
 2137TIP3    H2 6355   1.982   0.846   1.551
 2138TIP3   OH2 6356   0.500   2.141   1.197
 2138TIP3    H1 6357   0.551   2.206   1.245
 2138TIP3    H2 6358   0.454   2.191   1.130
 2139TIP3   OH2 6359   8.154   1.256   4.684
 2139TIP3    H1 6360   8.167   1.276   4.591
 2139TIP3    H2 6361   8.123   1.165   4.685
 2140TIP3   OH2 6362   8.263   7.342   1.314
 2140TIP3    H1 6363   8.195   7.363   1.377
 2140TIP3    H2 6364   8.265   7.246   1.312
 2141TIP3   OH2 6365   1.389   4.629   6.308
 2141TIP3    H1 6366   1.321   4.588   6.362
 2141TIP3    H2 6367   1.341   4.674   6.240
 2142TIP3   OH2 6368   2.556   3.235   5.706
 2142TIP3    H1 6369   2.537   3.329   5.704
 2142TIP3    H2 6370   2.582   3.214   5.617
 2143TIP3   OH2 6371   2.425   3.654   0.186
 2143TIP3    H1 6372   2.362   3.626   0.253
 2143TIP3    H2 6373   2.507   3.610   0.210
 2144TIP3   OH2 6374   0.490   4.300   0.778
 2144TIP3    H1 6375   0.505   4.209   0.804
 2144TIP3    H2 6376   0.531   4.352   0.847
 2145TIP3   OH2 6377   7.671   5.840   1.393
 2145TIP3    H1 6378   7.599   5.866   1.450
 2145TIP3    H2 6379   7.649   5.877   1.307
 2146TIP3   OH2 6380   3.367   5.930   3.384
 2146TIP3    H1 6381   3.278   5.903   3.404
 2146TIP3    H2 6382   3.357   6.013   3.338
 2147TIP3   OH2 6383   5.168   1.122   4.194
 2147TIP3    H1 6384   5.137   1.059   4.259
 2147TIP3    H2 6385   5.094   1.181   4.181
 2148TIP3   OH2 6386   4.960   5.811   2.750
 2148TIP3    H1 6387   4.896   5.831   2.819
 2148TIP3    H2 6388   5.013   5.742   2.787
 2149TIP3   OH2 6389   4.308   3.464   5.224
 2149TIP3    H1 6390   4.382   3.524   5.232
 2149TIP3    H2 6391   4.325   3.395   5.288
 2150TIP3   OH2 6392   3.627   3.905   2.223
 2150TIP3    H1 6393   3.586   3.826   2.260
 2150TIP3    H2 6394   3.705   3.873   2.178
 2151TIP3   OH2 6395   5.019   6.073   4.804
 2151TIP3    H1 6396   5.076   6.097   4.878
 2151TIP3    H2 6397   5.006   6.156   4.757
 2152TIP3   OH2 6398   0.752   7.000   2.757
 2152TIP3    H1 6399   0.725   7.072   2.701
 2152TIP3    H2 6400   0.840   6.977   2.726
 2153TIP3   OH2 6401   7.242   2.175   0.278
 2153TIP3    H1 6402   7.314   2.124   0.241
 2153TIP3    H2 6403   7.268   2.188   0.370
 2154TIP3   OH2 6404   7.078   6.957   3.031
 2154TIP3    H1 6405   7.137   6.882   3.025
 2154TIP3    H2 6406   7.112   7.020   2.968
 2155TIP3   OH2 6407   4.863   0.585   2.414
 2155TIP3    H1 6408   4.804   0.527   2.367
 2155TIP3    H2 6409   4.840   0.673   2.383
 2156TIP3   OH2 6410   7.811   3.878   5.947
 2156TIP3    H1 6411   7.843   3.795   5.911
 2156TIP3    H2 6412   7.730   3.895   5.898
 2157TIP3   OH2 6413   4.042   0.989   0.342
 2157TIP3    H1 6414   3.950   1.015   0.342
 2157TIP3    H2 6415   4.085   1.055   0.396
 2158TIP3   OH2 6416   7.221   5.217   5.794
 2158TIP3    H1 6417   7.200   5.125   5.780
 2158TIP3    H2 6418   7.317   5.220   5.798
 2159TIP3   OH2 6419   6.624   0.592   2.549
 2159TIP3    H1 6420   6.678   0.654   2.598
 2159TIP3    H2 6421   6.614   0.633   2.463
 2160TIP3   OH2 6422   5.808   1.334   3.635
 2160TIP3    H1 6423   5.726   1.382   3.629
 2160TIP3    H2 6424   5.827   1.308   3.545
 2161TIP3   OH2 6425   2.944   5.159   4.257
 2161TIP3    H1 6426   3.012   5.183   4.320
 2161TIP3    H2 6427   2.867   5.208   4.286
 2162TIP3   OH2 6428   1.728   3.247   4.400
 2162TIP3    H1 6429   1.799   3.185   4.413
 2162TIP3    H2 6430   1.652   3.205   4.440
 2163TIP3   OH2 6431   5.006   5.330   4.255
 2163TIP3    H1 6432   5.079   5.365   4.204
 2163TIP3    H2 6433   5.048   5.283   4.327
 2164TIP3   OH2 6434   7.407   3.046   0.121
 2164TIP3    H1 6435   7.345   2.988   0.165
 2164TIP3    H2 6436   7.493   3.017   0.151
 2165TIP3   OH2 6437   1.774   2.338   5.279
 2165TIP3    H1 6438   1.829   2.340   5.200
 2165TIP3    H2 6439   1.741   2.248   5.283
 2166TIP3   OH2 6440   7.281   0.197   3.603
 2166TIP3    H1 6441   7.366   0.200   3.645
 2166TIP3    H2 6442   7.222   0.161   3.670
 2167TIP3   OH2 6443   0.794   2.549   3.293
 2167TIP3    H1 6444   0.719   2.578   3.345
 2167TIP3    H2 6445   0.794   2.605   3.216
 2168TIP3   OH2 6446   7.723   6.883   2.595
 2168TIP3    H1 6447   7.678   6.944   2.653
 2168TIP3    H2 6448   7.681   6.798   2.612
 2169TIP3   OH2 6449   0.922   4.537   2.222
 2169TIP3    H1 6450   0.830   4.562   2.225
 2169TIP3    H2 6451   0.969   4.618   2.243
 2170TIP3   OH2 6452   6.741   7.518   2.654
 2170TIP3    H1 6453   6.817   7.575   2.645
 2170TIP3    H2 6454   6.738   7.470   2.571
 2171TIP3   OH2 6455   5.333   6.530   0.679
 2171TIP3    H1 6456   5.347   6.458   0.618
 2171TIP3    H2 6457   5.392   6.599   0.648
 2172TIP3   OH2 6458   7.183   7.853   2.998
 2172TIP3    H1 6459   7.246   7.813   2.939
 2172TIP3    H2 6460   7.171   7.788   3.068
 2173TIP3   OH2 6461   4.903   3.006   0.769
 2173TIP3    H1 6462   4.935   3.009   0.859
 2173TIP3    H2 6463   4.944   2.928   0.731
 2174TIP3   OH2 6464   0.707   1.722   5.288
 2174TIP3    H1 6465   0.751   1.789   5.235
 2174TIP3    H2 6466   0.721   1.641   5.239
 2175TIP3   OH2 6467   2.070   2.495   3.833
 2175TIP3    H1 6468   2.061   2.524   3.923
 2175TIP3    H2 6469   2.034   2.406   3.832
 2176TIP3   OH2 6470   0.473   6.386   0.271
 2176TIP3    H1 6471   0.490   6.337   0.351
 2176TIP3    H2 6472   0.452   6.474   0.301
 2177TIP3   OH2 6473   3.378   7.387   1.208
 2177TIP3    H1 6474   3.307   7.411   1.149
 2177TIP3    H2 6475   3.423   7.315   1.163
 2178TIP3   OH2 6476   4.858   1.071   0.057
 2178TIP3    H1 6477   4.949   1.072   0.028
 2178TIP3    H2 6478   4.863   1.055   0.152
 2179TIP3   OH2 6479   5.544   3.741   1.664
 2179TIP3    H1 6480   5.565   3.723   1.756
 2179TIP3    H2 6481   5.478   3.810   1.667
 2180TIP3   OH2 6482   6.781   6.547   5.630
 2180TIP3    H1 6483   6.711   6.601   5.594
 2180TIP3    H2 6484   6.824   6.508   5.553
 2181TIP3   OH2 6485   5.749   0.810   1.004
 2181TIP3    H1 6486   5.755   0.856   0.921
 2181TIP3    H2 6487   5.839   0.807   1.036
 2182TIP3   OH2 6488   5.854   7.234   0.715
 2182TIP3    H1 6489   5.768   7.205   0.687
 2182TIP3    H2 6490   5.868   7.193   0.800
 2183TIP3   OH2 6491   1.525   5.315   2.904
 2183TIP3    H1 6492   1.557   5.395   2.947
 2183TIP3    H2 6493   1.429   5.324   2.905
 2184TIP3   OH2 6494   7.434   3.584   0.339
 2184TIP3    H1 6495   7.377   3.618   0.270
 2184TIP3    H2 6496   7.435   3.489   0.325
 2185TIP3   OH2 6497   2.215   1.642   5.169
 2185TIP3    H1 6498   2.302   1.603   5.181
 2185TIP3    H2 6499   2.209   1.708   5.238
 2186TIP3   OH2 6500   5.796   5.806   6.201
 2186TIP3    H1 6501   5.701   5.794   6.208
 2186TIP3    H2 6502   5.833   5.745   6.265
 2187TIP3   OH2 6503   5.576   1.798   6.302
 2187TIP3    H1 6504   5.606   1.887   6.321
 2187TIP3    H2 6505   5.482   1.800   6.322
 2188TIP3   OH2 6506   1.654   1.669   3.560
 2188TIP3    H1 6507   1.683   1.583   3.531
 2188TIP3    H2 6508   1.639   1.659   3.654
 2189TIP3   OH2 6509   5.631   1.772   0.487
 2189TIP3    H1 6510   5.713   1.811   0.459
 2189TIP3    H2 6511   5.579   1.845   0.520
 2190TIP3   OH2 6512   6.483   0.868   6.080
 2190TIP3    H1 6513   6.569   0.833   6.056
 2190TIP3    H2 6514   6.422   0.823   6.022
 2191TIP3   OH2 6515   7.139   7.116   2.802
 2191TIP3    H1 6516   7.219   7.114   2.749
 2191TIP3    H2 6517   7.075   7.066   2.752
 2192TIP3   OH2 6518   2.092   7.759   6.095
 2192TIP3    H1 6519   2.056   7.821   6.032
 2192TIP3    H2 6520   2.032   7.684   6.094
 2193TIP3   OH2 6521   3.600   7.361   3.841
 2193TIP3    H1 6522   3.636   7.277   3.870
 2193TIP3    H2 6523   3.516   7.368   3.885
 2194TIP3   OH2 6524   0.453   3.264   4.299
 2194TIP3    H1 6525   0.473   3.338   4.355
 2194TIP3    H2 6526   0.503   3.280   4.219
 2195TIP3   OH2 6527   6.016   0.559   2.725
 2195TIP3    H1 6528   6.022   0.546   2.630
 2195TIP3    H2 6529   5.949   0.496   2.753
 2196TIP3   OH2 6530   5.160   7.140   2.256
 2196TIP3    H1 6531   5.228   7.180   2.311
 2196TIP3    H2 6532   5.197   7.140   2.168
 2197TIP3   OH2 6533   7.614   2.712   2.793
 2197TIP3    H1 6534   7.665   2.788   2.765
 2197TIP3    H2 6535   7.651   2.689   2.879
 2198TIP3   OH2 6536   1.091   4.489   2.734
 2198TIP3    H1 6537   1.004   4.466   2.701
 2198TIP3    H2 6538   1.151   4.429   2.690
 2199TIP3   OH2 6539   1.873   2.085   2.340
 2199TIP3    H1 6540   1.878   2.111   2.432
 2199TIP3    H2 6541   1.856   2.167   2.293
 2200TIP3   OH2 6542   6.638   4.267   3.286
 2200TIP3    H1 6543   6.690   4.249   3.364
 2200TIP3    H2 6544   6.552   4.228   3.304
 2201TIP3   OH2 6545   7.611   5.440   2.197
 2201TIP3    H1 6546   7.617   5.404   2.285
 2201TIP3    H2 6547   7.701   5.464   2.174
 2202TIP3   OH2 6548   4.781   7.660   4.276
 2202TIP3    H1 6549   4.718   7.634   4.210
 2202TIP3    H2 6550   4.740   7.734   4.321
 2203TIP3   OH2 6551   4.986   6.687   1.868
 2203TIP3    H1 6552   5.063   6.740   1.848
 2203TIP3    H2 6553   4.919   6.718   1.807
 2204TIP3   OH2 6554   2.055   0.000   0.037
 2204TIP3    H1 6555   2.025   0.091   0.044
 2204TIP3    H2 6556   2.081  -0.023   0.126
 2205TIP3   OH2 6557   7.683   3.937   6.331
 2205TIP3    H1 6558   7.618   3.982   6.386
 2205TIP3    H2 6559   7.709   4.004   6.267
 2206TIP3   OH2 6560   0.585   3.055   6.499
 2206TIP3    H1 6561   0.557   3.038   6.409
 2206TIP3    H2 6562   0.508   3.096   6.540
 2207TIP3   OH2 6563   0.220   5.059   0.108
 2207TIP3    H1 6564   0.285   5.033   0.043
 2207TIP3    H2 6565   0.138   5.020   0.076
 2208TIP3   OH2 6566   2.226   6.898   4.298
 2208TIP3    H1 6567   2.286   6.895   4.372
 2208TIP3    H2 6568   2.224   6.809   4.263
 2209TIP3   OH2 6569   3.464   7.390   4.717
 2209TIP3    H1 6570   3.469   7.431   4.631
 2209TIP3    H2 6571   3.372   7.364   4.726
 2210TIP3   OH2 6572   6.725   5.198   5.334
 2210TIP3    H1 6573   6.663   5.226   5.403
 2210TIP3    H2 6574   6.730   5.103   5.344
 2211TIP3   OH2 6575   5.647   4.540   5.054
 2211TIP3    H1 6576   5.679   4.455   5.023
 2211TIP3    H2 6577   5.564   4.520   5.098
 2212TIP3   OH2 6578   7.249   0.786   1.305
 2212TIP3    H1 6579   7.298   0.719   1.352
 2212TIP3    H2 6580   7.299   0.800   1.224
 2213TIP3   OH2 6581   4.277   0.438   0.845
 2213TIP3    H1 6582   4.228   0.520   0.846
 2213TIP3    H2 6583   4.333   0.444   0.768
 2214TIP3   OH2 6584   3.447   4.721   1.195
 2214TIP3    H1 6585   3.409   4.809   1.191
 2214TIP3    H2 6586   3.413   4.676   1.118
 2215TIP3   OH2 6587   1.359   6.275   6.707
 2215TIP3    H1 6588   1.282   6.246   6.656
 2215TIP3    H2 6589   1.430   6.220   6.675
 2216TIP3   OH2 6590  -0.005   6.358   4.335
 2216TIP3    H1 6591  -0.061   6.285   4.364
 2216TIP3    H2 6592   0.079   6.342   4.378
 2217TIP3   OH2 6593   1.945   6.334   6.680
 2217TIP3    H1 6594   1.936   6.405   6.743
 2217TIP3    H2 6595   1.987   6.374   6.604
 2218TIP3   OH2 6596   2.693   1.212   2.918
 2218TIP3    H1 6597   2.643   1.196   2.998
 2218TIP3    H2 6598   2.627   1.228   2.851
 2219TIP3   OH2 6599   7.293   0.141   0.425
 2219TIP3    H1 6600   7.349   0.134   0.348
 2219TIP3    H2 6601   7.205   0.150   0.391
 2220TIP3   OH2 6602   6.154   7.172   0.033
 2220TIP3    H1 6603   6.161   7.089  -0.012
 2220TIP3    H2 6604   6.093   7.224  -0.019
 2221TIP3   OH2 6605   5.134   5.537   3.890
 2221TIP3    H1 6606   5.226   5.555   3.872
 2221TIP3    H2 6607   5.126   5.538   3.985
 2222TIP3   OH2 6608   2.979   5.814   2.246
 2222TIP3    H1 6609   3.057   5.823   2.191
 2222TIP3    H2 6610   2.990   5.882   2.313
 2223TIP3   OH2 6611   4.927   1.122   2.851
 2223TIP3    H1 6612   4.978   1.197   2.820
 2223TIP3    H2 6613   4.981   1.080   2.917
 2224TIP3   OH2 6614   7.504   3.453   5.427
 2224TIP3    H1 6615   7.455   3.372   5.438
 2224TIP3    H2 6616   7.437   3.520   5.418
 2225TIP3   OH2 6617   1.891   1.275   6.418
 2225TIP3    H1 6618   1.931   1.357   6.447
 2225TIP3    H2 6619   1.950   1.207   6.449
 2226TIP3   OH2 6620   6.943   6.187   6.716
 2226TIP3    H1 6621   7.023   6.142   6.743
 2226TIP3    H2 6622   6.966   6.280   6.720
 2227TIP3   OH2 6623   1.591   0.117   2.167
 2227TIP3    H1 6624   1.543   0.135   2.086
 2227TIP3    H2 6625   1.572   0.192   2.223
 2228TIP3   OH2 6626   2.727   3.987   1.392
 2228TIP3    H1 6627   2.817   4.013   1.411
 2228TIP3    H2 6628   2.674   4.065   1.410
 2229TIP3   OH2 6629   7.246   3.193   1.435
 2229TIP3    H1 6630   7.328   3.163   1.475
 2229TIP3    H2 6631   7.178   3.142   1.478
 2230TIP3   OH2 6632   5.264   5.465   3.169
 2230TIP3    H1 6633   5.258   5.394   3.234
 2230TIP3    H2 6634   5.321   5.530   3.211
 2231TIP3   OH2 6635   1.923   0.258   1.009
 2231TIP3    H1 6636   1.935   0.340   1.057
 2231TIP3    H2 6637   1.885   0.284   0.926
 2232TIP3   OH2 6638   3.805   7.339   0.466
 2232TIP3    H1 6639   3.717   7.312   0.442
 2232TIP3    H2 6640   3.862   7.272   0.429
 2233TIP3   OH2 6641   4.656   6.239   3.503
 2233TIP3    H1 6642   4.568   6.270   3.526
 2233TIP3    H2 6643   4.671   6.272   3.414
 2234TIP3   OH2 6644   6.211   1.099   4.934
 2234TIP3    H1 6645   6.224   1.050   4.853
 2234TIP3    H2 6646   6.296   1.095   4.978
 2235TIP3   OH2 6647   1.209   0.257   4.203
 2235TIP3    H1 6648   1.271   0.220   4.265
 2235TIP3    H2 6649   1.127   0.262   4.251
 2236TIP3   OH2 6650   7.747   1.309   4.474
 2236TIP3    H1 6651   7.775   1.351   4.393
 2236TIP3    H2 6652   7.706   1.227   4.446
 2237TIP3   OH2 6653   3.559   6.771   4.970
 2237TIP3    H1 6654   3.510   6.766   5.052
 2237TIP3    H2 6655   3.536   6.691   4.923
 2238TIP3   OH2 6656   5.117   0.532   2.582
 2238TIP3    H1 6657   5.051   0.502   2.519
 2238TIP3    H2 6658   5.172   0.455   2.599
 2239TIP3   OH2 6659   2.377   6.611   3.892
 2239TIP3    H1 6660   2.449   6.583   3.835
 2239TIP3    H2 6661   2.313   6.540   3.888
 2240TIP3   OH2 6662   3.613   1.872   4.146
 2240TIP3    H1 6663   3.592   1.953   4.194
 2240TIP3    H2 6664   3.691   1.838   4.189
 2241TIP3   OH2 6665   0.112   5.578   0.319
 2241TIP3    H1 6666   0.174   5.531   0.264
 2241TIP3    H2 6667   0.051   5.510   0.349
 2242TIP3   OH2 6668   8.032   7.784   2.952
 2242TIP3    H1 6669   8.071   7.697   2.945
 2242TIP3    H2 6670   8.074   7.823   3.028
 2243TIP3   OH2 6671   0.240   5.596   2.001
 2243TIP3    H1 6672   0.305   5.663   2.021
 2243TIP3    H2 6673   0.199   5.576   2.086
 2244TIP3   OH2 6674   6.330   1.056   4.675
 2244TIP3    H1 6675   6.288   0.971   4.664
 2244TIP3    H2 6676   6.416   1.047   4.635
 2245TIP3   OH2 6677   5.443   1.993   1.971
 2245TIP3    H1 6678   5.352   2.013   1.992
 2245TIP3    H2 6679   5.449   2.006   1.876
 2246TIP3   OH2 6680   5.560   0.444   6.527
 2246TIP3    H1 6681   5.601   0.441   6.441
 2246TIP3    H2 6682   5.633   0.431   6.588
 2247TIP3   OH2 6683   1.956   2.774   1.444
 2247TIP3    H1 6684   1.890   2.843   1.435
 2247TIP3    H2 6685   1.981   2.778   1.536
 2248TIP3   OH2 6686   1.095   0.904   2.021
 2248TIP3    H1 6687   1.066   0.936   2.107
 2248TIP3    H2 6688   1.016   0.866   1.982
 2249TIP3   OH2 6689   3.575   5.243   3.193
 2249TIP3    H1 6690   3.632   5.244   3.269
 2249TIP3    H2 6691   3.629   5.278   3.122
 2250TIP3   OH2 6692   2.096   1.253   0.635
 2250TIP3    H1 6693   2.185   1.284   0.650
 2250TIP3    H2 6694   2.070   1.212   0.718
 2251TIP3   OH2 6695   1.166   2.424   2.682
 2251TIP3    H1 6696   1.185   2.348   2.628
 2251TIP3    H2 6697   1.070   2.430   2.682
 2252TIP3   OH2 6698   5.066   0.246   5.325
 2252TIP3    H1 6699   5.030   0.207   5.245
 2252TIP3    H2 6700   4.989   0.281   5.371
 2253TIP3   OH2 6701   0.076   6.577   6.256
 2253TIP3    H1 6702   0.088   6.542   6.168
 2253TIP3    H2 6703   0.148   6.539   6.306
 2254TIP3   OH2 6704   1.336   6.549   5.515
 2254TIP3    H1 6705   1.306   6.459   5.501
 2254TIP3    H2 6706   1.378   6.546   5.602
 2255TIP3   OH2 6707   3.556   4.126   2.086
 2255TIP3    H1 6708   3.559   4.040   2.128
 2255TIP3    H2 6709   3.639   4.167   2.109
 2256TIP3   OH2 6710   5.713   3.165   0.716
 2256TIP3    H1 6711   5.734   3.179   0.808
 2256TIP3    H2 6712   5.687   3.073   0.710
 2257TIP3   OH2 6713   5.275   1.721   5.245
 2257TIP3    H1 6714   5.289   1.789   5.310
 2257TIP3    H2 6715   5.331   1.649   5.273
 2258TIP3   OH2 6716   3.734   5.590   2.993
 2258TIP3    H1 6717   3.750   5.556   3.081
 2258TIP3    H2 6718   3.771   5.524   2.935
 2259TIP3   OH2 6719   2.024   2.159   4.173
 2259TIP3    H1 6720   2.110   2.138   4.137
 2259TIP3    H2 6721   2.035   2.152   4.268
 2260TIP3   OH2 6722   0.883   4.777   5.384
 2260TIP3    H1 6723   0.867   4.690   5.347
 2260TIP3    H2 6724   0.796   4.817   5.389
 2261TIP3   OH2 6725   5.336   5.869   4.909
 2261TIP3    H1 6726   5.294   5.860   4.823
 2261TIP3    H2 6727   5.422   5.828   4.898
 2262TIP3   OH2 6728   4.443   6.810   0.341
 2262TIP3    H1 6729   4.454   6.899   0.375
 2262TIP3    H2 6730   4.359   6.781   0.375
 2263TIP3   OH2 6731   1.034   0.769   5.616
 2263TIP3    H1 6732   1.080   0.698   5.572
 2263TIP3    H2 6733   0.973   0.802   5.549
 2264TIP3   OH2 6734   3.964   4.700   5.160
 2264TIP3    H1 6735   3.889   4.674   5.213
 2264TIP3    H2 6736   3.948   4.661   5.075
 2265TIP3   OH2 6737   6.399   6.159   1.679
 2265TIP3    H1 6738   6.420   6.141   1.588
 2265TIP3    H2 6739   6.308   6.131   1.688
 2266TIP3   OH2 6740   3.858   5.917   5.487
 2266TIP3    H1 6741   3.776   5.881   5.521
 2266TIP3    H2 6742   3.844   5.924   5.393
 2267TIP3   OH2 6743   5.687   0.455   4.450
 2267TIP3    H1 6744   5.636   0.501   4.383
 2267TIP3    H2 6745   5.663   0.363   4.440
 2268TIP3   OH2 6746   5.191   0.601   3.512
 2268TIP3    H1 6747   5.221   0.676   3.563
 2268TIP3    H2 6748   5.229   0.615   3.425
 2269TIP3   OH2 6749   2.060   7.200   1.274
 2269TIP3    H1 6750   2.019   7.149   1.204
 2269TIP3    H2 6751   1.987   7.239   1.322
 2270TIP3   OH2 6752   3.656   3.163   5.923
 2270TIP3    H1 6753   3.673   3.195   5.835
 2270TIP3    H2 6754   3.715   3.087   5.932
 2271TIP3   OH2 6755   8.038   7.299   5.916
 2271TIP3    H1 6756   8.063   7.248   5.993
 2271TIP3    H2 6757   8.044   7.390   5.945
 2272TIP3   OH2 6758   2.670   5.636   1.673
 2272TIP3    H1 6759   2.651   5.702   1.741
 2272TIP3    H2 6760   2.727   5.682   1.611
 2273TIP3   OH2 6761   3.836   3.631   1.048
 2273TIP3    H1 6762   3.909   3.584   1.008
 2273TIP3    H2 6763   3.855   3.632   1.141
 2274TIP3   OH2 6764   6.592   6.726   4.257
 2274TIP3    H1 6765   6.591   6.760   4.347
 2274TIP3    H2 6766   6.518   6.769   4.214
 2275TIP3   OH2 6767   2.972   2.705   4.217
 2275TIP3    H1 6768   3.049   2.724   4.271
 2275TIP3    H2 6769   2.978   2.766   4.144
 2276TIP3   OH2 6770   3.066   6.077   0.677
 2276TIP3    H1 6771   3.009   6.111   0.746
 2276TIP3    H2 6772   3.031   5.990   0.658
 2277TIP3   OH2 6773   3.170   1.787   0.323
 2277TIP3    H1 6774   3.229   1.862   0.319
 2277TIP3    H2 6775   3.206   1.725   0.259
 2278TIP3   OH2 6776   2.792   5.397   1.242
 2278TIP3    H1 6777   2.743   5.448   1.179
 2278TIP3    H2 6778   2.799   5.310   1.203
 2279TIP3   OH2 6779   6.019   4.061   1.730
 2279TIP3    H1 6780   6.064   3.977   1.743
 2279TIP3    H2 6781   6.023   4.076   1.636
 2280TIP3   OH2 6782   1.204   5.667   6.695
 2280TIP3    H1 6783   1.181   5.606   6.766
 2280TIP3    H2 6784   1.209   5.612   6.617
 2281TIP3   OH2 6785   0.466   7.380   4.074
 2281TIP3    H1 6786   0.445   7.310   4.012
 2281TIP3    H2 6787   0.542   7.423   4.037
 2282TIP3   OH2 6788   2.190   5.957   1.360
 2282TIP3    H1 6789   2.244   5.879   1.368
 2282TIP3    H2 6790   2.125   5.949   1.430
 2283TIP3   OH2 6791   0.563   0.314   4.776
 2283TIP3    H1 6792   0.524   0.238   4.820
 2283TIP3    H2 6793   0.500   0.385   4.790
 2284TIP3   OH2 6794   4.081   2.011   2.682
 2284TIP3    H1 6795   4.126   1.989   2.601
 2284TIP3    H2 6796   4.103   2.103   2.697
 2285TIP3   OH2 6797   6.537   1.228   5.248
 2285TIP3    H1 6798   6.583   1.155   5.288
 2285TIP3    H2 6799   6.589   1.305   5.271
 2286TIP3   OH2 6800   3.816   2.168   6.203
 2286TIP3    H1 6801   3.902   2.169   6.246
 2286TIP3    H2 6802   3.832   2.131   6.117
 2287TIP3   OH2 6803   3.171   0.538   3.729
 2287TIP3    H1 6804   3.239   0.535   3.662
 2287TIP3    H2 6805   3.214   0.505   3.808
 2288TIP3   OH2 6806   7.358   4.038   1.722
 2288TIP3    H1 6807   7.291   3.994   1.774
 2288TIP3    H2 6808   7.370   3.981   1.646
 2289TIP3   OH2 6809   0.617   4.392   5.383
 2289TIP3    H1 6810   0.632   4.328   5.454
 2289TIP3    H2 6811   0.521   4.401   5.380
 2290TIP3   OH2 6812   0.175   6.311   0.741
 2290TIP3    H1 6813   0.145   6.220   0.731
 2290TIP3    H2 6814   0.258   6.303   0.788
 2291TIP3   OH2 6815   6.829   7.182   4.099
 2291TIP3    H1 6816   6.736   7.160   4.090
 2291TIP3    H2 6817   6.830   7.275   4.121
 2292TIP3   OH2 6818   6.953   7.462   4.622
 2292TIP3    H1 6819   6.973   7.390   4.681
 2292TIP3    H2 6820   7.014   7.532   4.647
 2293TIP3   OH2 6821   0.395   1.547   1.014
 2293TIP3    H1 6822   0.354   1.599   1.083
 2293TIP3    H2 6823   0.442   1.611   0.960
 2294TIP3   OH2 6824   1.163   4.929   3.239
 2294TIP3    H1 6825   1.256   4.919   3.260
 2294TIP3    H2 6826   1.129   4.840   3.238
 2295TIP3   OH2 6827   6.315   2.093   3.806
 2295TIP3    H1 6828   6.279   2.144   3.734
 2295TIP3    H2 6829   6.253   2.106   3.878
 2296TIP3   OH2 6830   1.110   1.335   3.093
 2296TIP3    H1 6831   1.034   1.352   3.037
 2296TIP3    H2 6832   1.120   1.415   3.145
 2297TIP3   OH2 6833   5.604   4.896   1.541
 2297TIP3    H1 6834   5.509   4.908   1.543
 2297TIP3    H2 6835   5.628   4.883   1.633
 2298TIP3   OH2 6836   0.211   2.793   6.259
 2298TIP3    H1 6837   0.125   2.792   6.216
 2298TIP3    H2 6838   0.266   2.738   6.203
 2299TIP3   OH2 6839   7.436   4.755   3.363
 2299TIP3    H1 6840   7.356   4.710   3.391
 2299TIP3    H2 6841   7.413   4.848   3.367
 2300TIP3   OH2 6842   2.630   2.978   5.565
 2300TIP3    H1 6843   2.609   2.969   5.472
 2300TIP3    H2 6844   2.724   2.993   5.567
 2301TIP3   OH2 6845   4.235   1.932   6.651
 2301TIP3    H1 6846   4.327   1.958   6.645
 2301TIP3    H2 6847   4.234   1.841   6.622
 2302TIP3   OH2 6848   4.613   6.848   6.514
 2302TIP3    H1 6849   4.618   6.857   6.610
 2302TIP3    H2 6850   4.629   6.937   6.482
 2303TIP3   OH2 6851   2.786   2.804   1.545
 2303TIP3    H1 6852   2.711   2.861   1.563
 2303TIP3    H2 6853   2.859   2.865   1.530
 2304TIP3   OH2 6854   8.096   0.510   3.531
 2304TIP3    H1 6855   8.053   0.425   3.533
 2304TIP3    H2 6856   8.188   0.489   3.514
 2305TIP3   OH2 6857   7.905   7.841   5.079
 2305TIP3    H1 6858   7.827   7.788   5.067
 2305TIP3    H2 6859   7.911   7.894   5.000
 2306TIP3   OH2 6860   7.084   7.164   1.076
 2306TIP3    H1 6861   7.066   7.222   1.002
 2306TIP3    H2 6862   7.033   7.200   1.148
 2307TIP3   OH2 6863   4.909   2.038   6.431
 2307TIP3    H1 6864   4.830   2.009   6.385
 2307TIP3    H2 6865   4.891   2.129   6.455
 2308TIP3   OH2 6866   5.963   5.455   1.782
 2308TIP3    H1 6867   6.009   5.529   1.821
 2308TIP3    H2 6868   5.929   5.488   1.699
 2309TIP3   OH2 6869   5.762   6.218   4.554
 2309TIP3    H1 6870   5.848   6.257   4.537
 2309TIP3    H2 6871   5.746   6.236   4.647
 2310TIP3   OH2 6872   2.008   3.189   3.811
 2310TIP3    H1 6873   1.963   3.108   3.837
 2310TIP3    H2 6874   1.974   3.255   3.871
 2311TIP3   OH2 6875   1.725   2.982   1.156
 2311TIP3    H1 6876   1.713   3.029   1.073
 2311TIP3    H2 6877   1.802   2.928   1.141
 2312TIP3   OH2 6878   3.565   3.435   6.602
 2312TIP3    H1 6879   3.543   3.354   6.647
 2312TIP3    H2 6880   3.536   3.421   6.511
 2313TIP3   OH2 6881   4.108   2.390   3.798
 2313TIP3    H1 6882   4.089   2.408   3.706
 2313TIP3    H2 6883   4.119   2.476   3.838
 2314TIP3   OH2 6884   1.106   5.245   4.585
 2314TIP3    H1 6885   1.177   5.214   4.640
 2314TIP3    H2 6886   1.042   5.174   4.586
 2315TIP3   OH2 6887   1.860   3.271   1.547
 2315TIP3    H1 6888   1.765   3.278   1.532
 2315TIP3    H2 6889   1.869   3.268   1.642
 2316TIP3   OH2 6890   7.600   5.219   2.412
 2316TIP3    H1 6891   7.593   5.178   2.498
 2316TIP3    H2 6892   7.694   5.232   2.399
 2317TIP3   OH2 6893   5.362   5.171   5.705
 2317TIP3    H1 6894   5.317   5.167   5.620
 2317TIP3    H2 6895   5.294   5.147   5.769
 2318TIP3   OH2 6896   3.901   3.526   2.212
 2318TIP3    H1 6897   3.957   3.474   2.154
 2318TIP3    H2 6898   3.889   3.608   2.165
 2319TIP3   OH2 6899   5.817   3.897  -0.026
 2319TIP3    H1 6900   5.730   3.931  -0.004
 2319TIP3    H2 6901   5.859   3.882   0.058
 2320TIP3   OH2 6902   7.791   4.762   5.000
 2320TIP3    H1 6903   7.791   4.853   5.030
 2320TIP3    H2 6904   7.826   4.713   5.074
 2321TIP3   OH2 6905   5.437   7.016   5.598
 2321TIP3    H1 6906   5.520   6.980   5.566
 2321TIP3    H2 6907   5.433   6.989   5.690
 2322TIP3   OH2 6908   1.003   2.659   0.183
 2322TIP3    H1 6909   1.073   2.608   0.142
 2322TIP3    H2 6910   0.955   2.696   0.110
 2323TIP3   OH2 6911   5.864   1.903   6.574
 2323TIP3    H1 6912   5.879   1.809   6.568
 2323TIP3    H2 6913   5.867   1.921   6.668
 2324TIP3   OH2 6914   3.233   7.506   4.298
 2324TIP3    H1 6915   3.171   7.434   4.303
 2324TIP3    H2 6916   3.238   7.540   4.388
 2325TIP3   OH2 6917   3.807   0.365   3.153
 2325TIP3    H1 6918   3.885   0.317   3.182
 2325TIP3    H2 6919   3.733   0.315   3.189
 2326TIP3   OH2 6920   7.500   6.325   3.193
 2326TIP3    H1 6921   7.499   6.291   3.104
 2326TIP3    H2 6922   7.475   6.250   3.248
 2327TIP3   OH2 6923   4.662   1.141   0.614
 2327TIP3    H1 6924   4.587   1.151   0.554
 2327TIP3    H2 6925   4.664   1.047   0.633
 2328TIP3   OH2 6926   1.604   0.736   3.866
 2328TIP3    H1 6927   1.566   0.675   3.929
 2328TIP3    H2 6928   1.535   0.748   3.801
 2329TIP3   OH2 6929   1.045   5.659   0.105
 2329TIP3    H1 6930   1.072   5.691   0.192
 2329TIP3    H2 6931   0.951   5.676   0.102
 2330TIP3   OH2 6932   4.058   6.470   6.539
 2330TIP3    H1 6933   4.022   6.382   6.555
 2330TIP3    H2 6934   4.153   6.458   6.544
 2331TIP3   OH2 6935   7.836   2.137   5.724
 2331TIP3    H1 6936   7.863   2.048   5.747
 2331TIP3    H2 6937   7.916   2.180   5.693
 2332TIP3   OH2 6938   7.995   3.538   1.957
 2332TIP3    H1 6939   8.008   3.584   2.040
 2332TIP3    H2 6940   7.907   3.500   1.965
 2333TIP3   OH2 6941   7.580   2.509   2.358
 2333TIP3    H1 6942   7.635   2.470   2.290
 2333TIP3    H2 6943   7.635   2.508   2.436
 2334TIP3   OH2 6944   5.732   1.912   5.980
 2334TIP3    H1 6945   5.655   1.894   5.927
 2334TIP3    H2 6946   5.735   2.008   5.985
 2335TIP3   OH2 6947   2.917   3.454   3.539
 2335TIP3    H1 6948   2.979   3.434   3.468
 2335TIP3    H2 6949   2.925   3.379   3.599
 2336TIP3   OH2 6950   0.181   5.533   3.969
 2336TIP3    H1 6951   0.097   5.576   3.981
 2336TIP3    H2 6952   0.246   5.603   3.976
 2337TIP3   OH2 6953   6.109   3.870   1.155
 2337TIP3    H1 6954   6.138   3.819   1.079
 2337TIP3    H2 6955   6.021   3.836   1.174
 2338TIP3   OH2 6956   3.568   6.992   4.833
 2338TIP3    H1 6957   3.593   6.907   4.868
 2338TIP3    H2 6958   3.477   7.004   4.862
 2339TIP3   OH2 6959   3.739   0.717   0.154
 2339TIP3    H1 6960   3.700   0.772   0.085
 2339TIP3    H2 6961   3.723   0.627   0.125
 2340TIP3   OH2 6962   0.800   6.245   4.615
 2340TIP3    H1 6963   0.730   6.304   4.586
 2340TIP3    H2 6964   0.869   6.305   4.646
 2341TIP3   OH2 6965   5.334   1.168   1.021
 2341TIP3    H1 6966   5.424   1.144   1.001
 2341TIP3    H2 6967   5.341   1.240   1.083
 2342TIP3   OH2 6968   2.363   3.572   3.452
 2342TIP3    H1 6969   2.438   3.512   3.454
 2342TIP3    H2 6970   2.402   3.659   3.448
 2343TIP3   OH2 6971   1.267   2.081   0.968
 2343TIP3    H1 6972   1.288   2.022   1.041
 2343TIP3    H2 6973   1.198   2.137   1.003
 2344TIP3   OH2 6974   2.527   1.146   0.251
 2344TIP3    H1 6975   2.545   1.220   0.309
 2344TIP3    H2 6976   2.486   1.186   0.174
 2345TIP3   OH2 6977   2.257   1.570   1.534
 2345TIP3    H1 6978   2.323   1.613   1.480
 2345TIP3    H2 6979   2.301   1.494   1.571
 2346TIP3   OH2 6980   1.553   5.630   4.801
 2346TIP3    H1 6981   1.468   5.607   4.762
 2346TIP3    H2 6982   1.543   5.722   4.826
 2347TIP3   OH2 6983   0.507   6.991   1.483
 2347TIP3    H1 6984   0.487   6.983   1.577
 2347TIP3    H2 6985   0.544   7.079   1.474
 2348TIP3   OH2 6986   0.964   5.040   2.219
 2348TIP3    H1 6987   1.011   5.124   2.216
 2348TIP3    H2 6988   0.915   5.038   2.137
 2349TIP3   OH2 6989   6.178   1.469   0.856
 2349TIP3    H1 6990   6.234   1.432   0.787
 2349TIP3    H2 6991   6.137   1.545   0.814
 2350TIP3   OH2 6992   3.750   0.081   4.393
 2350TIP3    H1 6993   3.749   0.020   4.319
 2350TIP3    H2 6994   3.771   0.027   4.469
 2351TIP3   OH2 6995   0.250   7.688   4.693
 2351TIP3    H1 6996   0.164   7.720   4.668
 2351TIP3    H2 6997   0.234   7.597   4.720
 2352TIP3   OH2 6998   5.323   1.212   6.198
 2352TIP3    H1 6999   5.261   1.220   6.270
 2352TIP3    H2 7000   5.284   1.148   6.139
 2353TIP3   OH2 7001   7.841   0.120   3.021
 2353TIP3    H1 7002   7.778   0.048   3.023
 2353TIP3    H2 7003   7.851   0.141   2.928
 2354TIP3   OH2 7004   7.905   6.547   4.121
 2354TIP3    H1 7005   7.835   6.590   4.072
 2354TIP3    H2 7006   7.930   6.610   4.189
 2355TIP3   OH2 7007   7.100   0.894   2.817
 2355TIP3    H1 7008   7.082   0.984   2.843
 2355TIP3    H2 7009   7.175   0.900   2.758
 2356TIP3   OH2 7010   0.814   3.838   0.274
 2356TIP3    H1 7011   0.893   3.809   0.229
 2356TIP3    H2 7012   0.785   3.762   0.325
 2357TIP3   OH2 7013   5.305   6.062   3.894
 2357TIP3    H1 7014   5.295   6.016   3.811
 2357TIP3    H2 7015   5.396   6.090   3.895
 2358TIP3   OH2 7016   5.920   4.576   4.028
 2358TIP3    H1 7017   5.855   4.518   4.069
 2358TIP3    H2 7018   5.886   4.664   4.043
 2359TIP3   OH2 7019   4.572   4.791   2.387
 2359TIP3    H1 7020   4.614   4.811   2.303
 2359TIP3    H2 7021   4.522   4.870   2.408
 2360TIP3   OH2 7022   1.665   7.798   0.885
 2360TIP3    H1 7023   1.735   7.736   0.907
 2360TIP3    H2 7024   1.620   7.757   0.811
 2361TIP3   OH2 7025   4.912   1.490   2.840
 2361TIP3    H1 7026   4.896   1.456   2.928
 2361TIP3    H2 7027   4.993   1.540   2.849
 2362TIP3   OH2 7028   2.040   7.235   4.624
 2362TIP3    H1 7029   2.049   7.266   4.713
 2362TIP3    H2 7030   2.000   7.308   4.576
 2363TIP3   OH2 7031   3.189   2.126   3.747
 2363TIP3    H1 7032   3.160   2.109   3.658
 2363TIP3    H2 7033   3.283   2.110   3.745
 2364TIP3   OH2 7034   1.003   6.829   4.907
 2364TIP3    H1 7035   1.016   6.754   4.965
 2364TIP3    H2 7036   1.077   6.887   4.927
 2365TIP3   OH2 7037   7.531   4.410   1.637
 2365TIP3    H1 7038   7.569   4.408   1.725
 2365TIP3    H2 7039   7.497   4.499   1.628
 2366TIP3   OH2 7040   6.507   6.721   1.931
 2366TIP3    H1 7041   6.510   6.720   2.027
 2366TIP3    H2 7042   6.415   6.712   1.910
 2367TIP3   OH2 7043   8.202   0.365   3.102
 2367TIP3    H1 7044   8.246   0.295   3.056
 2367TIP3    H2 7045   8.272   0.410   3.150
 2368TIP3   OH2 7046   3.914   2.212   1.355
 2368TIP3    H1 7047   3.984   2.216   1.290
 2368TIP3    H2 7048   3.946   2.267   1.428
 2369TIP3   OH2 7049   1.925   5.806   3.952
 2369TIP3    H1 7050   1.953   5.758   3.874
 2369TIP3    H2 7051   1.830   5.815   3.940
 2370TIP3   OH2 7052   2.924   6.524   5.169
 2370TIP3    H1 7053   2.991   6.456   5.157
 2370TIP3    H2 7054   2.843   6.474   5.184
 2371TIP3   OH2 7055   7.368   0.553   1.442
 2371TIP3    H1 7056   7.352   0.487   1.509
 2371TIP3    H2 7057   7.464   0.554   1.433
 2372TIP3   OH2 7058   1.018   2.699   2.839
 2372TIP3    H1 7059   0.996   2.621   2.789
 2372TIP3    H2 7060   1.081   2.669   2.905
 2373TIP3   OH2 7061   7.908   5.739   2.413
 2373TIP3    H1 7062   7.957   5.744   2.495
 2373TIP3    H2 7063   7.904   5.645   2.394
 2374TIP3   OH2 7064   4.180   0.595   0.302
 2374TIP3    H1 7065   4.155   0.532   0.234
 2374TIP3    H2 7066   4.106   0.655   0.308
 2375TIP3   OH2 7067   2.414   3.770   4.752
 2375TIP3    H1 7068   2.416   3.844   4.691
 2375TIP3    H2 7069   2.326   3.734   4.743
 2376TIP3   OH2 7070   0.906   7.188   0.051
 2376TIP3    H1 7071   0.944   7.202  -0.036
 2376TIP3    H2 7072   0.892   7.276   0.086
 2377TIP3   OH2 7073   4.544   3.579   1.819
 2377TIP3    H1 7074   4.506   3.661   1.851
 2377TIP3    H2 7075   4.589   3.542   1.895
 2378TIP3   OH2 7076   7.858   2.714   6.235
 2378TIP3    H1 7077   7.906   2.672   6.307
 2378TIP3    H2 7078   7.925   2.737   6.171
 2379TIP3   OH2 7079   2.529   4.271   1.756
 2379TIP3    H1 7080   2.500   4.326   1.682
 2379TIP3    H2 7081   2.476   4.301   1.830
 2380TIP3   OH2 7082   2.804   2.112   6.324
 2380TIP3    H1 7083   2.799   2.150   6.411
 2380TIP3    H2 7084   2.897   2.093   6.311
 2381TIP3   OH2 7085   5.392   5.689   4.607
 2381TIP3    H1 7086   5.304   5.666   4.578
 2381TIP3    H2 7087   5.405   5.636   4.687
 2382TIP3   OH2 7088   5.514   4.753   0.598
 2382TIP3    H1 7089   5.503   4.738   0.504
 2382TIP3    H2 7090   5.601   4.792   0.607
 2383TIP3   OH2 7091   1.649   7.517   5.905
 2383TIP3    H1 7092   1.604   7.433   5.894
 2383TIP3    H2 7093   1.598   7.578   5.851
 2384TIP3   OH2 7094   1.018   2.453   4.518
 2384TIP3    H1 7095   0.957   2.504   4.465
 2384TIP3    H2 7096   1.003   2.483   4.608
 2385TIP3   OH2 7097   3.687   7.086   1.435
 2385TIP3    H1 7098   3.680   7.116   1.345
 2385TIP3    H2 7099   3.640   7.151   1.486
 2386TIP3   OH2 7100   0.310   3.641   5.880
 2386TIP3    H1 7101   0.393   3.601   5.907
 2386TIP3    H2 7102   0.247   3.614   5.946
 2387TIP3   OH2 7103   5.809   4.613   1.923
 2387TIP3    H1 7104   5.718   4.638   1.904
 2387TIP3    H2 7105   5.830   4.659   2.004
 2388TIP3   OH2 7106   7.168   6.514   1.345
 2388TIP3    H1 7107   7.202   6.510   1.256
 2388TIP3    H2 7108   7.132   6.602   1.353
 2389TIP3   OH2 7109   7.751   7.616   0.789
 2389TIP3    H1 7110   7.841   7.588   0.805
 2389TIP3    H2 7111   7.749   7.707   0.818
 2390TIP3   OH2 7112   5.288   1.913   3.514
 2390TIP3    H1 7113   5.309   1.826   3.479
 2390TIP3    H2 7114   5.204   1.901   3.559
 2391TIP3   OH2 7115   6.987   5.575   5.466
 2391TIP3    H1 7116   6.925   5.515   5.507
 2391TIP3    H2 7117   7.042   5.518   5.412
 2392TIP3   OH2 7118   4.549   5.443   5.873
 2392TIP3    H1 7119   4.588   5.390   5.803
 2392TIP3    H2 7120   4.573   5.398   5.954
 2393TIP3   OH2 7121   0.775   4.534   6.102
 2393TIP3    H1 7122   0.749   4.556   6.013
 2393TIP3    H2 7123   0.719   4.459   6.125
 2394TIP3   OH2 7124   4.209   1.258   5.219
 2394TIP3    H1 7125   4.305   1.251   5.213
 2394TIP3    H2 7126   4.192   1.260   5.313
 2395TIP3   OH2 7127   3.456   4.030   4.871
 2395TIP3    H1 7128   3.437   4.021   4.964
 2395TIP3    H2 7129   3.435   3.944   4.834
 2396TIP3   OH2 7130   6.662   6.242   2.717
 2396TIP3    H1 7131   6.689   6.269   2.629
 2396TIP3    H2 7132   6.638   6.150   2.707
 2397TIP3   OH2 7133   3.077   6.641   1.130
 2397TIP3    H1 7134   3.067   6.686   1.214
 2397TIP3    H2 7135   3.171   6.642   1.114
 2398TIP3   OH2 7136   7.033   6.159   2.212
 2398TIP3    H1 7137   6.981   6.109   2.275
 2398TIP3    H2 7138   7.053   6.097   2.142
 2399TIP3   OH2 7139   7.881   4.543   0.926
 2399TIP3    H1 7140   7.959   4.591   0.898
 2399TIP3    H2 7141   7.808   4.599   0.900
 2400TIP3   OH2 7142   6.089   2.438   1.548
 2400TIP3    H1 7143   6.160   2.463   1.489
 2400TIP3    H2 7144   6.015   2.417   1.490
 2401TIP3   OH2 7145   1.285   3.626   1.491
 2401TIP3    H1 7146   1.376   3.604   1.508
 2401TIP3    H2 7147   1.237   3.588   1.564
 2402TIP3   OH2 7148   2.134   5.199   1.291
 2402TIP3    H1 7149   2.120   5.119   1.342
 2402TIP3    H2 7150   2.197   5.250   1.341
 2403TIP3   OH2 7151   8.145   2.440   5.154
 2403TIP3    H1 7152   8.186   2.372   5.100
 2403TIP3    H2 7153   8.074   2.395   5.199
 2404TIP3   OH2 7154   7.635   3.624   4.156
 2404TIP3    H1 7155   7.720   3.668   4.148
 2404TIP3    H2 7156   7.572   3.688   4.121
 2405TIP3   OH2 7157   6.802   3.460   3.110
 2405TIP3    H1 7158   6.845   3.441   3.193
 2405TIP3    H2 7159   6.871   3.496   3.055
 2406TIP3   OH2 7160   1.271   4.926   0.756
 2406TIP3    H1 7161   1.313   4.865   0.696
 2406TIP3    H2 7162   1.177   4.917   0.739
 2407TIP3   OH2 7163   0.448   3.093   5.266
 2407TIP3    H1 7164   0.435   3.046   5.348
 2407TIP3    H2 7165   0.368   3.076   5.216
 2408TIP3   OH2 7166   3.145   4.343   2.325
 2408TIP3    H1 7167   3.195   4.281   2.271
 2408TIP3    H2 7168   3.057   4.341   2.289
 2409TIP3   OH2 7169   1.982   6.890   4.454
 2409TIP3    H1 7170   2.019   6.916   4.538
 2409TIP3    H2 7171   2.058   6.871   4.399
 2410TIP3   OH2 7172   1.830   6.597   0.797
 2410TIP3    H1 7173   1.876   6.656   0.856
 2410TIP3    H2 7174   1.898   6.538   0.763
 2411TIP3   OH2 7175   5.477   6.110   3.169
 2411TIP3    H1 7176   5.407   6.082   3.110
 2411TIP3    H2 7177   5.557   6.077   3.129
 2412TIP3   OH2 7178   1.738   7.672   0.503
 2412TIP3    H1 7179   1.834   7.675   0.498
 2412TIP3    H2 7180   1.709   7.662   0.412
 2413TIP3   OH2 7181   3.843   2.359   3.813
 2413TIP3    H1 7182   3.921   2.305   3.801
 2413TIP3    H2 7183   3.842   2.378   3.907
 2414TIP3   OH2 7184   2.254   5.567   3.121
 2414TIP3    H1 7185   2.330   5.558   3.179
 2414TIP3    H2 7186   2.266   5.651   3.079
 2415TIP3   OH2 7187   0.724   5.461   2.319
 2415TIP3    H1 7188   0.650   5.519   2.338
 2415TIP3    H2 7189   0.750   5.484   2.230
 2416TIP3   OH2 7190   4.334   2.588   1.822
 2416TIP3    H1 7191   4.329   2.682   1.809
 2416TIP3    H2 7192   4.346   2.577   1.916
 2417TIP3   OH2 7193   2.672   4.695   4.505
 2417TIP3    H1 7194   2.670   4.674   4.412
 2417TIP3    H2 7195   2.752   4.748   4.515
 2418TIP3   OH2 7196   7.892   3.997   6.547
 2418TIP3    H1 7197   7.833   3.925   6.524
 2418TIP3    H2 7198   7.925   4.029   6.463
 2419TIP3   OH2 7199   0.694   1.485   4.836
 2419TIP3    H1 7200   0.695   1.577   4.808
 2419TIP3    H2 7201   0.753   1.441   4.775
 2420TIP3   OH2 7202   6.847   4.118   1.442
 2420TIP3    H1 7203   6.859   4.069   1.523
 2420TIP3    H2 7204   6.919   4.181   1.441
 2421TIP3   OH2 7205   3.318   4.083   2.608
 2421TIP3    H1 7206   3.399   4.094   2.558
 2421TIP3    H2 7207   3.251   4.125   2.555
 2422TIP3   OH2 7208   5.276   6.994   2.696
 2422TIP3    H1 7209   5.213   6.961   2.760
 2422TIP3    H2 7210   5.239   7.077   2.667
 2423TIP3   OH2 7211   6.256   4.383   3.824
 2423TIP3    H1 7212   6.307   4.303   3.839
 2423TIP3    H2 7213   6.320   4.447   3.795
 2424TIP3   OH2 7214   0.151   2.887   5.148
 2424TIP3    H1 7215   0.141   2.852   5.060
 2424TIP3    H2 7216   0.062   2.901   5.179
 2425TIP3   OH2 7217   1.167   5.455   5.709
 2425TIP3    H1 7218   1.120   5.487   5.786
 2425TIP3    H2 7219   1.246   5.415   5.745
 2426TIP3   OH2 7220   1.095   5.586   5.485
 2426TIP3    H1 7221   1.121   5.677   5.499
 2426TIP3    H2 7222   1.117   5.542   5.567
 2427TIP3   OH2 7223   1.544   7.380   1.259
 2427TIP3    H1 7224   1.586   7.406   1.341
 2427TIP3    H2 7225   1.452   7.402   1.271
 2428TIP3   OH2 7226   3.224   6.227   3.013
 2428TIP3    H1 7227   3.161   6.186   2.954
 2428TIP3    H2 7228   3.265   6.296   2.961
 2429TIP3   OH2 7229   4.604   2.948   0.150
 2429TIP3    H1 7230   4.624   2.877   0.211
 2429TIP3    H2 7231   4.522   2.921   0.108
 2430TIP3   OH2 7232   0.915   1.849   3.842
 2430TIP3    H1 7233   0.904   1.810   3.928
 2430TIP3    H2 7234   0.996   1.900   3.849
 2431TIP3   OH2 7235  -0.007   3.488   3.325
 2431TIP3    H1 7236   0.058   3.505   3.257
 2431TIP3    H2 7237  -0.074   3.554   3.310
 2432TIP3   OH2 7238   3.598   4.535   3.189
 2432TIP3    H1 7239   3.611   4.619   3.143
 2432TIP3    H2 7240   3.583   4.560   3.280
 2433TIP3   OH2 7241   2.695   7.657   4.700
 2433TIP3    H1 7242   2.693   7.673   4.794
 2433TIP3    H2 7243   2.691   7.561   4.692
 2434TIP3   OH2 7244   2.097   2.965   2.123
 2434TIP3    H1 7245   2.175   3.017   2.105
 2434TIP3    H2 7246   2.119   2.915   2.202
 2435TIP3   OH2 7247   6.302   7.657   0.391
 2435TIP3    H1 7248   6.285   7.569   0.425
 2435TIP3    H2 7249   6.215   7.696   0.383
 2436TIP3   OH2 7250   5.665   0.587   4.971
 2436TIP3    H1 7251   5.674   0.576   4.877
 2436TIP3    H2 7252   5.574   0.565   4.990
 2437TIP3   OH2 7253   8.016   7.133   2.842
 2437TIP3    H1 7254   8.083   7.200   2.842
 2437TIP3    H2 7255   7.938   7.177   2.808
 2438TIP3   OH2 7256   6.024   3.502   5.497
 2438TIP3    H1 7257   6.028   3.471   5.406
 2438TIP3    H2 7258   6.023   3.597   5.490
 2439TIP3   OH2 7259   7.608   5.778   6.258
 2439TIP3    H1 7260   7.526   5.736   6.232
 2439TIP3    H2 7261   7.648   5.804   6.175
 2440TIP3   OH2 7262   7.909   5.406   5.125
 2440TIP3    H1 7263   7.931   5.316   5.099
 2440TIP3    H2 7264   7.852   5.438   5.055
 2441TIP3   OH2 7265   6.347   2.618   2.864
 2441TIP3    H1 7266   6.401   2.677   2.917
 2441TIP3    H2 7267   6.263   2.613   2.910
 2442TIP3   OH2 7268   1.692   0.962   1.262
 2442TIP3    H1 7269   1.628   1.006   1.318
 2442TIP3    H2 7270   1.766   0.943   1.320
 2443TIP3   OH2 7271   6.079   1.872   1.887
 2443TIP3    H1 7272   6.149   1.931   1.859
 2443TIP3    H2 7273   6.026   1.926   1.946
 2444TIP3   OH2 7274   5.347   3.464   6.043
 2444TIP3    H1 7275   5.291   3.487   6.118
 2444TIP3    H2 7276   5.346   3.542   5.988
 2445TIP3   OH2 7277   6.349   6.624   0.913
 2445TIP3    H1 7278   6.261   6.659   0.927
 2445TIP3    H2 7279   6.395   6.641   0.995
 2446TIP3   OH2 7280   3.144   7.681   3.152
 2446TIP3    H1 7281   3.097   7.761   3.173
 2446TIP3    H2 7282   3.216   7.678   3.215
 2447TIP3   OH2 7283   7.307   7.595   4.386
 2447TIP3    H1 7284   7.384   7.614   4.333
 2447TIP3    H2 7285   7.269   7.516   4.347
 2448TIP3   OH2 7286   7.089   5.105   1.056
 2448TIP3    H1 7287   7.098   5.159   1.135
 2448TIP3    H2 7288   7.084   5.015   1.089
 2449TIP3   OH2 7289   2.935   0.637   5.632
 2449TIP3    H1 7290   2.879   0.596   5.566
 2449TIP3    H2 7291   3.008   0.577   5.643
 2450TIP3   OH2 7292   3.857   1.621   5.856
 2450TIP3    H1 7293   3.816   1.700   5.821
 2450TIP3    H2 7294   3.935   1.608   5.803
 2451TIP3   OH2 7295   0.216   3.467   2.676
 2451TIP3    H1 7296   0.133   3.500   2.642
 2451TIP3    H2 7297   0.192   3.397   2.736
 2452TIP3   OH2 7298   7.164   2.277   6.562
 2452TIP3    H1 7299   7.100   2.225   6.610
 2452TIP3    H2 7300   7.248   2.252   6.600
 2453TIP3   OH2 7301   0.544   1.226   2.155
 2453TIP3    H1 7302   0.496   1.279   2.091
 2453TIP3    H2 7303   0.636   1.237   2.133
 2454TIP3   OH2 7304   0.406   3.613   2.793
 2454TIP3    H1 7305   0.374   3.621   2.883
 2454TIP3    H2 7306   0.334   3.569   2.746
 2455TIP3   OH2 7307   0.434   4.167   5.023
 2455TIP3    H1 7308   0.516   4.186   4.978
 2455TIP3    H2 7309   0.388   4.107   4.964
 2456TIP3   OH2 7310   2.480   5.999   0.959
 2456TIP3    H1 7311   2.473   6.089   0.990
 2456TIP3    H2 7312   2.430   5.997   0.878
 2457TIP3   OH2 7313   7.759   6.736   5.585
 2457TIP3    H1 7314   7.763   6.662   5.646
 2457TIP3    H2 7315   7.850   6.759   5.569
 2458TIP3   OH2 7316   3.269   0.783   2.283
 2458TIP3    H1 7317   3.310   0.856   2.237
 2458TIP3    H2 7318   3.176   0.806   2.286
 2459TIP3   OH2 7319   0.438   4.610   6.389
 2459TIP3    H1 7320   0.381   4.592   6.464
 2459TIP3    H2 7321   0.481   4.526   6.372
 2460TIP3   OH2 7322   1.469   6.402   1.705
 2460TIP3    H1 7323   1.515   6.376   1.785
 2460TIP3    H2 7324   1.493   6.335   1.641
 2461TIP3   OH2 7325   2.145   2.807   3.172
 2461TIP3    H1 7326   2.121   2.795   3.080
 2461TIP3    H2 7327   2.240   2.819   3.170
 2462TIP3   OH2 7328   5.423   6.296   2.357
 2462TIP3    H1 7329   5.410   6.385   2.324
 2462TIP3    H2 7330   5.339   6.273   2.396
 2463TIP3   OH2 7331   5.305   1.461   0.247
 2463TIP3    H1 7332   5.251   1.417   0.313
 2463TIP3    H2 7333   5.378   1.498   0.297
 2464TIP3   OH2 7334   4.271   5.563   6.608
 2464TIP3    H1 7335   4.315   5.636   6.566
 2464TIP3    H2 7336   4.341   5.501   6.628
 2465TIP3   OH2 7337   7.577   7.293   3.356
 2465TIP3    H1 7338   7.665   7.288   3.319
 2465TIP3    H2 7339   7.560   7.204   3.389
 2466TIP3   OH2 7340   0.621   5.715   2.711
 2466TIP3    H1 7341   0.527   5.715   2.726
 2466TIP3    H2 7342   0.636   5.786   2.649
 2467TIP3   OH2 7343   3.348   1.832   5.325
 2467TIP3    H1 7344   3.384   1.750   5.359
 2467TIP3    H2 7345   3.360   1.827   5.230
 2468TIP3   OH2 7346   4.687   4.201   3.267
 2468TIP3    H1 7347   4.611   4.228   3.319
 2468TIP3    H2 7348   4.681   4.106   3.263
 2469TIP3   OH2 7349   7.908   0.837   2.754
 2469TIP3    H1 7350   7.901   0.885   2.836
 2469TIP3    H2 7351   7.819   0.806   2.737
 2470TIP3   OH2 7352   5.588   6.292   1.909
 2470TIP3    H1 7353   5.534   6.349   1.962
 2470TIP3    H2 7354   5.527   6.228   1.872
 2471TIP3   OH2 7355   0.201   1.199   6.254
 2471TIP3    H1 7356   0.242   1.274   6.297
 2471TIP3    H2 7357   0.275   1.148   6.221
 2472TIP3   OH2 7358   2.249   2.369   3.350
 2472TIP3    H1 7359   2.298   2.354   3.431
 2472TIP3    H2 7360   2.310   2.346   3.280
 2473TIP3   OH2 7361   4.618   7.185   6.485
 2473TIP3    H1 7362   4.613   7.224   6.572
 2473TIP3    H2 7363   4.527   7.177   6.457
 2474TIP3   OH2 7364   4.246   7.007   1.637
 2474TIP3    H1 7365   4.194   7.077   1.677
 2474TIP3    H2 7366   4.247   7.028   1.544
 2475TIP3   OH2 7367   4.441   3.833   0.355
 2475TIP3    H1 7368   4.492   3.847   0.434
 2475TIP3    H2 7369   4.351   3.823   0.385
 2476TIP3   OH2 7370   4.643   5.526   2.848
 2476TIP3    H1 7371   4.728   5.569   2.843
 2476TIP3    H2 7372   4.612   5.524   2.757
 2477TIP3   OH2 7373   0.039   0.997   6.276
 2477TIP3    H1 7374   0.086   1.078   6.259
 2477TIP3    H2 7375   0.060   0.975   6.366
 2478TIP3   OH2 7376   0.215   1.635   3.494
 2478TIP3    H1 7377   0.264   1.709   3.459
 2478TIP3    H2 7378   0.257   1.616   3.578
 2479TIP3   OH2 7379   0.638   1.620   2.370
 2479TIP3    H1 7380   0.716   1.603   2.318
 2479TIP3    H2 7381   0.664   1.691   2.429
 2480TIP3   OH2 7382   1.147   0.944   5.158
 2480TIP3    H1 7383   1.103   1.006   5.216
 2480TIP3    H2 7384   1.108   0.960   5.072
 2481TIP3   OH2 7385   5.269   3.522   3.375
 2481TIP3    H1 7386   5.334   3.557   3.313
 2481TIP3    H2 7387   5.188   3.517   3.323
 2482TIP3   OH2 7388   3.233   3.815   3.765
 2482TIP3    H1 7389   3.235   3.766   3.847
 2482TIP3    H2 7390   3.143   3.845   3.757
 2483TIP3   OH2 7391   3.263   1.616   1.068
 2483TIP3    H1 7392   3.177   1.643   1.102
 2483TIP3    H2 7393   3.260   1.640   0.976
 2484TIP3   OH2 7394   8.160   0.281   6.440
 2484TIP3    H1 7395   8.255   0.279   6.440
 2484TIP3    H2 7396   8.134   0.220   6.510
 2485TIP3   OH2 7397   5.643   0.272   4.826
 2485TIP3    H1 7398   5.652   0.237   4.915
 2485TIP3    H2 7399   5.552   0.302   4.822
 2486TIP3   OH2 7400   0.818   4.740   3.357
 2486TIP3    H1 7401   0.826   4.836   3.357
 2486TIP3    H2 7402   0.763   4.721   3.433
 2487TIP3   OH2 7403   7.674   4.918   2.077
 2487TIP3    H1 7404   7.650   4.832   2.110
 2487TIP3    H2 7405   7.715   4.900   1.992
 2488TIP3   OH2 7406   2.301   1.037   0.376
 2488TIP3    H1 7407   2.380   1.076   0.337
 2488TIP3    H2 7408   2.231   1.099   0.358
 2489TIP3   OH2 7409   4.318   5.308   5.507
 2489TIP3    H1 7410   4.241   5.253   5.521
 2489TIP3    H2 7411   4.388   5.263   5.554
 2490TIP3   OH2 7412   6.218   1.816   2.157
 2490TIP3    H1 7413   6.173   1.821   2.073
 2490TIP3    H2 7414   6.154   1.777   2.216
 2491TIP3   OH2 7415   0.219   1.790   6.006
 2491TIP3    H1 7416   0.293   1.841   5.973
 2491TIP3    H2 7417   0.206   1.822   6.096
 2492TIP3   OH2 7418   7.916   1.061   1.266
 2492TIP3    H1 7419   8.010   1.043   1.277
 2492TIP3    H2 7420   7.900   1.137   1.322
 2493TIP3   OH2 7421   3.749   1.315   4.284
 2493TIP3    H1 7422   3.779   1.393   4.237
 2493TIP3    H2 7423   3.696   1.267   4.221
 2494TIP3   OH2 7424   6.551   7.425   0.006
 2494TIP3    H1 7425   6.483   7.439   0.072
 2494TIP3    H2 7426   6.507   7.377  -0.064
 2495TIP3   OH2 7427   0.492   0.648   6.731
 2495TIP3    H1 7428   0.532   0.621   6.648
 2495TIP3    H2 7429   0.400   0.622   6.723
 2496TIP3   OH2 7430   4.212   2.767   6.478
 2496TIP3    H1 7431   4.251   2.683   6.453
 2496TIP3    H2 7432   4.230   2.775   6.572
 2497TIP3   OH2 7433   1.938   2.180   2.603
 2497TIP3    H1 7434   1.864   2.239   2.620
 2497TIP3    H2 7435   2.015   2.236   2.610
 2498TIP3   OH2 7436   4.537   0.565   2.372
 2498TIP3    H1 7437   4.521   0.565   2.466
 2498TIP3    H2 7438   4.504   0.650   2.342
 2499TIP3   OH2 7439   4.570   1.428   5.383
 2499TIP3    H1 7440   4.602   1.492   5.319
 2499TIP3    H2 7441   4.580   1.344   5.340
 2500TIP3   OH2 7442   5.070   4.453   2.748
 2500TIP3    H1 7443   5.091   4.539   2.784
 2500TIP3    H2 7444   5.013   4.413   2.814
 2501TIP3   OH2 7445   2.781   3.711   2.118
 2501TIP3    H1 7446   2.854   3.696   2.057
 2501TIP3    H2 7447   2.765   3.626   2.157
 2502TIP3   OH2 7448   0.871   4.073   3.491
 2502TIP3    H1 7449   0.913   4.046   3.573
 2502TIP3    H2 7450   0.852   3.990   3.445
 2503TIP3   OH2 7451   8.228   2.395   6.499
 2503TIP3    H1 7452   8.294   2.412   6.433
 2503TIP3    H2 7453   8.271   2.338   6.563
 2504TIP3   OH2 7454   1.420   3.177   6.259
 2504TIP3    H1 7455   1.471   3.117   6.313
 2504TIP3    H2 7456   1.382   3.122   6.191
 2505TIP3   OH2 7457   4.210   3.518   2.849
 2505TIP3    H1 7458   4.225   3.606   2.883
 2505TIP3    H2 7459   4.272   3.509   2.777
 2506TIP3   OH2 7460   8.262   7.350   4.963
 2506TIP3    H1 7461   8.294   7.379   4.878
 2506TIP3    H2 7462   8.194   7.413   4.985
 2507TIP3   OH2 7463   0.997   3.910   3.953
 2507TIP3    H1 7464   1.030   3.839   4.009
 2507TIP3    H2 7465   1.045   3.987   3.981
 2508TIP3   OH2 7466   1.028   4.550   6.283
 2508TIP3    H1 7467   1.054   4.535   6.193
 2508TIP3    H2 7468   0.947   4.501   6.293
 2509TIP3   OH2 7469   4.215   0.074   0.510
 2509TIP3    H1 7470   4.157   0.133   0.463
 2509TIP3    H2 7471   4.298   0.123   0.517
 2510TIP3   OH2 7472   3.475   0.393   4.286
 2510TIP3    H1 7473   3.403   0.330   4.288
 2510TIP3    H2 7474   3.434   0.477   4.306
 2511TIP3   OH2 7475   2.605   1.961   2.737
 2511TIP3    H1 7476   2.672   2.009   2.786
 2511TIP3    H2 7477   2.525   2.012   2.751
 2512TIP3   OH2 7478   6.491   5.696   0.802
 2512TIP3    H1 7479   6.521   5.750   0.875
 2512TIP3    H2 7480   6.426   5.750   0.757
 2513TIP3   OH2 7481   1.504   6.538   3.136
 2513TIP3    H1 7482   1.527   6.461   3.188
 2513TIP3    H2 7483   1.451   6.503   3.064
 2514TIP3   OH2 7484   0.209   0.356   3.856
 2514TIP3    H1 7485   0.286   0.395   3.898
 2514TIP3    H2 7486   0.140   0.361   3.921
 2515TIP3   OH2 7487   3.620   0.156   4.051
 2515TIP3    H1 7488   3.715   0.162   4.040
 2515TIP3    H2 7489   3.590   0.247   4.056
 2516TIP3   OH2 7490   4.150   3.040   1.329
 2516TIP3    H1 7491   4.084   2.973   1.311
 2516TIP3    H2 7492   4.100   3.122   1.333
 2517TIP3   OH2 7493   7.640   6.299   2.588
 2517TIP3    H1 7494   7.628   6.220   2.640
 2517TIP3    H2 7495   7.732   6.323   2.601
 2518TIP3   OH2 7496   8.238   5.747   0.156
 2518TIP3    H1 7497   8.213   5.727   0.247
 2518TIP3    H2 7498   8.324   5.706   0.146
 2519TIP3   OH2 7499   5.578   1.036   0.958
 2519TIP3    H1 7500   5.606   0.997   1.041
 2519TIP3    H2 7501   5.649   1.096   0.935
 2520TIP3   OH2 7502   3.765   3.257   4.499
 2520TIP3    H1 7503   3.732   3.344   4.521
 2520TIP3    H2 7504   3.859   3.269   4.485
 2521TIP3   OH2 7505   0.950   7.223   4.972
 2521TIP3    H1 7506   0.922   7.182   5.053
 2521TIP3    H2 7507   0.932   7.316   4.985
 2522TIP3   OH2 7508   3.185   7.420   1.040
 2522TIP3    H1 7509   3.102   7.426   1.087
 2522TIP3    H2 7510   3.175   7.342   0.984
 2523TIP3   OH2 7511   5.669   5.718   2.876
 2523TIP3    H1 7512   5.621   5.737   2.957
 2523TIP3    H2 7513   5.725   5.795   2.864
 2524TIP3   OH2 7514   4.109   5.762   6.733
 2524TIP3    H1 7515   4.159   5.689   6.697
 2524TIP3    H2 7516   4.069   5.727   6.813
 2525TIP3   OH2 7517   7.801   2.413   5.521
 2525TIP3    H1 7518   7.723   2.427   5.575
 2525TIP3    H2 7519   7.868   2.385   5.583
 2526TIP3   OH2 7520   0.116   6.500   2.247
 2526TIP3    H1 7521   0.063   6.543   2.314
 2526TIP3    H2 7522   0.053   6.453   2.192
 2527TIP3   OH2 7523   4.810   2.062   5.285
 2527TIP3    H1 7524   4.814   1.967   5.295
 2527TIP3    H2 7525   4.875   2.095   5.348
 2528TIP3   OH2 7526   5.197   2.616   0.502
 2528TIP3    H1 7527   5.216   2.531   0.543
 2528TIP3    H2 7528   5.199   2.599   0.408
 2529TIP3   OH2 7529   5.108   3.210   1.432
 2529TIP3    H1 7530   5.161   3.169   1.363
 2529TIP3    H2 7531   5.143   3.299   1.439
 2530TIP3   OH2 7532   7.503   1.201   3.945
 2530TIP3    H1 7533   7.419   1.232   3.980
 2530TIP3    H2 7534   7.480   1.127   3.890
 2531TIP3   OH2 7535   0.100   5.461   5.105
 2531TIP3    H1 7536   0.079   5.394   5.040
 2531TIP3    H2 7537   0.017   5.508   5.119
 2532TIP3   OH2 7538   2.341   5.999   3.370
 2532TIP3    H1 7539   2.304   6.055   3.439
 2532TIP3    H2 7540   2.312   6.040   3.288
 2533TIP3   OH2 7541   2.358   1.127   3.524
 2533TIP3    H1 7542   2.335   1.168   3.607
 2533TIP3    H2 7543   2.414   1.191   3.481
 2534TIP3   OH2 7544   7.909   4.139   1.350
 2534TIP3    H1 7545   7.831   4.175   1.393
 2534TIP3    H2 7546   7.933   4.204   1.285
 2535TIP3   OH2 7547   7.867   5.221   4.228
 2535TIP3    H1 7548   7.809   5.246   4.156
 2535TIP3    H2 7549   7.840   5.132   4.251
 2536TIP3   OH2 7550   8.200   1.445   1.168
 2536TIP3    H1 7551   8.177   1.535   1.143
 2536TIP3    H2 7552   8.275   1.423   1.112
 2537TIP3   OH2 7553   4.633   1.200   5.910
 2537TIP3    H1 7554   4.578   1.135   5.953
 2537TIP3    H2 7555   4.674   1.248   5.982
 2538TIP3   OH2 7556   4.910   6.035   1.379
 2538TIP3    H1 7557   4.843   6.057   1.444
 2538TIP3    H2 7558   4.934   6.118   1.339
 2539TIP3   OH2 7559   0.123   1.401   1.003
 2539TIP3    H1 7560   0.145   1.466   0.937
 2539TIP3    H2 7561   0.198   1.341   1.004
 2540TIP3   OH2 7562   2.579   2.237   4.619
 2540TIP3    H1 7563   2.591   2.193   4.535
 2540TIP3    H2 7564   2.546   2.324   4.596
 2541TIP3   OH2 7565   1.039   1.732   4.355
 2541TIP3    H1 7566   1.061   1.805   4.413
 2541TIP3    H2 7567   1.016   1.661   4.415
 2542TIP3   OH2 7568   0.534   1.299   1.046
 2542TIP3    H1 7569   0.585   1.309   1.127
 2542TIP3    H2 7570   0.471   1.371   1.049
 2543TIP3   OH2 7571   2.686   5.943   2.333
 2543TIP3    H1 7572   2.704   5.870   2.392
 2543TIP3    H2 7573   2.624   5.998   2.381
 2544TIP3   OH2 7574   0.537   1.464   3.356
 2544TIP3    H1 7575   0.543   1.544   3.407
 2544TIP3    H2 7576   0.628   1.438   3.343
 2545TIP3   OH2 7577  -0.002   7.616   0.697
 2545TIP3    H1 7578  -0.038   7.659   0.619
 2545TIP3    H2 7579   0.081   7.578   0.668
 2546TIP3   OH2 7580   3.141   6.272   0.496
 2546TIP3    H1 7581   3.110   6.191   0.537
 2546TIP3    H2 7582   3.060   6.320   0.475
 2547TIP3   OH2 7583   7.266   6.810   1.811
 2547TIP3    H1 7584   7.193   6.795   1.871
 2547TIP3    H2 7585   7.267   6.732   1.755
 2548TIP3   OH2 7586   1.838   4.248   5.910
 2548TIP3    H1 7587   1.844   4.269   5.817
 2548TIP3    H2 7588   1.928   4.233   5.937
 2549TIP3   OH2 7589   5.639   7.801   5.191
 2549TIP3    H1 7590   5.727   7.789   5.225
 2549TIP3    H2 7591   5.593   7.720   5.214
 2550TIP3   OH2 7592   2.751   2.036   6.608
 2550TIP3    H1 7593   2.757   1.955   6.557
 2550TIP3    H2 7594   2.827   2.034   6.666
 2551TIP3   OH2 7595   6.272   4.949   5.005
 2551TIP3    H1 7596   6.212   4.897   4.952
 2551TIP3    H2 7597   6.330   4.885   5.046
 2552TIP3   OH2 7598   1.282   1.147   2.024
 2552TIP3    H1 7599   1.271   1.202   1.946
 2552TIP3    H2 7600   1.229   1.069   2.005
 2553TIP3   OH2 7601   4.745   4.566   4.415
 2553TIP3    H1 7602   4.787   4.510   4.349
 2553TIP3    H2 7603   4.653   4.540   4.414
 2554TIP3   OH2 7604   2.791   4.366   4.414
 2554TIP3    H1 7605   2.766   4.446   4.368
 2554TIP3    H2 7606   2.876   4.342   4.378
 2555TIP3   OH2 7607   6.789   0.550   5.486
 2555TIP3    H1 7608   6.811   0.458   5.502
 2555TIP3    H2 7609   6.693   0.552   5.488
 2556TIP3   OH2 7610   4.199   7.624   3.729
 2556TIP3    H1 7611   4.230   7.691   3.669
 2556TIP3    H2 7612   4.106   7.614   3.708
 2557TIP3   OH2 7613   3.807   6.002   5.221
 2557TIP3    H1 7614   3.896   5.984   5.191
 2557TIP3    H2 7615   3.752   5.981   5.145
 2558TIP3   OH2 7616   1.890   5.255   0.445
 2558TIP3    H1 7617   1.895   5.350   0.436
 2558TIP3    H2 7618   1.927   5.221   0.364
 2559TIP3   OH2 7619   1.070   4.263   3.643
 2559TIP3    H1 7620   1.052   4.170   3.654
 2559TIP3    H2 7621   1.146   4.279   3.700
 2560TIP3   OH2 7622   4.561   3.972   3.464
 2560TIP3    H1 7623   4.593   3.934   3.546
 2560TIP3    H2 7624   4.538   4.063   3.487
 2561TIP3   OH2 7625   5.973   6.539   4.641
 2561TIP3    H1 7626   6.067   6.552   4.654
 2561TIP3    H2 7627   5.965   6.445   4.621
 2562TIP3   OH2 7628   1.162   3.410   6.738
 2562TIP3    H1 7629   1.070   3.420   6.761
 2562TIP3    H2 7630   1.203   3.491   6.767
 2563TIP3   OH2 7631   2.986   1.532   4.256
 2563TIP3    H1 7632   2.921   1.601   4.270
 2563TIP3    H2 7633   3.070   1.578   4.254
 2564TIP3   OH2 7634   0.012   3.836   3.080
 2564TIP3    H1 7635  -0.050   3.803   3.016
 2564TIP3    H2 7636   0.075   3.765   3.092
 2565TIP3   OH2 7637   5.700   3.707   3.192
 2565TIP3    H1 7638   5.764   3.638   3.177
 2565TIP3    H2 7639   5.740   3.786   3.156
 2566TIP3   OH2 7640   6.427   3.588   2.871
 2566TIP3    H1 7641   6.384   3.672   2.891
 2566TIP3    H2 7642   6.391   3.563   2.786
 2567TIP3   OH2 7643   3.644   2.110   4.280
 2567TIP3    H1 7644   3.725   2.071   4.313
 2567TIP3    H2 7645   3.604   2.151   4.357
 2568TIP3   OH2 7646   8.069   2.582   2.014
 2568TIP3    H1 7647   8.051   2.525   2.089
 2568TIP3    H2 7648   8.136   2.642   2.046
 2569TIP3   OH2 7649   6.098   2.393   1.889
 2569TIP3    H1 7650   6.102   2.482   1.854
 2569TIP3    H2 7651   6.166   2.345   1.842
 2570TIP3   OH2 7652   5.351   2.283   2.645
 2570TIP3    H1 7653   5.385   2.231   2.719
 2570TIP3    H2 7654   5.426   2.297   2.589
 2571TIP3   OH2 7655   3.968   7.659   6.646
 2571TIP3    H1 7656   3.894   7.664   6.586
 2571TIP3    H2 7657   3.995   7.750   6.660
 2572TIP3   OH2 7658   4.562   3.357   4.941
 2572TIP3    H1 7659   4.610   3.440   4.939
 2572TIP3    H2 7660   4.609   3.303   5.004
 2573TIP3   OH2 7661   6.753   7.659   6.523
 2573TIP3    H1 7662   6.814   7.614   6.581
 2573TIP3    H2 7663   6.795   7.743   6.504
 2574TIP3   OH2 7664   3.908   0.591   5.121
 2574TIP3    H1 7665   3.850   0.515   5.129
 2574TIP3    H2 7666   3.851   0.663   5.096
 2575TIP3   OH2 7667   4.059   2.701   0.220
 2575TIP3    H1 7668   4.062   2.690   0.125
 2575TIP3    H2 7669   4.052   2.796   0.233
 2576TIP3   OH2 7670   4.022   3.756   2.736
 2576TIP3    H1 7671   4.106   3.709   2.730
 2576TIP3    H2 7672   4.047   3.848   2.730
 2577TIP3   OH2 7673   2.881   6.584   3.837
 2577TIP3    H1 7674   2.895   6.623   3.923
 2577TIP3    H2 7675   2.890   6.490   3.851
 2578TIP3   OH2 7676   2.449   7.089   4.187
 2578TIP3    H1 7677   2.508   7.115   4.258
 2578TIP3    H2 7678   2.409   7.008   4.217
 2579TIP3   OH2 7679   1.715   2.731   4.355
 2579TIP3    H1 7680   1.752   2.669   4.293
 2579TIP3    H2 7681   1.687   2.677   4.429
 2580TIP3   OH2 7682   3.396   2.133   3.332
 2580TIP3    H1 7683   3.343   2.057   3.309
 2580TIP3    H2 7684   3.355   2.168   3.411
 2581TIP3   OH2 7685   7.770   6.713   1.522
 2581TIP3    H1 7686   7.804   6.801   1.508
 2581TIP3    H2 7687   7.690   6.710   1.468
 2582TIP3   OH2 7688   0.122   7.054   6.494
 2582TIP3    H1 7689   0.071   7.135   6.506
 2582TIP3    H2 7690   0.118   7.036   6.400
 2583TIP3   OH2 7691   3.064   6.493   2.912
 2583TIP3    H1 7692   2.990   6.453   2.866
 2583TIP3    H2 7693   3.060   6.455   3.000
 2584TIP3   OH2 7694   7.600   7.566   1.794
 2584TIP3    H1 7695   7.582   7.472   1.794
 2584TIP3    H2 7696   7.529   7.604   1.744
 2585TIP3   OH2 7697   0.042   4.105   3.552
 2585TIP3    H1 7698  -0.044   4.094   3.593
 2585TIP3    H2 7699   0.026   4.168   3.481
 2586TIP3   OH2 7700   7.525   4.720   1.301
 2586TIP3    H1 7701   7.585   4.652   1.267
 2586TIP3    H2 7702   7.554   4.800   1.259
 2587TIP3   OH2 7703   0.932   0.563   4.187
 2587TIP3    H1 7704   0.882   0.640   4.160
 2587TIP3    H2 7705   0.872   0.514   4.243
 2588TIP3   OH2 7706   0.457   7.311   6.370
 2588TIP3    H1 7707   0.546   7.338   6.394
 2588TIP3    H2 7708   0.444   7.229   6.417
 2589TIP3   OH2 7709   2.049   1.368   2.152
 2589TIP3    H1 7710   2.025   1.314   2.227
 2589TIP3    H2 7711   1.970   1.371   2.098
 2590TIP3   OH2 7712   0.473   5.415   4.408
 2590TIP3    H1 7713   0.528   5.383   4.479
 2590TIP3    H2 7714   0.385   5.386   4.430
 2591TIP3   OH2 7715   4.970   3.162   4.477
 2591TIP3    H1 7716   4.908   3.213   4.529
 2591TIP3    H2 7717   4.914   3.104   4.424
 2592TIP3   OH2 7718   7.570   3.938   2.571
 2592TIP3    H1 7719   7.658   3.953   2.605
 2592TIP3    H2 7720   7.512   3.961   2.644
 2593TIP3   OH2 7721   0.202   3.591   6.132
 2593TIP3    H1 7722   0.213   3.656   6.202
 2593TIP3    H2 7723   0.143   3.526   6.168
 2594TIP3   OH2 7724   0.580   3.934   1.705
 2594TIP3    H1 7725   0.636   3.858   1.688
 2594TIP3    H2 7726   0.577   3.981   1.622
 2595TIP3   OH2 7727   0.535   7.512   4.725
 2595TIP3    H1 7728   0.511   7.462   4.803
 2595TIP3    H2 7729   0.622   7.480   4.702
 2596TIP3   OH2 7730   0.569   5.582   5.261
 2596TIP3    H1 7731   0.531   5.670   5.256
 2596TIP3    H2 7732   0.498   5.526   5.291
 2597TIP3   OH2 7733   2.406   6.941   3.260
 2597TIP3    H1 7734   2.358   6.859   3.273
 2597TIP3    H2 7735   2.344   7.009   3.286
 2598TIP3   OH2 7736   0.709   1.848   4.224
 2598TIP3    H1 7737   0.706   1.767   4.276
 2598TIP3    H2 7738   0.798   1.852   4.190
 2599TIP3   OH2 7739   4.782   4.850   1.840
 2599TIP3    H1 7740   4.722   4.778   1.821
 2599TIP3    H2 7741   4.848   4.811   1.898
 2600TIP3   OH2 7742   6.295   2.689   3.167
 2600TIP3    H1 7743   6.377   2.685   3.217
 2600TIP3    H2 7744   6.266   2.780   3.175
 2601TIP3   OH2 7745   4.853   6.863   0.030
 2601TIP3    H1 7746   4.792   6.804   0.073
 2601TIP3    H2 7747   4.842   6.947   0.076
 2602TIP3   OH2 7748   7.853   1.015   1.791
 2602TIP3    H1 7749   7.897   0.975   1.716
 2602TIP3    H2 7750   7.762   1.027   1.762
 2603TIP3   OH2 7751   7.041   1.246   5.045
 2603TIP3    H1 7752   7.107   1.202   5.100
 2603TIP3    H2 7753   6.983   1.175   5.018
 2604TIP3   OH2 7754   5.770   0.095   4.609
 2604TIP3    H1 7755   5.727   0.136   4.684
 2604TIP3    H2 7756   5.701   0.093   4.542
 2605TIP3   OH2 7757   6.834   5.600   3.661
 2605TIP3    H1 7758   6.814   5.569   3.573
 2605TIP3    H2 7759   6.808   5.529   3.719
 2606TIP3   OH2 7760   1.688   4.098  -0.034
 2606TIP3    H1 7761   1.635   4.050  -0.098
 2606TIP3    H2 7762   1.683   4.045   0.046
 2607TIP3   OH2 7763   2.270   5.115   0.023
 2607TIP3    H1 7764   2.304   5.195   0.062
 2607TIP3    H2 7765   2.343   5.053   0.029
 2608TIP3   OH2 7766   4.504   4.950   0.948
 2608TIP3    H1 7767   4.454   4.869   0.938
 2608TIP3    H2 7768   4.565   4.932   1.019
 2609TIP3   OH2 7769   3.261   7.699   1.326
 2609TIP3    H1 7770   3.328   7.635   1.351
 2609TIP3    H2 7771   3.260   7.762   1.398
 2610TIP3   OH2 7772   5.568   4.428   3.405
 2610TIP3    H1 7773   5.661   4.429   3.429
 2610TIP3    H2 7774   5.522   4.453   3.485
 2611TIP3   OH2 7775   2.822   3.676   1.230
 2611TIP3    H1 7776   2.764   3.601   1.217
 2611TIP3    H2 7777   2.784   3.745   1.177
 2612TIP3   OH2 7778   0.092   2.905   4.581
 2612TIP3    H1 7779   0.015   2.961   4.574
 2612TIP3    H2 7780   0.151   2.937   4.513
 2613TIP3   OH2 7781  -0.009   5.757   4.830
 2613TIP3    H1 7782   0.043   5.793   4.902
 2613TIP3    H2 7783   0.033   5.674   4.808
 2614TIP3   OH2 7784   2.685   0.849   1.594
 2614TIP3    H1 7785   2.711   0.868   1.504
 2614TIP3    H2 7786   2.662   0.934   1.630
 2615TIP3   OH2 7787   4.990   7.279   3.249
 2615TIP3    H1 7788   4.959   7.343   3.314
 2615TIP3    H2 7789   5.078   7.254   3.280
 2616TIP3   OH2 7790   0.325   3.214   3.957
 2616TIP3    H1 7791   0.291   3.181   4.040
 2616TIP3    H2 7792   0.282   3.160   3.890
 2617TIP3   OH2 7793   2.778   6.333   0.889
 2617TIP3    H1 7794   2.789   6.275   0.814
 2617TIP3    H2 7795   2.725   6.405   0.856
 2618TIP3   OH2 7796   1.420   2.780   4.636
 2618TIP3    H1 7797   1.485   2.829   4.687
 2618TIP3    H2 7798   1.456   2.692   4.629
 2619TIP3   OH2 7799   1.818   3.301   5.798
 2619TIP3    H1 7800   1.898   3.352   5.784
 2619TIP3    H2 7801   1.768   3.351   5.863
 2620TIP3   OH2 7802   0.405   2.378   5.449
 2620TIP3    H1 7803   0.427   2.470   5.442
 2620TIP3    H2 7804   0.351   2.361   5.371
 2621TIP3   OH2 7805   3.282   2.274   2.503
 2621TIP3    H1 7806   3.246   2.314   2.582
 2621TIP3    H2 7807   3.224   2.303   2.433
 2622TIP3   OH2 7808   6.611   5.312   5.587
 2622TIP3    H1 7809   6.640   5.340   5.674
 2622TIP3    H2 7810   6.521   5.344   5.580
 2623TIP3   OH2 7811   2.722   7.589   1.335
 2623TIP3    H1 7812   2.770   7.598   1.418
 2623TIP3    H2 7813   2.691   7.499   1.335
 2624TIP3   OH2 7814   4.772   4.134   0.570
 2624TIP3    H1 7815   4.788   4.212   0.624
 2624TIP3    H2 7816   4.738   4.169   0.487
 2625TIP3   OH2 7817   0.242   1.883   6.621
 2625TIP3    H1 7818   0.189   1.854   6.695
 2625TIP3    H2 7819   0.249   1.978   6.633
 2626TIP3   OH2 7820   5.928   4.265   4.560
 2626TIP3    H1 7821   6.011   4.291   4.598
 2626TIP3    H2 7822   5.931   4.170   4.557
 2627TIP3   OH2 7823   6.745   5.486   1.075
 2627TIP3    H1 7824   6.711   5.445   1.154
 2627TIP3    H2 7825   6.838   5.460   1.072
 2628TIP3   OH2 7826   3.079   0.596   1.703
 2628TIP3    H1 7827   3.019   0.665   1.674
 2628TIP3    H2 7828   3.025   0.537   1.755
 2629TIP3   OH2 7829   4.360   4.488   0.401
 2629TIP3    H1 7830   4.388   4.453   0.317
 2629TIP3    H2 7831   4.436   4.478   0.458
 2630TIP3   OH2 7832   7.813   0.465   3.306
 2630TIP3    H1 7833   7.882   0.415   3.262
 2630TIP3    H2 7834   7.733   0.444   3.258
 2631TIP3   OH2 7835   3.972   5.720   0.645
 2631TIP3    H1 7836   3.962   5.679   0.731
 2631TIP3    H2 7837   4.039   5.668   0.600
 2632TIP3   OH2 7838   3.977   6.700   3.359
 2632TIP3    H1 7839   3.899   6.699   3.416
 2632TIP3    H2 7840   4.044   6.655   3.410
 2633TIP3   OH2 7841   8.145   3.516   6.539
 2633TIP3    H1 7842   8.165   3.510   6.446
 2633TIP3    H2 7843   8.053   3.542   6.542
 2634TIP3   OH2 7844   7.117   1.437   6.586
 2634TIP3    H1 7845   7.073   1.352   6.592
 2634TIP3    H2 7846   7.156   1.438   6.498
 2635TIP3   OH2 7847   7.735   2.729   5.591
 2635TIP3    H1 7848   7.651   2.757   5.629
 2635TIP3    H2 7849   7.763   2.656   5.646
 2636TIP3   OH2 7850   2.545   5.837   5.476
 2636TIP3    H1 7851   2.516   5.746   5.481
 2636TIP3    H2 7852   2.587   5.845   5.391
 2637TIP3   OH2 7853   4.811   7.791   1.590
 2637TIP3    H1 7854   4.820   7.818   1.681
 2637TIP3    H2 7855   4.826   7.696   1.592
 2638TIP3   OH2 7856   1.470   7.527   0.904
 2638TIP3    H1 7857   1.544   7.484   0.947
 2638TIP3    H2 7858   1.510   7.583   0.838
 2639TIP3   OH2 7859   0.934   6.385   1.700
 2639TIP3    H1 7860   0.948   6.471   1.740
 2639TIP3    H2 7861   1.022   6.351   1.683
 2640TIP3   OH2 7862   6.081   6.606   6.651
 2640TIP3    H1 7863   6.144   6.543   6.686
 2640TIP3    H2 7864   6.076   6.674   6.718
 2641TIP3   OH2 7865   0.797   1.582   1.131
 2641TIP3    H1 7866   0.724   1.529   1.098
 2641TIP3    H2 7867   0.866   1.518   1.149
 2642TIP3   OH2 7868   5.884   3.061   1.005
 2642TIP3    H1 7869   5.950   3.061   1.074
 2642TIP3    H2 7870   5.933   3.038   0.926
 2643TIP3   OH2 7871   7.726   0.194   4.137
 2643TIP3    H1 7872   7.772   0.246   4.071
 2643TIP3    H2 7873   7.796   0.147   4.183
 2644TIP3   OH2 7874   7.078   1.136   3.785
 2644TIP3    H1 7875   7.128   1.105   3.709
 2644TIP3    H2 7876   7.119   1.220   3.808
 2645TIP3   OH2 7877   6.139   6.368   0.386
 2645TIP3    H1 7878   6.154   6.369   0.291
 2645TIP3    H2 7879   6.222   6.397   0.423
 2646TIP3   OH2 7880   4.922   0.657   4.912
 2646TIP3    H1 7881   4.962   0.584   4.959
 2646TIP3    H2 7882   4.896   0.719   4.981
 2647TIP3   OH2 7883   4.114   2.602   5.866
 2647TIP3    H1 7884   4.159   2.617   5.949
 2647TIP3    H2 7885   4.080   2.513   5.873
 2648TIP3   OH2 7886   1.892   2.325   4.793
 2648TIP3    H1 7887   1.985   2.305   4.779
 2648TIP3    H2 7888   1.878   2.305   4.886
 2649TIP3   OH2 7889   4.214   1.002   5.907
 2649TIP3    H1 7890   4.190   0.927   5.961
 2649TIP3    H2 7891   4.307   1.017   5.926
 2650TIP3   OH2 7892   4.113   0.314   1.663
 2650TIP3    H1 7893   4.145   0.397   1.627
 2650TIP3    H2 7894   4.045   0.286   1.602
 2651TIP3   OH2 7895   4.796   4.857   4.398
 2651TIP3    H1 7896   4.878   4.849   4.349
 2651TIP3    H2 7897   4.771   4.767   4.419
 2652TIP3   OH2 7898   2.815   1.804   6.452
 2652TIP3    H1 7899   2.903   1.781   6.483
 2652TIP3    H2 7900   2.830   1.854   6.372
 2653TIP3   OH2 7901   5.891   2.001   2.071
 2653TIP3    H1 7902   5.799   1.987   2.094
 2653TIP3    H2 7903   5.888   2.044   1.986
 2654TIP3   OH2 7904   7.026   5.981   4.975
 2654TIP3    H1 7905   6.967   6.037   4.925
 2654TIP3    H2 7906   6.993   5.892   4.960
 2655TIP3   OH2 7907   4.666   0.791   2.121
 2655TIP3    H1 7908   4.741   0.848   2.139
 2655TIP3    H2 7909   4.614   0.795   2.202
 2656TIP3   OH2 7910   3.891   6.658   2.736
 2656TIP3    H1 7911   3.833   6.706   2.795
 2656TIP3    H2 7912   3.894   6.569   2.771
 2657TIP3   OH2 7913   3.293   2.833   6.584
 2657TIP3    H1 7914   3.309   2.765   6.518
 2657TIP3    H2 7915   3.205   2.865   6.564
 2658TIP3   OH2 7916   0.484   3.530   1.432
 2658TIP3    H1 7917   0.410   3.471   1.421
 2658TIP3    H2 7918   0.465   3.577   1.514
 2659TIP3   OH2 7919   5.213   1.144   6.459
 2659TIP3    H1 7920   5.192   1.065   6.509
 2659TIP3    H2 7921   5.151   1.210   6.490
 2660TIP3   OH2 7922   5.439   2.220   4.655
 2660TIP3    H1 7923   5.397   2.272   4.723
 2660TIP3    H2 7924   5.532   2.233   4.668
 2661TIP3   OH2 7925   0.522   4.635   3.124
 2661TIP3    H1 7926   0.435   4.652   3.088
 2661TIP3    H2 7927   0.535   4.705   3.188
 2662TIP3   OH2 7928   3.436   3.048   6.625
 2662TIP3    H1 7929   3.365   2.983   6.626
 2662TIP3    H2 7930   3.512   2.999   6.594
 2663TIP3   OH2 7931   5.476   1.439   0.031
 2663TIP3    H1 7932   5.554   1.488   0.056
 2663TIP3    H2 7933   5.415   1.451   0.104
 2664TIP3   OH2 7934   6.275   2.079   3.196
 2664TIP3    H1 7935   6.365   2.065   3.165
 2664TIP3    H2 7936   6.220   2.044   3.125
 2665TIP3   OH2 7937   0.606   5.429   0.886
 2665TIP3    H1 7938   0.584   5.352   0.832
 2665TIP3    H2 7939   0.522   5.471   0.903
 2666TIP3   OH2 7940   8.113   1.003   2.570
 2666TIP3    H1 7941   8.089   1.003   2.663
 2666TIP3    H2 7942   8.044   0.954   2.527
 2667TIP3   OH2 7943   2.137   2.643   3.404
 2667TIP3    H1 7944   2.138   2.699   3.326
 2667TIP3    H2 7945   2.212   2.584   3.392
 2668TIP3   OH2 7946   6.603   1.223   2.453
 2668TIP3    H1 7947   6.622   1.130   2.444
 2668TIP3    H2 7948   6.684   1.261   2.486
 2669TIP3   OH2 7949   5.596   5.233   6.525
 2669TIP3    H1 7950   5.618   5.283   6.603
 2669TIP3    H2 7951   5.575   5.145   6.558
 2670TIP3   OH2 7952   1.109   6.752   0.347
 2670TIP3    H1 7953   1.073   6.665   0.367
 2670TIP3    H2 7954   1.157   6.740   0.265
 2671TIP3   OH2 7955   1.768   2.631   6.275
 2671TIP3    H1 7956   1.717   2.550   6.279
 2671TIP3    H2 7957   1.857   2.605   6.300
 2672TIP3   OH2 7958   2.900   4.612   3.622
 2672TIP3    H1 7959   2.891   4.628   3.716
 2672TIP3    H2 7960   2.810   4.617   3.589
 2673TIP3   OH2 7961   2.328   1.177   3.809
 2673TIP3    H1 7962   2.403   1.120   3.827
 2673TIP3    H2 7963   2.253   1.131   3.847
 2674TIP3   OH2 7964   3.053   4.357   1.368
 2674TIP3    H1 7965   3.066   4.404   1.285
 2674TIP3    H2 7966   3.016   4.273   1.341
 2675TIP3   OH2 7967   6.530   7.174   1.286
 2675TIP3    H1 7968   6.580   7.129   1.217
 2675TIP3    H2 7969   6.533   7.115   1.360
 2676TIP3   OH2 7970   0.082   0.944   5.085
 2676TIP3    H1 7971   0.168   0.914   5.115
 2676TIP3    H2 7972   0.030   0.953   5.165
 2677TIP3   OH2 7973   3.294   0.171   4.376
 2677TIP3    H1 7974   3.234   0.151   4.304
 2677TIP3    H2 7975   3.265   0.116   4.448
 2678TIP3   OH2 7976   5.970   1.152   1.812
 2678TIP3    H1 7977   5.934   1.234   1.778
 2678TIP3    H2 7978   5.952   1.087   1.743
 2679TIP3   OH2 7979   6.690   5.049   0.332
 2679TIP3    H1 7980   6.625   5.060   0.262
 2679TIP3    H2 7981   6.654   4.979   0.387
 2680TIP3   OH2 7982   5.810   7.064   4.714
 2680TIP3    H1 7983   5.856   7.102   4.639
 2680TIP3    H2 7984   5.803   6.971   4.694
 2681TIP3   OH2 7985   7.525   7.402   6.284
 2681TIP3    H1 7986   7.511   7.470   6.218
 2681TIP3    H2 7987   7.437   7.380   6.315
 2682TIP3   OH2 7988   2.628   0.347   3.871
 2682TIP3    H1 7989   2.537   0.360   3.844
 2682TIP3    H2 7990   2.675   0.421   3.832
 2683TIP3   OH2 7991   0.459   4.589   3.564
 2683TIP3    H1 7992   0.537   4.634   3.597
 2683TIP3    H2 7993   0.386   4.632   3.607
 2684TIP3   OH2 7994   0.993   1.744   1.322
 2684TIP3    H1 7995   0.964   1.698   1.243
 2684TIP3    H2 7996   1.011   1.833   1.292
 2685TIP3   OH2 7997   6.837   3.218   1.578
 2685TIP3    H1 7998   6.903   3.260   1.633
 2685TIP3    H2 7999   6.794   3.291   1.533
 2686TIP3   OH2 8000   5.070   1.901   1.068
 2686TIP3    H1 8001   4.977   1.903   1.047
 2686TIP3    H2 8002   5.109   1.847   0.998
 2687TIP3   OH2 8003   4.329   0.044   5.877
 2687TIP3    H1 8004   4.407   0.031   5.932
 2687TIP3    H2 8005   4.314   0.139   5.879
 2688TIP3   OH2 8006   2.312   6.541   4.912
 2688TIP3    H1 8007   2.314   6.478   4.983
 2688TIP3    H2 8008   2.349   6.621   4.950
 2689TIP3   OH2 8009   3.073   1.936   1.138
 2689TIP3    H1 8010   2.992   1.978   1.109
 2689TIP3    H2 8011   3.044   1.859   1.187
 2690TIP3   OH2 8012   1.285   0.259   3.933
 2690TIP3    H1 8013   1.297   0.227   4.022
 2690TIP3    H2 8014   1.191   0.248   3.916
 2691TIP3   OH2 8015   6.455   3.022   1.946
 2691TIP3    H1 8016   6.388   3.050   2.008
 2691TIP3    H2 8017   6.436   3.071   1.866
 2692TIP3   OH2 8018   6.023   5.952   2.113
 2692TIP3    H1 8019   5.966   5.900   2.170
 2692TIP3    H2 8020   5.973   6.032   2.097
 2693TIP3   OH2 8021   7.904   3.266   5.428
 2693TIP3    H1 8022   7.956   3.276   5.348
 2693TIP3    H2 8023   7.868   3.354   5.444
 2694TIP3   OH2 8024   2.331   0.251   4.077
 2694TIP3    H1 8025   2.423   0.253   4.101
 2694TIP3    H2 8026   2.306   0.159   4.082
 2695TIP3   OH2 8027   1.326   4.687   3.300
 2695TIP3    H1 8028   1.256   4.644   3.349
 2695TIP3    H2 8029   1.317   4.653   3.211
 2696TIP3   OH2 8030   1.553   7.288   5.804
 2696TIP3    H1 8031   1.515   7.317   5.721
 2696TIP3    H2 8032   1.486   7.233   5.843
 2697TIP3   OH2 8033   7.117   4.686   3.654
 2697TIP3    H1 8034   7.175   4.706   3.727
 2697TIP3    H2 8035   7.175   4.675   3.579
 2698TIP3   OH2 8036   0.335   3.689   3.372
 2698TIP3    H1 8037   0.431   3.686   3.377
 2698TIP3    H2 8038   0.311   3.769   3.419
 2699TIP3   OH2 8039   1.266   5.272   2.952
 2699TIP3    H1 8040   1.196   5.329   2.986
 2699TIP3    H2 8041   1.246   5.186   2.990
 2700TIP3   OH2 8042   4.518   3.773   6.407
 2700TIP3    H1 8043   4.541   3.765   6.315
 2700TIP3    H2 8044   4.487   3.686   6.432
 2701TIP3   OH2 8045   4.589   0.672   2.873
 2701TIP3    H1 8046   4.628   0.758   2.891
 2701TIP3    H2 8047   4.649   0.631   2.811
 2702TIP3   OH2 8048   7.229   4.904   5.361
 2702TIP3    H1 8049   7.212   4.820   5.319
 2702TIP3    H2 8050   7.208   4.969   5.294
 2703TIP3   OH2 8051   6.999   4.906   5.944
 2703TIP3    H1 8052   7.063   4.885   6.012
 2703TIP3    H2 8053   6.965   4.992   5.969
 2704TIP3   OH2 8054   4.973   1.633   4.447
 2704TIP3    H1 8055   5.014   1.718   4.463
 2704TIP3    H2 8056   4.938   1.640   4.358
 2705TIP3   OH2 8057   1.010   2.831   4.451
 2705TIP3    H1 8058   0.942   2.876   4.500
 2705TIP3    H2 8059   0.963   2.769   4.396
 2706TIP3   OH2 8060   7.764   0.089   3.467
 2706TIP3    H1 8061   7.699   0.096   3.396
 2706TIP3    H2 8062   7.735   0.152   3.533
 2707TIP3   OH2 8063   4.482   1.950   6.735
 2707TIP3    H1 8064   4.471   1.930   6.828
 2707TIP3    H2 8065   4.520   2.038   6.734
 2708TIP3   OH2 8066   1.158   7.187   1.051
 2708TIP3    H1 8067   1.231   7.156   0.997
 2708TIP3    H2 8068   1.086   7.128   1.032
 2709TIP3   OH2 8069   6.214   5.321   6.248
 2709TIP3    H1 8070   6.131   5.285   6.217
 2709TIP3    H2 8071   6.262   5.245   6.282
 2710TIP3   OH2 8072   2.514   0.237   6.517
 2710TIP3    H1 8073   2.453   0.250   6.445
 2710TIP3    H2 8074   2.600   0.228   6.475
 2711TIP3   OH2 8075   5.671   0.082   0.000
 2711TIP3    H1 8076   5.608   0.091  -0.071
 2711TIP3    H2 8077   5.755   0.108  -0.039
 2712TIP3   OH2 8078   7.597   6.928   5.534
 2712TIP3    H1 8079   7.654   6.860   5.568
 2712TIP3    H2 8080   7.654   7.005   5.526
 2713TIP3   OH2 8081   5.368   0.819   1.798
 2713TIP3    H1 8082   5.400   0.832   1.888
 2713TIP3    H2 8083   5.374   0.724   1.785
 2714TIP3   OH2 8084   5.256   4.894   4.548
 2714TIP3    H1 8085   5.287   4.817   4.501
 2714TIP3    H2 8086   5.307   4.896   4.629
 2715TIP3   OH2 8087   5.802   5.129   3.761
 2715TIP3    H1 8088   5.758   5.207   3.727
 2715TIP3    H2 8089   5.886   5.126   3.715
 2716TIP3   OH2 8090   5.618   2.594   1.686
 2716TIP3    H1 8091   5.663   2.545   1.755
 2716TIP3    H2 8092   5.673   2.671   1.672
 2717TIP3   OH2 8093   2.458   3.888   1.271
 2717TIP3    H1 8094   2.447   3.860   1.362
 2717TIP3    H2 8095   2.552   3.880   1.255
 2718TIP3   OH2 8096   0.383   6.760   5.166
 2718TIP3    H1 8097   0.421   6.743   5.251
 2718TIP3    H2 8098   0.423   6.842   5.137
 2719TIP3   OH2 8099   2.423   1.632   0.402
 2719TIP3    H1 8100   2.486   1.634   0.474
 2719TIP3    H2 8101   2.405   1.725   0.383
 2720TIP3   OH2 8102   7.102   5.152   3.755
 2720TIP3    H1 8103   7.113   5.187   3.667
 2720TIP3    H2 8104   7.183   5.103   3.772
 2721TIP3   OH2 8105   1.041   0.528   1.539
 2721TIP3    H1 8106   1.111   0.536   1.603
 2721TIP3    H2 8107   1.084   0.501   1.458
 2722TIP3   OH2 8108   4.302   1.497   5.354
 2722TIP3    H1 8109   4.393   1.469   5.369
 2722TIP3    H2 8110   4.301   1.526   5.263
 2723TIP3   OH2 8111  -0.015   2.798   5.772
 2723TIP3    H1 8112   0.058   2.845   5.814
 2723TIP3    H2 8113  -0.015   2.829   5.682
 2724TIP3   OH2 8114   1.518   0.200   2.746
 2724TIP3    H1 8115   1.613   0.187   2.738
 2724TIP3    H2 8116   1.490   0.131   2.806
 2725TIP3   OH2 8117   1.813   6.376   0.073
 2725TIP3    H1 8118   1.757   6.399  -0.001
 2725TIP3    H2 8119   1.758   6.393   0.150
 2726TIP3   OH2 8120   5.385   7.555   5.911
 2726TIP3    H1 8121   5.349   7.641   5.891
 2726TIP3    H2 8122   5.480   7.566   5.901
 2727TIP3   OH2 8123   3.937   7.440   5.385
 2727TIP3    H1 8124   3.982   7.516   5.422
 2727TIP3    H2 8125   3.849   7.443   5.422
 2728TIP3   OH2 8126   7.824   2.623   4.524
 2728TIP3    H1 8127   7.775   2.704   4.516
 2728TIP3    H2 8128   7.913   2.646   4.497
 2729TIP3   OH2 8129   6.037   4.525   3.770
 2729TIP3    H1 8130   6.121   4.484   3.792
 2729TIP3    H2 8131   5.997   4.545   3.854
 2730TIP3   OH2 8132   2.519   3.070   6.518
 2730TIP3    H1 8133   2.569   3.012   6.462
 2730TIP3    H2 8134   2.517   3.026   6.603
 2731TIP3   OH2 8135   6.542   6.410   2.483
 2731TIP3    H1 8136   6.594   6.473   2.531
 2731TIP3    H2 8137   6.598   6.382   2.410
 2732TIP3   OH2 8138   5.798   1.688   1.920
 2732TIP3    H1 8139   5.788   1.762   1.981
 2732TIP3    H2 8140   5.832   1.727   1.840
 2733TIP3   OH2 8141   2.159   3.254   3.003
 2733TIP3    H1 8142   2.099   3.181   2.987
 2733TIP3    H2 8143   2.128   3.324   2.946
 2734TIP3   OH2 8144   5.542   3.164   5.528
 2734TIP3    H1 8145   5.610   3.154   5.462
 2734TIP3    H2 8146   5.587   3.197   5.606
 2735TIP3   OH2 8147   3.451   1.318   6.296
 2735TIP3    H1 8148   3.407   1.362   6.369
 2735TIP3    H2 8149   3.408   1.353   6.218
 2736TIP3   OH2 8150   3.775   3.095   5.008
 2736TIP3    H1 8151   3.751   3.103   5.101
 2736TIP3    H2 8152   3.829   3.016   5.004
 2737TIP3   OH2 8153   0.253   0.649   2.753
 2737TIP3    H1 8154   0.237   0.555   2.747
 2737TIP3    H2 8155   0.283   0.673   2.665
 2738TIP3   OH2 8156   3.438   6.336   5.100
 2738TIP3    H1 8157   3.527   6.372   5.100
 2738TIP3    H2 8158   3.383   6.407   5.067
 2739TIP3   OH2 8159   2.209   5.721   4.629
 2739TIP3    H1 8160   2.208   5.742   4.723
 2739TIP3    H2 8161   2.302   5.708   4.609
 2740TIP3   OH2 8162   4.713   2.175   3.916
 2740TIP3    H1 8163   4.788   2.115   3.914
 2740TIP3    H2 8164   4.697   2.197   3.825
 2741TIP3   OH2 8165   0.253   6.177   4.619
 2741TIP3    H1 8166   0.246   6.260   4.571
 2741TIP3    H2 8167   0.163   6.147   4.627
 2742TIP3   OH2 8168   7.131   7.084   4.105
 2742TIP3    H1 8169   7.046   7.087   4.061
 2742TIP3    H2 8170   7.113   7.111   4.195
 2743TIP3   OH2 8171   8.136   2.975   3.260
 2743TIP3    H1 8172   8.189   2.926   3.197
 2743TIP3    H2 8173   8.046   2.966   3.229
 2744TIP3   OH2 8174   4.828   3.468   3.922
 2744TIP3    H1 8175   4.897   3.436   3.980
 2744TIP3    H2 8176   4.753   3.485   3.979
 2745TIP3   OH2 8177   5.126   6.464   1.730
 2745TIP3    H1 8178   5.081   6.523   1.789
 2745TIP3    H2 8179   5.070   6.386   1.726
 2746TIP3   OH2 8180   7.854   2.727   1.725
 2746TIP3    H1 8181   7.788   2.740   1.794
 2746TIP3    H2 8182   7.822   2.651   1.676
 2747TIP3   OH2 8183   5.770   6.877   0.809
 2747TIP3    H1 8184   5.720   6.875   0.727
 2747TIP3    H2 8185   5.710   6.842   0.875
 2748TIP3   OH2 8186   2.859   2.602   5.857
 2748TIP3    H1 8187   2.830   2.525   5.907
 2748TIP3    H2 8188   2.820   2.589   5.770
 2749TIP3   OH2 8189   2.861   3.218   4.165
 2749TIP3    H1 8190   2.900   3.144   4.212
 2749TIP3    H2 8191   2.788   3.246   4.220
 2750TIP3   OH2 8192   5.904   5.256   1.536
 2750TIP3    H1 8193   5.914   5.348   1.561
 2750TIP3    H2 8194   5.898   5.209   1.620
 2751TIP3   OH2 8195   0.626   0.660   2.583
 2751TIP3    H1 8196   0.699   0.650   2.522
 2751TIP3    H2 8197   0.667   0.670   2.669
 2752TIP3   OH2 8198   8.225   6.352   5.075
 2752TIP3    H1 8199   8.185   6.435   5.050
 2752TIP3    H2 8200   8.188   6.333   5.162
 2753TIP3   OH2 8201   4.702   6.914   4.973
 2753TIP3    H1 8202   4.724   6.980   4.908
 2753TIP3    H2 8203   4.612   6.933   4.998
 2754TIP3   OH2 8204   2.067   0.392   4.655
 2754TIP3    H1 8205   2.116   0.474   4.669
 2754TIP3    H2 8206   2.129   0.334   4.611
 2755TIP3   OH2 8207   6.121   2.531   6.078
 2755TIP3    H1 8208   6.174   2.583   6.139
 2755TIP3    H2 8209   6.031   2.559   6.094
 2756TIP3   OH2 8210   4.950   4.889   0.770
 2756TIP3    H1 8211   4.865   4.894   0.814
 2756TIP3    H2 8212   4.940   4.817   0.707
 2757TIP3   OH2 8213   5.478   7.441   4.064
 2757TIP3    H1 8214   5.485   7.528   4.104
 2757TIP3    H2 8215   5.430   7.457   3.982
 2758TIP3   OH2 8216   3.839   5.601   5.331
 2758TIP3    H1 8217   3.864   5.582   5.240
 2758TIP3    H2 8218   3.745   5.616   5.327
 2759TIP3   OH2 8219   8.045   3.295   1.300
 2759TIP3    H1 8220   7.986   3.254   1.363
 2759TIP3    H2 8221   8.020   3.257   1.216
 2760TIP3   OH2 8222   4.891   0.819   0.406
 2760TIP3    H1 8223   4.936   0.764   0.341
 2760TIP3    H2 8224   4.802   0.785   0.409
 2761TIP3   OH2 8225   5.289   4.329   2.939
 2761TIP3    H1 8226   5.374   4.343   2.898
 2761TIP3    H2 8227   5.271   4.410   2.986
 2762TIP3   OH2 8228   3.737   7.513   2.084
 2762TIP3    H1 8229   3.697   7.599   2.070
 2762TIP3    H2 8230   3.796   7.526   2.159
 2763TIP3   OH2 8231   5.212   7.317   2.636
 2763TIP3    H1 8232   5.117   7.313   2.647
 2763TIP3    H2 8233   5.224   7.355   2.548
 2764TIP3   OH2 8234   1.867   7.730   2.989
 2764TIP3    H1 8235   1.794   7.669   2.994
 2764TIP3    H2 8236   1.828   7.815   3.008
 2765TIP3   OH2 8237   3.009   2.129   4.585
 2765TIP3    H1 8238   2.937   2.134   4.649
 2765TIP3    H2 8239   2.968   2.093   4.506
 2766TIP3   OH2 8240   5.842   5.334   5.609
 2766TIP3    H1 8241   5.812   5.412   5.561
 2766TIP3    H2 8242   5.765   5.304   5.657
 2767TIP3   OH2 8243   0.900   6.677   6.555
 2767TIP3    H1 8244   0.887   6.605   6.493
 2767TIP3    H2 8245   0.981   6.720   6.525
 2768TIP3   OH2 8246   4.562   7.702   3.103
 2768TIP3    H1 8247   4.536   7.612   3.082
 2768TIP3    H2 8248   4.576   7.744   3.018
 2769TIP3   OH2 8249   2.850   4.962   6.651
 2769TIP3    H1 8250   2.784   4.965   6.720
 2769TIP3    H2 8251   2.800   4.969   6.569
 2770TIP3   OH2 8252   0.558   4.728   5.311
 2770TIP3    H1 8253   0.557   4.684   5.396
 2770TIP3    H2 8254   0.578   4.819   5.332
 2771TIP3   OH2 8255   6.108   4.256   4.980
 2771TIP3    H1 8256   6.200   4.231   4.973
 2771TIP3    H2 8257   6.060   4.189   4.932
 2772TIP3   OH2 8258   2.387   5.259   5.853
 2772TIP3    H1 8259   2.343   5.340   5.828
 2772TIP3    H2 8260   2.374   5.200   5.779
 2773TIP3   OH2 8261   0.377   4.609   2.373
 2773TIP3    H1 8262   0.302   4.666   2.353
 2773TIP3    H2 8263   0.401   4.571   2.289
 2774TIP3   OH2 8264   7.037   5.853   6.165
 2774TIP3    H1 8265   7.109   5.877   6.107
 2774TIP3    H2 8266   6.967   5.826   6.106
 2775TIP3   OH2 8267   4.079   1.948   1.092
 2775TIP3    H1 8268   3.996   1.929   1.137
 2775TIP3    H2 8269   4.143   1.890   1.133
 2776TIP3   OH2 8270   4.452   0.489   5.180
 2776TIP3    H1 8271   4.450   0.396   5.161
 2776TIP3    H2 8272   4.360   0.516   5.175
 2777TIP3   OH2 8273   1.052   0.361   2.977
 2777TIP3    H1 8274   1.004   0.338   3.056
 2777TIP3    H2 8275   1.141   0.381   3.007
 2778TIP3   OH2 8276   6.489   2.880   1.582
 2778TIP3    H1 8277   6.557   2.904   1.645
 2778TIP3    H2 8278   6.509   2.933   1.505
 2779TIP3   OH2 8279   3.048   6.015   3.155
 2779TIP3    H1 8280   3.080   6.104   3.139
 2779TIP3    H2 8281   3.010   5.988   3.071
 2780TIP3   OH2 8282   5.046   3.753   0.298
 2780TIP3    H1 8283   5.010   3.699   0.368
 2780TIP3    H2 8284   4.970   3.790   0.253
 2781TIP3   OH2 8285   1.472   2.438   1.833
 2781TIP3    H1 8286   1.483   2.348   1.864
 2781TIP3    H2 8287   1.430   2.429   1.747
 2782TIP3   OH2 8288   2.019   6.926   3.480
 2782TIP3    H1 8289   1.979   6.891   3.400
 2782TIP3    H2 8290   1.971   6.885   3.551
 2783TIP3   OH2 8291   1.407   3.204   2.449
 2783TIP3    H1 8292   1.331   3.178   2.501
 2783TIP3    H2 8293   1.388   3.172   2.361
 2784TIP3   OH2 8294   4.555   0.905   6.599
 2784TIP3    H1 8295   4.589   0.815   6.604
 2784TIP3    H2 8296   4.507   0.907   6.516
 2785TIP3   OH2 8297   5.205   5.480   6.566
 2785TIP3    H1 8298   5.146   5.467   6.492
 2785TIP3    H2 8299   5.239   5.569   6.554
 2786TIP3   OH2 8300   2.032   3.537   5.501
 2786TIP3    H1 8301   2.061   3.594   5.429
 2786TIP3    H2 8302   1.994   3.461   5.457
 2787TIP3   OH2 8303   4.488   5.683   5.980
 2787TIP3    H1 8304   4.472   5.695   6.073
 2787TIP3    H2 8305   4.497   5.588   5.969
 2788TIP3   OH2 8306   7.422   1.707   3.526
 2788TIP3    H1 8307   7.512   1.726   3.500
 2788TIP3    H2 8308   7.368   1.762   3.470
 2789TIP3   OH2 8309   8.095   4.196   1.078
 2789TIP3    H1 8310   8.096   4.155   0.992
 2789TIP3    H2 8311   8.160   4.266   1.072
 2790TIP3   OH2 8312   0.594   3.764   1.328
 2790TIP3    H1 8313   0.569   3.683   1.373
 2790TIP3    H2 8314   0.686   3.777   1.350
 2791TIP3   OH2 8315   7.300   4.567   0.580
 2791TIP3    H1 8316   7.214   4.526   0.584
 2791TIP3    H2 8317   7.348   4.515   0.516
 2792TIP3   OH2 8318   5.557   5.702   2.618
 2792TIP3    H1 8319   5.583   5.670   2.704
 2792TIP3    H2 8320   5.587   5.634   2.557
 2793TIP3   OH2 8321   6.656   3.630   2.280
 2793TIP3    H1 8322   6.568   3.634   2.317
 2793TIP3    H2 8323   6.709   3.592   2.350
 2794TIP3   OH2 8324   1.726   6.285   6.427
 2794TIP3    H1 8325   1.678   6.355   6.472
 2794TIP3    H2 8326   1.733   6.216   6.492
 2795TIP3   OH2 8327   7.896   3.168   3.451
 2795TIP3    H1 8328   7.981   3.206   3.426
 2795TIP3    H2 8329   7.896   3.082   3.411
 2796TIP3   OH2 8330   4.543   0.824   1.185
 2796TIP3    H1 8331   4.492   0.893   1.142
 2796TIP3    H2 8332   4.484   0.790   1.253
 2797TIP3   OH2 8333   6.819   5.151   4.087
 2797TIP3    H1 8334   6.870   5.075   4.114
 2797TIP3    H2 8335   6.790   5.192   4.169
 2798TIP3   OH2 8336   0.203   0.378   5.715
 2798TIP3    H1 8337   0.211   0.286   5.739
 2798TIP3    H2 8338   0.120   0.384   5.668
 2799TIP3   OH2 8339   0.235   4.799   0.600
 2799TIP3    H1 8340   0.243   4.811   0.506
 2799TIP3    H2 8341   0.292   4.724   0.620
 2800TIP3   OH2 8342   5.673   4.914   3.092
 2800TIP3    H1 8343   5.750   4.870   3.056
 2800TIP3    H2 8344   5.599   4.868   3.054
 2801TIP3   OH2 8345   6.187   5.390   3.421
 2801TIP3    H1 8346   6.097   5.357   3.422
 2801TIP3    H2 8347   6.236   5.329   3.476
 2802TIP3   OH2 8348   3.263   7.685   1.969
 2802TIP3    H1 8349   3.309   7.682   1.885
 2802TIP3    H2 8350   3.200   7.614   1.965
 2803TIP3   OH2 8351   5.744   5.757   6.640
 2803TIP3    H1 8352   5.686   5.729   6.711
 2803TIP3    H2 8353   5.777   5.842   6.668
 2804TIP3   OH2 8354   6.017   4.848   0.794
 2804TIP3    H1 8355   6.109   4.829   0.813
 2804TIP3    H2 8356   6.020   4.916   0.727
 2805TIP3   OH2 8357   3.787   0.509   4.806
 2805TIP3    H1 8358   3.762   0.514   4.898
 2805TIP3    H2 8359   3.710   0.540   4.758
 2806TIP3   OH2 8360   3.729   0.681   6.101
 2806TIP3    H1 8361   3.644   0.660   6.141
 2806TIP3    H2 8362   3.706   0.723   6.018
 2807TIP3   OH2 8363   0.206   7.483   2.865
 2807TIP3    H1 8364   0.250   7.506   2.783
 2807TIP3    H2 8365   0.266   7.513   2.934
 2808TIP3   OH2 8366   0.608   7.264   5.762
 2808TIP3    H1 8367   0.627   7.338   5.703
 2808TIP3    H2 8368   0.621   7.300   5.850
 2809TIP3   OH2 8369   7.752   4.771   4.731
 2809TIP3    H1 8370   7.754   4.812   4.818
 2809TIP3    H2 8371   7.799   4.831   4.674
 2810TIP3   OH2 8372   4.527   3.641   0.871
 2810TIP3    H1 8373   4.545   3.729   0.839
 2810TIP3    H2 8374   4.575   3.635   0.954
 2811TIP3   OH2 8375   2.540   2.777   5.847
 2811TIP3    H1 8376   2.467   2.717   5.839
 2811TIP3    H2 8377   2.551   2.790   5.941
 2812TIP3   OH2 8378   2.660   4.531   1.957
 2812TIP3    H1 8379   2.572   4.536   1.920
 2812TIP3    H2 8380   2.719   4.542   1.882
 2813TIP3   OH2 8381   0.517   2.285   0.329
 2813TIP3    H1 8382   0.608   2.255   0.333
 2813TIP3    H2 8383   0.468   2.215   0.372
 2814TIP3   OH2 8384   6.725   7.184   2.138
 2814TIP3    H1 8385   6.683   7.249   2.194
 2814TIP3    H2 8386   6.801   7.154   2.189
 2815TIP3   OH2 8387   0.597   4.448   0.472
 2815TIP3    H1 8388   0.512   4.408   0.489
 2815TIP3    H2 8389   0.584   4.501   0.393
 2816TIP3   OH2 8390   5.375   3.667   4.084
 2816TIP3    H1 8391   5.351   3.624   4.166
 2816TIP3    H2 8392   5.461   3.704   4.100
 2817TIP3   OH2 8393   5.222   2.902   6.525
 2817TIP3    H1 8394   5.205   2.974   6.465
 2817TIP3    H2 8395   5.264   2.943   6.601
 2818TIP3   OH2 8396   6.965   2.520   0.150
 2818TIP3    H1 8397   7.041   2.465   0.163
 2818TIP3    H2 8398   6.907   2.468   0.094
 2819TIP3   OH2 8399   1.036   6.638   2.394
 2819TIP3    H1 8400   1.003   6.595   2.473
 2819TIP3    H2 8401   0.965   6.694   2.365
 2820TIP3   OH2 8402   6.224   2.909   2.898
 2820TIP3    H1 8403   6.167   2.878   2.828
 2820TIP3    H2 8404   6.309   2.872   2.878
 2821TIP3   OH2 8405   7.533   6.869   5.956
 2821TIP3    H1 8406   7.481   6.876   6.036
 2821TIP3    H2 8407   7.516   6.780   5.925
 2822TIP3   OH2 8408   8.192   3.852   2.459
 2822TIP3    H1 8409   8.249   3.925   2.481
 2822TIP3    H2 8410   8.232   3.814   2.381
 2823TIP3   OH2 8411   3.969   2.259   3.233
 2823TIP3    H1 8412   3.893   2.307   3.199
 2823TIP3    H2 8413   4.008   2.219   3.156
 2824TIP3   OH2 8414   7.397   4.018   5.983
 2824TIP3    H1 8415   7.336   3.953   5.947
 2824TIP3    H2 8416   7.432   3.977   6.062
 2825TIP3   OH2 8417   1.788   6.160   0.922
 2825TIP3    H1 8418   1.718   6.165   0.988
 2825TIP3    H2 8419   1.811   6.067   0.920
 2826TIP3   OH2 8420   4.203   5.973   0.999
 2826TIP3    H1 8421   4.175   5.884   1.019
 2826TIP3    H2 8422   4.298   5.968   0.990
 2827TIP3   OH2 8423   0.008   4.922   3.357
 2827TIP3    H1 8424   0.069   4.908   3.430
 2827TIP3    H2 8425  -0.065   4.863   3.375
 2828TIP3   OH2 8426   6.962   3.568   0.548
 2828TIP3    H1 8427   6.949   3.490   0.494
 2828TIP3    H2 8428   7.006   3.630   0.491
 2829TIP3   OH2 8429   5.875   5.504   6.100
 2829TIP3    H1 8430   5.884   5.546   6.014
 2829TIP3    H2 8431   5.788   5.528   6.130
 2830TIP3   OH2 8432   2.612   7.577   6.090
 2830TIP3    H1 8433   2.576   7.665   6.083
 2830TIP3    H2 8434   2.541   7.525   6.127
 2831TIP3   OH2 8435   8.197   0.769   5.693
 2831TIP3    H1 8436   8.182   0.852   5.648
 2831TIP3    H2 8437   8.274   0.784   5.747
 2832TIP3   OH2 8438   2.168   5.351   3.241
 2832TIP3    H1 8439   2.076   5.334   3.222
 2832TIP3    H2 8440   2.188   5.432   3.193
 2833TIP3   OH2 8441   0.113   3.929   5.189
 2833TIP3    H1 8442   0.119   3.898   5.098
 2833TIP3    H2 8443   0.125   4.024   5.183
 2834TIP3   OH2 8444   0.139   7.438   0.529
 2834TIP3    H1 8445   0.224   7.452   0.571
 2834TIP3    H2 8446   0.115   7.349   0.554
 2835TIP3   OH2 8447   5.595   1.624   2.671
 2835TIP3    H1 8448   5.583   1.693   2.737
 2835TIP3    H2 8449   5.684   1.638   2.639
 2836TIP3   OH2 8450   7.315   3.274   2.158
 2836TIP3    H1 8451   7.380   3.243   2.094
 2836TIP3    H2 8452   7.241   3.214   2.147
 2837TIP3   OH2 8453   1.240   0.092   0.913
 2837TIP3    H1 8454   1.185   0.026   0.956
 2837TIP3    H2 8455   1.328   0.077   0.950
 2838TIP3   OH2 8456   8.154   5.110   4.433
 2838TIP3    H1 8457   8.173   5.170   4.361
 2838TIP3    H2 8458   8.157   5.164   4.512
 2839TIP3   OH2 8459   2.796   0.305   4.712
 2839TIP3    H1 8460   2.761   0.392   4.731
 2839TIP3    H2 8461   2.723   0.258   4.672
 2840TIP3   OH2 8462   5.835   0.949   2.309
 2840TIP3    H1 8463   5.741   0.963   2.315
 2840TIP3    H2 8464   5.868   1.024   2.260
 2841TIP3   OH2 8465   2.524   6.820   6.589
 2841TIP3    H1 8466   2.605   6.859   6.558
 2841TIP3    H2 8467   2.513   6.742   6.535
 2842TIP3   OH2 8468   2.798   7.627   5.073
 2842TIP3    H1 8469   2.860   7.591   5.009
 2842TIP3    H2 8470   2.797   7.563   5.144
 2843TIP3   OH2 8471   4.727   3.480   3.660
 2843TIP3    H1 8472   4.711   3.387   3.642
 2843TIP3    H2 8473   4.792   3.480   3.731
 2844TIP3   OH2 8474   0.317   0.059   0.683
 2844TIP3    H1 8475   0.405   0.048   0.648
 2844TIP3    H2 8476   0.331   0.084   0.774
 2845TIP3   OH2 8477   7.109   4.499   3.856
 2845TIP3    H1 8478   7.098   4.561   3.784
 2845TIP3    H2 8479   7.202   4.476   3.854
 2846TIP3   OH2 8480   7.685   5.462   5.718
 2846TIP3    H1 8481   7.681   5.499   5.806
 2846TIP3    H2 8482   7.594   5.460   5.689
 2847TIP3   OH2 8483   5.471   2.101   0.869
 2847TIP3    H1 8484   5.512   2.101   0.955
 2847TIP3    H2 8485   5.487   2.189   0.834
 2848TIP3   OH2 8486   0.284   6.622   6.756
 2848TIP3    H1 8487   0.316   6.540   6.793
 2848TIP3    H2 8488   0.249   6.670   6.832
 2849TIP3   OH2 8489   2.641   5.797   1.901
 2849TIP3    H1 8490   2.695   5.732   1.945
 2849TIP3    H2 8491   2.552   5.780   1.933
 2850TIP3   OH2 8492   7.075   4.939   3.929
 2850TIP3    H1 8493   7.035   4.958   3.844
 2850TIP3    H2 8494   7.023   4.866   3.963
 2851TIP3   OH2 8495   5.678   0.600   4.676
 2851TIP3    H1 8496   5.587   0.630   4.675
 2851TIP3    H2 8497   5.676   0.516   4.629
 2852TIP3   OH2 8498   5.483   3.638   6.536
 2852TIP3    H1 8499   5.489   3.543   6.546
 2852TIP3    H2 8500   5.402   3.652   6.487
 2853TIP3   OH2 8501   6.408   3.400   3.680
 2853TIP3    H1 8502   6.447   3.482   3.650
 2853TIP3    H2 8503   6.481   3.351   3.717
 2854TIP3   OH2 8504   3.449   2.113   5.674
 2854TIP3    H1 8505   3.446   2.148   5.585
 2854TIP3    H2 8506   3.395   2.034   5.671
 2855TIP3   OH2 8507   6.103   6.103   0.772
 2855TIP3    H1 8508   6.178   6.163   0.769
 2855TIP3    H2 8509   6.040   6.141   0.710
 2856TIP3   OH2 8510   6.039   7.092   1.438
 2856TIP3    H1 8511   6.128   7.069   1.412
 2856TIP3    H2 8512   6.049   7.173   1.488
 2857TIP3   OH2 8513   5.650   4.574   6.377
 2857TIP3    H1 8514   5.648   4.487   6.337
 2857TIP3    H2 8515   5.701   4.627   6.315
 2858TIP3   OH2 8516   4.434   0.922   2.559
 2858TIP3    H1 8517   4.410   1.011   2.588
 2858TIP3    H2 8518   4.529   0.918   2.570
 2859TIP3   OH2 8519   4.515   1.409   3.597
 2859TIP3    H1 8520   4.525   1.326   3.644
 2859TIP3    H2 8521   4.434   1.399   3.547
 2860TIP3   OH2 8522   4.754   3.173   1.636
 2860TIP3    H1 8523   4.697   3.190   1.711
 2860TIP3    H2 8524   4.742   3.080   1.617
 2861TIP3   OH2 8525   6.796   5.295   1.347
 2861TIP3    H1 8526   6.705   5.322   1.359
 2861TIP3    H2 8527   6.791   5.204   1.318
 2862TIP3   OH2 8528   8.237   6.580   0.108
 2862TIP3    H1 8529   8.143   6.591   0.092
 2862TIP3    H2 8530   8.257   6.645   0.175
 2863TIP3   OH2 8531   7.451   7.115   2.285
 2863TIP3    H1 8532   7.495   7.032   2.299
 2863TIP3    H2 8533   7.368   7.092   2.243
 2864TIP3   OH2 8534   7.465   3.763   3.972
 2864TIP3    H1 8535   7.401   3.708   3.927
 2864TIP3    H2 8536   7.549   3.742   3.930
 2865TIP3   OH2 8537   0.545   1.236   5.584
 2865TIP3    H1 8538   0.607   1.273   5.648
 2865TIP3    H2 8539   0.528   1.308   5.523
 2866TIP3   OH2 8540   3.339   0.453   3.937
 2866TIP3    H1 8541   3.433   0.470   3.946
 2866TIP3    H2 8542   3.333   0.361   3.914
 2867TIP3   OH2 8543   0.727   5.523   4.094
 2867TIP3    H1 8544   0.742   5.615   4.075
 2867TIP3    H2 8545   0.813   5.482   4.083
 2868TIP3   OH2 8546   6.399   0.147   1.800
 2868TIP3    H1 8547   6.464   0.091   1.758
 2868TIP3    H2 8548   6.448   0.196   1.866
 2869TIP3   OH2 8549   5.243   4.219   5.427
 2869TIP3    H1 8550   5.179   4.154   5.399
 2869TIP3    H2 8551   5.208   4.302   5.395
 2870TIP3   OH2 8552   6.821   3.834   2.177
 2870TIP3    H1 8553   6.752   3.901   2.169
 2870TIP3    H2 8554   6.782   3.768   2.234
 2871TIP3   OH2 8555   2.659   2.291   4.960
 2871TIP3    H1 8556   2.667   2.207   5.006
 2871TIP3    H2 8557   2.568   2.316   4.972
 2872TIP3   OH2 8558   2.856   6.289   1.560
 2872TIP3    H1 8559   2.815   6.354   1.617
 2872TIP3    H2 8560   2.895   6.340   1.489
 2873TIP3   OH2 8561   2.842   3.654   4.215
 2873TIP3    H1 8562   2.790   3.729   4.185
 2873TIP3    H2 8563   2.778   3.587   4.237
 2874TIP3   OH2 8564   4.344   0.281   1.433
 2874TIP3    H1 8565   4.275   0.345   1.449
 2874TIP3    H2 8566   4.422   0.333   1.416
 2875TIP3   OH2 8567   7.706   3.194   5.675
 2875TIP3    H1 8568   7.737   3.283   5.690
 2875TIP3    H2 8569   7.772   3.156   5.616
 2876TIP3   OH2 8570   7.823   5.727   3.327
 2876TIP3    H1 8571   7.823   5.823   3.323
 2876TIP3    H2 8572   7.872   5.706   3.406
 2877TIP3   OH2 8573   2.285   5.862   5.139
 2877TIP3    H1 8574   2.249   5.807   5.209
 2877TIP3    H2 8575   2.296   5.948   5.180
 2878TIP3   OH2 8576   0.400   7.257   0.081
 2878TIP3    H1 8577   0.414   7.194   0.010
 2878TIP3    H2 8578   0.477   7.314   0.078
 2879TIP3   OH2 8579   0.250   4.626   0.994
 2879TIP3    H1 8580   0.182   4.659   0.936
 2879TIP3    H2 8581   0.320   4.692   0.991
 2880TIP3   OH2 8582   1.497   0.824   0.782
 2880TIP3    H1 8583   1.482   0.889   0.851
 2880TIP3    H2 8584   1.572   0.857   0.734
 2881TIP3   OH2 8585   7.677   0.864   2.577
 2881TIP3    H1 8586   7.699   0.785   2.528
 2881TIP3    H2 8587   7.667   0.931   2.510
 2882TIP3   OH2 8588   3.401   3.650   1.574
 2882TIP3    H1 8589   3.414   3.587   1.503
 2882TIP3    H2 8590   3.447   3.729   1.544
 2883TIP3   OH2 8591   3.187   3.128   5.324
 2883TIP3    H1 8592   3.132   3.177   5.384
 2883TIP3    H2 8593   3.127   3.097   5.256
 2884TIP3   OH2 8594   2.048   3.939   1.157
 2884TIP3    H1 8595   2.067   3.935   1.251
 2884TIP3    H2 8596   2.091   4.020   1.129
 2885TIP3   OH2 8597   4.994   7.283   0.293
 2885TIP3    H1 8598   5.086   7.299   0.311
 2885TIP3    H2 8599   4.948   7.318   0.369
 2886TIP3   OH2 8600   4.451   1.253   4.487
 2886TIP3    H1 8601   4.412   1.166   4.480
 2886TIP3    H2 8602   4.512   1.258   4.414
 2887TIP3   OH2 8603   3.326   3.780   3.057
 2887TIP3    H1 8604   3.374   3.707   3.019
 2887TIP3    H2 8605   3.281   3.821   2.984
 2888TIP3   OH2 8606   1.432   5.691   0.180
 2888TIP3    H1 8607   1.361   5.698   0.116
 2888TIP3    H2 8608   1.424   5.770   0.233
 2889TIP3   OH2 8609   3.101   2.623   1.827
 2889TIP3    H1 8610   3.065   2.558   1.887
 2889TIP3    H2 8611   3.161   2.676   1.880
 2890TIP3   OH2 8612   8.033   4.071   6.335
 2890TIP3    H1 8613   8.094   4.018   6.283
 2890TIP3    H2 8614   8.073   4.158   6.337
 2891TIP3   OH2 8615   1.326   5.144   5.111
 2891TIP3    H1 8616   1.407   5.108   5.077
 2891TIP3    H2 8617   1.309   5.222   5.058
 2892TIP3   OH2 8618   6.460   0.692   3.475
 2892TIP3    H1 8619   6.528   0.723   3.415
 2892TIP3    H2 8620   6.508   0.645   3.544
 2893TIP3   OH2 8621   6.120   7.436   0.943
 2893TIP3    H1 8622   6.043   7.487   0.919
 2893TIP3    H2 8623   6.132   7.374   0.871
 2894TIP3   OH2 8624   3.363   6.647   2.947
 2894TIP3    H1 8625   3.385   6.558   2.921
 2894TIP3    H2 8626   3.286   6.638   3.003
 2895TIP3   OH2 8627   5.115   2.170   2.028
 2895TIP3    H1 8628   5.155   2.141   2.110
 2895TIP3    H2 8629   5.023   2.186   2.051
 2896TIP3   OH2 8630   8.262   2.909   3.881
 2896TIP3    H1 8631   8.171   2.939   3.871
 2896TIP3    H2 8632   8.256   2.814   3.879
 2897TIP3   OH2 8633   2.920   5.259   2.719
 2897TIP3    H1 8634   2.879   5.316   2.785
 2897TIP3    H2 8635   2.993   5.217   2.766
 2898TIP3   OH2 8636   7.154   5.355   5.365
 2898TIP3    H1 8637   7.228   5.415   5.359
 2898TIP3    H2 8638   7.181   5.279   5.312
 2899TIP3   OH2 8639   3.693   1.392   5.007
 2899TIP3    H1 8640   3.692   1.299   4.984
 2899TIP3    H2 8641   3.774   1.404   5.056
 2900TIP3   OH2 8642   8.244   7.627   5.741
 2900TIP3    H1 8643   8.155   7.628   5.777
 2900TIP3    H2 8644   8.258   7.537   5.715
 2901TIP3   OH2 8645   0.514   0.129   2.697
 2901TIP3    H1 8646   0.568   0.127   2.617
 2901TIP3    H2 8647   0.488   0.221   2.706
 2902TIP3   OH2 8648   4.185   3.919   1.835
 2902TIP3    H1 8649   4.238   3.845   1.865
 2902TIP3    H2 8650   4.236   3.959   1.766
 2903TIP3   OH2 8651   3.882   3.896   3.956
 2903TIP3    H1 8652   3.798   3.858   3.981
 2903TIP3    H2 8653   3.867   3.933   3.869
 2904TIP3   OH2 8654   6.610   5.737   0.347
 2904TIP3    H1 8655   6.696   5.729   0.387
 2904TIP3    H2 8656   6.600   5.658   0.294
 2905TIP3   OH2 8657   8.093   6.385   0.523
 2905TIP3    H1 8658   8.168   6.445   0.522
 2905TIP3    H2 8659   8.117   6.315   0.462
 2906TIP3   OH2 8660   2.331   4.990   2.854
 2906TIP3    H1 8661   2.426   4.982   2.840
 2906TIP3    H2 8662   2.323   5.062   2.916
 2907TIP3   OH2 8663   0.096   7.284   4.488
 2907TIP3    H1 8664   0.030   7.220   4.517
 2907TIP3    H2 8665   0.118   7.257   4.399
 2908TIP3   OH2 8666   2.651   5.238   5.838
 2908TIP3    H1 8667   2.612   5.153   5.858
 2908TIP3    H2 8668   2.577   5.299   5.841
 2909TIP3   OH2 8669   1.164   5.436   0.920
 2909TIP3    H1 8670   1.202   5.504   0.975
 2909TIP3    H2 8671   1.086   5.409   0.968
 2910TIP3   OH2 8672   8.186   7.388   1.592
 2910TIP3    H1 8673   8.135   7.391   1.673
 2910TIP3    H2 8674   8.262   7.334   1.615
 2911TIP3   OH2 8675   1.174   6.237   1.626
 2911TIP3    H1 8676   1.200   6.306   1.564
 2911TIP3    H2 8677   1.257   6.203   1.660
 2912TIP3   OH2 8678   6.601   3.983   6.058
 2912TIP3    H1 8679   6.618   3.948   6.145
 2912TIP3    H2 8680   6.571   4.073   6.074
 2913TIP3   OH2 8681   7.525   6.486   1.865
 2913TIP3    H1 8682   7.584   6.412   1.851
 2913TIP3    H2 8683   7.480   6.466   1.947
 2914TIP3   OH2 8684   4.723   5.129   4.410
 2914TIP3    H1 8685   4.774   5.053   4.381
 2914TIP3    H2 8686   4.761   5.203   4.363
 2915TIP3   OH2 8687   4.306   4.977   6.724
 2915TIP3    H1 8688   4.368   5.029   6.776
 2915TIP3    H2 8689   4.362   4.918   6.673
 2916TIP3   OH2 8690   1.497   2.005   6.214
 2916TIP3    H1 8691   1.567   2.052   6.260
 2916TIP3    H2 8692   1.455   2.071   6.160
 2917TIP3   OH2 8693   2.413   4.619   3.069
 2917TIP3    H1 8694   2.423   4.608   2.975
 2917TIP3    H2 8695   2.319   4.611   3.085
 2918TIP3   OH2 8696   0.528   5.581   3.131
 2918TIP3    H1 8697   0.519   5.486   3.132
 2918TIP3    H2 8698   0.443   5.613   3.102
 2919TIP3   OH2 8699   3.109   6.343   5.108
 2919TIP3    H1 8700   3.148   6.301   5.185
 2919TIP3    H2 8701   3.170   6.414   5.086
 2920TIP3   OH2 8702   5.929   3.559   3.272
 2920TIP3    H1 8703   5.968   3.586   3.355
 2920TIP3    H2 8704   5.968   3.618   3.207
 2921TIP3   OH2 8705   6.028   1.499   2.405
 2921TIP3    H1 8706   6.066   1.520   2.319
 2921TIP3    H2 8707   6.104   1.494   2.464
 2922TIP3   OH2 8708   1.392   0.529   2.046
 2922TIP3    H1 8709   1.484   0.547   2.066
 2922TIP3    H2 8710   1.394   0.476   1.967
 2923TIP3   OH2 8711   1.297   4.771   6.096
 2923TIP3    H1 8712   1.356   4.813   6.034
 2923TIP3    H2 8713   1.245   4.843   6.132
 2924TIP3   OH2 8714   6.073   3.238   6.061
 2924TIP3    H1 8715   6.141   3.279   6.114
 2924TIP3    H2 8716   6.043   3.164   6.115
 2925TIP3   OH2 8717   1.905   0.626   0.909
 2925TIP3    H1 8718   1.912   0.670   0.824
 2925TIP3    H2 8719   1.858   0.688   0.965
 2926TIP3   OH2 8720   1.858   2.407   1.595
 2926TIP3    H1 8721   1.873   2.432   1.686
 2926TIP3    H2 8722   1.937   2.437   1.549
 2927TIP3   OH2 8723   4.660   4.290   5.281
 2927TIP3    H1 8724   4.720   4.340   5.335
 2927TIP3    H2 8725   4.590   4.263   5.340
 2928TIP3   OH2 8726   6.034   5.970   3.032
 2928TIP3    H1 8727   6.060   5.887   3.072
 2928TIP3    H2 8728   6.116   6.014   3.013
 2929TIP3   OH2 8729   2.200   7.692   1.838
 2929TIP3    H1 8730   2.162   7.765   1.889
 2929TIP3    H2 8731   2.275   7.664   1.890
 2930TIP3   OH2 8732   0.883   1.885   0.843
 2930TIP3    H1 8733   0.955   1.832   0.878
 2930TIP3    H2 8734   0.850   1.934   0.918
 2931TIP3   OH2 8735   3.413   6.653   3.273
 2931TIP3    H1 8736   3.477   6.658   3.202
 2931TIP3    H2 8737   3.363   6.574   3.255
 2932TIP3   OH2 8738   5.176   4.702   3.638
 2932TIP3    H1 8739   5.224   4.682   3.718
 2932TIP3    H2 8740   5.244   4.726   3.575
 2933TIP3   OH2 8741   0.249   3.386   1.406
 2933TIP3    H1 8742   0.205   3.393   1.321
 2933TIP3    H2 8743   0.204   3.315   1.451
 2934TIP3   OH2 8744   1.641   4.670   0.570
 2934TIP3    H1 8745   1.712   4.730   0.589
 2934TIP3    H2 8746   1.681   4.602   0.516
 2935TIP3   OH2 8747   4.224   5.600   0.891
 2935TIP3    H1 8748   4.279   5.673   0.862
 2935TIP3    H2 8749   4.150   5.642   0.934
 2936TIP3   OH2 8750   2.312   5.570   2.647
 2936TIP3    H1 8751   2.399   5.546   2.679
 2936TIP3    H2 8752   2.324   5.585   2.553
 2937TIP3   OH2 8753   4.266   5.164   2.998
 2937TIP3    H1 8754   4.209   5.118   3.059
 2937TIP3    H2 8755   4.321   5.219   3.053
 2938TIP3   OH2 8756   7.403   2.090   2.066
 2938TIP3    H1 8757   7.337   2.021   2.065
 2938TIP3    H2 8758   7.413   2.112   2.159
 2939TIP3   OH2 8759   1.882   5.115   6.309
 2939TIP3    H1 8760   1.955   5.106   6.247
 2939TIP3    H2 8761   1.921   5.094   6.394
 2940TIP3   OH2 8762   6.819   3.695   3.362
 2940TIP3    H1 8763   6.750   3.631   3.382
 2940TIP3    H2 8764   6.784   3.746   3.289
 2941TIP3   OH2 8765   7.167   0.260   4.153
 2941TIP3    H1 8766   7.109   0.194   4.191
 2941TIP3    H2 8767   7.110   0.315   4.100
 2942TIP3   OH2 8768   3.990   7.510   0.843
 2942TIP3    H1 8769   4.040   7.571   0.788
 2942TIP3    H2 8770   3.954   7.565   0.912
 2943TIP3   OH2 8771   1.789   6.616   0.282
 2943TIP3    H1 8772   1.835   6.660   0.211
 2943TIP3    H2 8773   1.715   6.673   0.302
 2944TIP3   OH2 8774   3.278   0.461   1.999
 2944TIP3    H1 8775   3.280   0.551   1.967
 2944TIP3    H2 8776   3.302   0.468   2.092
 2945TIP3   OH2 8777   6.429   0.167   1.317
 2945TIP3    H1 8778   6.381   0.153   1.236
 2945TIP3    H2 8779   6.521   0.168   1.291
 2946TIP3   OH2 8780   3.636   6.784   2.896
 2946TIP3    H1 8781   3.633   6.862   2.952
 2946TIP3    H2 8782   3.546   6.750   2.896
 2947TIP3   OH2 8783   4.108   2.174   2.962
 2947TIP3    H1 8784   4.127   2.263   2.933
 2947TIP3    H2 8785   4.194   2.132   2.967
 2948TIP3   OH2 8786   3.568   5.561   5.268
 2948TIP3    H1 8787   3.512   5.522   5.335
 2948TIP3    H2 8788   3.507   5.588   5.199
 2949TIP3   OH2 8789   1.634   0.505   1.881
 2949TIP3    H1 8790   1.715   0.469   1.916
 2949TIP3    H2 8791   1.631   0.474   1.790
 2950TIP3   OH2 8792   6.732   5.401   3.848
 2950TIP3    H1 8793   6.729   5.472   3.912
 2950TIP3    H2 8794   6.640   5.383   3.828
 2951TIP3   OH2 8795   3.332   1.423   5.384
 2951TIP3    H1 8796   3.392   1.445   5.313
 2951TIP3    H2 8797   3.352   1.487   5.453
 2952TIP3   OH2 8798   3.669   7.861   0.054
 2952TIP3    H1 8799   3.752   7.904   0.077
 2952TIP3    H2 8800   3.636   7.829   0.137
 2953TIP3   OH2 8801   4.325   6.410   4.740
 2953TIP3    H1 8802   4.338   6.349   4.812
 2953TIP3    H2 8803   4.261   6.368   4.683
 2954TIP3   OH2 8804   4.090   5.060   2.500
 2954TIP3    H1 8805   3.996   5.060   2.518
 2954TIP3    H2 8806   4.097   5.099   2.412
 2955TIP3   OH2 8807   0.164   3.654   4.352
 2955TIP3    H1 8808   0.102   3.711   4.306
 2955TIP3    H2 8809   0.216   3.615   4.282
 2956TIP3   OH2 8810   4.599   6.001   4.442
 2956TIP3    H1 8811   4.599   5.906   4.436
 2956TIP3    H2 8812   4.511   6.026   4.414
 2957TIP3   OH2 8813   5.365   2.962   3.535
 2957TIP3    H1 8814   5.360   2.868   3.554
 2957TIP3    H2 8815   5.419   2.997   3.606
 2958TIP3   OH2 8816   4.320   6.473   3.969
 2958TIP3    H1 8817   4.248   6.487   4.031
 2958TIP3    H2 8818   4.296   6.392   3.924
 2959TIP3   OH2 8819   4.085   6.241   1.606
 2959TIP3    H1 8820   4.157   6.178   1.606
 2959TIP3    H2 8821   4.048   6.235   1.518
 2960TIP3   OH2 8822   6.722   4.308   0.988
 2960TIP3    H1 8823   6.783   4.235   0.994
 2960TIP3    H2 8824   6.669   4.289   0.910
 2961TIP3   OH2 8825   4.577   1.585   4.812
 2961TIP3    H1 8826   4.634   1.599   4.888
 2961TIP3    H2 8827   4.604   1.652   4.749
 2962TIP3   OH2 8828   2.769   5.345   4.897
 2962TIP3    H1 8829   2.689   5.359   4.846
 2962TIP3    H2 8830   2.790   5.431   4.933
 2963TIP3   OH2 8831   8.071   1.563   6.318
 2963TIP3    H1 8832   8.120   1.605   6.388
 2963TIP3    H2 8833   8.083   1.469   6.333
 2964TIP3   OH2 8834   6.456   5.888   5.431
 2964TIP3    H1 8835   6.512   5.813   5.448
 2964TIP3    H2 8836   6.473   5.910   5.339
 2965TIP3   OH2 8837   3.678   2.923   0.866
 2965TIP3    H1 8838   3.682   3.005   0.915
 2965TIP3    H2 8839   3.719   2.943   0.782
 2966TIP3   OH2 8840   3.082   6.095   2.246
 2966TIP3    H1 8841   3.112   6.181   2.217
 2966TIP3    H2 8842   3.026   6.113   2.322
 2967TIP3   OH2 8843   5.499   0.438   3.552
 2967TIP3    H1 8844   5.447   0.516   3.573
 2967TIP3    H2 8845   5.574   0.443   3.611
 2968TIP3   OH2 8846   0.833   3.109   4.493
 2968TIP3    H1 8847   0.760   3.069   4.447
 2968TIP3    H2 8848   0.854   3.187   4.443
 2969TIP3   OH2 8849   7.253   5.283   0.008
 2969TIP3    H1 8850   7.205   5.200   0.018
 2969TIP3    H2 8851   7.345   5.257   0.005
 2970TIP3   OH2 8852   3.759   1.356   3.435
 2970TIP3    H1 8853   3.844   1.399   3.423
 2970TIP3    H2 8854   3.753   1.341   3.529
 2971TIP3   OH2 8855   0.072   6.451   5.743
 2971TIP3    H1 8856  -0.003   6.488   5.790
 2971TIP3    H2 8857   0.037   6.422   5.660
 2972TIP3   OH2 8858   2.608   2.688   4.176
 2972TIP3    H1 8859   2.519   2.723   4.165
 2972TIP3    H2 8860   2.621   2.687   4.271
 2973TIP3   OH2 8861   1.014   6.216   0.344
 2973TIP3    H1 8862   1.106   6.225   0.320
 2973TIP3    H2 8863   0.973   6.174   0.269
 2974TIP3   OH2 8864   4.541   7.397   0.069
 2974TIP3    H1 8865   4.548   7.307   0.035
 2974TIP3    H2 8866   4.487   7.389   0.147
 2975TIP3   OH2 8867   5.407   5.342   0.473
 2975TIP3    H1 8868   5.364   5.283   0.411
 2975TIP3    H2 8869   5.501   5.331   0.457
 2976TIP3   OH2 8870   6.745   6.207   2.052
 2976TIP3    H1 8871   6.710   6.197   1.964
 2976TIP3    H2 8872   6.838   6.222   2.040
 2977TIP3   OH2 8873   6.840   1.223   1.481
 2977TIP3    H1 8874   6.821   1.136   1.517
 2977TIP3    H2 8875   6.935   1.223   1.468
 2978TIP3   OH2 8876   3.152   1.852   3.090
 2978TIP3    H1 8877   3.167   1.857   2.995
 2978TIP3    H2 8878   3.068   1.807   3.098
 2979TIP3   OH2 8879   2.533   7.724   0.665
 2979TIP3    H1 8880   2.515   7.767   0.581
 2979TIP3    H2 8881   2.560   7.635   0.640
 2980TIP3   OH2 8882   2.026   7.289   0.804
 2980TIP3    H1 8883   2.100   7.316   0.858
 2980TIP3    H2 8884   1.975   7.370   0.791
 2981TIP3   OH2 8885   2.985   4.107   2.254
 2981TIP3    H1 8886   3.072   4.071   2.273
 2981TIP3    H2 8887   2.926   4.063   2.315
 2982TIP3   OH2 8888   1.578   6.922   1.242
 2982TIP3    H1 8889   1.498   6.965   1.212
 2982TIP3    H2 8890   1.607   6.871   1.166
 2983TIP3   OH2 8891   3.734   6.683   4.076
 2983TIP3    H1 8892   3.821   6.645   4.086
 2983TIP3    H2 8893   3.739   6.767   4.121
 2984TIP3   OH2 8894   1.351   1.958   0.637
 2984TIP3    H1 8895   1.378   2.049   0.653
 2984TIP3    H2 8896   1.384   1.939   0.549
 2985TIP3   OH2 8897   0.330   7.220   0.397
 2985TIP3    H1 8898   0.411   7.207   0.347
 2985TIP3    H2 8899   0.279   7.140   0.382
 2986TIP3   OH2 8900   4.447   5.369   6.663
 2986TIP3    H1 8901   4.471   5.309   6.592
 2986TIP3    H2 8902   4.516   5.357   6.729
 2987TIP3   OH2 8903   4.447   6.829   1.741
 2987TIP3    H1 8904   4.482   6.915   1.761
 2987TIP3    H2 8905   4.383   6.845   1.671
 2988TIP3   OH2 8906   7.931   2.031   5.385
 2988TIP3    H1 8907   7.975   2.082   5.453
 2988TIP3    H2 8908   7.884   1.962   5.432
 2989TIP3   OH2 8909   3.068   7.734   0.185
 2989TIP3    H1 8910   3.001   7.669   0.207
 2989TIP3    H2 8911   3.033   7.780   0.109
 2990TIP3   OH2 8912   3.347   6.940   2.886
 2990TIP3    H1 8913   3.330   6.846   2.874
 2990TIP3    H2 8914   3.283   6.968   2.951
 2991TIP3   OH2 8915   0.994   3.719   2.602
 2991TIP3    H1 8916   1.073   3.773   2.599
 2991TIP3    H2 8917   0.931   3.771   2.651
 2992TIP3   OH2 8918   0.691   5.229   0.425
 2992TIP3    H1 8919   0.661   5.315   0.393
 2992TIP3    H2 8920   0.786   5.232   0.417
 2993TIP3   OH2 8921   2.472   6.865   2.547
 2993TIP3    H1 8922   2.466   6.909   2.631
 2993TIP3    H2 8923   2.383   6.837   2.527
 2994TIP3   OH2 8924   1.243   7.454   3.633
 2994TIP3    H1 8925   1.307   7.526   3.622
 2994TIP3    H2 8926   1.245   7.409   3.549
 2995TIP3   OH2 8927   2.253   2.425   4.524
 2995TIP3    H1 8928   2.214   2.506   4.556
 2995TIP3    H2 8929   2.347   2.439   4.532
 2996TIP3   OH2 8930   5.347   1.403   1.164
 2996TIP3    H1 8931   5.442   1.413   1.153
 2996TIP3    H2 8932   5.325   1.458   1.239
 2997TIP3   OH2 8933   1.396   7.422   1.651
 2997TIP3    H1 8934   1.347   7.502   1.671
 2997TIP3    H2 8935   1.447   7.405   1.730
 2998TIP3   OH2 8936   3.940   2.490   0.967
 2998TIP3    H1 8937   3.960   2.399   0.990
 2998TIP3    H2 8938   3.850   2.487   0.934
 2999TIP3   OH2 8939   7.632   0.078   0.951
 2999TIP3    H1 8940   7.591   0.026   0.882
 2999TIP3    H2 8941   7.720   0.042   0.960
 3000TIP3   OH2 8942   0.862   1.087   4.022
 3000TIP3    H1 8943   0.805   1.139   4.079
 3000TIP3    H2 8944   0.944   1.136   4.020
 3001TIP3   OH2 8945   6.605   0.071   0.931
 3001TIP3    H1 8946   6.544   0.001   0.953
 3001TIP3    H2 8947   6.564   0.118   0.858
 3002TIP3   OH2 8948   0.612   4.418   1.511
 3002TIP3    H1 8949   0.680   4.367   1.554
 3002TIP3    H2 8950   0.655   4.459   1.437
 3003TIP3   OH2 8951   6.599   3.775   0.629
 3003TIP3    H1 8952   6.546   3.727   0.565
 3003TIP3    H2 8953   6.654   3.708   0.669
 3004TIP3   OH2 8954   6.936   7.653   1.807
 3004TIP3    H1 8955   6.870   7.623   1.869
 3004TIP3    H2 8956   6.886   7.681   1.730
 3005TIP3   OH2 8957   7.939   1.698   6.125
 3005TIP3    H1 8958   7.946   1.772   6.185
 3005TIP3    H2 8959   7.978   1.625   6.172
 3006TIP3   OH2 8960   2.444   6.510   4.158
 3006TIP3    H1 8961   2.410   6.435   4.111
 3006TIP3    H2 8962   2.367   6.555   4.192
 3007TIP3   OH2 8963   3.685   3.968   6.267
 3007TIP3    H1 8964   3.711   3.876   6.265
 3007TIP3    H2 8965   3.596   3.969   6.233
 3008TIP3   OH2 8966   2.712   3.015   0.587
 3008TIP3    H1 8967   2.642   3.013   0.652
 3008TIP3    H2 8968   2.672   3.052   0.509
 3009TIP3   OH2 8969   0.623   2.634   2.573
 3009TIP3    H1 8970   0.713   2.614   2.548
 3009TIP3    H2 8971   0.606   2.578   2.649
 3010TIP3   OH2 8972   7.728   6.923   0.221
 3010TIP3    H1 8973   7.653   6.868   0.246
 3010TIP3    H2 8974   7.805   6.869   0.241
 3011TIP3   OH2 8975   7.188   3.248   0.210
 3011TIP3    H1 8976   7.255   3.234   0.277
 3011TIP3    H2 8977   7.230   3.303   0.145
 3012TIP3   OH2 8978   8.018   0.165   2.128
 3012TIP3    H1 8979   8.031   0.070   2.120
 3012TIP3    H2 8980   8.096   0.196   2.173
 3013TIP3   OH2 8981   6.710   2.304   5.997
 3013TIP3    H1 8982   6.638   2.365   5.981
 3013TIP3    H2 8983   6.717   2.253   5.916
 3014TIP3   OH2 8984   2.766   2.724   4.391
 3014TIP3    H1 8985   2.839   2.696   4.335
 3014TIP3    H2 8986   2.801   2.718   4.480
 3015TIP3   OH2 8987   5.127   3.259   0.904
 3015TIP3    H1 8988   5.138   3.171   0.867
 3015TIP3    H2 8989   5.086   3.310   0.834
 3016TIP3   OH2 8990   2.716   4.849   3.008
 3016TIP3    H1 8991   2.736   4.931   3.054
 3016TIP3    H2 8992   2.663   4.799   3.071
 3017TIP3   OH2 8993   7.778   6.308   5.032
 3017TIP3    H1 8994   7.786   6.214   5.016
 3017TIP3    H2 8995   7.806   6.320   5.123
 3018TIP3   OH2 8996   1.887   0.394   3.366
 3018TIP3    H1 8997   1.884   0.337   3.289
 3018TIP3    H2 8998   1.829   0.467   3.343
 3019TIP3   OH2 8999   3.727   5.508   3.790
 3019TIP3    H1 9000   3.799   5.450   3.769
 3019TIP3    H2 9001   3.743   5.587   3.739
 3020TIP3   OH2 9002   7.852   4.027   5.537
 3020TIP3    H1 9003   7.877   4.119   5.542
 3020TIP3    H2 9004   7.758   4.026   5.552
 3021TIP3   OH2 9005   5.100   5.427   1.373
 3021TIP3    H1 9006   5.131   5.483   1.302
 3021TIP3    H2 9007   5.006   5.446   1.379
 3022TIP3   OH2 9008   8.216   4.940   2.411
 3022TIP3    H1 9009   8.304   4.976   2.420
 3022TIP3    H2 9010   8.209   4.916   2.319
 3023TIP3   OH2 9011   7.515   3.259   3.412
 3023TIP3    H1 9012   7.543   3.295   3.496
 3023TIP3    H2 9013   7.520   3.333   3.351
 3024TIP3   OH2 9014   6.478   1.234   6.414
 3024TIP3    H1 9015   6.383   1.246   6.419
 3024TIP3    H2 9016   6.489   1.147   6.376
 3025TIP3   OH2 9017   6.402   7.143   5.316
 3025TIP3    H1 9018   6.432   7.233   5.308
 3025TIP3    H2 9019   6.474   7.090   5.281
 3026TIP3   OH2 9020   6.297   7.154   3.424
 3026TIP3    H1 9021   6.367   7.090   3.412
 3026TIP3    H2 9022   6.234   7.135   3.355
 3027TIP3   OH2 9023   6.976   3.288   5.700
 3027TIP3    H1 9024   7.061   3.310   5.739
 3027TIP3    H2 9025   6.957   3.200   5.733
 3028TIP3   OH2 9026   5.612   3.018   1.960
 3028TIP3    H1 9027   5.700   3.014   1.999
 3028TIP3    H2 9028   5.553   3.011   2.035
 3029TIP3   OH2 9029   7.246   3.849   2.255
 3029TIP3    H1 9030   7.233   3.810   2.341
 3029TIP3    H2 9031   7.190   3.797   2.197
 3030TIP3   OH2 9032   5.894   7.079   0.939
 3030TIP3    H1 9033   5.820   7.094   0.998
 3030TIP3    H2 9034   5.886   6.988   0.913
 3031TIP3   OH2 9035   3.676   4.501   1.704
 3031TIP3    H1 9036   3.684   4.539   1.792
 3031TIP3    H2 9037   3.634   4.416   1.718
 3032TIP3   OH2 9038   5.305   2.016   2.525
 3032TIP3    H1 9039   5.331   1.980   2.440
 3032TIP3    H2 9040   5.282   2.107   2.506
 3033TIP3   OH2 9041   6.102   2.356   5.796
 3033TIP3    H1 9042   6.046   2.307   5.856
 3033TIP3    H2 9043   6.190   2.324   5.814
 3034TIP3   OH2 9044   0.628   7.232   2.617
 3034TIP3    H1 9045   0.654   7.309   2.666
 3034TIP3    H2 9046   0.538   7.251   2.588
 3035TIP3   OH2 9047   7.283   0.966   2.583
 3035TIP3    H1 9048   7.350   0.948   2.517
 3035TIP3    H2 9049   7.332   0.992   2.661
 3036TIP3   OH2 9050   4.773   4.773   2.891
 3036TIP3    H1 9051   4.780   4.749   2.799
 3036TIP3    H2 9052   4.835   4.846   2.901
 3037TIP3   OH2 9053   2.402   4.520   1.897
 3037TIP3    H1 9054   2.366   4.604   1.924
 3037TIP3    H2 9055   2.332   4.479   1.845
 3038TIP3   OH2 9056   0.535   0.703   4.279
 3038TIP3    H1 9057   0.616   0.751   4.263
 3038TIP3    H2 9058   0.495   0.694   4.192
 3039TIP3   OH2 9059   3.226   7.501   5.819
 3039TIP3    H1 9060   3.220   7.573   5.756
 3039TIP3    H2 9061   3.231   7.422   5.766
 3040TIP3   OH2 9062   4.562   0.999   4.978
 3040TIP3    H1 9063   4.501   0.983   5.049
 3040TIP3    H2 9064   4.550   0.924   4.919
 3041TIP3   OH2 9065   1.539   7.046   1.495
 3041TIP3    H1 9066   1.570   6.991   1.423
 3041TIP3    H2 9067   1.616   7.057   1.552
 3042TIP3   OH2 9068   1.544   6.792   2.435
 3042TIP3    H1 9069   1.578   6.880   2.420
 3042TIP3    H2 9070   1.452   6.797   2.409
 3043TIP3   OH2 9071   7.243   2.946   5.886
 3043TIP3    H1 9072   7.225   2.945   5.792
 3043TIP3    H2 9073   7.304   2.874   5.900
 3044TIP3   OH2 9074   2.321   7.250   1.460
 3044TIP3    H1 9075   2.379   7.309   1.411
 3044TIP3    H2 9076   2.233   7.278   1.437
 3045TIP3   OH2 9077   7.355   2.099   6.637
 3045TIP3    H1 9078   7.422   2.143   6.689
 3045TIP3    H2 9079   7.323   2.030   6.695
 3046TIP3   OH2 9080   6.129   7.477   4.570
 3046TIP3    H1 9081   6.138   7.521   4.655
 3046TIP3    H2 9082   6.207   7.502   4.521
 3047TIP3   OH2 9083   7.404   4.632   5.698
 3047TIP3    H1 9084   7.332   4.578   5.731
 3047TIP3    H2 9085   7.422   4.695   5.767
 3048TIP3   OH2 9086   3.358   6.798   5.172
 3048TIP3    H1 9087   3.268   6.820   5.148
 3048TIP3    H2 9088   3.350   6.754   5.257
 3049TIP3   OH2 9089   0.559   6.927   5.644
 3049TIP3    H1 9090   0.510   7.008   5.629
 3049TIP3    H2 9091   0.607   6.913   5.562
 3050TIP3   OH2 9092   5.359   7.107   1.671
 3050TIP3    H1 9093   5.450   7.092   1.647
 3050TIP3    H2 9094   5.313   7.119   1.588
 3051TIP3   OH2 9095   3.726   1.840   1.486
 3051TIP3    H1 9096   3.772   1.845   1.570
 3051TIP3    H2 9097   3.633   1.846   1.510
 3052TIP3   OH2 9098   7.736   6.493   2.846
 3052TIP3    H1 9099   7.806   6.440   2.809
 3052TIP3    H2 9100   7.668   6.430   2.870
 3053TIP3   OH2 9101   4.351   4.387   2.060
 3053TIP3    H1 9102   4.441   4.379   2.027
 3053TIP3    H2 9103   4.344   4.321   2.129
 3054TIP3   OH2 9104   7.896   7.070   1.967
 3054TIP3    H1 9105   7.879   7.157   2.003
 3054TIP3    H2 9106   7.904   7.013   2.044
 3055TIP3   OH2 9107   5.847   2.787   4.605
 3055TIP3    H1 9108   5.823   2.728   4.676
 3055TIP3    H2 9109   5.851   2.730   4.528
 3056TIP3   OH2 9110   3.799   0.889   1.687
 3056TIP3    H1 9111   3.891   0.914   1.678
 3056TIP3    H2 9112   3.762   0.900   1.599
 3057TIP3   OH2 9113   4.099   5.718   6.269
 3057TIP3    H1 9114   4.184   5.718   6.314
 3057TIP3    H2 9115   4.093   5.631   6.229
 3058TIP3   OH2 9116   1.143   5.503   0.366
 3058TIP3    H1 9117   1.165   5.575   0.306
 3058TIP3    H2 9118   1.215   5.502   0.429
 3059TIP3   OH2 9119   1.223   5.427   3.362
 3059TIP3    H1 9120   1.172   5.351   3.334
 3059TIP3    H2 9121   1.282   5.444   3.288
 3060TIP3   OH2 9122   1.331   4.130   4.482
 3060TIP3    H1 9123   1.293   4.046   4.455
 3060TIP3    H2 9124   1.324   4.185   4.403
 3061TIP3   OH2 9125   8.184   7.364   1.033
 3061TIP3    H1 9126   8.199   7.457   1.053
 3061TIP3    H2 9127   8.245   7.317   1.088
 3062TIP3   OH2 9128   1.394   0.665   0.232
 3062TIP3    H1 9129   1.419   0.607   0.160
 3062TIP3    H2 9130   1.362   0.744   0.189
 3063TIP3   OH2 9131   4.205   4.929   0.174
 3063TIP3    H1 9132   4.288   4.978   0.179
 3063TIP3    H2 9133   4.221   4.861   0.109
 3064TIP3   OH2 9134   1.934   2.062   4.903
 3064TIP3    H1 9135   1.999   2.045   4.836
 3064TIP3    H2 9136   1.972   2.027   4.984
 3065TIP3   OH2 9137   5.662   6.150   4.997
 3065TIP3    H1 9138   5.685   6.186   5.083
 3065TIP3    H2 9139   5.714   6.069   4.991
 3066TIP3   OH2 9140   5.417   1.598   3.487
 3066TIP3    H1 9141   5.332   1.619   3.525
 3066TIP3    H2 9142   5.427   1.504   3.503
 3067TIP3   OH2 9143   3.244   1.048   4.266
 3067TIP3    H1 9144   3.170   1.108   4.268
 3067TIP3    H2 9145   3.239   1.000   4.349
 3068TIP3   OH2 9146   5.768   2.175   3.946
 3068TIP3    H1 9147   5.708   2.118   3.995
 3068TIP3    H2 9148   5.806   2.232   4.013
 3069TIP3   OH2 9149   0.388   3.811   1.147
 3069TIP3    H1 9150   0.308   3.784   1.191
 3069TIP3    H2 9151   0.458   3.789   1.209
 3070TIP3   OH2 9152   8.008   0.515   0.069
 3070TIP3    H1 9153   8.002   0.554   0.156
 3070TIP3    H2 9154   8.093   0.543   0.035
 3071TIP3   OH2 9155   7.286   7.638   3.124
 3071TIP3    H1 9156   7.357   7.698   3.147
 3071TIP3    H2 9157   7.282   7.577   3.198
 3072TIP3   OH2 9158   1.912   4.534   4.830
 3072TIP3    H1 9159   1.933   4.622   4.798
 3072TIP3    H2 9160   1.957   4.528   4.914
 3073TIP3   OH2 9161   7.352   7.575   5.207
 3073TIP3    H1 9162   7.434   7.539   5.174
 3073TIP3    H2 9163   7.313   7.619   5.131
 3074TIP3   OH2 9164   3.043   6.765   3.443
 3074TIP3    H1 9165   3.081   6.678   3.457
 3074TIP3    H2 9166   2.982   6.776   3.516
 3075TIP3   OH2 9167   0.395   4.103   4.112
 3075TIP3    H1 9168   0.310   4.063   4.091
 3075TIP3    H2 9169   0.444   4.100   4.030
 3076TIP3   OH2 9170   3.945   3.977   3.184
 3076TIP3    H1 9171   3.988   3.894   3.208
 3076TIP3    H2 9172   3.899   3.958   3.102
 3077TIP3   OH2 9173   5.423   7.793   4.488
 3077TIP3    H1 9174   5.389   7.883   4.488
 3077TIP3    H2 9175   5.348   7.739   4.462
 3078TIP3   OH2 9176   7.527   0.608   3.138
 3078TIP3    H1 9177   7.434   0.595   3.117
 3078TIP3    H2 9178   7.531   0.605   3.234
 3079TIP3   OH2 9179   4.610   6.555   1.665
 3079TIP3    H1 9180   4.553   6.623   1.629
 3079TIP3    H2 9181   4.660   6.524   1.590
 3080TIP3   OH2 9182   8.198   2.320   4.258
 3080TIP3    H1 9183   8.150   2.332   4.339
 3080TIP3    H2 9184   8.211   2.225   4.251
 3081TIP3   OH2 9185   2.793   2.316   1.460
 3081TIP3    H1 9186   2.723   2.291   1.400
 3081TIP3    H2 9187   2.858   2.359   1.404
 3082TIP3   OH2 9188   1.957   1.820   2.104
 3082TIP3    H1 9189   1.976   1.867   2.023
 3082TIP3    H2 9190   1.866   1.843   2.124
 3083TIP3   OH2 9191   1.842   3.923   3.711
 3083TIP3    H1 9192   1.880   3.913   3.798
 3083TIP3    H2 9193   1.917   3.919   3.652
 3084TIP3   OH2 9194   1.574   2.778   2.807
 3084TIP3    H1 9195   1.508   2.740   2.748
 3084TIP3    H2 9196   1.651   2.721   2.795
 3085TIP3   OH2 9197   7.414   5.014   1.882
 3085TIP3    H1 9198   7.427   4.957   1.807
 3085TIP3    H2 9199   7.503   5.034   1.912
 3086TIP3   OH2 9200   8.139   2.948   0.241
 3086TIP3    H1 9201   8.177   3.016   0.186
 3086TIP3    H2 9202   8.079   2.901   0.183
 3087TIP3   OH2 9203   5.803   2.650   1.882
 3087TIP3    H1 9204   5.869   2.644   1.812
 3087TIP3    H2 9205   5.850   2.627   1.962
 3088TIP3   OH2 9206   1.455   7.224   5.499
 3088TIP3    H1 9207   1.531   7.279   5.481
 3088TIP3    H2 9208   1.380   7.277   5.473
 3089TIP3   OH2 9209   8.222   4.973   1.243
 3089TIP3    H1 9210   8.184   4.892   1.210
 3089TIP3    H2 9211   8.147   5.028   1.264
 3090TIP3   OH2 9212   4.868   5.550   4.472
 3090TIP3    H1 9213   4.898   5.537   4.382
 3090TIP3    H2 9214   4.945   5.583   4.519
 3091TIP3   OH2 9215   2.029   0.087   2.148
 3091TIP3    H1 9216   1.997   0.174   2.173
 3091TIP3    H2 9217   1.992   0.027   2.213
 3092TIP3   OH2 9218   3.952   7.771   4.824
 3092TIP3    H1 9219   4.002   7.840   4.781
 3092TIP3    H2 9220   3.867   7.772   4.780
 3093TIP3   OH2 9221   7.297   5.056   0.272
 3093TIP3    H1 9222   7.262   5.083   0.187
 3093TIP3    H2 9223   7.392   5.064   0.262
 3094TIP3   OH2 9224   7.888   3.343   0.791
 3094TIP3    H1 9225   7.800   3.366   0.820
 3094TIP3    H2 9226   7.927   3.297   0.865
 3095TIP3   OH2 9227   4.209   3.458   5.760
 3095TIP3    H1 9228   4.284   3.470   5.819
 3095TIP3    H2 9229   4.189   3.364   5.765
 3096TIP3   OH2 9230   1.738   5.407   1.917
 3096TIP3    H1 9231   1.745   5.503   1.918
 3096TIP3    H2 9232   1.739   5.382   2.009
 3097TIP3   OH2 9233   7.505   4.879   4.894
 3097TIP3    H1 9234   7.534   4.817   4.960
 3097TIP3    H2 9235   7.542   4.845   4.812
 3098TIP3   OH2 9236   0.856   0.472   1.139
 3098TIP3    H1 9237   0.855   0.449   1.046
 3098TIP3    H2 9238   0.929   0.422   1.175
 3099TIP3   OH2 9239   6.188   1.964   0.814
 3099TIP3    H1 9240   6.094   1.981   0.813
 3099TIP3    H2 9241   6.204   1.914   0.734
 3100TIP3   OH2 9242   6.705   6.508   1.434
 3100TIP3    H1 9243   6.665   6.594   1.447
 3100TIP3    H2 9244   6.763   6.520   1.359
 3101TIP3   OH2 9245   0.712   1.859   0.071
 3101TIP3    H1 9246   0.704   1.937   0.126
 3101TIP3    H2 9247   0.657   1.793   0.114
 3102TIP3   OH2 9248   0.499   0.982   1.376
 3102TIP3    H1 9249   0.515   1.066   1.420
 3102TIP3    H2 9250   0.533   0.916   1.436
 3103TIP3   OH2 9251   6.488   3.995   1.586
 3103TIP3    H1 9252   6.546   3.973   1.659
 3103TIP3    H2 9253   6.539   3.974   1.508
 3104TIP3   OH2 9254   5.352   4.381   1.799
 3104TIP3    H1 9255   5.271   4.343   1.766
 3104TIP3    H2 9256   5.325   4.428   1.878
 3105TIP3   OH2 9257   6.681   2.806   6.104
 3105TIP3    H1 9258   6.591   2.808   6.069
 3105TIP3    H2 9259   6.723   2.733   6.058
 3106TIP3   OH2 9260   7.218   6.044   3.739
 3106TIP3    H1 9261   7.226   6.108   3.669
 3106TIP3    H2 9262   7.124   6.033   3.751
 3107TIP3   OH2 9263   7.258   1.825   6.720
 3107TIP3    H1 9264   7.255   1.749   6.778
 3107TIP3    H2 9265   7.204   1.800   6.645
 3108TIP3   OH2 9266   5.759   6.129   1.266
 3108TIP3    H1 9267   5.767   6.080   1.348
 3108TIP3    H2 9268   5.787   6.067   1.199
 3109TIP3   OH2 9269   5.428   5.044   5.017
 3109TIP3    H1 9270   5.429   5.002   5.103
 3109TIP3    H2 9271   5.519   5.068   5.001
 3110TIP3   OH2 9272   3.798   2.488   3.253
 3110TIP3    H1 9273   3.740   2.555   3.217
 3110TIP3    H2 9274   3.740   2.427   3.298
 3111TIP3   OH2 9275   0.138   2.217   1.412
 3111TIP3    H1 9276   0.089   2.146   1.369
 3111TIP3    H2 9277   0.129   2.292   1.353
 3112TIP3   OH2 9278   6.638   0.370   4.085
 3112TIP3    H1 9279   6.669   0.300   4.028
 3112TIP3    H2 9280   6.553   0.395   4.048
 3113TIP3   OH2 9281   7.918   0.806   3.248
 3113TIP3    H1 9282   7.922   0.715   3.217
 3113TIP3    H2 9283   7.940   0.800   3.341
 3114TIP3   OH2 9284   4.186   7.379   5.521
 3114TIP3    H1 9285   4.159   7.289   5.503
 3114TIP3    H2 9286   4.161   7.428   5.443
 3115TIP3   OH2 9287   5.746   5.343   0.633
 3115TIP3    H1 9288   5.797   5.324   0.712
 3115TIP3    H2 9289   5.655   5.339   0.662
 3116TIP3   OH2 9290   6.744   7.583   1.980
 3116TIP3    H1 9291   6.679   7.515   1.999
 3116TIP3    H2 9292   6.773   7.613   2.067
 3117TIP3   OH2 9293   8.141   0.445   4.164
 3117TIP3    H1 9294   8.149   0.364   4.113
 3117TIP3    H2 9295   8.225   0.451   4.211
 3118TIP3   OH2 9296   5.985   5.582   4.281
 3118TIP3    H1 9297   6.004   5.650   4.218
 3118TIP3    H2 9298   6.064   5.575   4.334
 3119TIP3   OH2 9299   2.749   2.812   1.089
 3119TIP3    H1 9300   2.754   2.738   1.149
 3119TIP3    H2 9301   2.679   2.868   1.125
 3120TIP3   OH2 9302   3.266   3.438   6.193
 3120TIP3    H1 9303   3.226   3.443   6.280
 3120TIP3    H2 9304   3.323   3.515   6.188
 3121TIP3   OH2 9305   3.133   2.438   1.029
 3121TIP3    H1 9306   3.071   2.423   0.957
 3121TIP3    H2 9307   3.167   2.526   1.013
 3122TIP3   OH2 9308   0.040   3.197   0.461
 3122TIP3    H1 9309   0.084   3.115   0.484
 3122TIP3    H2 9310   0.022   3.239   0.545
 3123TIP3   OH2 9311   7.801   5.272   6.261
 3123TIP3    H1 9312   7.859   5.290   6.187
 3123TIP3    H2 9313   7.743   5.347   6.266
 3124TIP3   OH2 9314   4.799   0.372   0.893
 3124TIP3    H1 9315   4.722   0.411   0.853
 3124TIP3    H2 9316   4.817   0.427   0.970
 3125TIP3   OH2 9317   8.060   4.640   2.377
 3125TIP3    H1 9318   8.016   4.648   2.462
 3125TIP3    H2 9319   8.098   4.552   2.378
 3126TIP3   OH2 9320   2.181   4.768   5.732
 3126TIP3    H1 9321   2.248   4.777   5.799
 3126TIP3    H2 9322   2.155   4.858   5.712
 3127TIP3   OH2 9323   6.041   7.551   5.196
 3127TIP3    H1 9324   6.007   7.600   5.271
 3127TIP3    H2 9325   6.007   7.599   5.120
 3128TIP3   OH2 9326   6.387   0.374   3.656
 3128TIP3    H1 9327   6.469   0.404   3.695
 3128TIP3    H2 9328   6.414   0.323   3.579
 3129TIP3   OH2 9329   2.299   1.551   0.783
 3129TIP3    H1 9330   2.248   1.620   0.741
 3129TIP3    H2 9331   2.318   1.489   0.712
 3130TIP3   OH2 9332   6.682   0.212   4.976
 3130TIP3    H1 9333   6.619   0.200   4.905
 3130TIP3    H2 9334   6.689   0.126   5.018
 3131TIP3   OH2 9335   5.678   2.862   4.141
 3131TIP3    H1 9336   5.639   2.909   4.215
 3131TIP3    H2 9337   5.746   2.808   4.180
 3132TIP3   OH2 9338   2.983   5.975   2.894
 3132TIP3    H1 9339   2.989   6.040   2.824
 3132TIP3    H2 9340   3.014   5.894   2.854
 3133TIP3   OH2 9341   6.957   1.153   4.041
 3133TIP3    H1 9342   6.989   1.183   3.956
 3133TIP3    H2 9343   6.902   1.077   4.021
 3134TIP3   OH2 9344   7.130   0.996   1.657
 3134TIP3    H1 9345   7.122   0.995   1.562
 3134TIP3    H2 9346   7.071   1.066   1.685
 3135TIP3   OH2 9347   1.849   3.769   6.721
 3135TIP3    H1 9348   1.801   3.699   6.765
 3135TIP3    H2 9349   1.847   3.745   6.628
 3136TIP3   OH2 9350   0.521   0.841   1.700
 3136TIP3    H1 9351   0.525   0.746   1.693
 3136TIP3    H2 9352   0.485   0.857   1.787
 3137TIP3   OH2 9353   7.417   3.086   1.109
 3137TIP3    H1 9354   7.377   3.005   1.138
 3137TIP3    H2 9355   7.397   3.090   1.015
 3138TIP3   OH2 9356   6.215   5.443   2.880
 3138TIP3    H1 9357   6.218   5.426   2.974
 3138TIP3    H2 9358   6.280   5.511   2.865
 3139TIP3   OH2 9359   0.883   3.455   6.376
 3139TIP3    H1 9360   0.883   3.367   6.413
 3139TIP3    H2 9361   0.975   3.477   6.365
 3140TIP3   OH2 9362   7.163   4.045   0.211
 3140TIP3    H1 9363   7.137   4.117   0.154
 3140TIP3    H2 9364   7.183   4.088   0.295
 3141TIP3   OH2 9365   3.601   4.343   2.427
 3141TIP3    H1 9366   3.577   4.344   2.520
 3141TIP3    H2 9367   3.608   4.435   2.403
 3142TIP3   OH2 9368   2.630   0.212   2.328
 3142TIP3    H1 9369   2.669   0.152   2.390
 3142TIP3    H2 9370   2.566   0.160   2.280
 3143TIP3   OH2 9371   5.166   1.592   0.810
 3143TIP3    H1 9372   5.089   1.629   0.767
 3143TIP3    H2 9373   5.214   1.548   0.740
 3144TIP3   OH2 9374   0.248   5.476   2.604
 3144TIP3    H1 9375   0.214   5.386   2.605
 3144TIP3    H2 9376   0.169   5.530   2.600
 3145TIP3   OH2 9377   7.993   2.909   3.829
 3145TIP3    H1 9378   7.987   2.894   3.923
 3145TIP3    H2 9379   7.913   2.957   3.807
 3146TIP3   OH2 9380   1.923   6.807   2.601
 3146TIP3    H1 9381   1.934   6.730   2.656
 3146TIP3    H2 9382   1.854   6.858   2.644
 3147TIP3   OH2 9383   6.696   3.023   2.084
 3147TIP3    H1 9384   6.758   2.979   2.025
 3147TIP3    H2 9385   6.618   3.039   2.031
 3148TIP3   OH2 9386   4.052   5.168   5.539
 3148TIP3    H1 9387   4.115   5.123   5.482
 3148TIP3    H2 9388   4.012   5.234   5.482
 3149TIP3   OH2 9389   5.288   1.297   2.413
 3149TIP3    H1 9390   5.277   1.212   2.456
 3149TIP3    H2 9391   5.372   1.290   2.368
 3150TIP3   OH2 9392   7.744   6.711   3.686
 3150TIP3    H1 9393   7.720   6.685   3.597
 3150TIP3    H2 9394   7.743   6.807   3.683
 3151TIP3   OH2 9395   0.137   5.004   1.430
 3151TIP3    H1 9396   0.154   4.953   1.509
 3151TIP3    H2 9397   0.060   4.963   1.391
 3152TIP3   OH2 9398   0.031   2.796   3.082
 3152TIP3    H1 9399   0.115   2.817   3.123
 3152TIP3    H2 9400   0.025   2.856   3.008
 3153TIP3   OH2 9401   6.370   1.002   4.070
 3153TIP3    H1 9402   6.363   0.991   3.975
 3153TIP3    H2 9403   6.398   0.916   4.102
 3154TIP3   OH2 9404   2.478   5.762   2.931
 3154TIP3    H1 9405   2.549   5.826   2.936
 3154TIP3    H2 9406   2.517   5.687   2.884
 3155TIP3   OH2 9407   3.037   1.031   1.010
 3155TIP3    H1 9408   3.011   1.006   0.922
 3155TIP3    H2 9409   2.971   1.094   1.038
 3156TIP3   OH2 9410   4.545   7.090   2.729
 3156TIP3    H1 9411   4.565   7.001   2.699
 3156TIP3    H2 9412   4.627   7.138   2.716
 3157TIP3   OH2 9413   1.627   1.337   1.939
 3157TIP3    H1 9414   1.722   1.350   1.940
 3157TIP3    H2 9415   1.592   1.417   1.901
 3158TIP3   OH2 9416   2.505   4.272   6.147
 3158TIP3    H1 9417   2.594   4.303   6.127
 3158TIP3    H2 9418   2.453   4.351   6.155
 3159TIP3   OH2 9419   6.909   1.794   2.375
 3159TIP3    H1 9420   6.933   1.744   2.453
 3159TIP3    H2 9421   6.992   1.806   2.328
 3160TIP3   OH2 9422   5.510   1.138   6.470
 3160TIP3    H1 9423   5.416   1.133   6.449
 3160TIP3    H2 9424   5.552   1.087   6.401
 3161TIP3   OH2 9425   1.102   7.197   4.273
 3161TIP3    H1 9426   1.109   7.194   4.178
 3161TIP3    H2 9427   1.186   7.232   4.302
 3162TIP3   OH2 9428   3.548   1.591   2.731
 3162TIP3    H1 9429   3.537   1.636   2.814
 3162TIP3    H2 9430   3.643   1.577   2.724
 3163TIP3   OH2 9431   2.353   0.959   6.676
 3163TIP3    H1 9432   2.363   1.041   6.626
 3163TIP3    H2 9433   2.258   0.946   6.680
 3164TIP3   OH2 9434   6.979   1.199   1.086
 3164TIP3    H1 9435   6.943   1.244   1.162
 3164TIP3    H2 9436   6.928   1.118   1.079
 3165TIP3   OH2 9437   6.434   0.970   6.304
 3165TIP3    H1 9438   6.461   0.902   6.366
 3165TIP3    H2 9439   6.446   0.931   6.218
 3166TIP3   OH2 9440   3.777   5.916   0.695
 3166TIP3    H1 9441   3.846   5.889   0.634
 3166TIP3    H2 9442   3.824   5.964   0.764
 3167TIP3   OH2 9443   7.127   0.453   4.357
 3167TIP3    H1 9444   7.113   0.384   4.292
 3167TIP3    H2 9445   7.060   0.438   4.423
 3168TIP3   OH2 9446   1.313   1.967   4.432
 3168TIP3    H1 9447   1.337   1.948   4.341
 3168TIP3    H2 9448   1.218   1.968   4.432
 3169TIP3   OH2 9449   6.934   4.529   4.095
 3169TIP3    H1 9450   6.938   4.452   4.152
 3169TIP3    H2 9451   7.004   4.514   4.031
 3170TIP3   OH2 9452   7.146   0.184   6.405
 3170TIP3    H1 9453   7.186   0.175   6.319
 3170TIP3    H2 9454   7.136   0.094   6.437
 3171TIP3   OH2 9455   0.085   6.115   1.222
 3171TIP3    H1 9456   0.078   6.056   1.297
 3171TIP3    H2 9457   0.109   6.199   1.260
 3172TIP3   OH2 9458   5.985   6.218   3.802
 3172TIP3    H1 9459   5.962   6.291   3.744
 3172TIP3    H2 9460   5.991   6.259   3.889
 3173TIP3   OH2 9461   5.930   1.324   3.401
 3173TIP3    H1 9462   6.013   1.310   3.354
 3173TIP3    H2 9463   5.864   1.332   3.332
 3174TIP3   OH2 9464   5.502   0.859   2.050
 3174TIP3    H1 9465   5.573   0.918   2.024
 3174TIP3    H2 9466   5.467   0.898   2.131
 3175TIP3   OH2 9467   2.600   6.199   1.326
 3175TIP3    H1 9468   2.574   6.120   1.279
 3175TIP3    H2 9469   2.586   6.177   1.418
 3176TIP3   OH2 9470   4.095   0.851   2.927
 3176TIP3    H1 9471   4.131   0.940   2.924
 3176TIP3    H2 9472   4.125   0.810   2.846
 3177TIP3   OH2 9473   5.877   1.226   3.915
 3177TIP3    H1 9474   5.970   1.215   3.896
 3177TIP3    H2 9475   5.844   1.280   3.843
 3178TIP3   OH2 9476   4.055   3.501   0.877
 3178TIP3    H1 9477   4.093   3.555   0.946
 3178TIP3    H2 9478   4.127   3.446   0.847
 3179TIP3   OH2 9479   3.918   6.516   1.718
 3179TIP3    H1 9480   3.893   6.568   1.795
 3179TIP3    H2 9481   3.926   6.427   1.752
 3180TIP3   OH2 9482   5.015   7.471   5.976
 3180TIP3    H1 9483   4.970   7.530   5.916
 3180TIP3    H2 9484   5.011   7.386   5.934
 3181TIP3   OH2 9485   2.043   3.400   1.397
 3181TIP3    H1 9486   2.085   3.417   1.481
 3181TIP3    H2 9487   1.964   3.351   1.419
 3182TIP3   OH2 9488   7.190   2.954   5.605
 3182TIP3    H1 9489   7.111   2.997   5.573
 3182TIP3    H2 9490   7.217   2.897   5.533
 3183TIP3   OH2 9491   1.372   6.388   1.066
 3183TIP3    H1 9492   1.384   6.301   1.104
 3183TIP3    H2 9493   1.452   6.436   1.091
 3184TIP3   OH2 9494   0.283   4.633   5.789
 3184TIP3    H1 9495   0.267   4.569   5.858
 3184TIP3    H2 9496   0.218   4.612   5.722
 3185TIP3   OH2 9497   7.607   7.349   0.068
 3185TIP3    H1 9498   7.641   7.342  -0.022
 3185TIP3    H2 9499   7.563   7.434   0.071
 3186TIP3   OH2 9500   6.092   5.358   5.712
 3186TIP3    H1 9501   6.003   5.343   5.680
 3186TIP3    H2 9502   6.117   5.443   5.676
 3187TIP3   OH2 9503   2.037   5.464   1.664
 3187TIP3    H1 9504   1.944   5.463   1.687
 3187TIP3    H2 9505   2.074   5.388   1.710
 3188TIP3   OH2 9506   4.476   4.447   0.969
 3188TIP3    H1 9507   4.502   4.387   1.038
 3188TIP3    H2 9508   4.550   4.507   0.959
 3189TIP3   OH2 9509   6.840   5.733   6.744
 3189TIP3    H1 9510   6.918   5.715   6.797
 3189TIP3    H2 9511   6.875   5.766   6.661
 3190TIP3   OH2 9512   2.552   4.784   3.255
 3190TIP3    H1 9513   2.492   4.725   3.209
 3190TIP3    H2 9514   2.510   4.799   3.340
 3191TIP3   OH2 9515   3.846   3.496   5.599
 3191TIP3    H1 9516   3.904   3.460   5.531
 3191TIP3    H2 9517   3.824   3.583   5.568
 3192TIP3   OH2 9518   6.478   0.340   6.346
 3192TIP3    H1 9519   6.446   0.378   6.429
 3192TIP3    H2 9520   6.458   0.407   6.281
 3193TIP3   OH2 9521   7.182   1.358   0.606
 3193TIP3    H1 9522   7.225   1.432   0.564
 3193TIP3    H2 9523   7.146   1.394   0.687
 3194TIP3   OH2 9524   8.005   6.022   5.182
 3194TIP3    H1 9525   7.963   5.985   5.260
 3194TIP3    H2 9526   7.994   5.954   5.115
 3195TIP3   OH2 9527   6.115   1.070   3.077
 3195TIP3    H1 9528   6.098   1.002   3.013
 3195TIP3    H2 9529   6.088   1.033   3.160
 3196TIP3   OH2 9530   5.798   1.731   4.814
 3196TIP3    H1 9531   5.766   1.745   4.903
 3196TIP3    H2 9532   5.748   1.793   4.760
 3197TIP3   OH2 9533   1.895   0.288   1.523
 3197TIP3    H1 9534   1.919   0.353   1.589
 3197TIP3    H2 9535   1.978   0.265   1.482
 3198TIP3   OH2 9536   6.482   6.853   2.184
 3198TIP3    H1 9537   6.429   6.805   2.247
 3198TIP3    H2 9538   6.427   6.926   2.156
 3199TIP3   OH2 9539   7.853   3.441   3.318
 3199TIP3    H1 9540   7.933   3.456   3.269
 3199TIP3    H2 9541   7.881   3.393   3.396
 3200TIP3   OH2 9542   4.685   5.736   4.552
 3200TIP3    H1 9543   4.736   5.788   4.614
 3200TIP3    H2 9544   4.750   5.699   4.492
 3201TIP3   OH2 9545   3.317   3.551   3.622
 3201TIP3    H1 9546   3.354   3.610   3.556
 3201TIP3    H2 9547   3.281   3.610   3.689
 3202TIP3   OH2 9548   4.203   4.671   4.531
 3202TIP3    H1 9549   4.144   4.668   4.606
 3202TIP3    H2 9550   4.291   4.665   4.569
 3203TIP3   OH2 9551   7.718   3.597   0.323
 3203TIP3    H1 9552   7.622   3.591   0.326
 3203TIP3    H2 9553   7.745   3.603   0.415
 3204TIP3   OH2 9554   4.325   1.652   5.128
 3204TIP3    H1 9555   4.353   1.584   5.067
 3204TIP3    H2 9556   4.273   1.712   5.075
 3205TIP3   OH2 9557   3.591   1.182   4.118
 3205TIP3    H1 9558   3.620   1.192   4.027
 3205TIP3    H2 9559   3.497   1.170   4.112
 3206TIP3   OH2 9560   2.852   7.332   1.747
 3206TIP3    H1 9561   2.947   7.326   1.738
 3206TIP3    H2 9562   2.826   7.247   1.781
 3207TIP3   OH2 9563   0.482   1.447   6.594
 3207TIP3    H1 9564   0.515   1.471   6.508
 3207TIP3    H2 9565   0.473   1.531   6.640
 3208TIP3   OH2 9566   2.015   4.857   6.075
 3208TIP3    H1 9567   2.057   4.789   6.022
 3208TIP3    H2 9568   2.017   4.822   6.164
 3209TIP3   OH2 9569   8.094   2.631   6.398
 3209TIP3    H1 9570   8.080   2.561   6.335
 3209TIP3    H2 9571   8.119   2.587   6.479
 3210TIP3   OH2 9572   0.410   1.466   2.443
 3210TIP3    H1 9573   0.412   1.471   2.538
 3210TIP3    H2 9574   0.485   1.519   2.414
 3211TIP3   OH2 9575   6.067   7.310   1.604
 3211TIP3    H1 9576   5.977   7.329   1.578
 3211TIP3    H2 9577   6.059   7.268   1.690
 3212TIP3   OH2 9578   0.851   0.502   0.364
 3212TIP3    H1 9579   0.894   0.557   0.299
 3212TIP3    H2 9580   0.906   0.424   0.370
 3213TIP3   OH2 9581   0.803   2.137   5.748
 3213TIP3    H1 9582   0.719   2.093   5.730
 3213TIP3    H2 9583   0.820   2.118   5.840
 3214TIP3   OH2 9584   6.858   6.981   0.861
 3214TIP3    H1 9585   6.889   7.024   0.940
 3214TIP3    H2 9586   6.772   6.946   0.885
 3215TIP3   OH2 9587   0.962   7.440   3.682
 3215TIP3    H1 9588   0.935   7.354   3.650
 3215TIP3    H2 9589   1.053   7.448   3.655
 3216TIP3   OH2 9590   6.312   7.503   4.369
 3216TIP3    H1 9591   6.311   7.408   4.357
 3216TIP3    H2 9592   6.259   7.536   4.296
 3217TIP3   OH2 9593   7.496   2.903   0.844
 3217TIP3    H1 9594   7.507   2.851   0.923
 3217TIP3    H2 9595   7.402   2.904   0.828
 3218TIP3   OH2 9596   4.038   0.928   0.825
 3218TIP3    H1 9597   3.946   0.904   0.813
 3218TIP3    H2 9598   4.069   0.948   0.737
 3219TIP3   OH2 9599   8.229   2.980   2.895
 3219TIP3    H1 9600   8.225   2.991   2.800
 3219TIP3    H2 9601   8.148   2.935   2.917
 3220TIP3   OH2 9602   3.729   0.157   1.110
 3220TIP3    H1 9603   3.814   0.138   1.149
 3220TIP3    H2 9604   3.738   0.246   1.075
 3221TIP3   OH2 9605   6.235   1.697   5.071
 3221TIP3    H1 9606   6.312   1.677   5.123
 3221TIP3    H2 9607   6.246   1.789   5.046
 3222TIP3   OH2 9608   5.866   1.715   2.536
 3222TIP3    H1 9609   5.922   1.645   2.502
 3222TIP3    H2 9610   5.914   1.795   2.517
 3223TIP3   OH2 9611   7.279   2.626   3.870
 3223TIP3    H1 9612   7.204   2.667   3.827
 3223TIP3    H2 9613   7.320   2.697   3.919
 3224TIP3   OH2 9614   1.425   5.649   2.258
 3224TIP3    H1 9615   1.419   5.584   2.188
 3224TIP3    H2 9616   1.465   5.726   2.215
 3225TIP3   OH2 9617   7.353   4.081   4.896
 3225TIP3    H1 9618   7.427   4.074   4.835
 3225TIP3    H2 9619   7.391   4.116   4.977
 3226TIP3   OH2 9620   3.637   1.425   3.920
 3226TIP3    H1 9621   3.625   1.482   3.844
 3226TIP3    H2 9622   3.555   1.432   3.969
 3227TIP3   OH2 9623   6.717   3.215   4.712
 3227TIP3    H1 9624   6.810   3.223   4.689
 3227TIP3    H2 9625   6.708   3.126   4.746
 3228TIP3   OH2 9626   6.812   6.080   0.487
 3228TIP3    H1 9627   6.803   6.126   0.570
 3228TIP3    H2 9628   6.907   6.069   0.476
 3229TIP3   OH2 9629   7.825   6.291   1.319
 3229TIP3    H1 9630   7.880   6.233   1.267
 3229TIP3    H2 9631   7.796   6.358   1.257
 3230TIP3   OH2 9632   0.594   5.215   2.399
 3230TIP3    H1 9633   0.676   5.205   2.352
 3230TIP3    H2 9634   0.537   5.262   2.338
 3231TIP3   OH2 9635   5.455   0.116   6.520
 3231TIP3    H1 9636   5.384   0.068   6.476
 3231TIP3    H2 9637   5.412   0.190   6.562
 3232TIP3   OH2 9638   1.865   3.947   1.975
 3232TIP3    H1 9639   1.871   3.887   2.049
 3232TIP3    H2 9640   1.870   4.035   2.014
 3233TIP3   OH2 9641   2.992   3.974   2.857
 3233TIP3    H1 9642   3.040   3.922   2.792
 3233TIP3    H2 9643   3.040   4.057   2.862
 3234TIP3   OH2 9644   2.583   2.220   1.293
 3234TIP3    H1 9645   2.598   2.238   1.200
 3234TIP3    H2 9646   2.570   2.125   1.298
 3235TIP3   OH2 9647   7.557   4.163   3.335
 3235TIP3    H1 9648   7.652   4.173   3.332
 3235TIP3    H2 9649   7.524   4.228   3.273
 3236TIP3   OH2 9650   0.959   4.442   3.124
 3236TIP3    H1 9651   0.873   4.427   3.084
 3236TIP3    H2 9652   0.970   4.367   3.182
 3237TIP3   OH2 9653   6.059   3.049   4.877
 3237TIP3    H1 9654   6.071   3.069   4.784
 3237TIP3    H2 9655   5.964   3.050   4.889
 3238TIP3   OH2 9656   1.480   4.662   2.710
 3238TIP3    H1 9657   1.532   4.723   2.658
 3238TIP3    H2 9658   1.468   4.586   2.652
 3239TIP3   OH2 9659   0.601   4.087   6.430
 3239TIP3    H1 9660   0.551   4.060   6.354
 3239TIP3    H2 9661   0.628   4.006   6.472
 3240TIP3   OH2 9662   0.887   2.848   6.425
 3240TIP3    H1 9663   0.945   2.772   6.425
 3240TIP3    H2 9664   0.923   2.907   6.491
 3241TIP3   OH2 9665   6.526   4.741   0.844
 3241TIP3    H1 9666   6.562   4.678   0.907
 3241TIP3    H2 9667   6.556   4.710   0.759
 3242TIP3   OH2 9668   3.204   4.256   5.942
 3242TIP3    H1 9669   3.275   4.318   5.927
 3242TIP3    H2 9670   3.125   4.304   5.915
 3243TIP3   OH2 9671   7.319   5.896   2.434
 3243TIP3    H1 9672   7.348   5.976   2.391
 3243TIP3    H2 9673   7.247   5.923   2.491
 3244TIP3   OH2 9674   1.532   6.754   5.968
 3244TIP3    H1 9675   1.586   6.721   6.040
 3244TIP3    H2 9676   1.512   6.845   5.992
 3245TIP3   OH2 9677   5.587   6.727   0.955
 3245TIP3    H1 9678   5.496   6.755   0.965
 3245TIP3    H2 9679   5.609   6.685   1.038
 3246TIP3   OH2 9680   7.307   5.964   0.583
 3246TIP3    H1 9681   7.396   5.931   0.579
 3246TIP3    H2 9682   7.296   5.993   0.674
 3247TIP3   OH2 9683   0.975   7.731   3.217
 3247TIP3    H1 9684   0.926   7.722   3.299
 3247TIP3    H2 9685   0.916   7.780   3.160
 3248TIP3   OH2 9686   3.578   7.314   5.285
 3248TIP3    H1 9687   3.597   7.331   5.193
 3248TIP3    H2 9688   3.508   7.249   5.284
 3249TIP3   OH2 9689   6.390   7.268   4.026
 3249TIP3    H1 9690   6.301   7.260   3.991
 3249TIP3    H2 9691   6.420   7.354   3.997
 3250TIP3   OH2 9692   2.509   2.483   4.560
 3250TIP3    H1 9693   2.487   2.550   4.495
 3250TIP3    H2 9694   2.540   2.531   4.636
 3251TIP3   OH2 9695   7.543   3.545   2.091
 3251TIP3    H1 9696   7.497   3.487   2.152
 3251TIP3    H2 9697   7.600   3.598   2.147
 3252TIP3   OH2 9698   5.047   6.955   5.789
 3252TIP3    H1 9699   5.130   6.910   5.808
 3252TIP3    H2 9700   5.068   7.048   5.798
 3253TIP3   OH2 9701   8.057   0.492   5.807
 3253TIP3    H1 9702   8.039   0.579   5.770
 3253TIP3    H2 9703   8.133   0.506   5.864
 3254TIP3   OH2 9704   7.985   2.859   2.873
 3254TIP3    H1 9705   7.975   2.815   2.958
 3254TIP3    H2 9706   7.950   2.795   2.810
 3255TIP3   OH2 9707   1.379   6.887   3.706
 3255TIP3    H1 9708   1.388   6.812   3.765
 3255TIP3    H2 9709   1.371   6.962   3.764
 3256TIP3   OH2 9710   3.664   6.279   0.136
 3256TIP3    H1 9711   3.640   6.194   0.098
 3256TIP3    H2 9712   3.659   6.264   0.231
 3257TIP3   OH2 9713   4.410   5.564   6.277
 3257TIP3    H1 9714   4.487   5.507   6.282
 3257TIP3    H2 9715   4.345   5.512   6.230
 3258TIP3   OH2 9716   6.685   7.562   4.696
 3258TIP3    H1 9717   6.777   7.556   4.669
 3258TIP3    H2 9718   6.675   7.652   4.725
 3259TIP3   OH2 9719   3.320   7.658   2.917
 3259TIP3    H1 9720   3.263   7.636   2.990
 3259TIP3    H2 9721   3.404   7.680   2.958
 3260TIP3   OH2 9722   7.217   0.247   3.327
 3260TIP3    H1 9723   7.180   0.181   3.268
 3260TIP3    H2 9724   7.226   0.202   3.410
 3261TIP3   OH2 9725   3.859   4.257   5.411
 3261TIP3    H1 9726   3.891   4.250   5.321
 3261TIP3    H2 9727   3.764   4.265   5.402
 3262TIP3   OH2 9728   7.917   4.043   4.543
 3262TIP3    H1 9729   7.845   3.981   4.552
 3262TIP3    H2 9730   7.991   4.000   4.586
 3263TIP3   OH2 9731   7.523   4.658   5.238
 3263TIP3    H1 9732   7.477   4.637   5.320
 3263TIP3    H2 9733   7.454   4.658   5.171
 3264TIP3   OH2 9734   3.382   4.983   3.991
 3264TIP3    H1 9735   3.418   5.072   3.995
 3264TIP3    H2 9736   3.459   4.926   3.992
 3265TIP3   OH2 9737   3.160   3.456   2.736
 3265TIP3    H1 9738   3.215   3.534   2.722
 3265TIP3    H2 9739   3.217   3.382   2.714
 3266TIP3   OH2 9740   7.278   7.097   6.027
 3266TIP3    H1 9741   7.340   7.168   6.006
 3266TIP3    H2 9742   7.280   7.040   5.951
 3267TIP3   OH2 9743   6.019   5.761   4.070
 3267TIP3    H1 9744   6.023   5.737   3.978
 3267TIP3    H2 9745   5.950   5.827   4.075
 3268TIP3   OH2 9746   3.718   0.476   0.032
 3268TIP3    H1 9747   3.635   0.438   0.004
 3268TIP3    H2 9748   3.781   0.405   0.022
 3269TIP3   OH2 9749   7.712   3.468   1.112
 3269TIP3    H1 9750   7.693   3.396   1.172
 3269TIP3    H2 9751   7.749   3.537   1.167
 3270TIP3   OH2 9752   6.073   4.156   0.257
 3270TIP3    H1 9753   6.085   4.080   0.314
 3270TIP3    H2 9754   6.161   4.191   0.244
 3271TIP3   OH2 9755   1.603   6.532   1.147
 3271TIP3    H1 9756   1.574   6.556   1.235
 3271TIP3    H2 9757   1.695   6.509   1.157
 3272TIP3   OH2 9758   3.586   3.837   0.437
 3272TIP3    H1 9759   3.531   3.857   0.513
 3272TIP3    H2 9760   3.570   3.744   0.420
 3273TIP3   OH2 9761   6.316   6.964   1.963
 3273TIP3    H1 9762   6.304   7.043   2.014
 3273TIP3    H2 9763   6.252   6.902   1.998
 3274TIP3   OH2 9764   0.617   4.879   2.302
 3274TIP3    H1 9765   0.663   4.802   2.268
 3274TIP3    H2 9766   0.595   4.855   2.392
 3275TIP3   OH2 9767   2.325   3.653   2.736
 3275TIP3    H1 9768   2.406   3.699   2.715
 3275TIP3    H2 9769   2.316   3.662   2.831
 3276TIP3   OH2 9770   7.154   4.651   6.597
 3276TIP3    H1 9771   7.219   4.618   6.536
 3276TIP3    H2 9772   7.190   4.733   6.629
 3277TIP3   OH2 9773   2.257   4.563   1.404
 3277TIP3    H1 9774   2.226   4.622   1.336
 3277TIP3    H2 9775   2.197   4.579   1.478
 3278TIP3   OH2 9776   1.017   4.895   5.614
 3278TIP3    H1 9777   0.976   4.871   5.531
 3278TIP3    H2 9778   1.056   4.814   5.646
 3279TIP3   OH2 9779   2.236   0.179   3.737
 3279TIP3    H1 9780   2.247   0.231   3.657
 3279TIP3    H2 9781   2.150   0.205   3.771
 3280TIP3   OH2 9782   1.016   5.273   1.670
 3280TIP3    H1 9783   0.949   5.322   1.621
 3280TIP3    H2 9784   0.978   5.186   1.681
 3281TIP3   OH2 9785   0.196   5.198   6.734
 3281TIP3    H1 9786   0.110   5.237   6.749
 3281TIP3    H2 9787   0.191   5.112   6.777
 3282TIP3   OH2 9788   4.799   5.962   4.951
 3282TIP3    H1 9789   4.852   6.008   4.885
 3282TIP3    H2 9790   4.792   6.024   5.023
 3283TIP3   OH2 9791   7.256   0.780   5.266
 3283TIP3    H1 9792   7.175   0.753   5.223
 3283TIP3    H2 9793   7.272   0.712   5.331
 3284TIP3   OH2 9794   2.036   5.239   0.190
 3284TIP3    H1 9795   2.006   5.293   0.117
 3284TIP3    H2 9796   2.095   5.176   0.150
 3285TIP3   OH2 9797   0.621   0.524   3.375
 3285TIP3    H1 9798   0.634   0.618   3.389
 3285TIP3    H2 9799   0.664   0.507   3.291
 3286TIP3   OH2 9800   1.528   3.766   5.605
 3286TIP3    H1 9801   1.540   3.697   5.539
 3286TIP3    H2 9802   1.589   3.743   5.675
 3287TIP3   OH2 9803   3.321   4.232   1.348
 3287TIP3    H1 9804   3.241   4.284   1.334
 3287TIP3    H2 9805   3.391   4.297   1.351
 3288TIP3   OH2 9806   0.615   2.722   5.586
 3288TIP3    H1 9807   0.688   2.661   5.572
 3288TIP3    H2 9808   0.611   2.732   5.682
 3289TIP3   OH2 9809   5.077   1.916   2.766
 3289TIP3    H1 9810   5.053   1.885   2.678
 3289TIP3    H2 9811   5.054   2.009   2.765
 3290TIP3   OH2 9812   3.021   5.526   3.961
 3290TIP3    H1 9813   3.064   5.477   3.891
 3290TIP3    H2 9814   3.068   5.499   4.041
 3291TIP3   OH2 9815   4.618   2.630   1.166
 3291TIP3    H1 9816   4.622   2.684   1.087
 3291TIP3    H2 9817   4.541   2.663   1.214
 3292TIP3   OH2 9818   4.596   0.514   4.520
 3292TIP3    H1 9819   4.632   0.543   4.604
 3292TIP3    H2 9820   4.638   0.429   4.505
 3293TIP3   OH2 9821   6.887   6.148   4.771
 3293TIP3    H1 9822   6.888   6.243   4.759
 3293TIP3    H2 9823   6.887   6.113   4.682
 3294TIP3   OH2 9824   6.154   1.640   4.827
 3294TIP3    H1 9825   6.170   1.654   4.920
 3294TIP3    H2 9826   6.062   1.614   4.822
 3295TIP3   OH2 9827   7.462   6.883   2.800
 3295TIP3    H1 9828   7.487   6.889   2.892
 3295TIP3    H2 9829   7.474   6.972   2.766
 3296TIP3   OH2 9830   1.876   7.718   6.707
 3296TIP3    H1 9831   1.858   7.697   6.616
 3296TIP3    H2 9832   1.921   7.802   6.705
 3297TIP3   OH2 9833   2.495   0.307   3.249
 3297TIP3    H1 9834   2.460   0.264   3.327
 3297TIP3    H2 9835   2.497   0.400   3.271
 3298TIP3   OH2 9836   4.939   0.337   4.057
 3298TIP3    H1 9837   4.954   0.246   4.032
 3298TIP3    H2 9838   5.001   0.387   4.005
 3299TIP3   OH2 9839   6.257   2.637   5.325
 3299TIP3    H1 9840   6.310   2.561   5.302
 3299TIP3    H2 9841   6.284   2.706   5.264
 3300TIP3   OH2 9842   8.029   1.102   0.386
 3300TIP3    H1 9843   8.054   1.130   0.298
 3300TIP3    H2 9844   7.958   1.162   0.410
 3301TIP3   OH2 9845   6.090   6.146   2.783
 3301TIP3    H1 9846   6.173   6.138   2.830
 3301TIP3    H2 9847   6.111   6.122   2.693
 3302TIP3   OH2 9848   1.532   0.250   1.063
 3302TIP3    H1 9849   1.452   0.247   1.116
 3302TIP3    H2 9850   1.599   0.282   1.124
 3303TIP3   OH2 9851   6.669   1.564   0.161
 3303TIP3    H1 9852   6.752   1.611   0.170
 3303TIP3    H2 9853   6.694   1.473   0.148
 3304TIP3   OH2 9854   2.786   4.261   1.799
 3304TIP3    H1 9855   2.792   4.299   1.887
 3304TIP3    H2 9856   2.692   4.248   1.784
 3305TIP3   OH2 9857   7.663   6.204   5.547
 3305TIP3    H1 9858   7.713   6.129   5.579
 3305TIP3    H2 9859   7.573   6.173   5.542
 3306TIP3   OH2 9860   7.056   3.169   5.448
 3306TIP3    H1 9861   7.010   3.204   5.524
 3306TIP3    H2 9862   7.007   3.090   5.424
 3307TIP3   OH2 9863   3.558   3.680   5.172
 3307TIP3    H1 9864   3.513   3.598   5.191
 3307TIP3    H2 9865   3.635   3.655   5.122
 3308TIP3   OH2 9866   1.882   7.492   6.015
 3308TIP3    H1 9867   1.796   7.487   5.973
 3308TIP3    H2 9868   1.864   7.479   6.108
 3309TIP3   OH2 9869   3.415   2.864   3.062
 3309TIP3    H1 9870   3.410   2.863   2.966
 3309TIP3    H2 9871   3.456   2.948   3.083
 3310TIP3   OH2 9872   1.893   5.106   5.466
 3310TIP3    H1 9873   1.886   5.138   5.556
 3310TIP3    H2 9874   1.969   5.152   5.430
 3311TIP3   OH2 9875   4.163   4.090   0.618
 3311TIP3    H1 9876   4.147   4.067   0.710
 3311TIP3    H2 9877   4.087   4.142   0.593
 3312TIP3   OH2 9878   2.038   2.208   1.927
 3312TIP3    H1 9879   2.099   2.157   1.874
 3312TIP3    H2 9880   2.047   2.172   2.015
 3313TIP3   OH2 9881   2.582   5.687   0.493
 3313TIP3    H1 9882   2.671   5.654   0.509
 3313TIP3    H2 9883   2.535   5.670   0.574
 3314TIP3   OH2 9884   2.740   4.594   6.064
 3314TIP3    H1 9885   2.714   4.593   6.157
 3314TIP3    H2 9886   2.777   4.681   6.050
 3315TIP3   OH2 9887   0.784   1.989   4.654
 3315TIP3    H1 9888   0.774   2.044   4.576
 3315TIP3    H2 9889   0.722   2.025   4.717
 3316TIP3   OH2 9890   5.083   3.339   3.874
 3316TIP3    H1 9891   5.120   3.252   3.863
 3316TIP3    H2 9892   5.026   3.350   3.798
 3317TIP3   OH2 9893   3.960   2.988   3.153
 3317TIP3    H1 9894   4.048   2.976   3.190
 3317TIP3    H2 9895   3.929   3.071   3.190
 3318TIP3   OH2 9896   7.976   4.941   3.181
 3318TIP3    H1 9897   8.035   4.876   3.219
 3318TIP3    H2 9898   7.986   4.930   3.087
 3319TIP3   OH2 9899   7.323   7.203   5.521
 3319TIP3    H1 9900   7.260   7.241   5.582
 3319TIP3    H2 9901   7.377   7.145   5.575
 3320TIP3   OH2 9902   8.142   2.620   4.288
 3320TIP3    H1 9903   8.174   2.530   4.296
 3320TIP3    H2 9904   8.069   2.615   4.227
 3321TIP3   OH2 9905   1.902   5.305   3.161
 3321TIP3    H1 9906   1.874   5.345   3.078
 3321TIP3    H2 9907   1.833   5.244   3.183
 3322TIP3   OH2 9908   7.027   2.481   2.903
 3322TIP3    H1 9909   7.085   2.474   2.827
 3322TIP3    H2 9910   7.041   2.570   2.935
 3323TIP3   OH2 9911   2.286   2.848   1.833
 3323TIP3    H1 9912   2.217   2.891   1.783
 3323TIP3    H2 9913   2.340   2.805   1.767
 3324TIP3   OH2 9914   4.605   0.117   5.970
 3324TIP3    H1 9915   4.582   0.209   5.983
 3324TIP3    H2 9916   4.646   0.115   5.883
 3325TIP3   OH2 9917   0.146   0.109   6.315
 3325TIP3    H1 9918   0.157   0.180   6.378
 3325TIP3    H2 9919   0.165   0.148   6.230
 3326TIP3   OH2 9920   1.817   5.735   3.681
 3326TIP3    H1 9921   1.809   5.805   3.616
 3326TIP3    H2 9922   1.862   5.665   3.635
 3327TIP3   OH2 9923   0.551   4.838   4.321
 3327TIP3    H1 9924   0.494   4.857   4.246
 3327TIP3    H2 9925   0.554   4.920   4.370
 3328TIP3   OH2 9926   5.639   3.946   3.641
 3328TIP3    H1 9927   5.734   3.939   3.650
 3328TIP3    H2 9928   5.623   3.932   3.547
 3329TIP3   OH2 9929   6.771   6.794   3.117
 3329TIP3    H1 9930   6.808   6.813   3.031
 3329TIP3    H2 9931   6.678   6.817   3.108
 3330TIP3   OH2 9932   3.219   1.259   3.458
 3330TIP3    H1 9933   3.245   1.176   3.418
 3330TIP3    H2 9934   3.298   1.291   3.500
 3331TIP3   OH2 9935   7.689   4.394   3.646
 3331TIP3    H1 9936   7.671   4.488   3.650
 3331TIP3    H2 9937   7.652   4.367   3.562
 3332TIP3   OH2 9938   4.678   3.954   4.078
 3332TIP3    H1 9939   4.659   3.925   3.989
 3332TIP3    H2 9940   4.592   3.969   4.117
 3333TIP3   OH2 9941   0.715   7.299   6.466
 3333TIP3    H1 9942   0.762   7.215   6.463
 3333TIP3    H2 9943   0.697   7.313   6.559
 3334TIP3   OH2 9944   2.470   1.983   1.381
 3334TIP3    H1 9945   2.463   2.023   1.468
 3334TIP3    H2 9946   2.418   1.902   1.388
 3335TIP3   OH2 9947   5.285   1.958   5.853
 3335TIP3    H1 9948   5.362   1.909   5.822
 3335TIP3    H2 9949   5.212   1.920   5.804
 3336TIP3   OH2 9950   4.410   7.318   0.322
 3336TIP3    H1 9951   4.318   7.326   0.346
 3336TIP3    H2 9952   4.438   7.234   0.359
 3337TIP3   OH2 9953   5.668   2.522   5.965
 3337TIP3    H1 9954   5.658   2.571   6.047
 3337TIP3    H2 9955   5.602   2.453   5.969
 3338TIP3   OH2 9956   6.903   5.973   2.340
 3338TIP3    H1 9957   6.917   5.906   2.273
 3338TIP3    H2 9958   6.835   5.937   2.397
 3339TIP3   OH2 9959   4.210   2.376   5.067
 3339TIP3    H1 9960   4.186   2.356   5.157
 3339TIP3    H2 9961   4.279   2.312   5.046
 3340TIP3   OH2 9962   1.926   4.305   1.213
 3340TIP3    H1 9963   1.904   4.299   1.306
 3340TIP3    H2 9964   1.943   4.398   1.198
 3341TIP3   OH2 9965   5.417   3.621   3.158
 3341TIP3    H1 9966   5.499   3.662   3.128
 3341TIP3    H2 9967   5.368   3.606   3.077
 3342TIP3   OH2 9968   2.135   7.164   4.978
 3342TIP3    H1 9969   2.135   7.117   5.061
 3342TIP3    H2 9970   2.222   7.148   4.940
 3343TIP3   OH2 9971   6.149   1.572   5.434
 3343TIP3    H1 9972   6.082   1.506   5.420
 3343TIP3    H2 9973   6.229   1.533   5.399
 3344TIP3   OH2 9974   3.677   1.418   2.237
 3344TIP3    H1 9975   3.710   1.458   2.317
 3344TIP3    H2 9976   3.713   1.472   2.167
 3345TIP3   OH2 9977   5.453   2.033   3.699
 3345TIP3    H1 9978   5.460   2.120   3.659
 3345TIP3    H2 9979   5.422   1.976   3.628
 3346TIP3   OH2 9980   7.081   3.327   3.542
 3346TIP3    H1 9981   7.024   3.281   3.481
 3346TIP3    H2 9982   7.045   3.416   3.545
 3347TIP3   OH2 9983   6.649   3.448   2.536
 3347TIP3    H1 9984   6.684   3.373   2.584
 3347TIP3    H2 9985   6.562   3.462   2.575
 3348TIP3   OH2 9986   4.045   0.240   5.795
 3348TIP3    H1 9987   3.991   0.303   5.843
 3348TIP3    H2 9988   3.988   0.165   5.779
 3349TIP3   OH2 9989   4.495   4.234   3.506
 3349TIP3    H1 9990   4.515   4.266   3.594
 3349TIP3    H2 9991   4.399   4.235   3.501
 3350TIP3   OH2 9992   0.275   2.996   1.792
 3350TIP3    H1 9993   0.193   2.946   1.788
 3350TIP3    H2 9994   0.248   3.084   1.815
 3351TIP3   OH2 9995   3.461   5.982   4.791
 3351TIP3    H1 9996   3.387   6.043   4.789
 3351TIP3    H2 9997   3.422   5.896   4.777
 3352TIP3   OH2 9998   7.951   3.488   0.256
 3352TIP3    H1 9999   7.915   3.399   0.260
 3352TIP3    H210000   7.875   3.544   0.240
 3353TIP3   OH210001   2.994   7.281   3.147
 3353TIP3    H110002   2.955   7.215   3.204
 3353TIP3    H210003   3.035   7.343   3.206
 3354TIP3   OH210004   1.114   7.158   6.418
 3354TIP3    H110005   1.076   7.190   6.500
 3354TIP3    H210006   1.040   7.121   6.371
 3355TIP3   OH210007   4.479   5.591   2.365
 3355TIP3    H110008   4.473   5.620   2.456
 3355TIP3    H210009   4.542   5.651   2.325
 3356TIP3   OH210010   2.359   2.084   6.002
 3356TIP3    H110011   2.370   2.011   6.062
 3356TIP3    H210012   2.420   2.066   5.930
 3357TIP3   OH210013   6.024   6.066   6.211
 3357TIP3    H110014   6.029   5.976   6.244
 3357TIP3    H210015   6.105   6.077   6.161
 3358TIP3   OH210016   7.291   7.697   6.689
 3358TIP3    H110017   7.327   7.667   6.605
 3358TIP3    H210018   7.337   7.644   6.755
 3359TIP3   OH210019   0.969   6.533   4.740
 3359TIP3    H110020   0.963   6.628   4.740
 3359TIP3    H210021   1.062   6.514   4.728
 3360TIP3   OH210022   1.417   2.127   0.131
 3360TIP3    H110023   1.446   2.110   0.042
 3360TIP3    H210024   1.346   2.065   0.146
 3361TIP3   OH210025   3.566   5.996   1.063
 3361TIP3    H110026   3.507   6.066   1.035
 3361TIP3    H210027   3.651   6.039   1.073
 3362TIP3   OH210028   7.243   0.001   2.797
 3362TIP3    H110029   7.338   0.008   2.811
 3362TIP3    H210030   7.220   0.080   2.749
 3363TIP3   OH210031   4.970   4.614   6.632
 3363TIP3    H110032   4.987   4.559   6.709
 3363TIP3    H210033   5.057   4.640   6.602
 3364TIP3   OH210034   4.124   2.217   4.724
 3364TIP3    H110035   4.158   2.305   4.743
 3364TIP3    H210036   4.029   2.226   4.737
 3365TIP3   OH210037   4.567   7.415   3.067
 3365TIP3    H110038   4.609   7.393   3.151
 3365TIP3    H210039   4.631   7.390   3.001
 3366TIP3   OH210040   5.862   7.411   0.358
 3366TIP3    H110041   5.898   7.323   0.363
 3366TIP3    H210042   5.882   7.450   0.443
 3367TIP3   OH210043   6.472   7.038   0.809
 3367TIP3    H110044   6.429   7.078   0.734
 3367TIP3    H210045   6.476   6.945   0.788
 3368TIP3   OH210046   3.031   0.565   4.539
 3368TIP3    H110047   2.945   0.545   4.500
 3368TIP3    H210048   3.037   0.661   4.532
 3369TIP3   OH210049   5.068   2.663   5.274
 3369TIP3    H110050   5.013   2.675   5.197
 3369TIP3    H210051   5.145   2.718   5.258
 3370TIP3   OH210052   6.832   1.895   5.364
 3370TIP3    H110053   6.800   1.978   5.398
 3370TIP3    H210054   6.827   1.905   5.269
 3371TIP3   OH210055   1.778   7.300   5.245
 3371TIP3    H110056   1.832   7.221   5.241
 3371TIP3    H210057   1.735   7.294   5.331
 3372TIP3   OH210058   2.403   3.298   2.694
 3372TIP3    H110059   2.460   3.348   2.752
 3372TIP3    H210060   2.316   3.336   2.706
 3373TIP3   OH210061   4.255   3.773   2.916
 3373TIP3    H110062   4.351   3.771   2.922
 3373TIP3    H210063   4.235   3.862   2.886
 3374TIP3   OH210064   5.935   0.547   3.929
 3374TIP3    H110065   5.921   0.606   3.856
 3374TIP3    H210066   6.025   0.517   3.920
 3375TIP3   OH210067   0.610   5.641   1.444
 3375TIP3    H110068   0.574   5.554   1.429
 3375TIP3    H210069   0.546   5.701   1.405
 3376TIP3   OH210070   2.371   5.606   2.376
 3376TIP3    H110071   2.278   5.629   2.371
 3376TIP3    H210072   2.413   5.662   2.310
 3377TIP3   OH210073   5.933   7.200   3.467
 3377TIP3    H110074   5.844   7.191   3.502
 3377TIP3    H210075   5.922   7.192   3.372
 3378TIP3   OH210076   6.926   2.928   5.447
 3378TIP3    H110077   6.881   2.948   5.529
 3378TIP3    H210078   6.910   2.835   5.433
 3379TIP3   OH210079   4.855   3.922   5.680
 3379TIP3    H110080   4.779   3.979   5.667
 3379TIP3    H210081   4.881   3.937   5.771
 3380TIP3   OH210082   8.003   1.569   3.686
 3380TIP3    H110083   7.947   1.566   3.764
 3380TIP3    H210084   8.079   1.516   3.709
 3381TIP3   OH210085   4.528   1.258   6.340
 3381TIP3    H110086   4.579   1.311   6.279
 3381TIP3    H210087   4.458   1.316   6.369
 3382TIP3   OH210088   2.323   2.633   5.819
 3382TIP3    H110089   2.297   2.558   5.872
 3382TIP3    H210090   2.262   2.631   5.745
 3383TIP3   OH210091   0.125   1.991   1.205
 3383TIP3    H110092   0.081   1.987   1.290
 3383TIP3    H210093   0.055   1.979   1.141
 3384TIP3   OH210094   2.623   0.658   0.499
 3384TIP3    H110095   2.552   0.610   0.458
 3384TIP3    H210096   2.651   0.602   0.572
 3385TIP3   OH210097   4.466   6.121   1.322
 3385TIP3    H110098   4.497   6.174   1.396
 3385TIP3    H210099   4.487   6.031   1.347
 3386TIP3   OH210100   7.552   4.015   5.516
 3386TIP3    H110101   7.513   4.043   5.599
 3386TIP3    H210102   7.566   4.097   5.468
 3387TIP3   OH210103   7.532   5.563   3.389
 3387TIP3    H110104   7.624   5.541   3.373
 3387TIP3    H210105   7.505   5.608   3.309
 3388TIP3   OH210106   4.856   0.637   1.980
 3388TIP3    H110107   4.823   0.548   1.993
 3388TIP3    H210108   4.806   0.689   2.043
 3389TIP3   OH210109   6.589   7.680   3.226
 3389TIP3    H110110   6.567   7.601   3.176
 3389TIP3    H210111   6.514   7.693   3.284
 3390TIP3   OH210112   3.117   6.558   4.525
 3390TIP3    H110113   3.122   6.493   4.456
 3390TIP3    H210114   3.120   6.507   4.606
 3391TIP3   OH210115   4.191   0.642   4.969
 3391TIP3    H110116   4.144   0.560   4.972
 3391TIP3    H210117   4.246   0.635   4.891
 3392TIP3   OH210118   2.950   4.907   2.434
 3392TIP3    H110119   2.958   4.952   2.349
 3392TIP3    H210120   2.990   4.822   2.419
 3393TIP3   OH210121   6.966   6.720   1.020
 3393TIP3    H110122   7.001   6.802   0.985
 3393TIP3    H210123   6.992   6.654   0.955
 3394TIP3   OH210124   1.725   7.684   5.373
 3394TIP3    H110125   1.650   7.669   5.315
 3394TIP3    H210126   1.687   7.726   5.450
 3395TIP3   OH210127   7.062   6.775   4.149
 3395TIP3    H110128   6.967   6.758   4.150
 3395TIP3    H210129   7.069   6.870   4.146
 3396TIP3   OH210130   4.636   0.069   0.061
 3396TIP3    H110131   4.717   0.103   0.098
 3396TIP3    H210132   4.658  -0.019   0.030
 3397TIP3   OH210133   5.572   0.484   0.400
 3397TIP3    H110134   5.531   0.467   0.315
 3397TIP3    H210135   5.549   0.408   0.453
 3398TIP3   OH210136   1.094   3.506   2.502
 3398TIP3    H110137   1.184   3.529   2.524
 3398TIP3    H210138   1.044   3.585   2.522
 3399TIP3   OH210139   7.676   4.158   0.948
 3399TIP3    H110140   7.611   4.088   0.934
 3399TIP3    H210141   7.688   4.197   0.862
 3400TIP3   OH210142   2.223   0.256   1.169
 3400TIP3    H110143   2.251   0.313   1.241
 3400TIP3    H210144   2.130   0.240   1.186
 3401TIP3   OH210145   0.141   1.396   4.980
 3401TIP3    H110146   0.159   1.324   4.920
 3401TIP3    H210147   0.222   1.447   4.980
 3402TIP3   OH210148   5.014   3.434   2.802
 3402TIP3    H110149   4.986   3.526   2.806
 3402TIP3    H210150   5.091   3.430   2.858
 3403TIP3   OH210151   7.584   1.749   6.241
 3403TIP3    H110152   7.612   1.658   6.240
 3403TIP3    H210153   7.611   1.784   6.156
 3404TIP3   OH210154   4.972   2.497   5.953
 3404TIP3    H110155   5.066   2.490   5.935
 3404TIP3    H210156   4.958   2.442   6.030
 3405TIP3   OH210157   1.830   4.566   2.582
 3405TIP3    H110158   1.896   4.590   2.517
 3405TIP3    H210159   1.776   4.645   2.592
 3406TIP3   OH210160   2.478   1.643   4.653
 3406TIP3    H110161   2.424   1.596   4.716
 3406TIP3    H210162   2.568   1.618   4.675
 3407TIP3   OH210163   0.390   7.552   2.677
 3407TIP3    H110164   0.366   7.471   2.630
 3407TIP3    H210165   0.485   7.546   2.687
 3408TIP3   OH210166   4.906   4.058   0.862
 3408TIP3    H110167   4.868   4.102   0.939
 3408TIP3    H210168   4.854   3.978   0.852
 3409TIP3   OH210169   6.346   0.906   2.869
 3409TIP3    H110170   6.368   0.875   2.781
 3409TIP3    H210171   6.272   0.850   2.896
 3410TIP3   OH210172   5.263   2.727   0.996
 3410TIP3    H110173   5.266   2.684   1.081
 3410TIP3    H210174   5.235   2.658   0.935
 3411TIP3   OH210175   2.143   0.679   2.502
 3411TIP3    H110176   2.163   0.773   2.505
 3411TIP3    H210177   2.179   0.650   2.418
 3412TIP3   OH210178   4.466   6.133   6.747
 3412TIP3    H110179   4.384   6.113   6.701
 3412TIP3    H210180   4.448   6.214   6.794
 3413TIP3   OH210181   6.730   1.260   3.482
 3413TIP3    H110182   6.671   1.296   3.548
 3413TIP3    H210183   6.672   1.225   3.414
 3414TIP3   OH210184   7.361   6.517   2.277
 3414TIP3    H110185   7.361   6.431   2.235
 3414TIP3    H210186   7.449   6.525   2.313
 3415TIP3   OH210187   1.976   7.858   5.741
 3415TIP3    H110188   2.039   7.917   5.699
 3415TIP3    H210189   1.960   7.790   5.676
 3416TIP3   OH210190   6.565   2.231   0.600
 3416TIP3    H110191   6.500   2.255   0.666
 3416TIP3    H210192   6.518   2.174   0.540
 3417TIP3   OH210193   4.922   4.976   3.515
 3417TIP3    H110194   4.996   4.988   3.574
 3417TIP3    H210195   4.845   4.987   3.570
 3418TIP3   OH210196   6.116   2.206   2.567
 3418TIP3    H110197   6.125   2.168   2.654
 3418TIP3    H210198   6.025   2.235   2.562
 3419TIP3   OH210199   0.748   2.294   2.582
 3419TIP3    H110200   0.748   2.344   2.500
 3419TIP3    H210201   0.656   2.277   2.600
 3420TIP3   OH210202   5.582   2.129   1.110
 3420TIP3    H110203   5.494   2.140   1.145
 3420TIP3    H210204   5.639   2.167   1.177
 3421TIP3   OH210205   3.714   6.147   5.674
 3421TIP3    H110206   3.692   6.057   5.647
 3421TIP3    H210207   3.699   6.200   5.596
 3422TIP3   OH210208   0.280   0.200   6.091
 3422TIP3    H110209   0.318   0.283   6.121
 3422TIP3    H210210   0.354   0.140   6.087
 3423TIP3   OH210211   4.678   2.747   0.331
 3423TIP3    H110212   4.772   2.746   0.346
 3423TIP3    H210213   4.641   2.784   0.411
 3424TIP3   OH210214   6.316   5.987   3.558
 3424TIP3    H110215   6.260   5.957   3.630
 3424TIP3    H210216   6.375   5.914   3.541
 3425TIP3   OH210217   6.350   1.961   4.779
 3425TIP3    H110218   6.284   1.927   4.839
 3425TIP3    H210219   6.425   1.903   4.791
 3426TIP3   OH210220   7.839   6.705   3.134
 3426TIP3    H110221   7.756   6.661   3.155
 3426TIP3    H210222   7.824   6.746   3.049
 3427TIP3   OH210223   2.359   7.428   5.925
 3427TIP3    H110224   2.356   7.434   6.020
 3427TIP3    H210225   2.315   7.506   5.893
 3428TIP3   OH210226   6.463   4.235   2.773
 3428TIP3    H110227   6.428   4.316   2.811
 3428TIP3    H210228   6.485   4.258   2.683
 3429TIP3   OH210229   5.013   7.279   1.626
 3429TIP3    H110230   4.937   7.231   1.659
 3429TIP3    H210231   5.042   7.332   1.700
 3430TIP3   OH210232   4.660   3.837   5.451
 3430TIP3    H110233   4.715   3.895   5.502
 3430TIP3    H210234   4.578   3.832   5.500
 3431TIP3   OH210235   1.658   1.672   1.254
 3431TIP3    H110236   1.595   1.673   1.326
 3431TIP3    H210237   1.694   1.761   1.254
 3432TIP3   OH210238   1.651   2.487   0.739
 3432TIP3    H110239   1.609   2.524   0.661
 3432TIP3    H210240   1.580   2.440   0.784
 3433TIP3   OH210241   2.409   1.811   5.441
 3433TIP3    H110242   2.453   1.756   5.375
 3433TIP3    H210243   2.366   1.879   5.390
 3434TIP3   OH210244   4.006   4.926   0.348
 3434TIP3    H110245   3.932   4.867   0.336
 3434TIP3    H210246   4.069   4.900   0.280
 3435TIP3   OH210247   7.571   4.159   0.509
 3435TIP3    H110248   7.591   4.070   0.480
 3435TIP3    H210249   7.649   4.186   0.558
 3436TIP3   OH210250   1.240   5.141   0.952
 3436TIP3    H110251   1.286   5.093   0.883
 3436TIP3    H210252   1.260   5.233   0.936
 3437TIP3   OH210253   6.051   3.331   4.190
 3437TIP3    H110254   5.974   3.346   4.244
 3437TIP3    H210255   6.021   3.346   4.100
 3438TIP3   OH210256   1.945   3.573   0.747
 3438TIP3    H110257   1.955   3.601   0.838
 3438TIP3    H210258   1.883   3.500   0.751
 3439TIP3   OH210259   0.104   2.692   3.595
 3439TIP3    H110260   0.069   2.664   3.680
 3439TIP3    H210261   0.028   2.726   3.548
 3440TIP3   OH210262   4.963   0.940   3.574
 3440TIP3    H110263   4.969   0.868   3.636
 3440TIP3    H210264   5.045   0.936   3.525
 3441TIP3   OH210265   3.949   3.776   5.152
 3441TIP3    H110266   3.980   3.797   5.240
 3441TIP3    H210267   3.879   3.840   5.136
 3442TIP3   OH210268   4.266   7.717   3.222
 3442TIP3    H110269   4.255   7.629   3.186
 3442TIP3    H210270   4.293   7.771   3.148
 3443TIP3   OH210271   2.375   5.655   6.424
 3443TIP3    H110272   2.392   5.711   6.349
 3443TIP3    H210273   2.294   5.609   6.401
 3444TIP3   OH210274   5.518   3.321   1.628
 3444TIP3    H110275   5.588   3.376   1.664
 3444TIP3    H210276   5.542   3.308   1.537
 3445TIP3   OH210277   1.631   5.619   0.435
 3445TIP3    H110278   1.685   5.595   0.510
 3445TIP3    H210279   1.625   5.714   0.439
 3446TIP3   OH210280   1.045   5.721   0.858
 3446TIP3    H110281   1.090   5.654   0.805
 3446TIP3    H210282   1.089   5.718   0.943
 3447TIP3   OH210283   2.114   3.650   6.658
 3447TIP3    H110284   2.095   3.631   6.750
 3447TIP3    H210285   2.031   3.633   6.613
 3448TIP3   OH210286   1.379   4.001   0.766
 3448TIP3    H110287   1.470   4.028   0.771
 3448TIP3    H210288   1.332   4.079   0.738
 3449TIP3   OH210289   5.659   1.890   2.095
 3449TIP3    H110290   5.588   1.947   2.068
 3449TIP3    H210291   5.639   1.868   2.186
 3450TIP3   OH210292   7.792   4.650   5.261
 3450TIP3    H110293   7.696   4.651   5.253
 3450TIP3    H210294   7.811   4.721   5.323
 3451TIP3   OH210295   0.135   4.019   4.090
 3451TIP3    H110296   0.119   4.051   4.001
 3451TIP3    H210297   0.065   3.956   4.106
 3452TIP3   OH210298   6.753   2.977   4.873
 3452TIP3    H110299   6.805   2.907   4.913
 3452TIP3    H210300   6.759   2.961   4.779
 3453TIP3   OH210301   1.050   7.820   5.530
 3453TIP3    H110302   1.001   7.766   5.592
 3453TIP3    H210303   1.034   7.779   5.445
 3454TIP3   OH210304   2.588   6.508   6.190
 3454TIP3    H110305   2.551   6.583   6.142
 3454TIP3    H210306   2.592   6.438   6.125
 3455TIP3   OH210307   2.817   3.130   6.481
 3455TIP3    H110308   2.834   3.062   6.416
 3455TIP3    H210309   2.816   3.212   6.432
 3456TIP3   OH210310   1.666   1.058   4.034
 3456TIP3    H110311   1.700   0.969   4.022
 3456TIP3    H210312   1.626   1.056   4.121
 3457TIP3   OH210313   0.882   0.371   3.553
 3457TIP3    H110314   0.893   0.295   3.496
 3457TIP3    H210315   0.794   0.362   3.588
 3458TIP3   OH210316   6.546   1.522   5.848
 3458TIP3    H110317   6.517   1.531   5.939
 3458TIP3    H210318   6.609   1.592   5.835
 3459TIP3   OH210319   2.851   2.945   2.690
 3459TIP3    H110320   2.908   3.008   2.647
 3459TIP3    H210321   2.896   2.861   2.681
 3460TIP3   OH210322   6.613   5.410   4.868
 3460TIP3    H110323   6.637   5.501   4.852
 3460TIP3    H210324   6.529   5.399   4.824
 3461TIP3   OH210325   1.006   2.125   6.627
 3461TIP3    H110326   0.941   2.161   6.688
 3461TIP3    H210327   0.981   2.034   6.616
 3462TIP3   OH210328   6.929   5.852   6.505
 3462TIP3    H110329   6.934   5.776   6.447
 3462TIP3    H210330   6.915   5.926   6.446
 3463TIP3   OH210331   4.255   3.369   4.966
 3463TIP3    H110332   4.331   3.371   4.908
 3463TIP3    H210333   4.277   3.429   5.037
 3464TIP3   OH210334   3.210   7.018   3.102
 3464TIP3    H110335   3.193   7.112   3.108
 3464TIP3    H210336   3.126   6.980   3.079
 3465TIP3   OH210337   7.249   5.125   6.475
 3465TIP3    H110338   7.165   5.082   6.460
 3465TIP3    H210339   7.253   5.136   6.570
 3466TIP3   OH210340   6.846   7.245   1.890
 3466TIP3    H110341   6.920   7.301   1.912
 3466TIP3    H210342   6.806   7.224   1.975
 3467TIP3   OH210343   1.211   2.232   3.637
 3467TIP3    H110344   1.150   2.257   3.567
 3467TIP3    H210345   1.203   2.301   3.702
 3468TIP3   OH210346   0.324   0.771   0.170
 3468TIP3    H110347   0.377   0.691   0.172
 3468TIP3    H210348   0.294   0.777   0.079
 3469TIP3   OH210349   4.720   1.955   0.057
 3469TIP3    H110350   4.664   1.936   0.132
 3469TIP3    H210351   4.731   2.050   0.059
 3470TIP3   OH210352   5.650   2.609   3.226
 3470TIP3    H110353   5.712   2.680   3.211
 3470TIP3    H210354   5.684   2.562   3.302
 3471TIP3   OH210355   1.635   7.006   5.535
 3471TIP3    H110356   1.569   7.075   5.545
 3471TIP3    H210357   1.662   6.985   5.624
 3472TIP3   OH210358   7.357   6.162   5.571
 3472TIP3    H110359   7.274   6.196   5.605
 3472TIP3    H210360   7.332   6.113   5.492
 3473TIP3   OH210361   1.474   4.500   5.019
 3473TIP3    H110362   1.434   4.504   4.932
 3473TIP3    H210363   1.401   4.481   5.078
 3474TIP3   OH210364   1.252   2.901   6.368
 3474TIP3    H110365   1.199   2.822   6.360
 3474TIP3    H210366   1.306   2.902   6.289
 3475TIP3   OH210367   0.656   0.696   0.359
 3475TIP3    H110368   0.704   0.720   0.439
 3475TIP3    H210369   0.679   0.605   0.344
 3476TIP3   OH210370   5.023   3.676   3.584
 3476TIP3    H110371   5.088   3.634   3.640
 3476TIP3    H210372   4.955   3.611   3.573
 3477TIP3   OH210373   6.961   2.109   3.892
 3477TIP3    H110374   6.911   2.039   3.850
 3477TIP3    H210375   7.042   2.114   3.841
 3478TIP3   OH210376   4.954   6.321   4.666
 3478TIP3    H110377   4.866   6.289   4.646
 3478TIP3    H210378   4.987   6.354   4.582
 3479TIP3   OH210379   5.170   5.746   0.337
 3479TIP3    H110380   5.110   5.789   0.276
 3479TIP3    H210381   5.247   5.726   0.284
 3480TIP3   OH210382   8.086   0.883   0.559
 3480TIP3    H110383   8.059   0.959   0.509
 3480TIP3    H210384   8.164   0.850   0.514
 3481TIP3   OH210385   7.974   0.275   3.211
 3481TIP3    H110386   7.929   0.224   3.143
 3481TIP3    H210387   8.060   0.294   3.174
 3482TIP3   OH210388   2.345   2.826   4.121
 3482TIP3    H110389   2.295   2.901   4.088
 3482TIP3    H210390   2.297   2.798   4.199
 3483TIP3   OH210391   4.594   3.082   3.329
 3483TIP3    H110392   4.536   3.044   3.263
 3483TIP3    H210393   4.681   3.050   3.306
 3484TIP3   OH210394   5.610   4.019   6.228
 3484TIP3    H110395   5.658   4.081   6.283
 3484TIP3    H210396   5.645   3.933   6.252
 3485TIP3   OH210397   0.480   3.818   2.637
 3485TIP3    H110398   0.471   3.731   2.675
 3485TIP3    H210399   0.479   3.803   2.542
 3486TIP3   OH210400   4.839   6.535   2.321
 3486TIP3    H110401   4.925   6.526   2.362
 3486TIP3    H210402   4.842   6.476   2.246
 3487TIP3   OH210403   2.419   7.642   3.963
 3487TIP3    H110404   2.359   7.572   3.935
 3487TIP3    H210405   2.462   7.605   4.041
 3488TIP3   OH210406   7.797   6.307   0.276
 3488TIP3    H110407   7.705   6.316   0.300
 3488TIP3    H210408   7.800   6.229   0.220
 3489TIP3   OH210409   3.667   3.097   5.280
 3489TIP3    H110410   3.726   3.132   5.347
 3489TIP3    H210411   3.630   3.018   5.321
 3490TIP3   OH210412   6.838   2.021   1.183
 3490TIP3    H110413   6.893   2.089   1.221
 3490TIP3    H210414   6.896   1.944   1.177
 3491TIP3   OH210415   4.666   2.046   1.300
 3491TIP3    H110416   4.585   2.068   1.345
 3491TIP3    H210417   4.718   2.127   1.303
 3492TIP3   OH210418   6.907   5.347   4.907
 3492TIP3    H110419   6.934   5.402   4.981
 3492TIP3    H210420   6.813   5.364   4.899
 3493TIP3   OH210421   2.884   4.272   0.462
 3493TIP3    H110422   2.878   4.185   0.503
 3493TIP3    H210423   2.973   4.275   0.426
 3494TIP3   OH210424   0.087   4.470   3.745
 3494TIP3    H110425   0.041   4.388   3.764
 3494TIP3    H210426   0.051   4.499   3.662
 3495TIP3   OH210427   1.476   2.175   1.978
 3495TIP3    H110428   1.571   2.166   1.991
 3495TIP3    H210429   1.438   2.118   2.045
 3496TIP3   OH210430   7.267   4.090   2.492
 3496TIP3    H110431   7.231   4.052   2.572
 3496TIP3    H210432   7.212   4.057   2.422
 3497TIP3   OH210433   8.209   5.004   1.923
 3497TIP3    H110434   8.184   4.954   2.001
 3497TIP3    H210435   8.190   4.945   1.850
 3498TIP3   OH210436   7.789   2.268   1.115
 3498TIP3    H110437   7.805   2.300   1.026
 3498TIP3    H210438   7.863   2.300   1.166
 3499TIP3   OH210439   2.163   5.632   2.026
 3499TIP3    H110440   2.160   5.665   2.116
 3499TIP3    H210441   2.089   5.675   1.982
 3500TIP3   OH210442   1.821   2.449   3.082
 3500TIP3    H110443   1.771   2.490   3.012
 3500TIP3    H210444   1.901   2.417   3.040
 3501TIP3   OH210445   5.592   3.557   6.165
 3501TIP3    H110446   5.652   3.567   6.091
 3501TIP3    H210447   5.505   3.571   6.127
 3502TIP3   OH210448   5.580   7.092   6.190
 3502TIP3    H110449   5.503   7.035   6.195
 3502TIP3    H210450   5.578   7.128   6.102
 3503TIP3   OH210451   4.479   4.302   4.630
 3503TIP3    H110452   4.407   4.250   4.664
 3503TIP3    H210453   4.555   4.245   4.636
 3504TIP3   OH210454   3.589   6.763   2.424
 3504TIP3    H110455   3.541   6.735   2.347
 3504TIP3    H210456   3.677   6.730   2.412
 3505TIP3   OH210457   7.358   0.290   4.417
 3505TIP3    H110458   7.425   0.331   4.362
 3505TIP3    H210459   7.284   0.352   4.415
 3506TIP3   OH210460   4.007   1.647   0.582
 3506TIP3    H110461   4.038   1.685   0.499
 3506TIP3    H210462   3.961   1.567   0.556
 3507TIP3   OH210463   5.961   2.354   5.502
 3507TIP3    H110464   6.031   2.351   5.437
 3507TIP3    H210465   6.006   2.355   5.586
 3508TIP3   OH210466   7.750   7.332   4.870
 3508TIP3    H110467   7.797   7.324   4.787
 3508TIP3    H210468   7.710   7.246   4.883
 3509TIP3   OH210469   2.099   2.596   0.947
 3509TIP3    H110470   2.018   2.544   0.944
 3509TIP3    H210471   2.169   2.531   0.948
 3510TIP3   OH210472   7.677   0.752   2.941
 3510TIP3    H110473   7.733   0.804   2.998
 3510TIP3    H210474   7.637   0.687   3.000
 3511TIP3   OH210475   1.980   4.902   3.635
 3511TIP3    H110476   2.030   4.903   3.717
 3511TIP3    H210477   2.039   4.861   3.572
 3512TIP3   OH210478   3.459   5.081   2.509
 3512TIP3    H110479   3.542   5.036   2.524
 3512TIP3    H210480   3.406   5.058   2.585
 3513TIP3   OH210481   8.018   0.223   6.233
 3513TIP3    H110482   8.053   0.246   6.318
 3513TIP3    H210483   8.017   0.127   6.232
 3514TIP3   OH210484   5.890   2.975   4.377
 3514TIP3    H110485   5.839   2.922   4.438
 3514TIP3    H210486   5.927   2.911   4.316
 3515TIP3   OH210487   1.630   1.111   4.323
 3515TIP3    H110488   1.656   1.198   4.355
 3515TIP3    H210489   1.535   1.110   4.332
 3516TIP3   OH210490   6.735   4.892   5.290
 3516TIP3    H110491   6.764   4.811   5.332
 3516TIP3    H210492   6.812   4.924   5.244
 3517TIP3   OH210493   2.862   3.618   3.190
 3517TIP3    H110494   2.859   3.530   3.228
 3517TIP3    H210495   2.945   3.620   3.143
 3518TIP3   OH210496   3.686   5.441   2.728
 3518TIP3    H110497   3.597   5.413   2.708
 3518TIP3    H210498   3.708   5.392   2.808
 3519TIP3   OH210499   5.273   0.071   5.215
 3519TIP3    H110500   5.368   0.084   5.221
 3519TIP3    H210501   5.236   0.135   5.275
 3520TIP3   OH210502   5.209   5.860   0.638
 3520TIP3    H110503   5.200   5.855   0.543
 3520TIP3    H210504   5.122   5.842   0.672
 3521TIP3   OH210505   5.886   3.071   3.059
 3521TIP3    H110506   5.835   3.113   2.991
 3521TIP3    H210507   5.894   3.137   3.128
 3522TIP3   OH210508   5.763   4.754   6.220
 3522TIP3    H110509   5.680   4.791   6.189
 3522TIP3    H210510   5.826   4.825   6.210
 3523TIP3   OH210511   1.660   6.158   1.158
 3523TIP3    H110512   1.615   6.176   1.241
 3523TIP3    H210513   1.742   6.117   1.184
 3524TIP3   OH210514   5.838   2.792   0.487
 3524TIP3    H110515   5.923   2.836   0.494
 3524TIP3    H210516   5.832   2.764   0.396
 3525TIP3   OH210517   1.281   7.142   3.794
 3525TIP3    H110518   1.252   7.152   3.704
 3525TIP3    H210519   1.376   7.151   3.791
 3526TIP3   OH210520   3.947   2.588   2.150
 3526TIP3    H110521   3.965   2.579   2.243
 3526TIP3    H210522   3.853   2.572   2.142
 3527TIP3   OH210523   4.380   6.587   5.277
 3527TIP3    H110524   4.331   6.669   5.275
 3527TIP3    H210525   4.435   6.590   5.198
 3528TIP3   OH210526   5.764   3.923   2.230
 3528TIP3    H110527   5.828   3.991   2.249
 3528TIP3    H210528   5.684   3.971   2.207
 3529TIP3   OH210529   6.679   4.535  -0.061
 3529TIP3    H110530   6.586   4.515  -0.077
 3529TIP3    H210531   6.723   4.451  -0.071
 3530TIP3   OH210532   1.595   1.018   3.202
 3530TIP3    H110533   1.556   0.930   3.207
 3530TIP3    H210534   1.689   1.002   3.192
 3531TIP3   OH210535   6.712   5.084   1.584
 3531TIP3    H110536   6.660   5.061   1.661
 3531TIP3    H210537   6.659   5.057   1.510
 3532TIP3   OH210538   6.055   3.165   0.296
 3532TIP3    H110539   6.139   3.168   0.249
 3532TIP3    H210540   5.996   3.120   0.235
 3533TIP3   OH210541   4.360   2.832   3.415
 3533TIP3    H110542   4.449   2.801   3.432
 3533TIP3    H210543   4.311   2.809   3.494
 3534TIP3   OH210544   4.771   4.117   1.563
 3534TIP3    H110545   4.702   4.184   1.561
 3534TIP3    H210546   4.851   4.166   1.581
 3535TIP3   OH210547   1.661   5.419   5.877
 3535TIP3    H110548   1.744   5.430   5.829
 3535TIP3    H210549   1.645   5.505   5.916
 3536TIP3   OH210550   4.332   3.936   6.518
 3536TIP3    H110551   4.265   3.943   6.449
 3536TIP3    H210552   4.396   3.874   6.482
 3537TIP3   OH210553   0.517   5.313   3.263
 3537TIP3    H110554   0.448   5.328   3.327
 3537TIP3    H210555   0.594   5.356   3.299
 3538TIP3   OH210556   3.082   2.101   1.966
 3538TIP3    H110557   3.173   2.124   1.945
 3538TIP3    H210558   3.082   2.005   1.969
 3539TIP3   OH210559   4.178   6.286   3.261
 3539TIP3    H110560   4.234   6.354   3.298
 3539TIP3    H210561   4.164   6.312   3.170
 3540TIP3   OH210562   4.118   2.914   2.925
 3540TIP3    H110563   4.118   2.986   2.862
 3540TIP3    H210564   4.051   2.938   2.989
 3541TIP3   OH210565   0.674   1.297   1.279
 3541TIP3    H110566   0.768   1.295   1.297
 3541TIP3    H210567   0.634   1.317   1.364
 3542TIP3   OH210568   0.477   3.005   0.139
 3542TIP3    H110569   0.525   3.055   0.073
 3542TIP3    H210570   0.480   2.914   0.107
 3543TIP3   OH210571   8.270   6.983   3.229
 3543TIP3    H110572   8.217   6.969   3.150
 3543TIP3    H210573   8.360   6.969   3.199
 3544TIP3   OH210574   5.411   5.074   3.661
 3544TIP3    H110575   5.450   5.056   3.747
 3544TIP3    H210576   5.469   5.029   3.599
 3545TIP3   OH210577   6.376   1.927   2.351
 3545TIP3    H110578   6.366   1.875   2.271
 3545TIP3    H210579   6.335   2.011   2.331
 3546TIP3   OH210580   5.978   5.094   0.614
 3546TIP3    H110581   5.939   5.158   0.554
 3546TIP3    H210582   6.048   5.143   0.659
 3547TIP3   OH210583   4.803   1.999   5.811
 3547TIP3    H110584   4.745   2.061   5.767
 3547TIP3    H210585   4.747   1.924   5.830
 3548TIP3   OH210586   7.152   0.230   5.626
 3548TIP3    H110587   7.064   0.260   5.649
 3548TIP3    H210588   7.208   0.264   5.695
 3549TIP3   OH210589   2.158   7.593   5.775
 3549TIP3    H110590   2.102   7.584   5.851
 3549TIP3    H210591   2.103   7.635   5.709
 3550TIP3   OH210592   2.639   5.513   3.126
 3550TIP3    H110593   2.695   5.509   3.204
 3550TIP3    H210594   2.590   5.595   3.136
 3551TIP3   OH210595   1.192   6.608   3.209
 3551TIP3    H110596   1.162   6.529   3.163
 3551TIP3    H210597   1.235   6.574   3.288
 3552TIP3   OH210598   0.357   6.086   4.871
 3552TIP3    H110599   0.319   6.087   4.783
 3552TIP3    H210600   0.303   6.023   4.919
 3553TIP3   OH210601   3.686   2.711   2.850
 3553TIP3    H110602   3.639   2.790   2.821
 3553TIP3    H210603   3.715   2.733   2.939
 3554TIP3   OH210604   3.886   4.117   6.408
 3554TIP3    H110605   3.818   4.059   6.375
 3554TIP3    H210606   3.861   4.204   6.377
 3555TIP3   OH210607   8.200   5.216   4.680
 3555TIP3    H110608   8.196   5.254   4.767
 3555TIP3    H210609   8.259   5.141   4.688
 3556TIP3   OH210610   8.209   5.177   0.143
 3556TIP3    H110611   8.253   5.256   0.110
 3556TIP3    H210612   8.222   5.112   0.074
 3557TIP3   OH210613   1.647   3.384   3.887
 3557TIP3    H110614   1.597   3.330   3.948
 3557TIP3    H210615   1.607   3.367   3.802
 3558TIP3   OH210616   0.014   2.396   4.560
 3558TIP3    H110617   0.103   2.432   4.551
 3558TIP3    H210618   0.019   2.310   4.520
 3559TIP3   OH210619   0.480   6.338   0.698
 3559TIP3    H110620   0.460   6.246   0.719
 3559TIP3    H210621   0.564   6.334   0.652
 3560TIP3   OH210622   5.010   5.201   4.751
 3560TIP3    H110623   5.004   5.164   4.839
 3560TIP3    H210624   5.104   5.212   4.736
 3561TIP3   OH210625   3.111   7.647   0.726
 3561TIP3    H110626   3.071   7.711   0.784
 3561TIP3    H210627   3.090   7.562   0.766
 3562TIP3   OH210628   4.027   6.043   3.067
 3562TIP3    H110629   3.984   6.113   3.118
 3562TIP3    H210630   4.078   6.090   3.001
 3563TIP3   OH210631   3.348  -0.001   2.679
 3563TIP3    H110632   3.304   0.069   2.631
 3563TIP3    H210633   3.360  -0.071   2.615
 3564TIP3   OH210634   6.394   7.851   1.199
 3564TIP3    H110635   6.348   7.827   1.280
 3564TIP3    H210636   6.392   7.772   1.146
 3565TIP3   OH210637   8.135   4.330   6.310
 3565TIP3    H110638   8.219   4.347   6.354
 3565TIP3    H210639   8.151   4.350   6.218
 3566TIP3   OH210640   5.175   0.553   5.503
 3566TIP3    H110641   5.223   0.629   5.471
 3566TIP3    H210642   5.226   0.478   5.472
 3567TIP3   OH210643   3.924   1.015   5.659
 3567TIP3    H110644   3.958   0.930   5.687
 3567TIP3    H210645   3.836   0.995   5.625
 3568TIP3   OH210646   3.631   3.205   1.035
 3568TIP3    H110647   3.591   3.143   1.096
 3568TIP3    H210648   3.725   3.197   1.051
 3569TIP3   OH210649   4.444   2.645   4.858
 3569TIP3    H110650   4.457   2.661   4.765
 3569TIP3    H210651   4.532   2.626   4.892
 3570TIP3   OH210652   8.211   5.932   2.416
 3570TIP3    H110653   8.161   6.005   2.454
 3570TIP3    H210654   8.180   5.855   2.464
 3571TIP3   OH210655   1.417   6.258   4.117
 3571TIP3    H110656   1.475   6.301   4.181
 3571TIP3    H210657   1.333   6.249   4.163
 3572TIP3   OH210658   2.255   6.390   3.109
 3572TIP3    H110659   2.259   6.405   3.204
 3572TIP3    H210660   2.340   6.352   3.088
 3573TIP3   OH210661   0.722   1.107   3.240
 3573TIP3    H110662   0.813   1.103   3.210
 3573TIP3    H210663   0.670   1.115   3.159
 3574TIP3   OH210664   0.423   1.828   5.340
 3574TIP3    H110665   0.517   1.817   5.329
 3574TIP3    H210666   0.389   1.830   5.250
 3575TIP3   OH210667   6.371   5.374   5.133
 3575TIP3    H110668   6.294   5.428   5.115
 3575TIP3    H210669   6.445   5.434   5.121
 3576TIP3   OH210670   1.575   3.245   1.479
 3576TIP3    H110671   1.569   3.152   1.459
 3576TIP3    H210672   1.486   3.270   1.506
 3577TIP3   OH210673   7.455   2.754   1.054
 3577TIP3    H110674   7.467   2.659   1.065
 3577TIP3    H210675   7.413   2.781   1.136
 3578TIP3   OH210676   0.962   5.508   1.863
 3578TIP3    H110677   1.024   5.556   1.919
 3578TIP3    H210678   1.011   5.488   1.784
 3579TIP3   OH210679   2.137   2.723   5.225
 3579TIP3    H110680   2.152   2.769   5.308
 3579TIP3    H210681   2.046   2.743   5.203
 3580TIP3   OH210682   7.926   1.458   2.388
 3580TIP3    H110683   8.018   1.471   2.409
 3580TIP3    H210684   7.904   1.373   2.427
 3581TIP3   OH210685   0.372   3.601   0.821
 3581TIP3    H110686   0.385   3.531   0.886
 3581TIP3    H210687   0.295   3.648   0.853
 3582TIP3   OH210688   5.701   2.312   5.299
 3582TIP3    H110689   5.726   2.387   5.246
 3582TIP3    H210690   5.664   2.351   5.379
 3583TIP3   OH210691   5.131   6.059   2.586
 3583TIP3    H110692   5.213   6.013   2.606
 3583TIP3    H210693   5.076   5.993   2.543
 3584TIP3   OH210694   6.688   1.251   6.179
 3584TIP3    H110695   6.679   1.157   6.163
 3584TIP3    H210696   6.611   1.289   6.138
 3585TIP3   OH210697   5.916   4.194   2.317
 3585TIP3    H110698   6.003   4.168   2.288
 3585TIP3    H210699   5.882   4.248   2.246
 3586TIP3   OH210700   3.236   1.823   2.344
 3586TIP3    H110701   3.143   1.837   2.360
 3586TIP3    H210702   3.268   1.782   2.425
 3587TIP3   OH210703   5.350   4.284   1.166
 3587TIP3    H110704   5.304   4.212   1.209
 3587TIP3    H210705   5.308   4.363   1.200
 3588TIP3   OH210706   7.237   7.416   5.909
 3588TIP3    H110707   7.282   7.500   5.916
 3588TIP3    H210708   7.192   7.406   5.993
 3589TIP3   OH210709   0.035   2.272   5.494
 3589TIP3    H110710   0.047   2.367   5.488
 3589TIP3    H210711   0.074   2.238   5.414
 3590TIP3   OH210712   2.102   7.193   3.577
 3590TIP3    H110713   2.064   7.107   3.557
 3590TIP3    H210714   2.193   7.175   3.599
 3591TIP3   OH210715   7.525   3.771   6.711
 3591TIP3    H110716   7.491   3.718   6.639
 3591TIP3    H210717   7.604   3.725   6.739
 3592TIP3   OH210718   0.494   0.124   5.909
 3592TIP3    H110719   0.546   0.069   5.851
 3592TIP3    H210720   0.530   0.212   5.897
 3593TIP3   OH210721   4.726   5.725   5.260
 3593TIP3    H110722   4.671   5.671   5.317
 3593TIP3    H210723   4.782   5.662   5.215
 3594TIP3   OH210724   6.880   3.665   1.717
 3594TIP3    H110725   6.947   3.642   1.652
 3594TIP3    H210726   6.854   3.754   1.693
 3595TIP3   OH210727   2.736   7.792   2.885
 3595TIP3    H110728   2.800   7.861   2.868
 3595TIP3    H210729   2.740   7.779   2.980
 3596TIP3   OH210730   5.106   0.568   1.595
 3596TIP3    H110731   5.044   0.564   1.668
 3596TIP3    H210732   5.135   0.478   1.582
 3597TIP3   OH210733   6.632   3.714   1.468
 3597TIP3    H110734   6.588   3.787   1.425
 3597TIP3    H210735   6.715   3.706   1.423
 3598TIP3   OH210736   6.109   0.928   6.422
 3598TIP3    H110737   6.032   0.889   6.380
 3598TIP3    H210738   6.168   0.948   6.349
 3599TIP3   OH210739   0.893   5.959   0.436
 3599TIP3    H110740   0.815   5.942   0.488
 3599TIP3    H210741   0.932   6.037   0.477
 3600TIP3   OH210742   6.660   7.279   0.881
 3600TIP3    H110743   6.652   7.356   0.824
 3600TIP3    H210744   6.600   7.215   0.842
 3601TIP3   OH210745   5.258   5.707   0.046
 3601TIP3    H110746   5.320   5.698   0.119
 3601TIP3    H210747   5.250   5.801   0.033
 3602TIP3   OH210748   3.928   1.507   5.063
 3602TIP3    H110749   3.926   1.601   5.084
 3602TIP3    H210750   3.962   1.504   4.974
 3603TIP3   OH210751   5.041   1.420   1.991
 3603TIP3    H110752   4.966   1.436   1.934
 3603TIP3    H210753   5.111   1.390   1.932
 3604TIP3   OH210754   2.332   0.998   1.058
 3604TIP3    H110755   2.336   0.990   0.962
 3604TIP3    H210756   2.327   1.092   1.073
 3605TIP3   OH210757   4.582   4.292   5.027
 3605TIP3    H110758   4.662   4.335   4.997
 3605TIP3    H210759   4.594   4.284   5.122
 3606TIP3   OH210760   3.482   1.846   0.087
 3606TIP3    H110761   3.388   1.827   0.088
 3606TIP3    H210762   3.488   1.942   0.091
 3607TIP3   OH210763   5.169   4.106   1.284
 3607TIP3    H110764   5.165   4.016   1.316
 3607TIP3    H210765   5.142   4.159   1.359
 3608TIP3   OH210766   6.859   1.162   0.777
 3608TIP3    H110767   6.812   1.215   0.713
 3608TIP3    H210768   6.914   1.224   0.825
 3609TIP3   OH210769   1.150   6.350   0.844
 3609TIP3    H110770   1.229   6.398   0.871
 3609TIP3    H210771   1.139   6.282   0.911
 3610TIP3   OH210772   3.102   5.086   4.757
 3610TIP3    H110773   3.139   5.003   4.727
 3610TIP3    H210774   3.011   5.084   4.727
 3611TIP3   OH210775   3.744   5.476   5.553
 3611TIP3    H110776   3.662   5.475   5.504
 3611TIP3    H210777   3.801   5.535   5.503
 3612TIP3   OH210778   0.081   3.527   5.265
 3612TIP3    H110779   0.146   3.564   5.324
 3612TIP3    H210780   0.130   3.503   5.187
 3613TIP3   OH210781   2.986   5.632   0.900
 3613TIP3    H110782   3.064   5.582   0.922
 3613TIP3    H210783   2.916   5.592   0.951
 3614TIP3   OH210784   3.744   5.355   1.891
 3614TIP3    H110785   3.794   5.397   1.821
 3614TIP3    H210786   3.724   5.268   1.857
 3615TIP3   OH210787   1.198   5.770   3.022
 3615TIP3    H110788   1.107   5.775   2.995
 3615TIP3    H210789   1.245   5.740   2.945
 3616TIP3   OH210790   2.551   3.301   6.686
 3616TIP3    H110791   2.533   3.243   6.611
 3616TIP3    H210792   2.475   3.291   6.743
 3617TIP3   OH210793   0.367   7.507   1.051
 3617TIP3    H110794   0.366   7.602   1.056
 3617TIP3    H210795   0.457   7.483   1.075
 3618TIP3   OH210796   7.604   1.830   6.503
 3618TIP3    H110797   7.596   1.814   6.409
 3618TIP3    H210798   7.548   1.763   6.543
 3619TIP3   OH210799   0.010   5.691   5.925
 3619TIP3    H110800  -0.040   5.709   5.846
 3619TIP3    H210801   0.008   5.773   5.974
 3620TIP3   OH210802   7.311   3.612   0.110
 3620TIP3    H110803   7.339   3.677   0.046
 3620TIP3    H210804   7.298   3.532   0.059
 3621TIP3   OH210805   3.960   1.817   2.862
 3621TIP3    H110806   3.887   1.875   2.884
 3621TIP3    H210807   4.031   1.875   2.836
 3622TIP3   OH210808   2.740   1.294   2.190
 3622TIP3    H110809   2.699   1.361   2.244
 3622TIP3    H210810   2.806   1.254   2.247
 3623TIP3   OH210811   5.906   0.334   4.795
 3623TIP3    H110812   5.894   0.329   4.700
 3623TIP3    H210813   5.817   0.333   4.830
 3624TIP3   OH210814   7.837   3.974   3.834
 3624TIP3    H110815   7.850   4.018   3.918
 3624TIP3    H210816   7.802   3.888   3.857
 3625TIP3   OH210817   7.794   3.085   1.802
 3625TIP3    H110818   7.782   3.108   1.710
 3625TIP3    H210819   7.712   3.041   1.826
 3626TIP3   OH210820   7.040   2.740   2.971
 3626TIP3    H110821   7.033   2.794   2.893
 3626TIP3    H210822   7.120   2.772   3.014
 3627TIP3   OH210823   5.667   5.949   2.549
 3627TIP3    H110824   5.715   5.922   2.470
 3627TIP3    H210825   5.628   5.868   2.582
 3628TIP3   OH210826   5.932   7.182   3.782
 3628TIP3    H110827   5.963   7.219   3.699
 3628TIP3    H210828   5.849   7.227   3.798
 3629TIP3   OH210829   1.565   1.447   1.500
 3629TIP3    H110830   1.586   1.366   1.453
 3629TIP3    H210831   1.651   1.485   1.520
 3630TIP3   OH210832   1.466   4.663   2.035
 3630TIP3    H110833   1.440   4.623   1.951
 3630TIP3    H210834   1.552   4.701   2.017
 3631TIP3   OH210835   6.484   2.567   4.419
 3631TIP3    H110836   6.546   2.555   4.348
 3631TIP3    H210837   6.474   2.662   4.428
 3632TIP3   OH210838   4.309   7.822   4.583
 3632TIP3    H110839   4.340   7.740   4.621
 3632TIP3    H210840   4.319   7.886   4.654
 3633TIP3   OH210841   6.491   5.588   4.284
 3633TIP3    H110842   6.419   5.641   4.318
 3633TIP3    H210843   6.449   5.523   4.228
 3634TIP3   OH210844   8.241   3.976   1.237
 3634TIP3    H110845   8.159   4.018   1.212
 3634TIP3    H210846   8.294   3.978   1.157
 3635TIP3   OH210847   6.197   1.030   1.674
 3635TIP3    H110848   6.197   1.056   1.582
 3635TIP3    H210849   6.140   1.093   1.717
 3636TIP3   OH210850   3.000   2.928   3.488
 3636TIP3    H110851   2.957   2.967   3.565
 3636TIP3    H210852   3.091   2.917   3.515
 3637TIP3   OH210853   4.485   4.784   2.747
 3637TIP3    H110854   4.492   4.830   2.831
 3637TIP3    H210855   4.574   4.787   2.711
 3638TIP3   OH210856   4.477   3.195   6.677
 3638TIP3    H110857   4.521   3.254   6.738
 3638TIP3    H210858   4.414   3.251   6.632
 3639TIP3   OH210859   4.311   3.132   0.194
 3639TIP3    H110860   4.249   3.192   0.152
 3639TIP3    H210861   4.397   3.171   0.179
 3640TIP3   OH210862   3.670   6.446   2.137
 3640TIP3    H110863   3.604   6.406   2.194
 3640TIP3    H210864   3.750   6.397   2.156
 3641TIP3   OH210865   5.627   6.897   6.499
 3641TIP3    H110866   5.595   6.986   6.486
 3641TIP3    H210867   5.551   6.850   6.535
 3642TIP3   OH210868   4.544   3.898   2.158
 3642TIP3    H110869   4.512   3.850   2.234
 3642TIP3    H210870   4.639   3.883   2.158
 3643TIP3   OH210871   5.657   1.038   6.258
 3643TIP3    H110872   5.704   1.071   6.181
 3643TIP3    H210873   5.582   0.990   6.221
 3644TIP3   OH210874   4.302   1.634   4.814
 3644TIP3    H110875   4.283   1.599   4.727
 3644TIP3    H210876   4.398   1.628   4.821
 3645TIP3   OH210877   5.000   1.934   4.081
 3645TIP3    H110878   4.978   1.842   4.099
 3645TIP3    H210879   5.029   1.968   4.165
 3646TIP3   OH210880   4.101   3.828   5.650
 3646TIP3    H110881   4.120   3.746   5.605
 3646TIP3    H210882   4.123   3.811   5.742
 3647TIP3   OH210883   6.249   4.545   2.091
 3647TIP3    H110884   6.327   4.578   2.046
 3647TIP3    H210885   6.258   4.579   2.181
 3648TIP3   OH210886   1.798   5.650   6.587
 3648TIP3    H110887   1.709   5.621   6.610
 3648TIP3    H210888   1.836   5.577   6.540
 3649TIP3   OH210889   0.117   2.762   4.848
 3649TIP3    H110890   0.132   2.819   4.772
 3649TIP3    H210891   0.192   2.701   4.847
 3650TIP3   OH210892   4.590   7.455   6.354
 3650TIP3    H110893   4.674   7.454   6.401
 3650TIP3    H210894   4.615   7.473   6.263
 3651TIP3   OH210895   5.549   0.930   2.449
 3651TIP3    H110896   5.488   0.986   2.400
 3651TIP3    H210897   5.507   0.844   2.450
 3652TIP3   OH210898   2.281   2.442   2.861
 3652TIP3    H110899   2.308   2.532   2.844
 3652TIP3    H210900   2.357   2.401   2.903
 3653TIP3   OH210901   6.892   3.721   1.020
 3653TIP3    H110902   6.935   3.738   0.936
 3653TIP3    H210903   6.845   3.639   1.008
 3654TIP3   OH210904   3.671   0.482   3.716
 3654TIP3    H110905   3.628   0.567   3.703
 3654TIP3    H210906   3.728   0.472   3.640
 3655TIP3   OH210907   0.931   7.693   5.317
 3655TIP3    H110908   0.975   7.667   5.236
 3655TIP3    H210909   0.861   7.629   5.328
 3656TIP3   OH210910   1.541   5.327   0.389
 3656TIP3    H110911   1.566   5.413   0.422
 3656TIP3    H210912   1.475   5.296   0.452
 3657TIP3   OH210913   0.275   4.370   0.922
 3657TIP3    H110914   0.365   4.346   0.899
 3657TIP3    H210915   0.282   4.458   0.959
 3658TIP3   OH210916   0.381   6.306   1.762
 3658TIP3    H110917   0.387   6.308   1.858
 3658TIP3    H210918   0.468   6.334   1.732
 3659TIP3   OH210919   1.054   0.218   1.139
 3659TIP3    H110920   1.050   0.227   1.044
 3659TIP3    H210921   0.992   0.148   1.159
 3660TIP3   OH210922   4.257   1.870   0.830
 3660TIP3    H110923   4.180   1.927   0.820
 3660TIP3    H210924   4.236   1.793   0.778
 3661TIP3   OH210925   5.571   5.757   5.880
 3661TIP3    H110926   5.537   5.679   5.924
 3661TIP3    H210927   5.539   5.830   5.932
 3662TIP3   OH210928   5.463   3.804   0.962
 3662TIP3    H110929   5.406   3.874   0.996
 3662TIP3    H210930   5.453   3.733   1.025
 3663TIP3   OH210931   5.071   2.940   5.465
 3663TIP3    H110932   5.098   2.860   5.509
 3663TIP3    H210933   5.140   3.003   5.485
 3664TIP3   OH210934   2.520   5.772   3.305
 3664TIP3    H110935   2.478   5.712   3.367
 3664TIP3    H210936   2.461   5.847   3.301
 3665TIP3   OH210937   6.323   1.345   3.035
 3665TIP3    H110938   6.358   1.264   3.071
 3665TIP3    H210939   6.291   1.322   2.948
 3666TIP3   OH210940   0.829   4.199   1.663
 3666TIP3    H110941   0.872   4.283   1.649
 3666TIP3    H210942   0.893   4.133   1.635
 3667TIP3   OH210943   3.856   7.030   2.757
 3667TIP3    H110944   3.783   7.068   2.710
 3667TIP3    H210945   3.884   7.099   2.818
 3668TIP3   OH210946   1.382   0.408   6.038
 3668TIP3    H110947   1.471   0.404   6.004
 3668TIP3    H210948   1.333   0.346   5.983
 3669TIP3   OH210949   3.987   1.729   3.618
 3669TIP3    H110950   4.038   1.736   3.699
 3669TIP3    H210951   3.952   1.817   3.603
 3670TIP3   OH210952   5.142   5.162   1.638
 3670TIP3    H110953   5.087   5.106   1.693
 3670TIP3    H210954   5.106   5.154   1.550
 3671TIP3   OH210955   6.733   4.290   1.682
 3671TIP3    H110956   6.717   4.288   1.776
 3671TIP3    H210957   6.776   4.206   1.663
 3672TIP3   OH210958   4.643   1.444   6.172
 3672TIP3    H110959   4.725   1.412   6.133
 3672TIP3    H210960   4.647   1.539   6.162
 3673TIP3   OH210961   3.859   1.541   4.039
 3673TIP3    H110962   3.940   1.513   3.997
 3673TIP3    H210963   3.791   1.486   3.999
 3674TIP3   OH210964   1.549   1.756   2.885
 3674TIP3    H110965   1.474   1.713   2.927
 3674TIP3    H210966   1.569   1.701   2.810
 3675TIP3   OH210967   4.381   5.315   5.233
 3675TIP3    H110968   4.341   5.400   5.214
 3675TIP3    H210969   4.359   5.298   5.325
 3676TIP3   OH210970   7.744   2.738   0.040
 3676TIP3    H110971   7.738   2.686  -0.040
 3676TIP3    H210972   7.720   2.678   0.110
 3677TIP3   OH210973   0.504   6.046   4.591
 3677TIP3    H110974   0.462   6.116   4.640
 3677TIP3    H210975   0.575   6.089   4.543
 3678TIP3   OH210976   2.324   2.960   5.174
 3678TIP3    H110977   2.231   2.979   5.187
 3678TIP3    H210978   2.341   2.985   5.084
 3679TIP3   OH210979   0.382   0.704   0.941
 3679TIP3    H110980   0.381   0.631   1.003
 3679TIP3    H210981   0.474   0.729   0.935
 3680TIP3   OH210982   4.352   4.042   4.705
 3680TIP3    H110983   4.362   3.950   4.729
 3680TIP3    H210984   4.299   4.041   4.626
 3681TIP3   OH210985   0.658   1.376   3.042
 3681TIP3    H110986   0.704   1.422   3.112
 3681TIP3    H210987   0.728   1.348   2.982
 3682TIP3   OH210988   0.364   2.486   2.107
 3682TIP3    H110989   0.408   2.555   2.058
 3682TIP3    H210990   0.434   2.429   2.137
 3683TIP3   OH210991   6.353   0.860   3.814
 3683TIP3    H110992   6.354   0.923   3.742
 3683TIP3    H210993   6.271   0.812   3.804
 3684TIP3   OH210994   1.706   7.490   1.040
 3684TIP3    H110995   1.641   7.470   1.107
 3684TIP3    H210996   1.782   7.522   1.088
 3685TIP3   OH210997   6.247   7.508   1.953
 3685TIP3    H110998   6.330   7.499   1.999
 3685TIP3    H210999   6.185   7.537   2.020
 3686TIP3   OH211000   5.594   4.454   0.415
 3686TIP3    H111001   5.540   4.529   0.392
 3686TIP3    H211002   5.537   4.378   0.398
 3687TIP3   OH211003   4.059   4.618   0.179
 3687TIP3    H111004   3.996   4.672   0.131
 3687TIP3    H211005   4.070   4.539   0.124
 3688TIP3   OH211006   2.681   5.917   1.249
 3688TIP3    H111007   2.734   5.903   1.327
 3688TIP3    H211008   2.716   5.997   1.210
 3689TIP3   OH211009   4.253   4.650   3.729
 3689TIP3    H111010   4.282   4.675   3.641
 3689TIP3    H211011   4.276   4.725   3.784
 3690TIP3   OH211012   3.945   5.279   1.446
 3690TIP3    H111013   3.864   5.230   1.442
 3690TIP3    H211014   3.918   5.369   1.467
 3691TIP3   OH211015   3.143   1.414   4.908
 3691TIP3    H111016   3.066   1.358   4.896
 3691TIP3    H211017   3.200   1.363   4.967
 3692TIP3   OH211018   4.366   3.799   3.512
 3692TIP3    H111019   4.402   3.762   3.431
 3692TIP3    H211020   4.399   3.889   3.514
 3693TIP3   OH211021   0.680   3.604   2.718
 3693TIP3    H111022   0.597   3.610   2.764
 3693TIP3    H211023   0.741   3.654   2.772
 3694TIP3   OH211024   5.606   1.020   2.699
 3694TIP3    H111025   5.597   0.983   2.611
 3694TIP3    H211026   5.549   1.097   2.698
 3695TIP3   OH211027   0.440   6.908   2.804
 3695TIP3    H111028   0.413   6.952   2.724
 3695TIP3    H211029   0.530   6.879   2.787
 3696TIP3   OH211030   4.868   5.954   4.386
 3696TIP3    H111031   4.917   6.016   4.332
 3696TIP3    H211032   4.777   5.981   4.378
 3697TIP3   OH211033   4.265   3.637   4.341
 3697TIP3    H111034   4.340   3.614   4.395
 3697TIP3    H211035   4.251   3.730   4.356
 3698TIP3   OH211036   4.941   4.287   1.986
 3698TIP3    H111037   4.853   4.321   1.969
 3698TIP3    H211038   4.949   4.210   1.930
 3699TIP3   OH211039   4.005   5.060   1.624
 3699TIP3    H111040   3.945   5.043   1.697
 3699TIP3    H211041   3.975   5.143   1.588
 3700TIP3   OH211042   8.284   4.930   4.128
 3700TIP3    H111043   8.207   4.979   4.099
 3700TIP3    H211044   8.349   4.997   4.148
 3701TIP3   OH211045   7.549   5.293   6.607
 3701TIP3    H111046   7.560   5.199   6.593
 3701TIP3    H211047   7.634   5.331   6.585
 3702TIP3   OH211048   3.228   3.544   5.337
 3702TIP3    H111049   3.303   3.543   5.397
 3702TIP3    H211050   3.225   3.633   5.304
 3703TIP3   OH211051   6.185   0.847   5.573
 3703TIP3    H111052   6.193   0.760   5.534
 3703TIP3    H211053   6.274   0.871   5.598
 3704TIP3   OH211054   3.358   6.101   2.595
 3704TIP3    H111055   3.438   6.056   2.622
 3704TIP3    H211056   3.368   6.190   2.629
 3705TIP3   OH211057   7.252   4.392   2.375
 3705TIP3    H111058   7.322   4.327   2.367
 3705TIP3    H211059   7.218   4.380   2.463
 3706TIP3   OH211060   1.652   5.761   3.900
 3706TIP3    H111061   1.560   5.754   3.875
 3706TIP3    H211062   1.700   5.729   3.825
 3707TIP3   OH211063   4.209   3.228   6.364
 3707TIP3    H111064   4.131   3.273   6.333
 3707TIP3    H211065   4.180   3.185   6.445
 3708TIP3   OH211066   7.728   1.510   4.211
 3708TIP3    H111067   7.637   1.483   4.195
 3708TIP3    H211068   7.723   1.604   4.228
 3709TIP3   OH211069   5.316   7.243   2.992
 3709TIP3    H111070   5.337   7.216   2.903
 3709TIP3    H211071   5.380   7.311   3.012
 3710TIP3   OH211072   1.404   0.086   6.429
 3710TIP3    H111073   1.408   0.181   6.432
 3710TIP3    H211074   1.423   0.058   6.518
 3711TIP3   OH211075   6.602   1.329   4.512
 3711TIP3    H111076   6.540   1.338   4.585
 3711TIP3    H211077   6.556   1.365   4.437
 3712TIP3   OH211078   0.395   4.299   3.461
 3712TIP3    H111079   0.433   4.231   3.516
 3712TIP3    H211080   0.420   4.381   3.504
 3713TIP3   OH211081   7.170   1.061   4.290
 3713TIP3    H111082   7.123   1.137   4.323
 3713TIP3    H211083   7.160   0.995   4.359
 3714TIP3   OH211084   1.811   1.801   4.481
 3714TIP3    H111085   1.890   1.770   4.438
 3714TIP3    H211086   1.776   1.867   4.421
 3715TIP3   OH211087   6.665   5.569   6.322
 3715TIP3    H111088   6.635   5.615   6.243
 3715TIP3    H211089   6.759   5.556   6.307
 3716TIP3   OH211090   1.820   6.142   0.232
 3716TIP3    H111091   1.747   6.104   0.183
 3716TIP3    H211092   1.884   6.166   0.165
 3717TIP3   OH211093   0.127   1.770   2.783
 3717TIP3    H111094   0.064   1.833   2.820
 3717TIP3    H211095   0.183   1.747   2.857
 3718TIP3   OH211096   2.253   0.222   5.773
 3718TIP3    H111097   2.243   0.290   5.707
 3718TIP3    H211098   2.344   0.196   5.767
 3719TIP3   OH211099   5.020   1.288   6.587
 3719TIP3    H111100   5.044   1.330   6.670
 3719TIP3    H211101   4.927   1.267   6.598
 3720TIP3   OH211102   2.624   7.293   3.409
 3720TIP3    H111103   2.678   7.216   3.392
 3720TIP3    H211104   2.665   7.363   3.358
 3721TIP3   OH211105   8.113   5.612   3.198
 3721TIP3    H111106   8.130   5.584   3.288
 3721TIP3    H211107   8.108   5.708   3.204
 3722TIP3   OH211108   2.000   6.561   3.575
 3722TIP3    H111109   2.065   6.630   3.564
 3722TIP3    H211110   1.970   6.570   3.665
 3723TIP3   OH211111   1.953   1.406   0.463
 3723TIP3    H111112   1.973   1.493   0.499
 3723TIP3    H211113   1.983   1.345   0.531
 3724TIP3   OH211114   6.423   0.411   4.958
 3724TIP3    H111115   6.407   0.329   5.005
 3724TIP3    H211116   6.337   0.454   4.956
 3725TIP3   OH211117   2.447   6.257   0.511
 3725TIP3    H111118   2.381   6.188   0.507
 3725TIP3    H211119   2.397   6.337   0.525
 3726TIP3   OH211120   2.847   5.557   3.310
 3726TIP3    H111121   2.835   5.650   3.328
 3726TIP3    H211122   2.940   5.541   3.328
 3727TIP3   OH211123   3.335   1.493   6.519
 3727TIP3    H111124   3.317   1.469   6.610
 3727TIP3    H211125   3.413   1.548   6.524
 3728TIP3   OH211126   6.963   4.002   4.640
 3728TIP3    H111127   7.023   3.983   4.712
 3728TIP3    H211128   6.929   4.089   4.659
 3729TIP3   OH211129   3.658   5.895   4.566
 3729TIP3    H111130   3.685   5.845   4.644
 3729TIP3    H211131   3.594   5.958   4.599
 3730TIP3   OH211132   1.626   4.279   5.419
 3730TIP3    H111133   1.609   4.372   5.404
 3730TIP3    H211134   1.695   4.278   5.485
 3731TIP3   OH211135   2.676   1.628   4.301
 3731TIP3    H111136   2.652   1.712   4.339
 3731TIP3    H211137   2.724   1.650   4.221
 3732TIP3   OH211138   7.157   6.923   0.980
 3732TIP3    H111139   7.123   7.004   1.019
 3732TIP3    H211140   7.159   6.940   0.886
 3733TIP3   OH211141   5.068   6.350   3.152
 3733TIP3    H111142   5.160   6.374   3.143
 3733TIP3    H211143   5.055   6.338   3.246
 3734TIP3   OH211144   4.665   0.082   2.191
 3734TIP3    H111145   4.623   0.148   2.137
 3734TIP3    H211146   4.665   0.003   2.137
 3735TIP3   OH211147   2.655   0.714   4.546
 3735TIP3    H111148   2.560   0.711   4.541
 3735TIP3    H211149   2.677   0.807   4.542
 3736TIP3   OH211150   0.716   2.944   6.236
 3736TIP3    H111151   0.771   2.967   6.161
 3736TIP3    H211152   0.776   2.906   6.300
 3737TIP3   OH211153   7.172   1.260   2.061
 3737TIP3    H111154   7.129   1.177   2.040
 3737TIP3    H211155   7.198   1.250   2.153
 3738TIP3   OH211156   5.126   0.152   2.100
 3738TIP3    H111157   5.210   0.113   2.124
 3738TIP3    H211158   5.149   0.234   2.057
 3739TIP3   OH211159   5.184   0.630   1.991
 3739TIP3    H111160   5.203   0.536   1.983
 3739TIP3    H211161   5.099   0.640   1.948
 3740TIP3   OH211162   3.857   2.281   0.712
 3740TIP3    H111163   3.917   2.316   0.645
 3740TIP3    H211164   3.914   2.253   0.783
 3741TIP3   OH211165  -0.028   3.309   2.687
 3741TIP3    H111166  -0.055   3.338   2.774
 3741TIP3    H211167   0.038   3.241   2.704
 3742TIP3   OH211168   0.517   4.053   0.819
 3742TIP3    H111169   0.498   3.987   0.753
 3742TIP3    H211170   0.612   4.056   0.823
 3743TIP3   OH211171   2.625   6.720   4.115
 3743TIP3    H111172   2.555   6.771   4.074
 3743TIP3    H211173   2.587   6.634   4.129
 3744TIP3   OH211174   4.649   5.056   2.619
 3744TIP3    H111175   4.684   5.088   2.701
 3744TIP3    H211176   4.572   5.111   2.602
 3745TIP3   OH211177   8.191   1.517   1.992
 3745TIP3    H111178   8.171   1.603   2.027
 3745TIP3    H211179   8.180   1.457   2.066
 3746TIP3   OH211180   7.331   6.857   1.185
 3746TIP3    H111181   7.271   6.894   1.121
 3746TIP3    H211182   7.275   6.806   1.244
 3747TIP3   OH211183   8.247   6.376   3.570
 3747TIP3    H111184   8.172   6.421   3.609
 3747TIP3    H211185   8.301   6.351   3.645
 3748TIP3   OH211186   3.844   3.950   6.634
 3748TIP3    H111187   3.754   3.918   6.631
 3748TIP3    H211188   3.845   4.022   6.570
 3749TIP3   OH211189   6.531   1.467   3.795
 3749TIP3    H111190   6.597   1.398   3.807
 3749TIP3    H211191   6.489   1.446   3.712
 3750TIP3   OH211192   1.180   2.741   5.501
 3750TIP3    H111193   1.095   2.778   5.479
 3750TIP3    H211194   1.207   2.788   5.581
 3751TIP3   OH211195   6.057   4.265  -0.006
 3751TIP3    H111196   6.047   4.215   0.076
 3751TIP3    H211197   6.102   4.204  -0.065
 3752TIP3   OH211198   6.766   3.612   1.245
 3752TIP3    H111199   6.688   3.603   1.190
 3752TIP3    H211200   6.821   3.676   1.199
 3753TIP3   OH211201   6.784   1.318   0.125
 3753TIP3    H111202   6.814   1.277   0.207
 3753TIP3    H211203   6.797   1.250   0.059
 3754TIP3   OH211204   0.871   3.402   3.492
 3754TIP3    H111205   0.791   3.350   3.494
 3754TIP3    H211206   0.858   3.470   3.558
 3755TIP3   OH211207   1.161   4.098   4.059
 3755TIP3    H111208   1.238   4.041   4.062
 3755TIP3    H211209   1.187   4.175   4.110
 3756TIP3   OH211210   2.680   1.307   6.087
 3756TIP3    H111211   2.629   1.376   6.131
 3756TIP3    H211212   2.616   1.238   6.070
 3757TIP3   OH211213   3.098   3.657   1.254
 3757TIP3    H111214   3.118   3.686   1.343
 3757TIP3    H211215   3.005   3.674   1.243
 3758TIP3   OH211216   6.740   6.130   5.571
 3758TIP3    H111217   6.740   6.121   5.476
 3758TIP3    H211218   6.807   6.195   5.589
 3759TIP3   OH211219   1.369  -0.003   3.815
 3759TIP3    H111220   1.372   0.092   3.824
 3759TIP3    H211221   1.324  -0.017   3.731
 3760TIP3   OH211222   2.201   3.049   0.122
 3760TIP3    H111223   2.181   3.050   0.216
 3760TIP3    H211224   2.268   3.116   0.111
 3761TIP3   OH211225   2.951   3.473   1.537
 3761TIP3    H111226   2.861   3.468   1.506
 3761TIP3    H211227   2.957   3.410   1.608
 3762TIP3   OH211228   1.132   4.787   5.254
 3762TIP3    H111229   1.162   4.869   5.295
 3762TIP3    H211230   1.042   4.777   5.286
 3763TIP3   OH211231   3.265   6.494   6.034
 3763TIP3    H111232   3.329   6.564   6.049
 3763TIP3    H211233   3.249   6.456   6.120
 3764TIP3   OH211234   1.619   6.577   2.267
 3764TIP3    H111235   1.648   6.618   2.186
 3764TIP3    H211236   1.588   6.650   2.321
 3765TIP3   OH211237   6.582   4.674   4.878
 3765TIP3    H111238   6.551   4.765   4.879
 3765TIP3    H211239   6.533   4.632   4.807
 3766TIP3   OH211240   4.429   5.964   4.815
 3766TIP3    H111241   4.426   6.056   4.841
 3766TIP3    H211242   4.509   5.930   4.856
 3767TIP3   OH211243   4.684   4.761   0.821
 3767TIP3    H111244   4.698   4.744   0.914
 3767TIP3    H211245   4.588   4.762   0.811
 3768TIP3   OH211246   6.140   5.387   2.190
 3768TIP3    H111247   6.200   5.405   2.263
 3768TIP3    H211248   6.197   5.357   2.120
 3769TIP3   OH211249   5.696   2.867   3.523
 3769TIP3    H111250   5.715   2.909   3.607
 3769TIP3    H211251   5.641   2.930   3.476
 3770TIP3   OH211252   6.031   3.135   6.716
 3770TIP3    H111253   6.058   3.108   6.628
 3770TIP3    H211254   6.090   3.089   6.775
 3771TIP3   OH211255   3.110   2.004   2.688
 3771TIP3    H111256   3.197   2.022   2.652
 3771TIP3    H211257   3.123   1.930   2.747
 3772TIP3   OH211258   2.350   1.857   6.408
 3772TIP3    H111259   2.384   1.905   6.332
 3772TIP3    H211260   2.426   1.814   6.446
 3773TIP3   OH211261   0.455   5.939   5.152
 3773TIP3    H111262   0.436   6.031   5.132
 3773TIP3    H211263   0.526   5.943   5.216
 3774TIP3   OH211264   2.399   5.339   0.052
 3774TIP3    H111265   2.334   5.393   0.007
 3774TIP3    H211266   2.481   5.388   0.042
 3775TIP3   OH211267   1.265   1.643   0.114
 3775TIP3    H111268   1.310   1.560   0.100
 3775TIP3    H211269   1.175   1.619   0.137
 3776TIP3   OH211270   6.867   7.487   1.062
 3776TIP3    H111271   6.799   7.548   1.034
 3776TIP3    H211272   6.906   7.455   0.981
 3777TIP3   OH211273   1.720   6.668   4.836
 3777TIP3    H111274   1.761   6.607   4.897
 3777TIP3    H211275   1.709   6.748   4.887
 3778TIP3   OH211276   1.418   4.833   3.520
 3778TIP3    H111277   1.359   4.784   3.463
 3778TIP3    H211278   1.452   4.767   3.581
 3779TIP3   OH211279   7.000   0.679   4.845
 3779TIP3    H111280   6.934   0.637   4.901
 3779TIP3    H211281   6.980   0.649   4.757
 3780TIP3   OH211282   5.244   5.887   4.365
 3780TIP3    H111283   5.220   5.969   4.321
 3780TIP3    H211284   5.270   5.913   4.453
 3781TIP3   OH211285   6.617   4.259   5.826
 3781TIP3    H111286   6.636   4.351   5.811
 3781TIP3    H211287   6.586   4.255   5.916
 3782TIP3   OH211288   6.841   7.315   5.843
 3782TIP3    H111289   6.822   7.319   5.936
 3782TIP3    H211290   6.872   7.402   5.820
 3783TIP3   OH211291   3.149   3.763   0.710
 3783TIP3    H111292   3.241   3.746   0.693
 3783TIP3    H211293   3.123   3.697   0.774
 3784TIP3   OH211294   5.324   6.676   1.918
 3784TIP3    H111295   5.396   6.690   1.856
 3784TIP3    H211296   5.264   6.748   1.902
 3785TIP3   OH211297   7.476   0.365   3.436
 3785TIP3    H111298   7.504   0.292   3.381
 3785TIP3    H211299   7.391   0.339   3.469
 3786TIP3   OH211300   5.637   1.189   5.844
 3786TIP3    H111301   5.590   1.214   5.924
 3786TIP3    H211302   5.618   1.096   5.833
 3787TIP3   OH211303   2.935   6.151   4.613
 3787TIP3    H111304   2.844   6.179   4.616
 3787TIP3    H211305   2.937   6.080   4.549
 3788TIP3   OH211306   7.367   7.121   3.601
 3788TIP3    H111307   7.416   7.039   3.600
 3788TIP3    H211308   7.278   7.095   3.623
 3789TIP3   OH211309   2.519   2.034   5.792
 3789TIP3    H111310   2.554   2.005   5.708
 3789TIP3    H211311   2.585   2.096   5.825
 3790TIP3   OH211312   0.051   2.828   1.818
 3790TIP3    H111313   0.031   2.896   1.883
 3790TIP3    H211314  -0.035   2.791   1.797
 3791TIP3   OH211315   7.207   2.406   6.348
 3791TIP3    H111316   7.175   2.358   6.425
 3791TIP3    H211317   7.145   2.384   6.279
 3792TIP3   OH211318   1.105   5.126   5.698
 3792TIP3    H111319   1.072   5.038   5.681
 3792TIP3    H211320   1.036   5.185   5.667
 3793TIP3   OH211321   3.369   2.632   6.423
 3793TIP3    H111322   3.425   2.571   6.471
 3793TIP3    H211323   3.417   2.651   6.342
 3794TIP3   OH211324   1.459   6.094   6.103
 3794TIP3    H111325   1.539   6.133   6.139
 3794TIP3    H211326   1.486   6.006   6.075
 3795TIP3   OH211327   1.257   7.806   4.515
 3795TIP3    H111328   1.260   7.755   4.434
 3795TIP3    H211329   1.176   7.777   4.558
 3796TIP3   OH211330   7.095   6.537   0.847
 3796TIP3    H111331   7.128   6.502   0.930
 3796TIP3    H211332   7.174   6.551   0.795
 3797TIP3   OH211333   5.701   2.239   4.691
 3797TIP3    H111334   5.696   2.252   4.785
 3797TIP3    H211335   5.731   2.323   4.656
 3798TIP3   OH211336   7.305   2.147   5.753
 3798TIP3    H111337   7.400   2.160   5.747
 3798TIP3    H211338   7.283   2.177   5.841
 3799TIP3   OH211339   8.244   4.023   0.314
 3799TIP3    H111340   8.154   4.050   0.301
 3799TIP3    H211341   8.247   3.932   0.284
 3800TIP3   OH211342   3.069   2.539   6.739
 3800TIP3    H111343   2.993   2.481   6.737
 3800TIP3    H211344   3.074   2.575   6.650
 3801TIP3   OH211345   4.791   0.722   3.241
 3801TIP3    H111346   4.787   0.812   3.273
 3801TIP3    H211347   4.700   0.695   3.232
 3802TIP3   OH211348   3.302   3.397   0.113
 3802TIP3    H111349   3.354   3.353   0.046
 3802TIP3    H211350   3.235   3.446   0.065
 3803TIP3   OH211351   6.992   2.298   6.146
 3803TIP3    H111352   6.927   2.242   6.188
 3803TIP3    H211353   6.977   2.384   6.184
 3804TIP3   OH211354   6.841   4.393   6.106
 3804TIP3    H111355   6.875   4.468   6.057
 3804TIP3    H211356   6.754   4.422   6.134
 3805TIP3   OH211357   6.438   7.003   2.610
 3805TIP3    H111358   6.505   7.022   2.545
 3805TIP3    H211359   6.485   6.960   2.681
 3806TIP3   OH211360   6.825   1.518   4.363
 3806TIP3    H111361   6.764   1.560   4.424
 3806TIP3    H211362   6.911   1.552   4.388
 3807TIP3   OH211363   0.915   4.215   2.546
 3807TIP3    H111364   0.914   4.309   2.528
 3807TIP3    H211365   0.823   4.189   2.544
 3808TIP3   OH211366   4.878   0.760   6.024
 3808TIP3    H111367   4.947   0.693   6.023
 3808TIP3    H211368   4.824   0.740   5.948
 3809TIP3   OH211369   7.934   1.258   3.275
 3809TIP3    H111370   7.987   1.305   3.210
 3809TIP3    H211371   7.963   1.293   3.359
 3810TIP3   OH211372   6.449   2.389   5.996
 3810TIP3    H111373   6.388   2.460   6.016
 3810TIP3    H211374   6.394   2.317   5.965
 3811TIP3   OH211375   4.990   5.360   2.177
 3811TIP3    H111376   4.912   5.407   2.149
 3811TIP3    H211377   4.962   5.270   2.188
 3812TIP3   OH211378   1.600   1.126   2.347
 3812TIP3    H111379   1.579   1.047   2.298
 3812TIP3    H211380   1.526   1.185   2.331
 3813TIP3   OH211381   2.291   0.499   5.855
 3813TIP3    H111382   2.289   0.406   5.879
 3813TIP3    H211383   2.265   0.545   5.934
 3814TIP3   OH211384   1.055   7.398   2.552
 3814TIP3    H111385   0.994   7.470   2.538
 3814TIP3    H211386   1.097   7.385   2.467
 3815TIP3   OH211387   1.688   7.132   4.274
 3815TIP3    H111388   1.690   7.080   4.355
 3815TIP3    H211389   1.610   7.100   4.228
 3816TIP3   OH211390   6.561   2.164   5.702
 3816TIP3    H111391   6.620   2.114   5.759
 3816TIP3    H211392   6.503   2.098   5.664
 3817TIP3   OH211393   6.870   7.543   5.690
 3817TIP3    H111394   6.955   7.505   5.670
 3817TIP3    H211395   6.850   7.599   5.615
 3818TIP3   OH211396   0.048   4.384   2.553
 3818TIP3    H111397   0.039   4.474   2.523
 3818TIP3    H211398  -0.016   4.375   2.624
 3819TIP3   OH211399   2.364   7.203   3.380
 3819TIP3    H111400   2.456   7.228   3.375
 3819TIP3    H211401   2.353   7.168   3.468
 3820TIP3   OH211402   8.193   4.894   5.425
 3820TIP3    H111403   8.144   4.961   5.377
 3820TIP3    H211404   8.130   4.824   5.441
 3821TIP3   OH211405   7.236   1.546   3.674
 3821TIP3    H111406   7.308   1.604   3.650
 3821TIP3    H211407   7.214   1.501   3.592
 3822TIP3   OH211408   3.463   3.001   2.187
 3822TIP3    H111409   3.496   3.085   2.153
 3822TIP3    H211410   3.541   2.949   2.204
 3823TIP3   OH211411   3.339   1.939   3.994
 3823TIP3    H111412   3.297   1.934   3.908
 3823TIP3    H211413   3.432   1.924   3.976
 3824TIP3   OH211414   2.583   6.763   0.893
 3824TIP3    H111415   2.559   6.805   0.976
 3824TIP3    H211416   2.644   6.824   0.852
 3825TIP3   OH211417   7.511   1.376   0.514
 3825TIP3    H111418   7.518   1.401   0.606
 3825TIP3    H211419   7.525   1.458   0.467
 3826TIP3   OH211420   2.164   2.127   0.116
 3826TIP3    H111421   2.099   2.195   0.099
 3826TIP3    H211422   2.190   2.142   0.207
 3827TIP3   OH211423   5.371   6.955   4.805
 3827TIP3    H111424   5.449   6.918   4.847
 3827TIP3    H211425   5.403   6.993   4.723
 3828TIP3   OH211426   5.807   5.081   5.989
 3828TIP3    H111427   5.754   5.111   5.915
 3828TIP3    H211428   5.870   5.020   5.949
 3829TIP3   OH211429   5.558   0.988   2.994
 3829TIP3    H111430   5.561   0.960   2.903
 3829TIP3    H211431   5.648   1.013   3.014
 3830TIP3   OH211432   4.508   3.580   3.341
 3830TIP3    H111433   4.451   3.504   3.354
 3830TIP3    H211434   4.593   3.541   3.320
 3831TIP3   OH211435   6.865   6.294   6.331
 3831TIP3    H111436   6.884   6.354   6.258
 3831TIP3    H211437   6.801   6.341   6.385
 3832TIP3   OH211438   8.191   2.813   0.665
 3832TIP3    H111439   8.258   2.790   0.729
 3832TIP3    H211440   8.235   2.806   0.580
 3833TIP3   OH211441   5.304   7.066   3.211
 3833TIP3    H111442   5.270   7.118   3.283
 3833TIP3    H211443   5.314   7.128   3.139
 3834TIP3   OH211444   5.412   2.715   6.364
 3834TIP3    H111445   5.446   2.695   6.451
 3834TIP3    H211446   5.339   2.774   6.380
 3835TIP3   OH211447   6.743   1.478   4.708
 3835TIP3    H111448   6.727   1.407   4.770
 3835TIP3    H211449   6.706   1.446   4.626
 3836TIP3   OH211450   1.221   1.961   0.238
 3836TIP3    H111451   1.180   1.876   0.255
 3836TIP3    H211452   1.148   2.019   0.217
 3837TIP3   OH211453   3.562   7.193   0.501
 3837TIP3    H111454   3.504   7.267   0.482
 3837TIP3    H211455   3.517   7.117   0.465
 3838TIP3   OH211456   1.396   3.372   4.398
 3838TIP3    H111457   1.321   3.339   4.348
 3838TIP3    H211458   1.420   3.453   4.353
 3839TIP3   OH211459   2.504   4.018   2.987
 3839TIP3    H111460   2.563   4.092   2.998
 3839TIP3    H211461   2.558   3.949   2.949
 3840TIP3   OH211462   3.214   4.578   0.541
 3840TIP3    H111463   3.279   4.526   0.589
 3840TIP3    H211464   3.130   4.547   0.575
 3841TIP3   OH211465   5.171   2.079   6.359
 3841TIP3    H111466   5.207   2.124   6.435
 3841TIP3    H211467   5.077   2.073   6.377
 3842TIP3   OH211468   4.566   7.076   5.217
 3842TIP3    H111469   4.637   7.017   5.240
 3842TIP3    H211470   4.568   7.143   5.286
 3843TIP3   OH211471   1.049   4.667   3.240
 3843TIP3    H111472   0.969   4.690   3.287
 3843TIP3    H211473   1.026   4.590   3.188
 3844TIP3   OH211474   5.188   0.242   5.687
 3844TIP3    H111475   5.180   0.231   5.782
 3844TIP3    H211476   5.098   0.244   5.655
 3845TIP3   OH211477   2.188   6.733   2.244
 3845TIP3    H111478   2.185   6.828   2.247
 3845TIP3    H211479   2.102   6.706   2.277
 3846TIP3   OH211480   2.040   6.246   4.380
 3846TIP3    H111481   1.950   6.235   4.351
 3846TIP3    H211482   2.080   6.160   4.367
 3847TIP3   OH211483   2.083   7.592   0.719
 3847TIP3    H111484   2.153   7.531   0.695
 3847TIP3    H211485   2.104   7.673   0.673
 3848TIP3   OH211486   3.453   1.995   1.115
 3848TIP3    H111487   3.533   2.032   1.154
 3848TIP3    H211488   3.384   2.058   1.138
 3849TIP3   OH211489   5.362   3.665   1.346
 3849TIP3    H111490   5.458   3.664   1.346
 3849TIP3    H211491   5.338   3.618   1.267
 3850TIP3   OH211492   4.471   7.208   1.940
 3850TIP3    H111493   4.529   7.135   1.961
 3850TIP3    H211494   4.392   7.191   1.992
 3851TIP3   OH211495   3.461   3.785   4.766
 3851TIP3    H111496   3.440   3.710   4.823
 3851TIP3    H211497   3.505   3.746   4.691
 3852TIP3   OH211498   3.739   5.706   2.695
 3852TIP3    H111499   3.828   5.699   2.730
 3852TIP3    H211500   3.713   5.615   2.679
 3853TIP3   OH211501   1.924   3.642   1.419
 3853TIP3    H111502   1.955   3.552   1.406
 3853TIP3    H211503   1.835   3.642   1.384
 3854TIP3   OH211504   1.386   0.951   4.159
 3854TIP3    H111505   1.453   0.884   4.147
 3854TIP3    H211506   1.304   0.902   4.168
 3855TIP3   OH211507   0.849   2.644   4.316
 3855TIP3    H111508   0.902   2.675   4.242
 3855TIP3    H211509   0.802   2.569   4.282
 3856TIP3   OH211510   0.798   5.919   5.988
 3856TIP3    H111511   0.768   5.996   5.940
 3856TIP3    H211512   0.866   5.952   6.046
 3857TIP3   OH211513   3.837   3.472   1.271
 3857TIP3    H111514   3.806   3.391   1.312
 3857TIP3    H211515   3.932   3.470   1.285
 3858TIP3   OH211516   7.136   5.456   1.949
 3858TIP3    H111517   7.160   5.377   1.901
 3858TIP3    H211518   7.206   5.468   2.012
 3859TIP3   OH211519   1.149   2.476   5.095
 3859TIP3    H111520   1.198   2.537   5.150
 3859TIP3    H211521   1.180   2.492   5.006
 3860TIP3   OH211522   7.863   1.464   5.247
 3860TIP3    H111523   7.786   1.435   5.199
 3860TIP3    H211524   7.845   1.555   5.269
 3861TIP3   OH211525   0.481   4.342   1.246
 3861TIP3    H111526   0.516   4.359   1.334
 3861TIP3    H211527   0.405   4.286   1.261
 3862TIP3   OH211528   3.451   3.927   5.108
 3862TIP3    H111529   3.502   3.845   5.110
 3862TIP3    H211530   3.476   3.972   5.188
 3863TIP3   OH211531   4.415   4.704   3.183
 3863TIP3    H111532   4.406   4.789   3.139
 3863TIP3    H211533   4.496   4.668   3.149
 3864TIP3   OH211534   6.059   1.281   1.015
 3864TIP3    H111535   6.129   1.217   1.000
 3864TIP3    H211536   6.092   1.362   0.974
 3865TIP3   OH211537   3.292   5.567   0.973
 3865TIP3    H111538   3.356   5.516   1.022
 3865TIP3    H211539   3.310   5.658   0.997
 3866TIP3   OH211540   3.360   4.545   2.329
 3866TIP3    H111541   3.325   4.487   2.261
 3866TIP3    H211542   3.450   4.563   2.301
 3867TIP3   OH211543   1.697   3.033   2.521
 3867TIP3    H111544   1.708   2.978   2.598
 3867TIP3    H211545   1.785   3.039   2.483
 3868TIP3   OH211546   6.958   4.216   5.003
 3868TIP3    H111547   6.938   4.123   5.003
 3868TIP3    H211548   6.910   4.252   5.078
 3869TIP3   OH211549   7.731   0.566   3.717
 3869TIP3    H111550   7.679   0.558   3.796
 3869TIP3    H211551   7.685   0.632   3.664
 3870TIP3   OH211552   5.489   4.983   6.531
 3870TIP3    H111553   5.412   5.000   6.585
 3870TIP3    H211554   5.466   4.907   6.478
 3871TIP3   OH211555   4.590   5.826   5.053
 3871TIP3    H111556   4.621   5.804   5.141
 3871TIP3    H211557   4.669   5.832   5.000
 3872TIP3   OH211558   0.924   7.324   5.516
 3872TIP3    H111559   0.881   7.406   5.540
 3872TIP3    H211560   0.929   7.274   5.597
 3873TIP3   OH211561   0.264   1.754   4.818
 3873TIP3    H111562   0.214   1.777   4.896
 3873TIP3    H211563   0.217   1.679   4.781
 3874TIP3   OH211564   5.724   0.143   2.782
 3874TIP3    H111565   5.820   0.140   2.775
 3874TIP3    H211566   5.705   0.235   2.802
 3875TIP3   OH211567   0.493   0.163   5.467
 3875TIP3    H111568   0.543   0.196   5.542
 3875TIP3    H211569   0.448   0.240   5.432
 3876TIP3   OH211570   0.856   4.993   2.472
 3876TIP3    H111571   0.931   5.002   2.415
 3876TIP3    H211572   0.781   4.983   2.413
 3877TIP3   OH211573   5.159   2.977   0.881
 3877TIP3    H111574   5.157   2.923   0.803
 3877TIP3    H211575   5.204   2.923   0.947
 3878TIP3   OH211576   1.140   5.883   2.444
 3878TIP3    H111577   1.187   5.966   2.447
 3878TIP3    H211578   1.058   5.900   2.490
 3879TIP3   OH211579   4.529   1.581   5.610
 3879TIP3    H111580   4.561   1.526   5.539
 3879TIP3    H211581   4.512   1.521   5.682
 3880TIP3   OH211582   0.743   7.482   2.730
 3880TIP3    H111583   0.782   7.498   2.644
 3880TIP3    H211584   0.801   7.527   2.791
 3881TIP3   OH211585   3.917   5.227   4.819
 3881TIP3    H111586   3.826   5.237   4.790
 3881TIP3    H211587   3.956   5.314   4.807
 3882TIP3   OH211588   2.541   1.878   3.060
 3882TIP3    H111589   2.595   1.800   3.072
 3882TIP3    H211590   2.543   1.896   2.966
 3883TIP3   OH211591   4.926   5.646   6.497
 3883TIP3    H111592   4.884   5.590   6.562
 3883TIP3    H211593   4.959   5.585   6.431
 3884TIP3   OH211594   5.108   2.191   2.731
 3884TIP3    H111595   5.161   2.228   2.661
 3884TIP3    H211596   5.169   2.182   2.805
 3885TIP3   OH211597   1.915   2.509   4.408
 3885TIP3    H111598   1.924   2.566   4.484
 3885TIP3    H211599   1.887   2.425   4.445
 3886TIP3   OH211600   3.641   7.484   6.156
 3886TIP3    H111601   3.615   7.406   6.108
 3886TIP3    H211602   3.690   7.451   6.231
 3887TIP3   OH211603   8.072   2.751   4.523
 3887TIP3    H111604   8.091   2.705   4.442
 3887TIP3    H211605   8.106   2.839   4.509
 3888TIP3   OH211606   6.731   1.252   0.553
 3888TIP3    H111607   6.761   1.343   0.548
 3888TIP3    H211608   6.789   1.204   0.495
 3889TIP3   OH211609   2.529   3.444   1.928
 3889TIP3    H111610   2.508   3.536   1.912
 3889TIP3    H211611   2.624   3.442   1.934
 3890TIP3   OH211612   1.797   6.221   3.793
 3890TIP3    H111613   1.739   6.282   3.839
 3890TIP3    H211614   1.743   6.187   3.721
 3891TIP3   OH211615   2.351   6.427   5.196
 3891TIP3    H111616   2.343   6.416   5.291
 3891TIP3    H211617   2.369   6.339   5.163
 3892TIP3   OH211618   4.737   0.626   4.725
 3892TIP3    H111619   4.805   0.624   4.793
 3892TIP3    H211620   4.658   0.654   4.772
 3893TIP3   OH211621   3.793   1.183   1.766
 3893TIP3    H111622   3.837   1.190   1.681
 3893TIP3    H211623   3.865   1.177   1.829
 3894TIP3   OH211624   0.090   2.791   0.032
 3894TIP3    H111625   0.095   2.857   0.101
 3894TIP3    H211626   0.116   2.838  -0.048
 3895TIP3   OH211627   3.109   5.548   0.607
 3895TIP3    H111628   3.061   5.536   0.689
 3895TIP3    H211629   3.182   5.486   0.613
 3896TIP3   OH211630   4.485   6.878   6.221
 3896TIP3    H111631   4.533   6.878   6.138
 3896TIP3    H211632   4.468   6.785   6.238
 3897TIP3   OH211633   1.208   2.530   4.842
 3897TIP3    H111634   1.168   2.597   4.787
 3897TIP3    H211635   1.164   2.449   4.818
 3898TIP3   OH211636   6.856   0.720   2.627
 3898TIP3    H111637   6.907   0.790   2.586
 3898TIP3    H211638   6.906   0.641   2.608
 3899TIP3   OH211639   3.786   6.537   0.505
 3899TIP3    H111640   3.846   6.600   0.543
 3899TIP3    H211641   3.717   6.590   0.465
 3900TIP3   OH211642   8.074   6.065   1.467
 3900TIP3    H111643   8.155   6.014   1.470
 3900TIP3    H211644   8.092   6.136   1.406
 3901TIP3   OH211645   1.544   3.545   5.157
 3901TIP3    H111646   1.607   3.477   5.182
 3901TIP3    H211647   1.493   3.561   5.237
 3902TIP3   OH211648   4.926   7.598   3.333
 3902TIP3    H111649   4.944   7.584   3.425
 3902TIP3    H211650   4.832   7.617   3.330
 3903TIP3   OH211651   3.883   0.031   4.871
 3903TIP3    H111652   3.902   0.109   4.923
 3903TIP3    H211653   3.845   0.066   4.790
 3904TIP3   OH211654   6.001   4.707   5.523
 3904TIP3    H111655   5.918   4.749   5.505
 3904TIP3    H211656   6.063   4.745   5.461
 3905TIP3   OH211657   7.048   6.436   6.718
 3905TIP3    H111658   7.006   6.521   6.715
 3905TIP3    H211659   7.122   6.447   6.777
 3906TIP3   OH211660   2.525   6.575   6.466
 3906TIP3    H111661   2.546   6.570   6.373
 3906TIP3    H211662   2.484   6.491   6.486
 3907TIP3   OH211663   4.540   2.727   4.630
 3907TIP3    H111664   4.514   2.808   4.587
 3907TIP3    H211665   4.634   2.737   4.645
 3908TIP3   OH211666   5.133   0.086   1.126
 3908TIP3    H111667   5.037   0.080   1.125
 3908TIP3    H211668   5.157   0.089   1.033
 3909TIP3   OH211669   5.879   2.688   6.136
 3909TIP3    H111670   5.785   2.709   6.135
 3909TIP3    H211671   5.922   2.772   6.152
 3910TIP3   OH211672   2.904   0.583   3.719
 3910TIP3    H111673   2.982   0.527   3.717
 3910TIP3    H211674   2.917   0.640   3.794
 3911TIP3   OH211675   0.452   5.945   1.716
 3911TIP3    H111676   0.419   5.857   1.735
 3911TIP3    H211677   0.393   5.979   1.649
 3912TIP3   OH211678   1.581   6.936   0.820
 3912TIP3    H111679   1.601   6.867   0.883
 3912TIP3    H211680   1.598   7.017   0.867
 3913TIP3   OH211681   2.217   3.876   6.738
 3913TIP3    H111682   2.128   3.911   6.744
 3913TIP3    H211683   2.206   3.793   6.691
 3914TIP3   OH211684   4.761   7.822   2.845
 3914TIP3    H111685   4.834   7.838   2.785
 3914TIP3    H211686   4.799   7.765   2.913
 3915TIP3   OH211687   5.916   1.109   0.218
 3915TIP3    H111688   6.003   1.097   0.180
 3915TIP3    H211689   5.855   1.077   0.152
 3916TIP3   OH211690   6.606   4.681   6.579
 3916TIP3    H111691   6.699   4.686   6.600
 3916TIP3    H211692   6.566   4.753   6.628
 3917TIP3   OH211693   7.487   2.261   2.569
 3917TIP3    H111694   7.518   2.344   2.604
 3917TIP3    H211695   7.391   2.268   2.573
 3918TIP3   OH211696   1.431   3.666   0.042
 3918TIP3    H111697   1.353   3.690  -0.008
 3918TIP3    H211698   1.459   3.583   0.004
 3919TIP3   OH211699   7.160   2.104   3.645
 3919TIP3    H111700   7.235   2.046   3.661
 3919TIP3    H211701   7.195   2.173   3.589
 3920TIP3   OH211702   7.676   1.917   0.450
 3920TIP3    H111703   7.750   1.974   0.427
 3920TIP3    H211704   7.617   1.973   0.500
 3921TIP3   OH211705   8.208   3.297   5.316
 3921TIP3    H111706   8.239   3.387   5.309
 3921TIP3    H211707   8.169   3.277   5.231
 3922TIP3   OH211708   6.250   7.104   2.408
 3922TIP3    H111709   6.281   7.057   2.486
 3922TIP3    H211710   6.325   7.158   2.382
 3923TIP3   OH211711   2.111   7.697   3.681
 3923TIP3    H111712   2.088   7.681   3.772
 3923TIP3    H211713   2.145   7.786   3.680
 3924TIP3   OH211714   3.495   6.443   1.178
 3924TIP3    H111715   3.529   6.429   1.089
 3924TIP3    H211716   3.554   6.393   1.234
 3925TIP3   OH211717   3.252   6.846   6.007
 3925TIP3    H111718   3.319   6.785   6.037
 3925TIP3    H211719   3.226   6.812   5.922
 3926TIP3   OH211720   1.082   4.211   5.463
 3926TIP3    H111721   1.001   4.170   5.493
 3926TIP3    H211722   1.147   4.189   5.529
 3927TIP3   OH211723   2.348   0.634   6.621
 3927TIP3    H111724   2.317   0.661   6.535
 3927TIP3    H211725   2.274   0.646   6.679
 3928TIP3   OH211726   5.331   1.563   1.421
 3928TIP3    H111727   5.336   1.655   1.394
 3928TIP3    H211728   5.295   1.566   1.509
 3929TIP3   OH211729   7.310   5.672   6.311
 3929TIP3    H111730   7.304   5.616   6.233
 3929TIP3    H211731   7.348   5.615   6.378
 3930TIP3   OH211732   7.330   3.040   4.189
 3930TIP3    H111733   7.306   3.119   4.141
 3930TIP3    H211734   7.388   3.070   4.259
 3931TIP3   OH211735   5.574   1.164   1.593
 3931TIP3    H111736   5.550   1.252   1.562
 3931TIP3    H211737   5.607   1.178   1.682
 3932TIP3   OH211738   5.688   7.128   5.208
 3932TIP3    H111739   5.731   7.043   5.215
 3932TIP3    H211740   5.760   7.192   5.214
 3933TIP3   OH211741   1.599   3.615   2.380
 3933TIP3    H111742   1.552   3.664   2.313
 3933TIP3    H211743   1.629   3.681   2.442
 3934TIP3   OH211744   5.555   6.276   4.789
 3934TIP3    H111745   5.588   6.233   4.868
 3934TIP3    H211746   5.461   6.260   4.791
 3935TIP3   OH211747   2.734   6.740   2.724
 3935TIP3    H111748   2.738   6.757   2.818
 3935TIP3    H211749   2.775   6.816   2.684
 3936TIP3   OH211750   7.086   0.710   0.652
 3936TIP3    H111751   7.039   0.788   0.623
 3936TIP3    H211752   7.151   0.743   0.714
 3937TIP3   OH211753   8.182   3.955   3.305
 3937TIP3    H111754   8.233   3.955   3.224
 3937TIP3    H211755   8.210   4.035   3.351
 3938TIP3   OH211756   4.520   1.871   5.717
 3938TIP3    H111757   4.493   1.926   5.643
 3938TIP3    H211758   4.546   1.788   5.677
 3939TIP3   OH211759   5.168   4.856   3.194
 3939TIP3    H111760   5.189   4.809   3.114
 3939TIP3    H211761   5.205   4.943   3.182
 3940TIP3   OH211762   1.387   7.474   4.970
 3940TIP3    H111763   1.347   7.469   5.057
 3940TIP3    H211764   1.408   7.567   4.959
 3941TIP3   OH211765   0.824   3.246   3.099
 3941TIP3    H111766   0.874   3.290   3.168
 3941TIP3    H211767   0.886   3.182   3.063
 3942TIP3   OH211768   4.349   7.632   0.269
 3942TIP3    H111769   4.313   7.720   0.273
 3942TIP3    H211770   4.277   7.575   0.298
 3943TIP3   OH211771   1.041   3.981   5.184
 3943TIP3    H111772   0.982   4.028   5.125
 3943TIP3    H211773   1.101   3.935   5.126
 3944TIP3   OH211774   7.905   5.758   2.973
 3944TIP3    H111775   7.987   5.803   2.995
 3944TIP3    H211776   7.915   5.671   3.013
 3945TIP3   OH211777   4.574   5.044   0.697
 3945TIP3    H111778   4.588   5.013   0.787
 3945TIP3    H211779   4.525   4.973   0.655
 3946TIP3   OH211780   0.175   7.178   4.719
 3946TIP3    H111781   0.191   7.209   4.629
 3946TIP3    H211782   0.083   7.152   4.720
 3947TIP3   OH211783   7.959   1.307   2.130
 3947TIP3    H111784   8.026   1.250   2.168
 3947TIP3    H211785   7.916   1.347   2.206
 3948TIP3   OH211786   6.194   0.982   6.123
 3948TIP3    H111787   6.274   1.030   6.145
 3948TIP3    H211788   6.123   1.038   6.153
 3949TIP3   OH211789   2.025   6.007   4.637
 3949TIP3    H111790   2.086   5.940   4.667
 3949TIP3    H211791   1.952   5.957   4.599
 3950TIP3   OH211792   1.399   1.951   5.705
 3950TIP3    H111793   1.410   1.981   5.795
 3950TIP3    H211794   1.467   1.885   5.693
 3951TIP3   OH211795   8.226   5.543   2.250
 3951TIP3    H111796   8.321   5.541   2.266
 3951TIP3    H211797   8.190   5.589   2.326
 3952TIP3   OH211798   0.375   4.203   4.357
 3952TIP3    H111799   0.334   4.120   4.381
 3952TIP3    H211800   0.394   4.194   4.264
 3953TIP3   OH211801   1.533   2.573   3.023
 3953TIP3    H111802   1.568   2.644   2.969
 3953TIP3    H211803   1.548   2.603   3.113
 3954TIP3   OH211804   0.915   7.090   5.203
 3954TIP3    H111805   1.007   7.114   5.219
 3954TIP3    H211806   0.909   6.999   5.231
 3955TIP3   OH211807   3.456   6.292   2.263
 3955TIP3    H111808   3.406   6.210   2.266
 3955TIP3    H211809   3.424   6.342   2.338
 3956TIP3   OH211810   1.258   4.264   4.240
 3956TIP3    H111811   1.345   4.236   4.213
 3956TIP3    H211812   1.253   4.356   4.215
 3957TIP3   OH211813   7.788   1.472   6.005
 3957TIP3    H111814   7.698   1.465   6.036
 3957TIP3    H211815   7.812   1.563   6.024
 3958TIP3   OH211816   4.572   5.909   5.560
 3958TIP3    H111817   4.607   5.906   5.471
 3958TIP3    H211818   4.544   5.820   5.578
 3959TIP3   OH211819   6.602   5.194   0.904
 3959TIP3    H111820   6.697   5.194   0.919
 3959TIP3    H211821   6.583   5.283   0.875
 3960TIP3   OH211822   6.581   7.073   4.034
 3960TIP3    H111823   6.518   7.145   4.040
 3960TIP3    H211824   6.528   6.994   4.042
 3961TIP3   OH211825   6.712   1.694   0.581
 3961TIP3    H111826   6.685   1.748   0.506
 3961TIP3    H211827   6.699   1.750   0.657
 3962TIP3   OH211828   4.731   4.830   2.161
 3962TIP3    H111829   4.668   4.830   2.089
 3962TIP3    H211830   4.790   4.903   2.142
 3963TIP3   OH211831   7.918   0.885   0.160
 3963TIP3    H111832   7.828   0.873   0.192
 3963TIP3    H211833   7.973   0.860   0.234
 3964TIP3   OH211834   7.399   5.137   3.764
 3964TIP3    H111835   7.493   5.121   3.772
 3964TIP3    H211836   7.380   5.205   3.828
 3965TIP3   OH211837   7.522   2.192   5.283
 3965TIP3    H111838   7.490   2.150   5.362
 3965TIP3    H211839   7.595   2.138   5.254
 3966TIP3   OH211840   4.170   7.441   1.545
 3966TIP3    H111841   4.260   7.415   1.525
 3966TIP3    H211842   4.157   7.524   1.499
 3967TIP3   OH211843   1.564   3.573   3.152
 3967TIP3    H111844   1.630   3.591   3.085
 3967TIP3    H211845   1.614   3.546   3.229
 3968TIP3   OH211846   7.418   5.326   3.505
 3968TIP3    H111847   7.439   5.408   3.462
 3968TIP3    H211848   7.353   5.284   3.448
 3969TIP3   OH211849   4.939   5.588   5.935
 3969TIP3    H111850   4.872   5.535   5.979
 3969TIP3    H211851   4.890   5.639   5.870
 3970TIP3   OH211852   5.854   5.510   2.828
 3970TIP3    H111853   5.782   5.574   2.833
 3970TIP3    H211854   5.917   5.540   2.894
 3971TIP3   OH211855   6.346   3.033   6.123
 3971TIP3    H111856   6.252   3.018   6.133
 3971TIP3    H211857   6.375   2.968   6.060
 3972TIP3   OH211858   1.935   4.312   1.646
 3972TIP3    H111859   2.013   4.313   1.702
 3972TIP3    H211860   1.865   4.280   1.703
 3973TIP3   OH211861   4.493   2.279   3.334
 3973TIP3    H111862   4.475   2.311   3.246
 3973TIP3    H211863   4.518   2.188   3.322
 3974TIP3   OH211864   7.485   7.708   5.603
 3974TIP3    H111865   7.541   7.708   5.525
 3974TIP3    H211866   7.536   7.754   5.669
 3975TIP3   OH211867   3.142   0.590   0.989
 3975TIP3    H111868   3.156   0.677   1.026
 3975TIP3    H211869   3.070   0.554   1.042
 3976TIP3   OH211870   5.243   5.061   2.084
 3976TIP3    H111871   5.231   5.087   2.176
 3976TIP3    H211872   5.243   4.966   2.086
 3977TIP3   OH211873   3.792   0.823   5.348
 3977TIP3    H111874   3.805   0.824   5.253
 3977TIP3    H211875   3.807   0.914   5.375
 3978TIP3   OH211876   3.027   7.446   5.151
 3978TIP3    H111877   3.075   7.364   5.137
 3978TIP3    H211878   2.992   7.469   5.065
 3979TIP3   OH211879   1.876   1.012   3.142
 3979TIP3    H111880   1.870   1.031   3.049
 3979TIP3    H211881   1.963   1.045   3.167
 3980TIP3   OH211882   1.768   5.525   0.682
 3980TIP3    H111883   1.680   5.488   0.677
 3980TIP3    H211884   1.795   5.512   0.773
 3981TIP3   OH211885   1.116   1.347   2.408
 3981TIP3    H111886   1.186   1.393   2.362
 3981TIP3    H211887   1.160   1.279   2.458
 3982TIP3   OH211888   2.110   3.257   0.504
 3982TIP3    H111889   2.032   3.307   0.479
 3982TIP3    H211890   2.089   3.221   0.590
 3983TIP3   OH211891   1.944   1.619   5.514
 3983TIP3    H111892   1.902   1.564   5.581
 3983TIP3    H211893   2.030   1.639   5.551
 3984TIP3   OH211894   3.641   4.906  -0.003
 3984TIP3    H111895   3.548   4.905   0.020
 3984TIP3    H211896   3.667   4.998   0.003
 3985TIP3   OH211897   8.002   0.758   3.499
 3985TIP3    H111898   7.977   0.809   3.576
 3985TIP3    H211899   7.990   0.667   3.526
 3986TIP3   OH211900   3.228   5.779   3.098
 3986TIP3    H111901   3.183   5.857   3.130
 3986TIP3    H211902   3.311   5.811   3.064
 3987TIP3   OH211903   6.113   3.462   5.889
 3987TIP3    H111904   6.147   3.516   5.960
 3987TIP3    H211905   6.143   3.373   5.910
 3988TIP3   OH211906   1.067   1.993   1.287
 3988TIP3    H111907   1.159   2.000   1.260
 3988TIP3    H211908   1.030   2.079   1.270
 3989TIP3   OH211909   2.615   6.587   1.620
 3989TIP3    H111910   2.672   6.652   1.660
 3989TIP3    H211911   2.601   6.522   1.689
 3990TIP3   OH211912   6.236   5.146   3.989
 3990TIP3    H111913   6.165   5.083   3.999
 3990TIP3    H211914   6.311   5.107   4.034
 3991TIP3   OH211915   4.406   2.020   5.534
 3991TIP3    H111916   4.389   2.087   5.468
 3991TIP3    H211917   4.324   2.014   5.583
 3992TIP3   OH211918   7.128   7.309   0.463
 3992TIP3    H111919   7.097   7.286   0.375
 3992TIP3    H211920   7.219   7.280   0.464
 3993TIP3   OH211921   6.471   5.404   6.144
 3993TIP3    H111922   6.390   5.453   6.156
 3993TIP3    H211923   6.540   5.461   6.180
 3994TIP3   OH211924   7.540   3.542   5.945
 3994TIP3    H111925   7.486   3.619   5.929
 3994TIP3    H211926   7.477   3.472   5.963
 3995TIP3   OH211927   2.544   5.032   2.445
 3995TIP3    H111928   2.617   5.073   2.397
 3995TIP3    H211929   2.558   5.058   2.536
 3996TIP3   OH211930   1.865   3.398   0.471
 3996TIP3    H111931   1.826   3.410   0.558
 3996TIP3    H211932   1.872   3.487   0.436
 3997TIP3   OH211933   2.754   2.545   0.584
 3997TIP3    H111934   2.677   2.537   0.528
 3997TIP3    H211935   2.800   2.462   0.573
 3998TIP3   OH211936   2.353   0.196   0.103
 3998TIP3    H111937   2.341   0.188   0.009
 3998TIP3    H211938   2.396   0.281   0.115
 3999TIP3   OH211939   5.656   4.081   5.946
 3999TIP3    H111940   5.655   4.061   6.040
 3999TIP3    H211941   5.702   4.165   5.940
 4000TIP3   OH211942   0.102   7.574   6.743
 4000TIP3    H111943   0.173   7.592   6.681
 4000TIP3    H211944   0.029   7.627   6.713
 4001TIP3   OH211945   2.620   7.217   4.598
 4001TIP3    H111946   2.649   7.148   4.657
 4001TIP3    H211947   2.530   7.194   4.576
 4002TIP3   OH211948   5.121   6.769   0.397
 4002TIP3    H111949   5.035   6.800   0.371
 4002TIP3    H211950   5.153   6.720   0.321
 4003TIP3   OH211951   3.600   0.764   3.710
 4003TIP3    H111952   3.507   0.782   3.699
 4003TIP3    H211953   3.622   0.799   3.797
 4004TIP3   OH211954   0.930   3.111   5.314
 4004TIP3    H111955   0.918   3.019   5.337
 4004TIP3    H211956   0.986   3.110   5.237
 4005TIP3   OH211957   6.393   5.228   3.573
 4005TIP3    H111958   6.398   5.139   3.541
 4005TIP3    H211959   6.331   5.224   3.646
 4006TIP3   OH211960   0.937   5.282   2.462
 4006TIP3    H111961   0.895   5.347   2.405
 4006TIP3    H211962   1.024   5.271   2.424
 4007TIP3   OH211963   4.123   6.292   0.223
 4007TIP3    H111964   4.064   6.260   0.291
 4007TIP3    H211965   4.179   6.217   0.202
 4008TIP3   OH211966   3.344   1.864   0.567
 4008TIP3    H111967   3.414   1.917   0.604
 4008TIP3    H211968   3.335   1.897   0.477
 4009TIP3   OH211969   3.331   0.401   4.609
 4009TIP3    H111970   3.357   0.310   4.625
 4009TIP3    H211971   3.240   0.396   4.582
 4010TIP3   OH211972   4.472   5.736   2.614
 4010TIP3    H111973   4.489   5.827   2.586
 4010TIP3    H211974   4.406   5.744   2.683
 4011TIP3   OH211975   4.710   5.229   6.768
 4011TIP3    H111976   4.767   5.153   6.770
 4011TIP3    H211977   4.768   5.303   6.748
 4012TIP3   OH211978   5.277   0.709   6.202
 4012TIP3    H111979   5.343   0.687   6.268
 4012TIP3    H211980   5.217   0.768   6.248
 4013TIP3   OH211981   0.412   0.932   2.830
 4013TIP3    H111982   0.383   0.845   2.803
 4013TIP3    H211983   0.335   0.988   2.819
 4014TIP3   OH211984   1.816   2.231   1.346
 4014TIP3    H111985   1.808   2.326   1.353
 4014TIP3    H211986   1.869   2.206   1.422
 4015TIP3   OH211987   8.076   4.662   5.827
 4015TIP3    H111988   8.147   4.722   5.849
 4015TIP3    H211989   8.009   4.718   5.787
 4016TIP3   OH211990   0.405   4.225   2.400
 4016TIP3    H111991   0.445   4.303   2.437
 4016TIP3    H211992   0.437   4.221   2.311
 4017TIP3   OH211993   0.625   3.262   3.517
 4017TIP3    H111994   0.533   3.284   3.529
 4017TIP3    H211995   0.645   3.204   3.591
 4018TIP3   OH211996   3.414   2.886   0.056
 4018TIP3    H111997   3.432   2.950   0.125
 4018TIP3    H211998   3.495   2.881   0.006
 4019TIP3   OH211999   2.537   7.131   5.475
 4019TIP3    H112000   2.617   7.183   5.490
 4019TIP3    H212001   2.561   7.042   5.503
 4020TIP3   OH212002   0.652   0.835   3.654
 4020TIP3    H112003   0.739   0.867   3.630
 4020TIP3    H212004   0.594   0.910   3.637
 4021TIP3   OH212005   4.278   1.457   4.604
 4021TIP3    H112006   4.340   1.387   4.584
 4021TIP3    H212007   4.199   1.411   4.633
 4022TIP3   OH212008   2.027   6.273   3.665
 4022TIP3    H112009   1.957   6.252   3.727
 4022TIP3    H212010   1.994   6.348   3.615
 4023TIP3   OH212011   8.113   0.811   6.535
 4023TIP3    H112012   8.150   0.732   6.495
 4023TIP3    H212013   8.018   0.796   6.531
 4024TIP3   OH212014   6.581   6.196   3.067
 4024TIP3    H112015   6.578   6.153   2.982
 4024TIP3    H212016   6.672   6.224   3.077
 4025TIP3   OH212017   0.434   4.108   6.209
 4025TIP3    H112018   0.392   4.056   6.277
 4025TIP3    H212019   0.397   4.074   6.127
 4026TIP3   OH212020   7.202   6.767   3.596
 4026TIP3    H112021   7.163   6.853   3.579
 4026TIP3    H212022   7.165   6.741   3.681
 4027TIP3   OH212023   5.365   0.305   1.307
 4027TIP3    H112024   5.333   0.366   1.241
 4027TIP3    H212025   5.316   0.225   1.292
 4028TIP3   OH212026   0.866   4.246   6.698
 4028TIP3    H112027   0.940   4.225   6.640
 4028TIP3    H212028   0.856   4.168   6.752
 4029TIP3   OH212029   5.168   7.288   3.638
 4029TIP3    H112030   5.094   7.258   3.691
 4029TIP3    H212031   5.239   7.300   3.702
 4030TIP3   OH212032   1.971   5.093   0.661
 4030TIP3    H112033   1.947   5.140   0.581
 4030TIP3    H212034   1.998   5.163   0.722
 4031TIP3   OH212035   5.956   2.766   6.591
 4031TIP3    H112036   5.881   2.793   6.538
 4031TIP3    H212037   5.967   2.673   6.571
 4032TIP3   OH212038   1.409   2.208   4.548
 4032TIP3    H112039   1.403   2.117   4.519
 4032TIP3    H212040   1.424   2.203   4.642
 4033TIP3   OH212041   6.446   5.682   6.440
 4033TIP3    H112042   6.463   5.775   6.423
 4033TIP3    H212043   6.513   5.636   6.390
 4034TIP3   OH212044   3.941   0.234   5.056
 4034TIP3    H112045   3.999   0.284   4.998
 4034TIP3    H212046   3.871   0.295   5.078
 4035TIP3   OH212047   0.329   3.931   0.015
 4035TIP3    H112048   0.297   3.993   0.081
 4035TIP3    H212049   0.319   3.977  -0.068
 4036TIP3   OH212050   7.047   3.617   5.695
 4036TIP3    H112051   6.981   3.564   5.650
 4036TIP3    H212052   7.017   3.707   5.685
 4037TIP3   OH212053   5.114   6.290   3.424
 4037TIP3    H112054   5.139   6.368   3.473
 4037TIP3    H212055   5.156   6.218   3.471
 4038TIP3   OH212056   6.668   0.085   5.233
 4038TIP3    H112057   6.750   0.135   5.226
 4038TIP3    H212058   6.604   0.150   5.263
 4039TIP3   OH212059   5.756   7.422   5.409
 4039TIP3    H112060   5.742   7.391   5.499
 4039TIP3    H212061   5.811   7.355   5.369
 4040TIP3   OH212062   8.202   5.548   1.811
 4040TIP3    H112063   8.144   5.550   1.736
 4040TIP3    H212064   8.208   5.455   1.835
 4041TIP3   OH212065   7.153   6.442   6.438
 4041TIP3    H112066   7.175   6.452   6.531
 4041TIP3    H212067   7.114   6.354   6.433
 4042TIP3   OH212068   2.693   2.847   2.914
 4042TIP3    H112069   2.727   2.894   2.837
 4042TIP3    H212070   2.598   2.846   2.901
 4043TIP3   OH212071   4.290   7.138   2.680
 4043TIP3    H112072   4.309   7.231   2.664
 4043TIP3    H212073   4.371   7.104   2.718
 4044TIP3   OH212074   3.103   2.714   0.925
 4044TIP3    H112075   3.063   2.788   0.970
 4044TIP3    H212076   3.192   2.742   0.905
 4045TIP3   OH212077   7.041   6.282   0.339
 4045TIP3    H112078   7.114   6.308   0.394
 4045TIP3    H212079   7.069   6.200   0.299
 4046TIP3   OH212080   5.152   0.892   2.118
 4046TIP3    H112081   5.104   0.929   2.045
 4046TIP3    H212082   5.215   0.832   2.078
 4047TIP3   OH212083  -0.010   2.711   2.145
 4047TIP3    H112084   0.059   2.687   2.206
 4047TIP3    H212085   0.029   2.780   2.091
 4048TIP3   OH212086   4.482   0.757   1.907
 4048TIP3    H112087   4.569   0.760   1.945
 4048TIP3    H212088   4.444   0.843   1.927
 4049TIP3   OH212089   7.888   1.715   2.298
 4049TIP3    H112090   7.867   1.629   2.335
 4049TIP3    H212091   7.939   1.759   2.365
 4050TIP3   OH212092   1.229   4.460   3.468
 4050TIP3    H112093   1.157   4.506   3.512
 4050TIP3    H212094   1.290   4.440   3.538
 4051TIP3   OH212095   3.895   6.388   5.479
 4051TIP3    H112096   3.833   6.326   5.439
 4051TIP3    H212097   3.955   6.332   5.529
 4052TIP3   OH212098   7.749   4.520   1.924
 4052TIP3    H112099   7.722   4.537   2.014
 4052TIP3    H212100   7.684   4.566   1.871
 4053TIP3   OH212101   4.124   4.419   1.092
 4053TIP3    H112102   4.122   4.514   1.103
 4053TIP3    H212103   4.159   4.386   1.175
 4054TIP3   OH212104   4.481   0.364   5.919
 4054TIP3    H112105   4.412   0.319   5.870
 4054TIP3    H212106   4.435   0.436   5.962
 4055TIP3   OH212107   5.839   1.317   2.389
 4055TIP3    H112108   5.919   1.369   2.384
 4055TIP3    H212109   5.860   1.247   2.451
 4056TIP3   OH212110   3.288   4.057   5.469
 4056TIP3    H112111   3.204   4.012   5.484
 4056TIP3    H212112   3.353   3.998   5.506
 4057TIP3   OH212113   2.807   5.930   5.975
 4057TIP3    H112114   2.829   5.939   5.882
 4057TIP3    H212115   2.890   5.909   6.018
 4058TIP3   OH212116   8.291   6.283   1.599
 4058TIP3    H112117   8.236   6.299   1.522
 4058TIP3    H212118   8.352   6.357   1.601
 4059TIP3   OH212119   3.664   4.452   5.313
 4059TIP3    H112120   3.719   4.529   5.325
 4059TIP3    H212121   3.658   4.442   5.218
 4060TIP3   OH212122   3.823   5.127   2.551
 4060TIP3    H112123   3.775   5.047   2.529
 4060TIP3    H212124   3.792   5.192   2.488
 4061TIP3   OH212125   0.754   0.408   4.296
 4061TIP3    H112126   0.773   0.346   4.367
 4061TIP3    H212127   0.665   0.386   4.268
 4062TIP3   OH212128   3.310   5.761   4.458
 4062TIP3    H112129   3.254   5.685   4.443
 4062TIP3    H212130   3.387   5.725   4.504
 4063TIP3   OH212131   3.102   5.174   5.811
 4063TIP3    H112132   3.182   5.154   5.858
 4063TIP3    H212133   3.049   5.223   5.874
 4064TIP3   OH212134   7.724   3.584   6.759
 4064TIP3    H112135   7.737   3.491   6.779
 4064TIP3    H212136   7.737   3.590   6.665
 4065TIP3   OH212137   2.361   1.117   5.226
 4065TIP3    H112138   2.392   1.040   5.179
 4065TIP3    H212139   2.434   1.142   5.282
 4066TIP3   OH212140   6.361   1.133   2.111
 4066TIP3    H112141   6.410   1.197   2.163
 4066TIP3    H212142   6.285   1.182   2.080
 4067TIP3   OH212143   8.035   5.170   5.012
 4067TIP3    H112144   8.009   5.082   4.985
 4067TIP3    H212145   8.125   5.160   5.044
 4068TIP3   OH212146   4.180   5.492   5.667
 4068TIP3    H112147   4.190   5.585   5.648
 4068TIP3    H212148   4.215   5.448   5.590
 4069TIP3   OH212149   3.966   1.736   2.071
 4069TIP3    H112150   3.906   1.681   2.020
 4069TIP3    H212151   3.921   1.752   2.153
 4070TIP3   OH212152   8.021   4.554   4.715
 4070TIP3    H112153   8.094   4.616   4.722
 4070TIP3    H212154   8.062   4.470   4.698
 4071TIP3   OH212155   6.841   4.470   0.783
 4071TIP3    H112156   6.769   4.420   0.821
 4071TIP3    H212157   6.835   4.454   0.689
 4072TIP3   OH212158   6.929   3.962   3.415
 4072TIP3    H112159   7.024   3.963   3.407
 4072TIP3    H212160   6.906   3.869   3.408
 4073TIP3   OH212161   5.455   4.014   5.130
 4073TIP3    H112162   5.407   4.053   5.056
 4073TIP3    H212163   5.476   3.925   5.101
 4074TIP3   OH212164   0.337   7.356   5.245
 4074TIP3    H112165   0.320   7.428   5.184
 4074TIP3    H212166   0.391   7.395   5.314
 4075TIP3   OH212167   4.721   1.807   5.378
 4075TIP3    H112168   4.652   1.873   5.371
 4075TIP3    H212169   4.677   1.725   5.356
 4076TIP3   OH212170   5.379   1.969   5.459
 4076TIP3    H112171   5.374   1.893   5.516
 4076TIP3    H212172   5.472   1.978   5.439
 4077TIP3   OH212173   7.427   0.173   6.518
 4077TIP3    H112174   7.410   0.090   6.563
 4077TIP3    H212175   7.343   0.197   6.479
 4078TIP3   OH212176   6.132   3.809   6.409
 4078TIP3    H112177   6.042   3.813   6.377
 4078TIP3    H212178   6.166   3.898   6.398
 4079TIP3   OH212179   6.055   4.682   3.347
 4079TIP3    H112180   6.130   4.690   3.288
 4079TIP3    H212181   6.092   4.687   3.435
 4080TIP3   OH212182   3.258   4.625   2.579
 4080TIP3    H112183   3.335   4.671   2.610
 4080TIP3    H212184   3.292   4.556   2.521
 4081TIP3   OH212185   7.656   1.212   1.324
 4081TIP3    H112186   7.650   1.290   1.268
 4081TIP3    H212187   7.617   1.240   1.407
 4082TIP3   OH212188   2.920   3.858   4.600
 4082TIP3    H112189   2.960   3.855   4.513
 4082TIP3    H212190   2.973   3.921   4.649
 4083TIP3   OH212191   4.222   1.677   5.620
 4083TIP3    H112192   4.162   1.613   5.656
 4083TIP3    H212193   4.293   1.625   5.581
 4084TIP3   OH212194   8.298   2.579   0.425
 4084TIP3    H112195   8.283   2.559   0.332
 4084TIP3    H212196   8.311   2.673   0.427
 4085TIP3   OH212197   6.175   0.607   0.357
 4085TIP3    H112198   6.219   0.553   0.292
 4085TIP3    H212199   6.180   0.695   0.322
 4086TIP3   OH212200   6.660   1.331   1.870
 4086TIP3    H112201   6.627   1.343   1.959
 4086TIP3    H212202   6.688   1.239   1.867
 4087TIP3   OH212203   3.165   2.221   0.307
 4087TIP3    H112204   3.093   2.174   0.350
 4087TIP3    H212205   3.124   2.262   0.231
 4088TIP3   OH212206   8.164   1.584   1.718
 4088TIP3    H112207   8.219   1.662   1.723
 4088TIP3    H212208   8.159   1.552   1.808
 4089TIP3   OH212209   4.302   4.798   6.309
 4089TIP3    H112210   4.362   4.872   6.301
 4089TIP3    H212211   4.237   4.827   6.373
 4090TIP3   OH212212   7.951   2.320   5.937
 4090TIP3    H112213   8.045   2.332   5.927
 4090TIP3    H212214   7.915   2.344   5.851
 4091TIP3   OH212215   5.190   7.514   4.013
 4091TIP3    H112216   5.130   7.530   4.085
 4091TIP3    H212217   5.221   7.424   4.027
 4092TIP3   OH212218   4.909   0.587   3.457
 4092TIP3    H112219   5.005   0.587   3.465
 4092TIP3    H212220   4.892   0.622   3.369
 4093TIP3   OH212221   7.933   5.941   0.186
 4093TIP3    H112222   7.920   5.849   0.166
 4093TIP3    H212223   8.014   5.944   0.237
 4094TIP3   OH212224   3.204   1.506   1.673
 4094TIP3    H112225   3.160   1.590   1.664
 4094TIP3    H212226   3.295   1.528   1.693
 4095TIP3   OH212227   5.800   4.137   0.265
 4095TIP3    H112228   5.890   4.108   0.273
 4095TIP3    H212229   5.806   4.226   0.228
 4096TIP3   OH212230   4.866   1.593   1.085
 4096TIP3    H112231   4.771   1.596   1.082
 4096TIP3    H212232   4.888   1.600   1.178
 4097TIP3   OH212233   5.498   2.101   6.228
 4097TIP3    H112234   5.535   2.099   6.316
 4097TIP3    H212235   5.405   2.082   6.240
 4098TIP3   OH212236   1.769   3.634   3.794
 4098TIP3    H112237   1.738   3.560   3.847
 4098TIP3    H212238   1.726   3.710   3.832
 4099TIP3   OH212239   5.915   3.569   5.749
 4099TIP3    H112240   5.963   3.549   5.669
 4099TIP3    H212241   5.980   3.562   5.819
 4100TIP3   OH212242   8.221   6.950   2.943
 4100TIP3    H112243   8.154   7.014   2.918
 4100TIP3    H212244   8.213   6.880   2.878
 4101TIP3   OH212245   2.988   3.887   0.483
 4101TIP3    H112246   3.001   3.810   0.538
 4101TIP3    H212247   2.894   3.890   0.466
 4102TIP3   OH212248   2.674   6.715   5.326
 4102TIP3    H112249   2.690   6.640   5.270
 4102TIP3    H212250   2.596   6.691   5.377
 4103TIP3   OH212251   2.572   5.490   4.755
 4103TIP3    H112252   2.488   5.486   4.802
 4103TIP3    H212253   2.562   5.565   4.696
 4104TIP3   OH212254   1.141   5.234   6.559
 4104TIP3    H112255   1.112   5.230   6.650
 4104TIP3    H212256   1.060   5.227   6.508
 4105TIP3   OH212257   3.684   0.770   1.223
 4105TIP3    H112258   3.773   0.805   1.232
 4105TIP3    H212259   3.659   0.790   1.133
 4106TIP3   OH212260   0.513   7.317   3.433
 4106TIP3    H112261   0.518   7.340   3.526
 4106TIP3    H212262   0.439   7.368   3.399
 4107TIP3   OH212263   7.239   7.005   2.163
 4107TIP3    H112264   7.155   7.033   2.200
 4107TIP3    H212265   7.255   6.920   2.203
 4108TIP3   OH212266   7.718   3.875   4.311
 4108TIP3    H112267   7.682   3.962   4.295
 4108TIP3    H212268   7.667   3.840   4.384
 4109TIP3   OH212269   7.739   4.301   0.700
 4109TIP3    H112270   7.689   4.380   0.721
 4109TIP3    H212271   7.830   4.325   0.716
 4110TIP3   OH212272   2.882   6.611   0.929
 4110TIP3    H112273   2.966   6.603   0.974
 4110TIP3    H212274   2.819   6.625   0.999
 4111TIP3   OH212275   0.051   3.123   0.734
 4111TIP3    H112276   0.130   3.084   0.698
 4111TIP3    H212277  -0.001   3.048   0.764
 4112TIP3   OH212278   0.864   6.237   4.955
 4112TIP3    H112279   0.791   6.206   4.902
 4112TIP3    H212280   0.833   6.228   5.045
 4113TIP3   OH212281   1.962   6.788   1.234
 4113TIP3    H112282   1.958   6.767   1.328
 4113TIP3    H212283   1.930   6.708   1.192
 4114TIP3   OH212284   6.722   1.036   5.376
 4114TIP3    H112285   6.707   0.946   5.405
 4114TIP3    H212286   6.811   1.034   5.340
 4115TIP3   OH212287   3.543   2.387   1.168
 4115TIP3    H112288   3.472   2.384   1.105
 4115TIP3    H212289   3.591   2.305   1.155
 4116TIP3   OH212290   4.950   6.682   5.881
 4116TIP3    H112291   5.017   6.709   5.819
 4116TIP3    H212292   4.897   6.619   5.834
 4117TIP3   OH212293   6.144   0.258   0.070
 4117TIP3    H112294   6.077   0.206   0.116
 4117TIP3    H212295   6.123   0.248  -0.022
 4118TIP3   OH212296   4.069   2.327   5.661
 4118TIP3    H112297   4.114   2.409   5.680
 4118TIP3    H212298   3.977   2.344   5.682
 4119TIP3   OH212299   0.785   5.550   5.105
 4119TIP3    H112300   0.798   5.643   5.085
 4119TIP3    H212301   0.724   5.550   5.179
 4120TIP3   OH212302   3.498   1.945   2.773
 4120TIP3    H112303   3.453   1.979   2.696
 4120TIP3    H212304   3.509   2.021   2.830
 4121TIP3   OH212305   3.858   3.252   2.690
 4121TIP3    H112306   3.858   3.182   2.755
 4121TIP3    H212307   3.916   3.220   2.621
 4122TIP3   OH212308   7.984   7.461   2.984
 4122TIP3    H112309   8.034   7.464   3.066
 4122TIP3    H212310   8.048   7.479   2.916
 4123TIP3   OH212311   5.505   0.083   5.349
 4123TIP3    H112312   5.597   0.057   5.357
 4123TIP3    H212313   5.460   0.032   5.416
 4124TIP3   OH212314   4.127   0.264   0.989
 4124TIP3    H112315   4.183   0.315   0.929
 4124TIP3    H212316   4.072   0.211   0.931
 4125TIP3   OH212317   6.210   7.042   5.122
 4125TIP3    H112318   6.252   7.087   5.195
 4125TIP3    H212319   6.170   6.965   5.161
 4126TIP3   OH212320   1.350   5.535   0.520
 4126TIP3    H112321   1.318   5.610   0.569
 4126TIP3    H212322   1.415   5.571   0.459
 4127TIP3   OH212323   3.215   4.081   3.055
 4127TIP3    H112324   3.272   4.125   3.119
 4127TIP3    H212325   3.214   4.140   2.980
 4128TIP3   OH212326   4.485   3.165   4.359
 4128TIP3    H112327   4.510   3.153   4.267
 4128TIP3    H212328   4.421   3.236   4.357
 4129TIP3   OH212329   4.187   3.047   5.477
 4129TIP3    H112330   4.249   2.994   5.427
 4129TIP3    H212331   4.165   2.994   5.554
 4130TIP3   OH212332   5.974   5.217   6.153
 4130TIP3    H112333   5.935   5.300   6.180
 4130TIP3    H212334   5.909   5.177   6.096
 4131TIP3   OH212335   6.951   4.596   5.974
 4131TIP3    H112336   6.969   4.689   5.965
 4131TIP3    H212337   7.024   4.552   5.931
 4132TIP3   OH212338   1.039   6.494   0.431
 4132TIP3    H112339   1.021   6.402   0.410
 4132TIP3    H212340   1.061   6.493   0.524
 4133TIP3   OH212341   7.401   4.956   6.309
 4133TIP3    H112342   7.360   5.027   6.357
 4133TIP3    H212343   7.494   4.979   6.307
 4134TIP3   OH212344   1.424  -0.021   5.561
 4134TIP3    H112345   1.505  -0.043   5.608
 4134TIP3    H212346   1.429   0.074   5.548
 4135TIP3   OH212347   3.731  -0.001   1.910
 4135TIP3    H112348   3.724   0.061   1.837
 4135TIP3    H212349   3.640  -0.019   1.934
 4136TIP3   OH212350   8.208   0.623   3.956
 4136TIP3    H112351   8.191   0.579   4.039
 4136TIP3    H212352   8.136   0.596   3.899
 4137TIP3   OH212353   1.605   2.437   1.408
 4137TIP3    H112354   1.556   2.516   1.385
 4137TIP3    H212355   1.669   2.466   1.472
 4138TIP3   OH212356   7.171   7.286   3.895
 4138TIP3    H112357   7.225   7.209   3.909
 4138TIP3    H212358   7.093   7.254   3.849
 4139TIP3   OH212359   7.736   7.197   1.612
 4139TIP3    H112360   7.713   7.254   1.539
 4139TIP3    H212361   7.664   7.209   1.675
 4140TIP3   OH212362   6.854   1.189   4.492
 4140TIP3    H112363   6.785   1.252   4.510
 4140TIP3    H212364   6.820   1.136   4.420
 4141TIP3   OH212365   3.548   4.026   0.251
 4141TIP3    H112366   3.573   3.964   0.319
 4141TIP3    H212367   3.620   4.024   0.189
 4142TIP3   OH212368   7.142   6.221   1.323
 4142TIP3    H112369   7.052   6.248   1.304
 4142TIP3    H212370   7.176   6.291   1.379
 4143TIP3   OH212371   2.858   0.994   0.383
 4143TIP3    H112372   2.825   0.935   0.315
 4143TIP3    H212373   2.797   0.985   0.455
 4144TIP3   OH212374   1.216   7.650   5.677
 4144TIP3    H112375   1.225   7.716   5.609
 4144TIP3    H212376   1.146   7.683   5.734
 4145TIP3   OH212377   7.897   3.695   1.181
 4145TIP3    H112378   7.914   3.714   1.089
 4145TIP3    H212379   7.983   3.672   1.217
 4146TIP3   OH212380   4.956   1.642   5.640
 4146TIP3    H112381   4.985   1.628   5.550
 4146TIP3    H212382   4.901   1.566   5.660
 4147TIP3   OH212383   0.052   6.298   1.999
 4147TIP3    H112384   0.083   6.245   2.072
 4147TIP3    H212385  -0.020   6.248   1.961
 4148TIP3   OH212386   2.724   5.660   6.142
 4148TIP3    H112387   2.793   5.628   6.200
 4148TIP3    H212388   2.771   5.705   6.072
 4149TIP3   OH212389   4.600   5.577   0.894
 4149TIP3    H112390   4.577   5.506   0.955
 4149TIP3    H212391   4.671   5.623   0.937
 4150TIP3   OH212392   7.273   7.330   0.086
 4150TIP3    H112393   7.194   7.380   0.106
 4150TIP3    H212394   7.341   7.397   0.072
 4151TIP3   OH212395   8.207   2.866   5.299
 4151TIP3    H112396   8.191   2.801   5.231
 4151TIP3    H212397   8.136   2.853   5.361
 4152TIP3   OH212398   3.075   0.077   0.516
 4152TIP3    H112399   3.134   0.005   0.536
 4152TIP3    H212400   3.007   0.038   0.461
 4153TIP3   OH212401   8.232   0.273   2.255
 4153TIP3    H112402   8.253   0.322   2.175
 4153TIP3    H212403   8.260   0.331   2.326
 4154TIP3   OH212404   4.735   6.841   6.061
 4154TIP3    H112405   4.779   6.913   6.106
 4154TIP3    H212406   4.766   6.762   6.107
 4155TIP3   OH212407   7.693   2.890   5.164
 4155TIP3    H112408   7.783   2.923   5.158
 4155TIP3    H212409   7.642   2.965   5.194
 4156TIP3   OH212410   3.508   0.387   2.499
 4156TIP3    H112411   3.567   0.428   2.562
 4156TIP3    H212412   3.491   0.454   2.434
 4157TIP3   OH212413   1.600   6.668   4.518
 4157TIP3    H112414   1.538   6.620   4.574
 4157TIP3    H212415   1.677   6.681   4.573
 4158TIP3   OH212416   2.712   3.944   0.512
 4158TIP3    H112417   2.642   3.884   0.536
 4158TIP3    H212418   2.698   3.963   0.419
 4159TIP3   OH212419   8.193   1.904   6.154
 4159TIP3    H112420   8.163   1.823   6.112
 4159TIP3    H212421   8.264   1.876   6.211
 4160TIP3   OH212422   6.543   1.451   3.202
 4160TIP3    H112423   6.489   1.475   3.127
 4160TIP3    H212424   6.614   1.399   3.165
 4161TIP3   OH212425   6.032   4.918   4.313
 4161TIP3    H112426   5.942   4.934   4.286
 4161TIP3    H212427   6.059   4.998   4.358
 4162TIP3   OH212428   4.422   0.592   2.627
 4162TIP3    H112429   4.458   0.648   2.696
 4162TIP3    H212430   4.379   0.521   2.674
 4163TIP3   OH212431   5.097   7.027   6.542
 4163TIP3    H112432   5.068   7.085   6.471
 4163TIP3    H212433   5.020   7.020   6.599
 4164TIP3   OH212434   7.987   3.488   3.902
 4164TIP3    H112435   8.027   3.427   3.964
 4164TIP3    H212436   8.014   3.574   3.934
 4165TIP3   OH212437   4.898   2.029   6.738
 4165TIP3    H112438   4.852   2.030   6.654
 4165TIP3    H212439   4.983   1.988   6.718
 4166TIP3   OH212440   3.121   2.314   5.680
 4166TIP3    H112441   3.136   2.345   5.769
 4166TIP3    H212442   3.081   2.228   5.690
 4167TIP3   OH212443   0.637   0.993   2.610
 4167TIP3    H112444   0.571   1.037   2.664
 4167TIP3    H212445   0.631   1.035   2.524
 4168TIP3   OH212446  -0.016   1.986   6.447
 4168TIP3    H112447   0.044   2.055   6.474
 4168TIP3    H212448  -0.095   2.001   6.498
 4169TIP3   OH212449   2.236   4.867   5.102
 4169TIP3    H112450   2.171   4.886   5.169
 4169TIP3    H212451   2.190   4.813   5.038
 4170TIP3   OH212452   6.790   2.957   1.553
 4170TIP3    H112453   6.758   2.945   1.643
 4170TIP3    H212454   6.839   3.039   1.557
 4171TIP3   OH212455   2.146   7.661   3.310
 4171TIP3    H112456   2.178   7.601   3.378
 4171TIP3    H212457   2.124   7.604   3.237
 4172TIP3   OH212458   0.663   4.324   4.332
 4172TIP3    H112459   0.573   4.299   4.350
 4172TIP3    H212460   0.708   4.242   4.315
 4173TIP3   OH212461   0.770   1.385   5.724
 4173TIP3    H112462   0.853   1.413   5.763
 4173TIP3    H212463   0.706   1.450   5.754
 4174TIP3   OH212464   1.871   4.958   4.877
 4174TIP3    H112465   1.808   4.939   4.946
 4174TIP3    H212466   1.889   5.052   4.885
 4175TIP3   OH212467   0.468   6.481   2.868
 4175TIP3    H112468   0.458   6.561   2.818
 4175TIP3    H212469   0.441   6.504   2.957
 4176TIP3   OH212470   6.073   2.523   6.540
 4176TIP3    H112471   6.015   2.447   6.540
 4176TIP3    H212472   6.149   2.496   6.489
 4177TIP3   OH212473   1.719   5.275   4.432
 4177TIP3    H112474   1.714   5.194   4.381
 4177TIP3    H212475   1.659   5.335   4.388
 4178TIP3   OH212476   2.154   4.466   3.087
 4178TIP3    H112477   2.078   4.522   3.105
 4178TIP3    H212478   2.136   4.430   3.000
 4179TIP3   OH212479   0.957   2.340   3.102
 4179TIP3    H112480   1.036   2.286   3.111
 4179TIP3    H212481   0.981   2.424   3.140
 4180TIP3   OH212482   7.978   5.074   1.292
 4180TIP3    H112483   7.963   5.163   1.261
 4180TIP3    H212484   7.957   5.019   1.217
 4181TIP3   OH212485   7.405   7.138   2.713
 4181TIP3    H112486   7.402   7.194   2.791
 4181TIP3    H212487   7.430   7.198   2.642
 4182TIP3   OH212488   3.696   5.856   2.972
 4182TIP3    H112489   3.778   5.858   2.921
 4182TIP3    H212490   3.687   5.764   2.997
 4183TIP3   OH212491   5.983   6.152   5.081
 4183TIP3    H112492   5.980   6.233   5.029
 4183TIP3    H212493   6.040   6.173   5.155
 4184TIP3   OH212494   8.009   4.230   0.685
 4184TIP3    H112495   7.962   4.177   0.622
 4184TIP3    H212496   8.074   4.171   0.723
 4185TIP3   OH212497   7.821   5.541   1.784
 4185TIP3    H112498   7.733   5.557   1.818
 4185TIP3    H212499   7.823   5.446   1.768
 4186TIP3   OH212500   1.250   3.227   0.916
 4186TIP3    H112501   1.306   3.264   0.847
 4186TIP3    H212502   1.300   3.238   0.996
 4187TIP3   OH212503   3.764   5.216   4.500
 4187TIP3    H112504   3.725   5.140   4.543
 4187TIP3    H212505   3.837   5.180   4.449
 4188TIP3   OH212506   6.223   4.115   4.221
 4188TIP3    H112507   6.255   4.155   4.302
 4188TIP3    H212508   6.232   4.184   4.155
 4189TIP3   OH212509   2.327   3.107   4.457
 4189TIP3    H112510   2.298   3.017   4.449
 4189TIP3    H212511   2.302   3.133   4.546
 4190TIP3   OH212512   4.645   5.867   0.681
 4190TIP3    H112513   4.659   5.948   0.633
 4190TIP3    H212514   4.586   5.816   0.625
 4191TIP3   OH212515   7.476   5.099   2.175
 4191TIP3    H112516   7.521   5.166   2.226
 4191TIP3    H212517   7.534   5.023   2.178
 4192TIP3   OH212518   4.992   3.925   2.797
 4192TIP3    H112519   4.944   3.957   2.874
 4192TIP3    H212520   5.026   4.004   2.755
 4193TIP3   OH212521   3.598   4.280   0.038
 4193TIP3    H112522   3.689   4.299   0.060
 4193TIP3    H212523   3.547   4.347   0.084
 4194TIP3   OH212524   1.860   1.769   5.299
 4194TIP3    H112525   1.765   1.773   5.297
 4194TIP3    H212526   1.881   1.718   5.377
 4195TIP3   OH212527   5.728   5.259   4.595
 4195TIP3    H112528   5.800   5.294   4.542
 4195TIP3    H212529   5.649   5.285   4.548
 4196TIP3   OH212530   4.055   4.352   5.935
 4196TIP3    H112531   3.989   4.331   5.868
 4196TIP3    H212532   4.108   4.272   5.941
 4197TIP3   OH212533   5.826  -0.039   3.862
 4197TIP3    H112534   5.842  -0.052   3.955
 4197TIP3    H212535   5.736  -0.070   3.848
 4198TIP3   OH212536   3.745   3.588   3.772
 4198TIP3    H112537   3.729   3.679   3.746
 4198TIP3    H212538   3.795   3.595   3.854
 4199TIP3   OH212539   2.908   0.997   1.699
 4199TIP3    H112540   2.847   0.925   1.681
 4199TIP3    H212541   2.976   0.987   1.633
 4200TIP3   OH212542   6.939   0.060   0.981
 4200TIP3    H112543   6.942   0.149   0.944
 4200TIP3    H212544   6.873   0.015   0.929
 4201TIP3   OH212545   6.682   1.532   5.532
 4201TIP3    H112546   6.727   1.486   5.602
 4201TIP3    H212547   6.706   1.484   5.453
 4202TIP3   OH212548   0.633   0.800   1.025
 4202TIP3    H112549   0.683   0.761   1.096
 4202TIP3    H212550   0.605   0.884   1.059
 4203TIP3   OH212551   3.348   7.136   1.368
 4203TIP3    H112552   3.358   7.223   1.330
 4203TIP3    H212553   3.423   7.127   1.427
 4204TIP3   OH212554   1.314   2.784   1.730
 4204TIP3    H112555   1.311   2.802   1.824
 4204TIP3    H212556   1.363   2.858   1.694
 4205TIP3   OH212557   3.875   4.822   0.121
 4205TIP3    H112558   3.791   4.834   0.077
 4205TIP3    H212559   3.925   4.901   0.100
 4206TIP3   OH212560   7.637   5.115   4.943
 4206TIP3    H112561   7.580   5.192   4.939
 4206TIP3    H212562   7.578   5.041   4.928
 4207TIP3   OH212563   7.923   5.028   2.194
 4207TIP3    H112564   8.005   4.984   2.171
 4207TIP3    H212565   7.855   4.975   2.152
 4208TIP3   OH212566   2.947   4.800   0.584
 4208TIP3    H112567   2.951   4.706   0.568
 4208TIP3    H212568   3.023   4.817   0.640
 4209TIP3   OH212569   5.599   1.480   5.817
 4209TIP3    H112570   5.572   1.397   5.858
 4209TIP3    H212571   5.690   1.465   5.791
 4210TIP3   OH212572   6.541   5.454   0.893
 4210TIP3    H112573   6.519   5.534   0.845
 4210TIP3    H212574   6.610   5.481   0.953
 4211TIP3   OH212575   7.485   4.958   5.248
 4211TIP3    H112576   7.430   5.026   5.210
 4211TIP3    H212577   7.435   4.927   5.324
 4212TIP3   OH212578   0.091   6.746   5.157
 4212TIP3    H112579   0.173   6.745   5.207
 4212TIP3    H212580   0.117   6.763   5.067
 4213TIP3   OH212581   6.059   7.163   1.842
 4213TIP3    H112582   6.125   7.133   1.904
 4213TIP3    H212583   5.990   7.201   1.897
 4214TIP3   OH212584   1.857   2.053   6.493
 4214TIP3    H112585   1.867   1.959   6.510
 4214TIP3    H212586   1.809   2.058   6.410
 4215TIP3   OH212587   4.936   7.289   0.778
 4215TIP3    H112588   4.904   7.338   0.702
 4215TIP3    H212589   5.004   7.345   0.816
 4216TIP3   OH212590   7.778   4.704   0.240
 4216TIP3    H112591   7.693   4.696   0.196
 4216TIP3    H212592   7.766   4.659   0.324
 4217TIP3   OH212593   1.668   3.548   4.418
 4217TIP3    H112594   1.594   3.568   4.474
 4217TIP3    H212595   1.682   3.454   4.428
 4218TIP3   OH212596   5.310   4.010   4.024
 4218TIP3    H112597   5.287   4.100   4.043
 4218TIP3    H212598   5.400   4.014   3.993
 4219TIP3   OH212599   6.586   0.506   1.577
 4219TIP3    H112600   6.529   0.467   1.643
 4219TIP3    H212601   6.529   0.564   1.527
 4220TIP3   OH212602   6.388   4.362   0.111
 4220TIP3    H112603   6.386   4.394   0.021
 4220TIP3    H212604   6.381   4.267   0.102
 4221TIP3   OH212605   4.396   6.178   4.053
 4221TIP3    H112606   4.490   6.191   4.045
 4221TIP3    H212607   4.362   6.189   3.964
 4222TIP3   OH212608   5.760   4.352   0.084
 4222TIP3    H112609   5.683   4.348   0.027
 4222TIP3    H212610   5.832   4.319   0.029
 4223TIP3   OH212611   6.775   7.788   1.341
 4223TIP3    H112612   6.732   7.703   1.337
 4223TIP3    H212613   6.868   7.768   1.336
 4224TIP3   OH212614   8.161   1.032   0.047
 4224TIP3    H112615   8.077   1.065   0.079
 4224TIP3    H212616   8.166   0.943   0.081
 4225TIP3   OH212617   5.417   0.482   5.969
 4225TIP3    H112618   5.367   0.487   6.051
 4225TIP3    H212619   5.351   0.492   5.900
 4226TIP3   OH212620   1.631   5.100   5.435
 4226TIP3    H112621   1.725   5.091   5.416
 4226TIP3    H212622   1.590   5.029   5.385
 4227TIP3   OH212623   4.462   3.222   6.274
 4227TIP3    H112624   4.450   3.134   6.239
 4227TIP3    H212625   4.375   3.250   6.301
 4228TIP3   OH212626   5.836   7.809   3.459
 4228TIP3    H112627   5.896   7.755   3.510
 4228TIP3    H212628   5.824   7.761   3.377
 4229TIP3   OH212629   0.608   7.242   0.400
 4229TIP3    H112630   0.674   7.311   0.388
 4229TIP3    H212631   0.588   7.245   0.494
 4230TIP3   OH212632   3.547   2.833   4.728
 4230TIP3    H112633   3.593   2.911   4.697
 4230TIP3    H212634   3.615   2.778   4.767
 4231TIP3   OH212635   7.200   0.539   5.492
 4231TIP3    H112636   7.291   0.567   5.500
 4231TIP3    H212637   7.205   0.451   5.453
 4232TIP3   OH212638   1.059   1.484   3.640
 4232TIP3    H112639   1.128   1.550   3.630
 4232TIP3    H212640   1.071   1.425   3.566
 4233TIP3   OH212641   0.547   4.896   1.445
 4233TIP3    H112642   0.624   4.861   1.399
 4233TIP3    H212643   0.489   4.820   1.455
 4234TIP3   OH212644   0.809   0.429   6.227
 4234TIP3    H112645   0.845   0.497   6.284
 4234TIP3    H212646   0.870   0.426   6.153
 4235TIP3   OH212647   3.991   1.933   5.290
 4235TIP3    H112648   4.046   2.008   5.265
 4235TIP3    H212649   4.052   1.860   5.296
 4236TIP3   OH212650   4.452   4.793   6.602
 4236TIP3    H112651   4.526   4.740   6.633
 4236TIP3    H212652   4.476   4.817   6.513
 4237TIP3   OH212653   6.236   3.163   5.026
 4237TIP3    H112654   6.161   3.115   4.989
 4237TIP3    H212655   6.312   3.129   4.979
 4238TIP3   OH212656   6.551   2.235   1.275
 4238TIP3    H112657   6.606   2.191   1.211
 4238TIP3    H212658   6.466   2.192   1.267
 4239TIP3   OH212659   4.500   0.974   6.016
 4239TIP3    H112660   4.525   0.982   6.108
 4239TIP3    H212661   4.531   0.887   5.990
 4240TIP3   OH212662   0.479   7.638   4.297
 4240TIP3    H112663   0.535   7.562   4.311
 4240TIP3    H212664   0.488   7.658   4.203
 4241TIP3   OH212665   5.818   6.045   6.691
 4241TIP3    H112666   5.759   6.088   6.753
 4241TIP3    H212667   5.845   6.114   6.631
 4242TIP3   OH212668   6.924   2.576   2.579
 4242TIP3    H112669   6.977   2.522   2.520
 4242TIP3    H212670   6.987   2.633   2.622
 4243TIP3   OH212671   3.405   4.423   0.735
 4243TIP3    H112672   3.453   4.462   0.808
 4243TIP3    H212673   3.473   4.399   0.672
 4244TIP3   OH212674   8.196   4.737   1.024
 4244TIP3    H112675   8.246   4.709   0.947
 4244TIP3    H212676   8.200   4.663   1.084
 4245TIP3   OH212677   1.595   7.228   2.164
 4245TIP3    H112678   1.662   7.169   2.198
 4245TIP3    H212679   1.639   7.312   2.157
 4246TIP3   OH212680   3.644   6.843   0.751
 4246TIP3    H112681   3.692   6.889   0.819
 4246TIP3    H212682   3.569   6.900   0.731
 4247TIP3   OH212683   7.713   0.636   2.107
 4247TIP3    H112684   7.669   0.560   2.069
 4247TIP3    H212685   7.797   0.642   2.061
 4248TIP3   OH212686   4.231   4.088   2.048
 4248TIP3    H112687   4.195   4.038   1.975
 4248TIP3    H212688   4.323   4.102   2.025
 4249TIP3   OH212689   5.401   0.307   0.865
 4249TIP3    H112690   5.324   0.260   0.898
 4249TIP3    H212691   5.374   0.399   0.865
 4250TIP3   OH212692   1.788   6.102   1.588
 4250TIP3    H112693   1.730   6.165   1.546
 4250TIP3    H212694   1.771   6.113   1.682
 4251TIP3   OH212695   7.101   0.520   1.272
 4251TIP3    H112696   7.135   0.610   1.274
 4251TIP3    H212697   7.147   0.476   1.343
 4252TIP3   OH212698   0.086   6.283   4.094
 4252TIP3    H112699   0.040   6.324   4.167
 4252TIP3    H212700   0.162   6.241   4.133
 4253TIP3   OH212701   4.078   5.344   2.611
 4253TIP3    H112702   4.137   5.365   2.538
 4253TIP3    H212703   3.991   5.351   2.573
 4254TIP3   OH212704   5.349   7.602   0.093
 4254TIP3    H112705   5.408   7.640   0.158
 4254TIP3    H212706   5.267   7.590   0.141
 4255TIP3   OH212707   2.677   0.373   0.007
 4255TIP3    H112708   2.599   0.422   0.035
 4255TIP3    H212709   2.722   0.352   0.089
 4256TIP3   OH212710   0.141   1.638   2.532
 4256TIP3    H112711   0.116   1.689   2.610
 4256TIP3    H212712   0.234   1.620   2.545
 4257TIP3   OH212713   4.243   0.010   4.261
 4257TIP3    H112714   4.221   0.103   4.269
 4257TIP3    H212715   4.159  -0.033   4.248
 4258TIP3   OH212716   1.218   6.182   6.029
 4258TIP3    H112717   1.250   6.271   6.013
 4258TIP3    H212718   1.297   6.127   6.029
 4259TIP3   OH212719   3.323   5.522   5.622
 4259TIP3    H112720   3.343   5.517   5.715
 4259TIP3    H212721   3.353   5.609   5.596
 4260TIP3   OH212722   0.204   0.698   2.228
 4260TIP3    H112723   0.125   0.659   2.266
 4260TIP3    H212724   0.190   0.792   2.235
 4261TIP3   OH212725   1.066   4.774   2.244
 4261TIP3    H112726   1.036   4.865   2.241
 4261TIP3    H212727   1.142   4.772   2.187
 4262TIP3   OH212728   0.569   5.955   3.373
 4262TIP3    H112729   0.555   6.042   3.336
 4262TIP3    H212730   0.591   5.900   3.298
 4263TIP3   OH212731   6.253   5.857   0.704
 4263TIP3    H112732   6.224   5.929   0.760
 4263TIP3    H212733   6.260   5.896   0.617
 4264TIP3   OH212734   6.538   5.805   5.798
 4264TIP3    H112735   6.512   5.893   5.823
 4264TIP3    H212736   6.472   5.748   5.838
 4265TIP3   OH212737   2.316   6.118   4.697
 4265TIP3    H112738   2.343   6.207   4.674
 4265TIP3    H212739   2.221   6.124   4.707
 4266TIP3   OH212740   1.039   3.347   5.635
 4266TIP3    H112741   0.972   3.318   5.697
 4266TIP3    H212742   0.990   3.387   5.564
 4267TIP3   OH212743   7.518   6.097   3.365
 4267TIP3    H112744   7.443   6.037   3.363
 4267TIP3    H212745   7.578   6.057   3.428
 4268TIP3   OH212746   4.110   2.802   3.875
 4268TIP3    H112747   4.128   2.780   3.967
 4268TIP3    H212748   4.015   2.790   3.866
 4269TIP3   OH212749   7.214   7.488   3.565
 4269TIP3    H112750   7.269   7.520   3.494
 4269TIP3    H212751   7.138   7.450   3.521
 4270TIP3   OH212752   1.929   3.354   4.015
 4270TIP3    H112753   1.849   3.407   4.011
 4270TIP3    H212754   1.958   3.362   4.106
 4271TIP3   OH212755   1.102   7.660   5.076
 4271TIP3    H112756   1.028   7.614   5.035
 4271TIP3    H212757   1.124   7.729   5.013
 4272TIP3   OH212758   5.685   5.386   3.621
 4272TIP3    H112759   5.693   5.479   3.642
 4272TIP3    H212760   5.640   5.384   3.537
 4273TIP3   OH212761   2.325   7.305   2.230
 4273TIP3    H112762   2.314   7.210   2.224
 4273TIP3    H212763   2.338   7.333   2.139
 4274TIP3   OH212764   1.068   0.058   0.132
 4274TIP3    H112765   0.984   0.025   0.101
 4274TIP3    H212766   1.125   0.054   0.055
 4275TIP3   OH212767   2.764   3.230   3.889
 4275TIP3    H112768   2.807   3.272   3.815
 4275TIP3    H212769   2.830   3.232   3.959
 4276TIP3   OH212770   2.799   4.611   4.278
 4276TIP3    H112771   2.846   4.691   4.255
 4276TIP3    H212772   2.777   4.570   4.194
 4277TIP3   OH212773   8.038   6.340   5.810
 4277TIP3    H112774   8.073   6.376   5.891
 4277TIP3    H212775   7.982   6.409   5.775
 4278TIP3   OH212776   1.629   7.644   0.246
 4278TIP3    H112777   1.676   7.578   0.195
 4278TIP3    H212778   1.540   7.642   0.210
 4279TIP3   OH212779   6.864   6.823   0.213
 4279TIP3    H112780   6.812   6.820   0.294
 4279TIP3    H212781   6.930   6.890   0.230
 4280TIP3   OH212782   1.461   5.255   3.176
 4280TIP3    H112783   1.499   5.340   3.194
 4280TIP3    H212784   1.417   5.266   3.092
 4281TIP3   OH212785   1.068   3.684   4.244
 4281TIP3    H112786   1.095   3.753   4.305
 4281TIP3    H212787   1.049   3.609   4.300
 4282TIP3   OH212788   1.266   5.583   6.437
 4282TIP3    H112789   1.225   5.509   6.392
 4282TIP3    H212790   1.246   5.659   6.381
 4283TIP3   OH212791   0.269   6.155   1.000
 4283TIP3    H112792   0.235   6.242   0.977
 4283TIP3    H212793   0.210   6.123   1.068
 4284TIP3   OH212794   1.077   6.610   5.038
 4284TIP3    H112795   0.997   6.568   5.069
 4284TIP3    H212796   1.140   6.538   5.030
 4285TIP3   OH212797   7.325   0.617   4.101
 4285TIP3    H112798   7.319   0.535   4.053
 4285TIP3    H212799   7.353   0.681   4.035
 4286TIP3   OH212800   6.246   4.223   1.929
 4286TIP3    H112801   6.204   4.203   1.846
 4286TIP3    H212802   6.261   4.317   1.927
 4287TIP3   OH212803   1.192   7.124   2.449
 4287TIP3    H112804   1.242   7.177   2.387
 4287TIP3    H212805   1.208   7.165   2.534
 4288TIP3   OH212806   1.013   0.420   6.038
 4288TIP3    H112807   1.046   0.441   5.951
 4288TIP3    H212808   1.032   0.327   6.049
 4289TIP3   OH212809   0.800   2.045   2.875
 4289TIP3    H112810   0.739   1.988   2.828
 4289TIP3    H212811   0.822   1.996   2.954
 4290TIP3   OH212812   7.506   1.280   1.560
 4290TIP3    H112813   7.440   1.278   1.630
 4290TIP3    H212814   7.561   1.356   1.581
 4291TIP3   OH212815   5.069   4.574   5.843
 4291TIP3    H112816   5.148   4.538   5.803
 4291TIP3    H212817   4.998   4.521   5.809
 4292TIP3   OH212818   1.229   2.183   6.482
 4292TIP3    H112819   1.224   2.147   6.394
 4292TIP3    H212820   1.144   2.164   6.521
 4293TIP3   OH212821   7.907   0.056   0.627
 4293TIP3    H112822   7.877   0.097   0.708
 4293TIP3    H212823   7.948   0.128   0.578
 4294TIP3   OH212824   0.880   3.043   1.948
 4294TIP3    H112825   0.822   3.083   1.883
 4294TIP3    H212826   0.911   2.962   1.906
 4295TIP3   OH212827   3.861   7.091   1.648
 4295TIP3    H112828   3.902   7.006   1.633
 4295TIP3    H212829   3.783   7.090   1.592
 4296TIP3   OH212830   7.371   6.469   2.607
 4296TIP3    H112831   7.458   6.429   2.607
 4296TIP3    H212832   7.325   6.426   2.679
 4297TIP3   OH212833   1.026   2.621   2.170
 4297TIP3    H112834   1.058   2.545   2.122
 4297TIP3    H212835   0.963   2.662   2.111
 4298TIP3   OH212836   0.821   0.482   3.194
 4298TIP3    H112837   0.903   0.532   3.193
 4298TIP3    H212838   0.836   0.412   3.130
 4299TIP3   OH212839   7.496   0.652   2.743
 4299TIP3    H112840   7.442   0.730   2.753
 4299TIP3    H212841   7.572   0.668   2.799
 4300TIP3   OH212842   1.615   5.069   6.233
 4300TIP3    H112843   1.695   5.094   6.280
 4300TIP3    H212844   1.613   5.127   6.157
 4301TIP3   OH212845   2.520   1.504   3.111
 4301TIP3    H112846   2.502   1.410   3.116
 4301TIP3    H212847   2.538   1.530   3.202
 4302TIP3   OH212848   7.821   3.251   6.636
 4302TIP3    H112849   7.912   3.268   6.610
 4302TIP3    H212850   7.822   3.159   6.664
 4303TIP3   OH212851   0.626   0.759   0.050
 4303TIP3    H112852   0.665   0.753   0.137
 4303TIP3    H212853   0.600   0.851   0.041
 4304TIP3   OH212854   4.475   3.299   4.691
 4304TIP3    H112855   4.402   3.238   4.702
 4304TIP3    H212856   4.511   3.310   4.779
 4305TIP3   OH212857   6.547   6.416   0.450
 4305TIP3    H112858   6.510   6.403   0.363
 4305TIP3    H212859   6.641   6.404   0.440
 4306TIP3   OH212860   3.687   4.615   2.762
 4306TIP3    H112861   3.687   4.521   2.775
 4306TIP3    H212862   3.776   4.636   2.733
 4307TIP3   OH212863   1.909   5.051   4.301
 4307TIP3    H112864   1.877   5.060   4.391
 4307TIP3    H212865   1.914   4.957   4.287
 4308TIP3   OH212866   5.993   7.722   0.421
 4308TIP3    H112867   5.974   7.654   0.486
 4308TIP3    H212868   5.934   7.794   0.444
 4309TIP3   OH212869   3.563   1.720   5.083
 4309TIP3    H112870   3.516   1.797   5.051
 4309TIP3    H212871   3.655   1.746   5.082
 4310TIP3   OH212872   3.091   3.185   3.961
 4310TIP3    H112873   3.095   3.178   4.056
 4310TIP3    H212874   3.177   3.155   3.931
 4311TIP3   OH212875   4.229   5.869   2.281
 4311TIP3    H112876   4.205   5.834   2.366
 4311TIP3    H212877   4.280   5.948   2.301
 4312TIP3   OH212878   1.653   2.551   2.150
 4312TIP3    H112879   1.682   2.598   2.072
 4312TIP3    H212880   1.557   2.550   2.143
 4313TIP3   OH212881   2.840   6.778   3.634
 4313TIP3    H112882   2.865   6.865   3.668
 4313TIP3    H212883   2.868   6.717   3.703
 4314TIP3   OH212884   1.423   4.790   5.046
 4314TIP3    H112885   1.403   4.700   5.022
 4314TIP3    H212886   1.433   4.835   4.962
 4315TIP3   OH212887   7.736   6.145   3.770
 4315TIP3    H112888   7.720   6.189   3.854
 4315TIP3    H212889   7.824   6.110   3.778
 4316TIP3   OH212890   3.941   1.009   3.923
 4316TIP3    H112891   3.997   0.981   3.995
 4316TIP3    H212892   3.984   1.086   3.887
 4317TIP3   OH212893   1.685   3.082   0.156
 4317TIP3    H112894   1.647   3.100   0.070
 4317TIP3    H212895   1.728   3.164   0.181
 4318TIP3   OH212896   0.698   2.477   4.497
 4318TIP3    H112897   0.694   2.573   4.497
 4318TIP3    H212898   0.663   2.452   4.583
 4319TIP3   OH212899   8.162   0.342   0.609
 4319TIP3    H112900   8.208   0.272   0.656
 4319TIP3    H212901   8.163   0.416   0.669
 4320TIP3   OH212902   5.208   7.164   4.416
 4320TIP3    H112903   5.276   7.116   4.369
 4320TIP3    H212904   5.257   7.219   4.478
 4321TIP3   OH212905   6.794   2.058   5.797
 4321TIP3    H112906   6.875   2.104   5.776
 4321TIP3    H212907   6.820   1.991   5.860
 4322TIP3   OH212908   2.770   2.448   1.894
 4322TIP3    H112909   2.859   2.461   1.929
 4322TIP3    H212910   2.722   2.408   1.967
 4323TIP3   OH212911   4.527   5.775   4.273
 4323TIP3    H112912   4.617   5.746   4.258
 4323TIP3    H212913   4.475   5.727   4.210
 4324TIP3   OH212914   2.620   0.910   0.081
 4324TIP3    H112915   2.578   0.950   0.158
 4324TIP3    H212916   2.688   0.854   0.118
 4325TIP3   OH212917   0.921   5.003   1.679
 4325TIP3    H112918   0.996   4.945   1.664
 4325TIP3    H212919   0.918   5.012   1.775
 4326TIP3   OH212920   0.978   6.889   3.806
 4326TIP3    H112921   0.948   6.873   3.716
 4326TIP3    H212922   1.010   6.804   3.836
 4327TIP3   OH212923   7.359   6.966   3.986
 4327TIP3    H112924   7.321   6.889   3.944
 4327TIP3    H212925   7.299   6.987   4.058
 4328TIP3   OH212926   7.765   3.430   5.842
 4328TIP3    H112927   7.809   3.509   5.810
 4328TIP3    H212928   7.689   3.463   5.891
 4329TIP3   OH212929   4.389   3.765   1.983
 4329TIP3    H112930   4.386   3.692   2.044
 4329TIP3    H212931   4.449   3.828   2.023
 4330TIP3   OH212932   4.069   2.959   0.304
 4330TIP3    H112933   4.045   2.960   0.397
 4330TIP3    H212934   4.125   3.035   0.293
 4331TIP3   OH212935   4.002   4.587   6.365
 4331TIP3    H112936   3.933   4.522   6.354
 4331TIP3    H212937   4.044   4.592   6.279
 4332TIP3   OH212938   2.310   3.393   1.241
 4332TIP3    H112939   2.348   3.469   1.285
 4332TIP3    H212940   2.246   3.430   1.181
 4333TIP3   OH212941   0.979   0.018   2.997
 4333TIP3    H112942   0.920   0.080   3.040
 4333TIP3    H212943   1.024  -0.027   3.069
 4334TIP3   OH212944   2.430   6.620   1.864
 4334TIP3    H112945   2.423   6.702   1.815
 4334TIP3    H212946   2.379   6.557   1.813
 4335TIP3   OH212947   3.865   0.476   6.427
 4335TIP3    H112948   3.831   0.506   6.511
 4335TIP3    H212949   3.821   0.393   6.411
 4336TIP3   OH212950   1.425   2.948   0.851
 4336TIP3    H112951   1.378   2.987   0.777
 4336TIP3    H212952   1.359   2.942   0.920
 4337TIP3   OH212953   3.812   0.171   2.113
 4337TIP3    H112954   3.781   0.108   2.047
 4337TIP3    H212955   3.841   0.246   2.062
 4338TIP3   OH212956   7.808   4.421   4.177
 4338TIP3    H112957   7.741   4.410   4.110
 4338TIP3    H212958   7.761   4.420   4.260
 4339TIP3   OH212959   2.532   0.347   1.952
 4339TIP3    H112960   2.493   0.430   1.925
 4339TIP3    H212961   2.457   0.296   1.983
 4340TIP3   OH212962   0.421   0.393   2.417
 4340TIP3    H112963   0.441   0.421   2.507
 4340TIP3    H212964   0.361   0.319   2.428
 4341TIP3   OH212965   4.312   5.618   3.074
 4341TIP3    H112966   4.329   5.652   3.161
 4341TIP3    H212967   4.342   5.686   3.014
 4342TIP3   OH212968   3.373   5.450   2.305
 4342TIP3    H112969   3.433   5.410   2.243
 4342TIP3    H212970   3.343   5.530   2.261
 4343TIP3   OH212971   1.522   1.055   2.905
 4343TIP3    H112972   1.433   1.088   2.893
 4343TIP3    H212973   1.535   1.055   3.000
 4344TIP3   OH212974   4.280   4.898   5.751
 4344TIP3    H112975   4.229   4.977   5.770
 4344TIP3    H212976   4.218   4.826   5.762
 4345TIP3   OH212977   4.355   2.853   5.380
 4345TIP3    H112978   4.327   2.765   5.354
 4345TIP3    H212979   4.420   2.837   5.449
 4346TIP3   OH212980   1.177   3.571   5.755
 4346TIP3    H112981   1.112   3.507   5.730
 4346TIP3    H212982   1.163   3.645   5.695
 4347TIP3   OH212983   1.476   0.177   0.779
 4347TIP3    H112984   1.497   0.212   0.865
 4347TIP3    H212985   1.387   0.207   0.761
 4348TIP3   OH212986   7.226   3.457   5.444
 4348TIP3    H112987   7.185   3.507   5.374
 4348TIP3    H212988   7.168   3.381   5.456
 4349TIP3   OH212989   5.281   7.765   6.249
 4349TIP3    H112990   5.294   7.678   6.210
 4349TIP3    H212991   5.233   7.747   6.330
 4350TIP3   OH212992   5.635   3.362   2.462
 4350TIP3    H112993   5.690   3.440   2.475
 4350TIP3    H212994   5.549   3.388   2.496
 4351TIP3   OH212995   7.347   2.786   0.368
 4351TIP3    H112996   7.280   2.853   0.361
 4351TIP3    H212997   7.409   2.821   0.432
 4352TIP3   OH212998   0.631   1.258   1.809
 4352TIP3    H112999   0.558   1.245   1.869
 4352TIP3    H213000   0.707   1.270   1.866
 4353TIP3   OH213001   6.604   4.613   0.597
 4353TIP3    H113002   6.628   4.521   0.584
 4353TIP3    H213003   6.687   4.660   0.586
 4354TIP3   OH213004   1.209   6.280   2.535
 4354TIP3    H113005   1.183   6.211   2.596
 4354TIP3    H213006   1.154   6.355   2.559
 4355TIP3   OH213007   1.471   0.552   0.818
 4355TIP3    H113008   1.476   0.648   0.811
 4355TIP3    H213009   1.412   0.536   0.891
 4356TIP3   OH213010   5.029   4.172   3.007
 4356TIP3    H113011   5.096   4.205   3.067
 4356TIP3    H213012   5.064   4.188   2.920
 4357TIP3   OH213013   2.628   0.419   1.417
 4357TIP3    H113014   2.635   0.409   1.512
 4357TIP3    H213015   2.568   0.492   1.404
 4358TIP3   OH213016   7.215   7.329   1.829
 4358TIP3    H113017   7.308   7.317   1.847
 4358TIP3    H213018   7.173   7.324   1.915
 4359TIP3   OH213019   2.988   6.169   0.134
 4359TIP3    H113020   3.041   6.239   0.096
 4359TIP3    H213021   2.974   6.196   0.224
 4360TIP3   OH213022   3.003   4.889   1.898
 4360TIP3    H113023   2.912   4.918   1.892
 4360TIP3    H213024   3.055   4.966   1.874
 4361TIP3   OH213025   1.153   6.071   3.929
 4361TIP3    H113026   1.199   5.997   3.968
 4361TIP3    H213027   1.221   6.122   3.885
 4362TIP3   OH213028   4.784   6.898   5.782
 4362TIP3    H113029   4.876   6.920   5.766
 4362TIP3    H213030   4.782   6.866   5.872
 4363TIP3   OH213031   1.929   6.830   5.204
 4363TIP3    H113032   1.842   6.842   5.165
 4363TIP3    H213033   1.947   6.915   5.245
 4364TIP3   OH213034   7.118   6.074   4.083
 4364TIP3    H113035   7.093   5.983   4.096
 4364TIP3    H213036   7.145   6.079   3.992
 4365TIP3   OH213037   0.781   0.191   4.919
 4365TIP3    H113038   0.707   0.136   4.943
 4365TIP3    H213039   0.742   0.263   4.869
 4366TIP3   OH213040   0.821   2.546   0.373
 4366TIP3    H113041   0.890   2.580   0.316
 4366TIP3    H213042   0.753   2.613   0.372
 4367TIP3   OH213043   1.911   3.320   1.008
 4367TIP3    H113044   1.825   3.349   1.037
 4367TIP3    H213045   1.892   3.252   0.942
 4368TIP3   OH213046   6.593   2.119   6.586
 4368TIP3    H113047   6.584   2.102   6.492
 4368TIP3    H213048   6.503   2.135   6.616
 4369TIP3   OH213049   4.983   0.632   0.710
 4369TIP3    H113050   4.977   0.681   0.792
 4369TIP3    H213051   5.062   0.666   0.669
 4370TIP3   OH213052   5.403   2.323   5.406
 4370TIP3    H113053   5.469   2.354   5.469
 4370TIP3    H213054   5.432   2.359   5.322
 4371TIP3   OH213055   5.432   4.875   4.787
 4371TIP3    H113056   5.417   4.905   4.877
 4371TIP3    H213057   5.413   4.781   4.790
 4372TIP3   OH213058   3.457   2.231   5.416
 4372TIP3    H113059   3.403   2.190   5.348
 4372TIP3    H213060   3.457   2.324   5.393
 4373TIP3   OH213061   0.322   2.508   2.572
 4373TIP3    H113062   0.261   2.529   2.642
 4373TIP3    H213063   0.408   2.510   2.613
 4374TIP3   OH213064   8.154   2.263   1.522
 4374TIP3    H113065   8.147   2.311   1.605
 4374TIP3    H213066   8.243   2.227   1.523
 4375TIP3   OH213067   5.291   1.293   5.424
 4375TIP3    H113068   5.318   1.330   5.508
 4375TIP3    H213069   5.351   1.220   5.410
 4376TIP3   OH213070   7.485   7.479   4.970
 4376TIP3    H113071   7.572   7.446   4.994
 4376TIP3    H213072   7.502   7.541   4.899
 4377TIP3   OH213073   2.847   1.292   3.601
 4377TIP3    H113074   2.896   1.210   3.597
 4377TIP3    H213075   2.873   1.340   3.522
 4378TIP3   OH213076   1.941   7.740   0.953
 4378TIP3    H113077   1.975   7.734   0.864
 4378TIP3    H213078   1.988   7.814   0.992
 4379TIP3   OH213079   5.064   5.578   3.028
 4379TIP3    H113080   5.106   5.516   3.088
 4379TIP3    H213081   5.043   5.526   2.951
 4380TIP3   OH213082   4.509   0.367   4.843
 4380TIP3    H113083   4.552   0.296   4.795
 4380TIP3    H213084   4.474   0.325   4.922
 4381TIP3   OH213085   6.840   4.941   6.742
 4381TIP3    H113086   6.761   4.933   6.688
 4381TIP3    H213087   6.831   4.872   6.808
 4382TIP3   OH213088   5.144   4.526   2.298
 4382TIP3    H113089   5.068   4.581   2.317
 4382TIP3    H213090   5.150   4.527   2.203
 4383TIP3   OH213091   0.097   4.448   0.694
 4383TIP3    H113092   0.166   4.402   0.741
 4383TIP3    H213093   0.072   4.389   0.623
 4384TIP3   OH213094   8.141   0.906   4.314
 4384TIP3    H113095   8.072   0.902   4.249
 4384TIP3    H213096   8.119   0.838   4.378
 4385TIP3   OH213097   1.672   2.628   5.577
 4385TIP3    H113098   1.728   2.685   5.524
 4385TIP3    H213099   1.605   2.596   5.517
 4386TIP3   OH213100   2.996   1.451   5.571
 4386TIP3    H113101   2.955   1.532   5.540
 4386TIP3    H213102   3.089   1.472   5.576
 4387TIP3   OH213103   1.361   7.444   5.269
 4387TIP3    H113104   1.385   7.534   5.293
 4387TIP3    H213105   1.288   7.422   5.328
 4388TIP3   OH213106   6.160   7.582   4.161
 4388TIP3    H113107   6.176   7.639   4.086
 4388TIP3    H213108   6.075   7.541   4.142
 4389TIP3   OH213109   3.099   5.013   2.188
 4389TIP3    H113110   3.016   5.020   2.140
 4389TIP3    H213111   3.114   5.101   2.222
 4390TIP3   OH213112   1.169   6.369   6.305
 4390TIP3    H113113   1.215   6.287   6.289
 4390TIP3    H213114   1.217   6.410   6.377
 4391TIP3   OH213115   1.282   5.530   4.688
 4391TIP3    H113116   1.243   5.518   4.601
 4391TIP3    H213117   1.208   5.539   4.747
 4392TIP3   OH213118   6.465   6.532   6.522
 4392TIP3    H113119   6.510   6.573   6.448
 4392TIP3    H213120   6.431   6.606   6.572
 4393TIP3   OH213121   7.875   5.337   4.496
 4393TIP3    H113122   7.844   5.307   4.582
 4393TIP3    H213123   7.833   5.278   4.434
 4394TIP3   OH213124   1.997   6.858   5.534
 4394TIP3    H113125   1.931   6.791   5.515
 4394TIP3    H213126   2.080   6.818   5.506
 4395TIP3   OH213127   8.001   4.914   2.589
 4395TIP3    H113128   8.059   4.919   2.513
 4395TIP3    H213129   7.964   4.826   2.586
 4396TIP3   OH213130   4.304   3.297   5.437
 4396TIP3    H113131   4.247   3.222   5.455
 4396TIP3    H213132   4.390   3.271   5.470
 4397TIP3   OH213133   3.232   7.729   5.654
 4397TIP3    H113134   3.144   7.767   5.656
 4397TIP3    H213135   3.288   7.800   5.622
 4398TIP3   OH213136   2.196   3.196   1.812
 4398TIP3    H113137   2.223   3.173   1.723
 4398TIP3    H213138   2.159   3.284   1.804
 4399TIP3   OH213139   3.558   5.084   5.829
 4399TIP3    H113140   3.565   5.016   5.762
 4399TIP3    H213141   3.612   5.156   5.795
 4400TIP3   OH213142   1.462   6.475   3.750
 4400TIP3    H113143   1.441   6.386   3.780
 4400TIP3    H213144   1.421   6.532   3.815
 4401TIP3   OH213145   5.571   0.626   3.856
 4401TIP3    H113146   5.521   0.612   3.775
 4401TIP3    H213147   5.505   0.649   3.921
 4402TIP3   OH213148   2.228   4.763   3.701
 4402TIP3    H113149   2.281   4.826   3.749
 4402TIP3    H213150   2.290   4.715   3.646
 4403TIP3   OH213151   0.451   7.341   3.712
 4403TIP3    H113152   0.377   7.311   3.659
 4403TIP3    H213153   0.467   7.269   3.773
 4404TIP3   OH213154   8.186   6.115   1.799
 4404TIP3    H113155   8.201   6.020   1.793
 4404TIP3    H213156   8.239   6.152   1.728
 4405TIP3   OH213157   1.759   3.827   6.129
 4405TIP3    H113158   1.821   3.898   6.148
 4405TIP3    H213159   1.674   3.871   6.124
 4406TIP3   OH213160   4.660   4.329   2.642
 4406TIP3    H113161   4.635   4.256   2.585
 4406TIP3    H213162   4.696   4.286   2.720
 4407TIP3   OH213163   7.675   2.700   4.939
 4407TIP3    H113164   7.614   2.743   4.878
 4407TIP3    H213165   7.682   2.761   5.012
 4408TIP3   OH213166   4.053   4.866   3.772
 4408TIP3    H113167   4.127   4.925   3.789
 4408TIP3    H213168   4.090   4.778   3.780
 4409TIP3   OH213169   5.340   3.493   1.791
 4409TIP3    H113170   5.277   3.421   1.791
 4409TIP3    H213171   5.376   3.493   1.702
 4410TIP3   OH213172   2.146   3.710   3.369
 4410TIP3    H113173   2.210   3.646   3.399
 4410TIP3    H213174   2.111   3.672   3.288
 4411TIP3   OH213175   3.074   6.864   5.011
 4411TIP3    H113176   3.024   6.865   5.092
 4411TIP3    H213177   3.037   6.792   4.960
 4412TIP3   OH213178   0.220   6.069   5.374
 4412TIP3    H113179   0.238   6.093   5.283
 4412TIP3    H213180   0.213   5.974   5.373
 4413TIP3   OH213181   5.000   7.166   2.950
 4413TIP3    H113182   5.055   7.091   2.974
 4413TIP3    H213183   5.012   7.228   3.022
 4414TIP3   OH213184   4.094   6.946   6.540
 4414TIP3    H113185   4.171   6.926   6.487
 4414TIP3    H213186   4.080   6.868   6.593
 4415TIP3   OH213187   8.225   0.548   0.439
 4415TIP3    H113188   8.295   0.610   0.456
 4415TIP3    H213189   8.238   0.477   0.502
 4416TIP3   OH213190   4.830   6.615   6.196
 4416TIP3    H113191   4.788   6.591   6.279
 4416TIP3    H213192   4.893   6.545   6.180
 4417TIP3   OH213193   2.845   6.229   0.365
 4417TIP3    H113194   2.837   6.316   0.404
 4417TIP3    H213195   2.765   6.218   0.313
 4418TIP3   OH213196   1.156   5.210   0.177
 4418TIP3    H113197   1.068   5.240   0.153
 4418TIP3    H213198   1.194   5.284   0.225
 4419TIP3   OH213199   0.345   6.625   4.592
 4419TIP3    H113200   0.293   6.680   4.650
 4419TIP3    H213201   0.369   6.549   4.646
 4420TIP3   OH213202   7.566   5.782   6.567
 4420TIP3    H113203   7.545   5.825   6.650
 4420TIP3    H213204   7.492   5.802   6.510
 4421TIP3   OH213205   7.023   0.810   5.494
 4421TIP3    H113206   7.091   0.754   5.456
 4421TIP3    H213207   6.947   0.753   5.501
 4422TIP3   OH213208   4.320   1.352   3.202
 4422TIP3    H113209   4.386   1.379   3.138
 4422TIP3    H213210   4.324   1.257   3.203
 4423TIP3   OH213211   7.702   1.403   3.873
 4423TIP3    H113212   7.649   1.343   3.925
 4423TIP3    H213213   7.727   1.353   3.796
 4424TIP3   OH213214   1.881   2.596   5.239
 4424TIP3    H113215   1.827   2.624   5.164
 4424TIP3    H213216   1.839   2.515   5.269
 4425TIP3   OH213217   7.006   6.213   0.020
 4425TIP3    H113218   7.043   6.300   0.009
 4425TIP3    H213219   7.080   6.159   0.047
 4426TIP3   OH213220   7.854   3.866   0.768
 4426TIP3    H113221   7.784   3.914   0.813
 4426TIP3    H213222   7.890   3.808   0.835
 4427TIP3   OH213223   3.740   4.792   6.442
 4427TIP3    H113224   3.835   4.792   6.441
 4427TIP3    H213225   3.714   4.742   6.365
 4428TIP3   OH213226   3.373   5.345   4.138
 4428TIP3    H113227   3.289   5.387   4.157
 4428TIP3    H213228   3.382   5.353   4.043
 4429TIP3   OH213229   7.662   2.616   5.319
 4429TIP3    H113230   7.699   2.588   5.403
 4429TIP3    H213231   7.712   2.694   5.295
 4430TIP3   OH213232   2.605   7.378   3.852
 4430TIP3    H113233   2.527   7.428   3.831
 4430TIP3    H213234   2.579   7.323   3.926
 4431TIP3   OH213235   2.029   0.256   5.179
 4431TIP3    H113236   2.023   0.344   5.217
 4431TIP3    H213237   2.061   0.270   5.090
 4432TIP3   OH213238   5.987   6.379   4.905
 4432TIP3    H113239   6.011   6.470   4.926
 4432TIP3    H213240   5.978   6.378   4.809
 4433TIP3   OH213241   1.087   2.004   6.316
 4433TIP3    H113242   1.157   1.943   6.341
 4433TIP3    H213243   1.107   2.027   6.225
 4434TIP3   OH213244   4.249   2.652   6.135
 4434TIP3    H113245   4.337   2.665   6.170
 4434TIP3    H213246   4.222   2.567   6.169
 4435TIP3   OH213247   5.505   3.973   5.720
 4435TIP3    H113248   5.544   3.888   5.701
 4435TIP3    H213249   5.563   4.012   5.785
 4436TIP3   OH213250   2.188   5.343   1.985
 4436TIP3    H113251   2.181   5.436   2.002
 4436TIP3    H213252   2.222   5.337   1.895
 4437TIP3   OH213253   4.169   4.692   0.465
 4437TIP3    H113254   4.151   4.716   0.374
 4437TIP3    H213255   4.248   4.638   0.461
 4438TIP3   OH213256   6.660   7.655   4.261
 4438TIP3    H113257   6.719   7.728   4.280
 4438TIP3    H213258   6.577   7.680   4.301
 4439TIP3   OH213259   5.288   1.455   3.978
 4439TIP3    H113260   5.218   1.424   4.035
 4439TIP3    H213261   5.336   1.375   3.953
 4440TIP3   OH213262   2.392   2.666   6.117
 4440TIP3    H113263   2.470   2.626   6.155
 4440TIP3    H213264   2.328   2.595   6.112
 4441TIP3   OH213265   6.136   6.803   2.062
 4441TIP3    H113266   6.100   6.835   2.144
 4441TIP3    H213267   6.157   6.711   2.079
 4442TIP3   OH213268   0.947   7.490   0.576
 4442TIP3    H113269   0.951   7.411   0.630
 4442TIP3    H213270   1.012   7.474   0.506
 4443TIP3   OH213271   6.475   1.262   3.556
 4443TIP3    H113272   6.397   1.305   3.591
 4443TIP3    H213273   6.505   1.206   3.628
 4444TIP3   OH213274   7.776   1.796   4.297
 4444TIP3    H113275   7.808   1.866   4.353
 4444TIP3    H213276   7.682   1.812   4.289
 4445TIP3   OH213277   0.529   4.816   3.359
 4445TIP3    H113278   0.580   4.883   3.405
 4445TIP3    H213279   0.492   4.762   3.429
 4446TIP3   OH213280   6.816   1.486   1.010
 4446TIP3    H113281   6.785   1.412   1.063
 4446TIP3    H213282   6.746   1.503   0.948
 4447TIP3   OH213283   6.663   5.205   6.364
 4447TIP3    H113284   6.608   5.261   6.308
 4447TIP3    H213285   6.745   5.196   6.316
 4448TIP3   OH213286   3.615   4.890   4.315
 4448TIP3    H113287   3.572   4.972   4.340
 4448TIP3    H213288   3.589   4.875   4.224
 4449TIP3   OH213289   5.790   6.355   6.655
 4449TIP3    H113290   5.773   6.329   6.745
 4449TIP3    H213291   5.836   6.439   6.662
 4450TIP3   OH213292   1.335   6.696   2.068
 4450TIP3    H113293   1.418   6.652   2.087
 4450TIP3    H213294   1.289   6.636   2.010
 4451TIP3   OH213295   6.379   5.162   2.930
 4451TIP3    H113296   6.383   5.254   2.903
 4451TIP3    H213297   6.319   5.121   2.868
 4452TIP3   OH213298   3.138   3.451   5.949
 4452TIP3    H113299   3.135   3.530   6.003
 4452TIP3    H213300   3.143   3.380   6.013
 4453TIP3   OH213301   1.621   3.869   3.115
 4453TIP3    H113302   1.655   3.940   3.061
 4453TIP3    H213303   1.692   3.806   3.119
 4454TIP3   OH213304   6.556   2.467   5.488
 4454TIP3    H113305   6.636   2.449   5.439
 4454TIP3    H213306   6.494   2.401   5.457
 4455TIP3   OH213307   1.172   2.496   0.059
 4455TIP3    H113308   1.267   2.486   0.065
 4455TIP3    H213309   1.142   2.420   0.008
 4456TIP3   OH213310   4.946   2.057   4.659
 4456TIP3    H113311   5.022   2.095   4.704
 4456TIP3    H213312   4.887   2.131   4.644
 4457TIP3   OH213313   2.874   6.628   4.613
 4457TIP3    H113314   2.967   6.631   4.591
 4457TIP3    H213315   2.849   6.720   4.624
 4458TIP3   OH213316   2.652   1.001   4.460
 4458TIP3    H113317   2.689   0.943   4.393
 4458TIP3    H213318   2.678   1.089   4.433
 4459TIP3   OH213319   5.598   5.777   3.134
 4459TIP3    H113320   5.612   5.820   3.218
 4459TIP3    H213321   5.521   5.722   3.147
 4460TIP3   OH213322   3.250   7.343   2.514
 4460TIP3    H113323   3.229   7.267   2.568
 4460TIP3    H213324   3.318   7.389   2.563
 4461TIP3   OH213325   0.881   3.354   4.332
 4461TIP3    H113326   0.832   3.435   4.316
 4461TIP3    H213327   0.972   3.382   4.339
 4462TIP3   OH213328   7.618   5.954   1.999
 4462TIP3    H113329   7.666   5.904   2.065
 4462TIP3    H213330   7.673   5.949   1.920
 4463TIP3   OH213331   6.286   3.679   3.403
 4463TIP3    H113332   6.283   3.706   3.494
 4463TIP3    H213333   6.243   3.749   3.355
 4464TIP3   OH213334   5.423   6.737   6.662
 4464TIP3    H113335   5.364   6.775   6.597
 4464TIP3    H213336   5.366   6.686   6.720
 4465TIP3   OH213337   3.083   4.278   1.918
 4465TIP3    H113338   3.102   4.320   1.834
 4465TIP3    H213339   3.036   4.343   1.969
 4466TIP3   OH213340   7.700   1.261   4.886
 4466TIP3    H113341   7.771   1.309   4.842
 4466TIP3    H213342   7.650   1.329   4.931
 4467TIP3   OH213343   4.798   5.425   0.002
 4467TIP3    H113344   4.820   5.334  -0.016
 4467TIP3    H213345   4.880   5.463   0.034
 4468TIP3   OH213346   7.935   2.404   3.903
 4468TIP3    H113347   7.961   2.460   3.976
 4468TIP3    H213348   8.016   2.364   3.873
 4469TIP3   OH213349   1.799   1.553   3.332
 4469TIP3    H113350   1.834   1.505   3.256
 4469TIP3    H213351   1.844   1.637   3.331
 4470TIP3   OH213352   7.664   7.598   2.365
 4470TIP3    H113353   7.686   7.552   2.284
 4470TIP3    H213354   7.748   7.627   2.401
 4471TIP3   OH213355   8.115   3.175   2.382
 4471TIP3    H113356   8.167   3.174   2.301
 4471TIP3    H213357   8.165   3.231   2.441
 4472TIP3   OH213358   1.601   7.513   6.243
 4472TIP3    H113359   1.545   7.572   6.195
 4472TIP3    H213360   1.688   7.552   6.237
 4473TIP3   OH213361   3.964   6.283   0.434
 4473TIP3    H113362   3.954   6.188   0.429
 4473TIP3    H213363   3.877   6.315   0.456
 4474TIP3   OH213364   2.152   4.654   0.415
 4474TIP3    H113365   2.090   4.717   0.452
 4474TIP3    H213366   2.228   4.705   0.390
 4475TIP3   OH213367   3.003   3.266   4.848
 4475TIP3    H113368   2.989   3.277   4.755
 4475TIP3    H213369   2.944   3.328   4.890
 4476TIP3   OH213370   7.825   6.011   5.658
 4476TIP3    H113371   7.916   6.039   5.663
 4476TIP3    H213372   7.825   5.923   5.696
 4477TIP3   OH213373   3.342   6.391   1.632
 4477TIP3    H113374   3.422   6.338   1.643
 4477TIP3    H213375   3.306   6.362   1.548
 4478TIP3   OH213376   7.405   7.540   2.322
 4478TIP3    H113377   7.409   7.529   2.227
 4478TIP3    H213378   7.496   7.539   2.351
 4479TIP3   OH213379   4.527   7.744   2.211
 4479TIP3    H113380   4.599   7.691   2.244
 4479TIP3    H213381   4.488   7.782   2.289
 4480TIP3   OH213382  -0.026   6.802   0.992
 4480TIP3    H113383   0.028   6.863   1.043
 4480TIP3    H213384   0.009   6.810   0.903
 4481TIP3   OH213385   6.058   4.163   3.191
 4481TIP3    H113386   6.121   4.233   3.209
 4481TIP3    H213387   5.975   4.198   3.224
 4482TIP3   OH213388   3.860   6.686   2.417
 4482TIP3    H113389   3.861   6.686   2.512
 4482TIP3    H213390   3.905   6.605   2.392
 4483TIP3   OH213391   6.561   2.211   3.886
 4483TIP3    H113392   6.501   2.137   3.884
 4483TIP3    H213393   6.620   2.196   3.812
 4484TIP3   OH213394   4.384   2.795   0.361
 4484TIP3    H113395   4.302   2.827   0.321
 4484TIP3    H213396   4.366   2.796   0.455
 4485TIP3   OH213397   6.818   2.477   5.383
 4485TIP3    H113398   6.840   2.385   5.368
 4485TIP3    H213399   6.899   2.517   5.414
 4486TIP3   OH213400   6.090   0.216   5.642
 4486TIP3    H113401   6.059   0.301   5.612
 4486TIP3    H213402   6.050   0.204   5.728
 4487TIP3   OH213403   4.828   3.865   6.188
 4487TIP3    H113404   4.778   3.931   6.236
 4487TIP3    H213405   4.796   3.781   6.221
 4488TIP3   OH213406   4.743   0.819   5.339
 4488TIP3    H113407   4.658   0.776   5.347
 4488TIP3    H213408   4.760   0.857   5.426
 4489TIP3   OH213409   6.600   0.469   4.762
 4489TIP3    H113410   6.572   0.415   4.688
 4489TIP3    H213411   6.535   0.451   4.830
 4490TIP3   OH213412   2.487   6.576   2.819
 4490TIP3    H113413   2.431   6.646   2.852
 4490TIP3    H213414   2.575   6.614   2.819
 4491TIP3   OH213415   8.252   0.447   5.985
 4491TIP3    H113416   8.252   0.355   6.011
 4491TIP3    H213417   8.333   0.483   6.022
 4492TIP3   OH213418   5.017   7.007   5.117
 4492TIP3    H113419   5.091   7.051   5.076
 4492TIP3    H213420   4.974   6.960   5.046
 4493TIP3   OH213421   4.798   3.333   4.703
 4493TIP3    H113422   4.735   3.369   4.766
 4493TIP3    H213423   4.872   3.394   4.706
 4494TIP3   OH213424   5.392   6.966   4.364
 4494TIP3    H113425   5.448   6.979   4.288
 4494TIP3    H213426   5.406   6.875   4.389
 4495TIP3   OH213427   3.924   0.526   1.446
 4495TIP3    H113428   3.904   0.432   1.453
 4495TIP3    H213429   3.899   0.562   1.531
 4496TIP3   OH213430   7.408   7.600   0.446
 4496TIP3    H113431   7.324   7.613   0.402
 4496TIP3    H213432   7.409   7.664   0.516
 4497TIP3   OH213433   6.961   1.792   1.265
 4497TIP3    H113434   6.913   1.784   1.348
 4497TIP3    H213435   7.004   1.708   1.254
 4498TIP3   OH213436   7.709   7.529   2.908
 4498TIP3    H113437   7.797   7.526   2.945
 4498TIP3    H213438   7.721   7.514   2.814
 4499TIP3   OH213439   2.650   1.022   3.953
 4499TIP3    H113440   2.597   1.040   4.030
 4499TIP3    H213441   2.679   1.108   3.923
 4500TIP3   OH213442   6.311   7.473   5.165
 4500TIP3    H113443   6.304   7.568   5.162
 4500TIP3    H213444   6.221   7.443   5.182
 4501TIP3   OH213445   4.790   1.964   1.035
 4501TIP3    H113446   4.786   1.951   1.130
 4501TIP3    H213447   4.715   2.020   1.015
 4502TIP3   OH213448   5.456   3.507   4.839
 4502TIP3    H113449   5.444   3.525   4.745
 4502TIP3    H213450   5.367   3.503   4.873
 4503TIP3   OH213451   0.981   0.255   5.384
 4503TIP3    H113452   0.914   0.194   5.415
 4503TIP3    H213453   0.981   0.243   5.289
 4504TIP3   OH213454   0.464   4.873   3.880
 4504TIP3    H113455   0.422   4.942   3.933
 4504TIP3    H213456   0.417   4.793   3.904
 4505TIP3   OH213457   0.353   1.913   4.460
 4505TIP3    H113458   0.343   1.870   4.375
 4505TIP3    H213459   0.412   1.986   4.443
 4506TIP3   OH213460   7.044   1.784   5.092
 4506TIP3    H113461   7.031   1.704   5.144
 4506TIP3    H213462   7.053   1.854   5.157
 4507TIP3   OH213463   3.100   7.564   2.481
 4507TIP3    H113464   3.130   7.474   2.489
 4507TIP3    H213465   3.113   7.585   2.389
 4508TIP3   OH213466   5.128   6.972   4.193
 4508TIP3    H113467   5.107   6.985   4.286
 4508TIP3    H213468   5.173   7.052   4.168
 4509TIP3   OH213469   4.445   6.654   3.795
 4509TIP3    H113470   4.419   6.595   3.866
 4509TIP3    H213471   4.362   6.680   3.755
 4510TIP3   OH213472   0.029   2.862   0.411
 4510TIP3    H113473  -0.052   2.901   0.377
 4510TIP3    H213474   0.096   2.885   0.347
 4511TIP3   OH213475   2.715   0.612   5.874
 4511TIP3    H113476   2.666   0.541   5.831
 4511TIP3    H213477   2.776   0.643   5.806
 4512TIP3   OH213478   7.061   0.720   4.230
 4512TIP3    H113479   7.132   0.673   4.185
 4512TIP3    H213480   7.019   0.770   4.160
 4513TIP3   OH213481   4.565   6.726   2.524
 4513TIP3    H113482   4.549   6.734   2.618
 4513TIP3    H213483   4.640   6.783   2.507
 4514TIP3   OH213484   6.101   6.719   0.974
 4514TIP3    H113485   6.052   6.645   1.011
 4514TIP3    H213486   6.109   6.781   1.046
 4515TIP3   OH213487   4.738   6.183   5.551
 4515TIP3    H113488   4.678   6.240   5.599
 4515TIP3    H213489   4.694   6.098   5.549
 4516TIP3   OH213490   6.478   6.870   3.084
 4516TIP3    H113491   6.395   6.822   3.086
 4516TIP3    H213492   6.460   6.949   3.135
 4517TIP3   OH213493   1.471   2.385   4.853
 4517TIP3    H113494   1.388   2.432   4.845
 4517TIP3    H213495   1.458   2.327   4.929
 4518TIP3   OH213496   2.062   0.510   5.298
 4518TIP3    H113497   2.109   0.578   5.249
 4518TIP3    H213498   1.988   0.556   5.337
 4519TIP3   OH213499   7.460   5.729   4.455
 4519TIP3    H113500   7.396   5.701   4.521
 4519TIP3    H213501   7.476   5.821   4.474
 4520TIP3   OH213502   7.090   1.847   0.427
 4520TIP3    H113503   7.101   1.816   0.517
 4520TIP3    H213504   7.066   1.939   0.437
 4521TIP3   OH213505   7.929   3.690   6.571
 4521TIP3    H113506   7.925   3.773   6.619
 4521TIP3    H213507   7.839   3.675   6.543
 4522TIP3   OH213508   4.730   2.094   2.705
 4522TIP3    H113509   4.704   2.035   2.634
 4522TIP3    H213510   4.798   2.047   2.752
 4523TIP3   OH213511   0.863   3.094   2.817
 4523TIP3    H113512   0.841   3.085   2.909
 4523TIP3    H213513   0.828   3.179   2.792
 4524TIP3   OH213514   3.635   0.631   1.765
 4524TIP3    H113515   3.587   0.600   1.689
 4524TIP3    H213516   3.722   0.592   1.756
 4525TIP3   OH213517   6.920   1.255   0.337
 4525TIP3    H113518   6.908   1.348   0.355
 4525TIP3    H213519   7.006   1.249   0.296
 4526TIP3   OH213520   1.403   4.963   2.756
 4526TIP3    H113521   1.389   4.975   2.662
 4526TIP3    H213522   1.347   4.888   2.779
 4527TIP3   OH213523   3.584   6.020   3.651
 4527TIP3    H113524   3.573   5.926   3.640
 4527TIP3    H213525   3.658   6.029   3.710
 4528TIP3   OH213526   5.990   1.386   0.635
 4528TIP3    H113527   5.918   1.327   0.612
 4528TIP3    H213528   6.068   1.332   0.628
 4529TIP3   OH213529   8.216   3.599   1.075
 4529TIP3    H113530   8.135   3.576   1.030
 4529TIP3    H213531   8.196   3.590   1.168
 4530TIP3   OH213532   0.156   7.474   1.806
 4530TIP3    H113533   0.237   7.511   1.771
 4530TIP3    H213534   0.142   7.394   1.754
 4531TIP3   OH213535   2.107   2.154   5.921
 4531TIP3    H113536   2.051   2.155   5.998
 4531TIP3    H213537   2.194   2.132   5.955
 4532TIP3   OH213538   0.302   0.393   4.571
 4532TIP3    H113539   0.235   0.331   4.601
 4532TIP3    H213540   0.309   0.456   4.643
 4533TIP3   OH213541   7.709   2.567   6.419
 4533TIP3    H113542   7.754   2.497   6.370
 4533TIP3    H213543   7.662   2.617   6.352
 4534TIP3   OH213544   1.749   1.342   4.415
 4534TIP3    H113545   1.721   1.408   4.478
 4534TIP3    H213546   1.759   1.389   4.333
 4535TIP3   OH213547   2.007   2.371   6.091
 4535TIP3    H113548   1.981   2.340   6.178
 4535TIP3    H213549   1.936   2.342   6.033
 4536TIP3   OH213550   5.763   3.372   4.330
 4536TIP3    H113551   5.804   3.455   4.355
 4536TIP3    H213552   5.744   3.329   4.413
 4537TIP3   OH213553   2.414   7.476   0.367
 4537TIP3    H113554   2.439   7.402   0.311
 4537TIP3    H213555   2.355   7.438   0.432
 4538TIP3   OH213556   6.344   2.370   3.174
 4538TIP3    H113557   6.292   2.307   3.125
 4538TIP3    H213558   6.333   2.452   3.126
 4539TIP3   OH213559   8.189   2.891   4.311
 4539TIP3    H113560   8.180   2.796   4.300
 4539TIP3    H213561   8.258   2.916   4.250
 4540TIP3   OH213562   3.505   7.290   1.526
 4540TIP3    H113563   3.550   7.315   1.607
 4540TIP3    H213564   3.499   7.371   1.476
 4541TIP3   OH213565   5.222   4.887   0.775
 4541TIP3    H113566   5.240   4.966   0.825
 4541TIP3    H213567   5.127   4.887   0.762
 4542TIP3   OH213568   4.254   7.032   0.957
 4542TIP3    H113569   4.232   7.066   1.044
 4542TIP3    H213570   4.184   7.065   0.900
 4543TIP3   OH213571   2.447   5.056   5.076
 4543TIP3    H113572   2.531   5.052   5.122
 4543TIP3    H213573   2.403   4.974   5.099
 4544TIP3   OH213574   8.187   2.666   3.285
 4544TIP3    H113575   8.161   2.741   3.338
 4544TIP3    H213576   8.232   2.704   3.209
 4545TIP3   OH213577   6.003   1.563   0.036
 4545TIP3    H113578   6.010   1.653   0.006
 4545TIP3    H213579   6.055   1.513  -0.027
 4546TIP3   OH213580   0.430   6.878   6.689
 4546TIP3    H113581   0.384   6.794   6.692
 4546TIP3    H213582   0.404   6.923   6.769
 4547TIP3   OH213583   2.393   3.382   3.876
 4547TIP3    H113584   2.327   3.331   3.829
 4547TIP3    H213585   2.378   3.472   3.847
 4548TIP3   OH213586   4.760   0.227   6.660
 4548TIP3    H113587   4.842   0.251   6.703
 4548TIP3    H213588   4.786   0.169   6.589
 4549TIP3   OH213589   1.659   4.823   1.927
 4549TIP3    H113590   1.692   4.823   1.837
 4549TIP3    H213591   1.706   4.895   1.970
 4550TIP3   OH213592   8.109   2.173   6.177
 4550TIP3    H113593   8.016   2.191   6.194
 4550TIP3    H213594   8.114   2.078   6.167
 4551TIP3   OH213595   3.920   4.020   2.196
 4551TIP3    H113596   3.951   4.051   2.111
 4551TIP3    H213597   3.895   4.100   2.243
 4552TIP3   OH213598   4.360   3.780   4.799
 4552TIP3    H113599   4.383   3.710   4.737
 4552TIP3    H213600   4.410   3.759   4.878
 4553TIP3   OH213601   4.142   0.225   3.697
 4553TIP3    H113602   4.164   0.162   3.766
 4553TIP3    H213603   4.222   0.230   3.644
 4554TIP3   OH213604   7.198   5.498   5.732
 4554TIP3    H113605   7.144   5.486   5.654
 4554TIP3    H213606   7.192   5.414   5.778
 4555TIP3   OH213607   1.031   6.596   6.103
 4555TIP3    H113608   1.044   6.564   6.013
 4555TIP3    H213609   1.119   6.610   6.137
 4556TIP3   OH213610   1.470   3.737   2.146
 4556TIP3    H113611   1.417   3.770   2.073
 4556TIP3    H213612   1.498   3.815   2.193
 4557TIP3   OH213613   0.856   5.776   4.033
 4557TIP3    H113614   0.926   5.782   3.968
 4557TIP3    H213615   0.897   5.738   4.110
 4558TIP3   OH213616   4.733   2.245   3.621
 4558TIP3    H113617   4.658   2.247   3.562
 4558TIP3    H213618   4.799   2.193   3.574
 4559TIP3   OH213619   5.803   1.403   0.363
 4559TIP3    H113620   5.790   1.360   0.447
 4559TIP3    H213621   5.855   1.342   0.311
 4560TIP3   OH213622   7.594   0.590   3.423
 4560TIP3    H113623   7.680   0.557   3.395
 4560TIP3    H213624   7.541   0.512   3.436
 4561TIP3   OH213625   2.789   1.289   4.925
 4561TIP3    H113626   2.820   1.201   4.949
 4561TIP3    H213627   2.812   1.298   4.833
 4562TIP3   OH213628   6.980   6.393   3.409
 4562TIP3    H113629   6.945   6.304   3.405
 4562TIP3    H213630   6.919   6.445   3.358
 4563TIP3   OH213631   7.328   6.523   0.698
 4563TIP3    H113632   7.318   6.466   0.622
 4563TIP3    H213633   7.399   6.583   0.673
 4564TIP3   OH213634   1.883   1.408   1.860
 4564TIP3    H113635   1.964   1.458   1.870
 4564TIP3    H213636   1.909   1.331   1.808
 4565TIP3   OH213637   6.712   2.122   3.669
 4565TIP3    H113638   6.728   2.028   3.673
 4565TIP3    H213639   6.795   2.160   3.641
 4566TIP3   OH213640   7.188   3.977   1.162
 4566TIP3    H113641   7.095   3.992   1.148
 4566TIP3    H213642   7.221   4.059   1.200
 4567TIP3   OH213643   0.878   5.147   3.566
 4567TIP3    H113644   0.966   5.109   3.569
 4567TIP3    H213645   0.891   5.238   3.592
 4568TIP3   OH213646   3.306   0.486   1.365
 4568TIP3    H113647   3.315   0.500   1.459
 4568TIP3    H213648   3.293   0.574   1.328
 4569TIP3   OH213649   6.778   1.489   2.959
 4569TIP3    H113650   6.694   1.466   2.920
 4569TIP3    H213651   6.805   1.410   3.006
 4570TIP3   OH213652   4.611   1.650   3.553
 4570TIP3    H113653   4.529   1.699   3.552
 4570TIP3    H213654   4.589   1.567   3.595
 4571TIP3   OH213655   5.332   2.598   4.105
 4571TIP3    H113656   5.418   2.572   4.138
 4571TIP3    H213657   5.327   2.691   4.122
 4572TIP3   OH213658   2.719   3.828   5.638
 4572TIP3    H113659   2.693   3.918   5.658
 4572TIP3    H213660   2.763   3.835   5.553
 4573TIP3   OH213661   5.207   0.390   4.525
 4573TIP3    H113662   5.136   0.407   4.587
 4573TIP3    H213663   5.277   0.353   4.579
 4574TIP3   OH213664   6.042   0.750   6.685
 4574TIP3    H113665   5.953   0.784   6.683
 4574TIP3    H213666   6.035   0.666   6.732
 4575TIP3   OH213667   3.982   7.714   5.452
 4575TIP3    H113668   3.927   7.728   5.529
 4575TIP3    H213669   3.933   7.753   5.380
 4576TIP3   OH213670   0.787   1.046   0.744
 4576TIP3    H113671   0.823   1.070   0.830
 4576TIP3    H213672   0.768   0.953   0.751
 4577TIP3   OH213673   5.945   0.341   1.794
 4577TIP3    H113674   5.939   0.429   1.831
 4577TIP3    H213675   6.034   0.336   1.758
 4578TIP3   OH213676   5.701   7.391   6.082
 4578TIP3    H113677   5.639   7.425   6.018
 4578TIP3    H213678   5.659   7.406   6.167
 4579TIP3   OH213679   2.690   0.719   3.243
 4579TIP3    H113680   2.621   0.678   3.190
 4579TIP3    H213681   2.731   0.646   3.290
 4580TIP3   OH213682   3.944   4.142   0.897
 4580TIP3    H113683   3.909   4.215   0.845
 4580TIP3    H213684   3.887   4.068   0.875
 4581TIP3   OH213685   0.679   3.297   2.405
 4581TIP3    H113686   0.585   3.310   2.400
 4581TIP3    H213687   0.694   3.213   2.361
 4582TIP3   OH213688   6.820   7.351   2.447
 4582TIP3    H113689   6.886   7.298   2.402
 4582TIP3    H213690   6.737   7.321   2.411
 4583TIP3   OH213691   4.233   3.544   6.139
 4583TIP3    H113692   4.221   3.480   6.209
 4583TIP3    H213693   4.294   3.503   6.079
 4584TIP3   OH213694   1.630   3.914   0.194
 4584TIP3    H113695   1.540   3.906   0.227
 4584TIP3    H213696   1.651   3.827   0.160
 4585TIP3   OH213697   0.858   4.755   4.860
 4585TIP3    H113698   0.934   4.780   4.914
 4585TIP3    H213699   0.787   4.747   4.923
 4586TIP3   OH213700   2.099   2.064   2.162
 4586TIP3    H113701   2.045   1.986   2.177
 4586TIP3    H213702   2.186   2.039   2.195
 4587TIP3   OH213703   2.493   3.441   0.640
 4587TIP3    H113704   2.481   3.511   0.704
 4587TIP3    H213705   2.418   3.450   0.581
 4588TIP3   OH213706   4.814   3.636   4.422
 4588TIP3    H113707   4.739   3.667   4.473
 4588TIP3    H213708   4.774   3.584   4.351
 4589TIP3   OH213709   4.984   3.280   5.421
 4589TIP3    H113710   4.896   3.272   5.457
 4589TIP3    H213711   4.972   3.314   5.333
 4590TIP3   OH213712   6.745   7.478   5.378
 4590TIP3    H113713   6.722   7.548   5.316
 4590TIP3    H213714   6.838   7.492   5.397
 4591TIP3   OH213715   4.407   2.197   1.375
 4591TIP3    H113716   4.362   2.219   1.293
 4591TIP3    H213717   4.337   2.179   1.437
 4592TIP3   OH213718  -0.003   0.262   1.513
 4592TIP3    H113719  -0.017   0.213   1.432
 4592TIP3    H213720   0.051   0.336   1.487
 4593TIP3   OH213721   5.758   0.661   3.456
 4593TIP3    H113722   5.716   0.739   3.417
 4593TIP3    H213723   5.762   0.598   3.384
 4594TIP3   OH213724   2.761   0.107   3.944
 4594TIP3    H113725   2.827   0.164   3.983
 4594TIP3    H213726   2.692   0.166   3.916
 4595TIP3   OH213727   1.276   6.010   0.147
 4595TIP3    H113728   1.326   6.073   0.199
 4595TIP3    H213729   1.241   5.948   0.211
 4596TIP3   OH213730   6.141   7.513   1.265
 4596TIP3    H113731   6.171   7.546   1.349
 4596TIP3    H213732   6.125   7.591   1.212
 4597TIP3   OH213733   1.416   5.427   0.148
 4597TIP3    H113734   1.435   5.521   0.155
 4597TIP3    H213735   1.453   5.390   0.228
 4598TIP3   OH213736   0.127   3.221   6.726
 4598TIP3    H113737   0.038   3.243   6.754
 4598TIP3    H213738   0.184   3.271   6.785
 4599TIP3   OH213739   1.077   1.153   1.615
 4599TIP3    H113740   1.049   1.070   1.577
 4599TIP3    H213741   1.173   1.149   1.612
 4600TIP3   OH213742   5.244   2.628   5.028
 4600TIP3    H113743   5.203   2.608   4.944
 4600TIP3    H213744   5.207   2.713   5.053
 4601TIP3   OH213745   7.442   1.279   3.208
 4601TIP3    H113746   7.386   1.357   3.199
 4601TIP3    H213747   7.456   1.249   3.119
 4602TIP3   OH213748   3.112   1.248   3.011
 4602TIP3    H113749   3.079   1.206   2.932
 4602TIP3    H213750   3.077   1.196   3.083
 4603TIP3   OH213751   3.767   1.053   3.662
 4603TIP3    H113752   3.716   1.077   3.584
 4603TIP3    H213753   3.701   1.045   3.731
 4604TIP3   OH213754   4.814   3.152   2.206
 4604TIP3    H113755   4.850   3.064   2.205
 4604TIP3    H213756   4.745   3.149   2.273
 4605TIP3   OH213757   4.118   6.327   6.073
 4605TIP3    H113758   4.165   6.281   6.143
 4605TIP3    H213759   4.029   6.291   6.077
 4606TIP3   OH213760   4.528   4.673   5.834
 4606TIP3    H113761   4.467   4.721   5.778
 4606TIP3    H213762   4.523   4.718   5.918
 4607TIP3   OH213763   6.655   5.703   5.447
 4607TIP3    H113764   6.740   5.744   5.461
 4607TIP3    H213765   6.676   5.623   5.398
 4608TIP3   OH213766   5.620   5.323   6.049
 4608TIP3    H113767   5.666   5.347   6.129
 4608TIP3    H213768   5.560   5.395   6.032
 4609TIP3   OH213769   3.532   0.262   0.423
 4609TIP3    H113770   3.487   0.258   0.508
 4609TIP3    H213771   3.620   0.231   0.441
 4610TIP3   OH213772   5.089   4.946   1.812
 4610TIP3    H113773   5.038   4.887   1.756
 4610TIP3    H213774   5.044   4.943   1.897
 4611TIP3   OH213775   1.193   5.296   5.453
 4611TIP3    H113776   1.286   5.281   5.436
 4611TIP3    H213777   1.190   5.328   5.543
 4612TIP3   OH213778   3.730   6.025   5.921
 4612TIP3    H113779   3.812   6.037   5.969
 4612TIP3    H213780   3.744   6.071   5.838
 4613TIP3   OH213781   3.124   0.437   5.585
 4613TIP3    H113782   3.192   0.437   5.518
 4613TIP3    H213783   3.107   0.345   5.601
 4614TIP3   OH213784   5.958   5.000   2.336
 4614TIP3    H113785   5.914   4.930   2.384
 4614TIP3    H213786   5.890   5.066   2.322
 4615TIP3   OH213787   0.964   7.635   4.268
 4615TIP3    H113788   0.930   7.564   4.322
 4615TIP3    H213789   0.911   7.632   4.189
 4616TIP3   OH213790   0.050   3.005   4.136
 4616TIP3    H113791   0.131   2.960   4.161
 4616TIP3    H213792   0.042   2.988   4.042
 4617TIP3   OH213793   1.953   3.014   4.409
 4617TIP3    H113794   1.873   2.972   4.442
 4617TIP3    H213795   1.939   3.022   4.315
 4618TIP3   OH213796   0.253   3.014   3.447
 4618TIP3    H113797   0.280   3.102   3.473
 4618TIP3    H213798   0.159   3.012   3.462
 4619TIP3   OH213799   2.410   3.857   5.154
 4619TIP3    H113800   2.432   3.922   5.087
 4619TIP3    H213801   2.438   3.897   5.236
 4620TIP3   OH213802   7.625   6.387   1.030
 4620TIP3    H113803   7.558   6.318   1.032
 4620TIP3    H213804   7.586   6.459   1.079
 4621TIP3   OH213805   5.640   3.516   4.589
 4621TIP3    H113806   5.599   3.430   4.583
 4621TIP3    H213807   5.706   3.506   4.657
 4622TIP3   OH213808   6.662   3.358   0.864
 4622TIP3    H113809   6.582   3.349   0.916
 4622TIP3    H213810   6.733   3.343   0.927
 4623TIP3   OH213811   0.259   2.679   4.372
 4623TIP3    H113812   0.178   2.628   4.379
 4623TIP3    H213813   0.328   2.613   4.371
 4624TIP3   OH213814   6.573   0.193   4.638
 4624TIP3    H113815   6.638   0.158   4.576
 4624TIP3    H213816   6.493   0.143   4.619
 4625TIP3   OH213817   3.556   0.145   5.212
 4625TIP3    H113818   3.628   0.085   5.230
 4625TIP3    H213819   3.598   0.220   5.170
 4626TIP3   OH213820   1.288   1.589   6.334
 4626TIP3    H113821   1.338   1.576   6.414
 4626TIP3    H213822   1.278   1.501   6.297
 4627TIP3   OH213823   6.109   0.182   2.559
 4627TIP3    H113824   6.204   0.190   2.553
 4627TIP3    H213825   6.075   0.245   2.496
 4628TIP3   OH213826   5.581   4.419   2.044
 4628TIP3    H113827   5.619   4.499   2.008
 4628TIP3    H213828   5.653   4.376   2.090
 4629TIP3   OH213829   0.848   6.342   3.660
 4629TIP3    H113830   0.875   6.383   3.577
 4629TIP3    H213831   0.852   6.248   3.642
 4630TIP3   OH213832   6.438   1.463   6.596
 4630TIP3    H113833   6.402   1.468   6.508
 4630TIP3    H213834   6.384   1.522   6.648
 4631TIP3   OH213835   2.745   0.840   1.216
 4631TIP3    H113836   2.659   0.827   1.256
 4631TIP3    H213837   2.767   0.756   1.178
 4632TIP3   OH213838   2.390   7.098   0.693
 4632TIP3    H113839   2.417   7.119   0.604
 4632TIP3    H213840   2.322   7.031   0.683
 4633TIP3   OH213841   5.413   0.029   3.148
 4633TIP3    H113842   5.401  -0.051   3.199
 4633TIP3    H213843   5.338   0.032   3.090
 4634TIP3   OH213844   7.053   5.001   0.752
 4634TIP3    H113845   7.081   4.937   0.686
 4634TIP3    H213846   6.992   4.953   0.807
 4635TIP3   OH213847   2.125   5.692   2.332
 4635TIP3    H113848   2.154   5.775   2.370
 4635TIP3    H213849   2.035   5.682   2.362
 4636TIP3   OH213850   8.221   5.882   3.375
 4636TIP3    H113851   8.176   5.958   3.412
 4636TIP3    H213852   8.303   5.877   3.424
 4637TIP3   OH213853   7.414   1.352   1.977
 4637TIP3    H113854   7.327   1.318   1.997
 4637TIP3    H213855   7.431   1.325   1.887
 4638TIP3   OH213856   0.130   4.210   5.189
 4638TIP3    H113857   0.038   4.221   5.164
 4638TIP3    H213858   0.168   4.297   5.179
 4639TIP3   OH213859   5.123   6.985   3.823
 4639TIP3    H113860   5.206   6.992   3.869
 4639TIP3    H213861   5.073   7.061   3.852
 4640TIP3   OH213862   8.167   4.301   6.613
 4640TIP3    H113863   8.168   4.205   6.608
 4640TIP3    H213864   8.082   4.326   6.578
 4641TIP3   OH213865   8.196   6.005   2.774
 4641TIP3    H113866   8.214   6.036   2.863
 4641TIP3    H213867   8.145   6.076   2.734
 4642TIP3   OH213868   5.869   3.916   6.020
 4642TIP3    H113869   5.941   3.891   5.962
 4642TIP3    H213870   5.796   3.933   5.961
 4643TIP3   OH213871   6.629   1.864   3.396
 4643TIP3    H113872   6.621   1.769   3.404
 4643TIP3    H213873   6.674   1.877   3.312
 4644TIP3   OH213874   6.513   2.381   2.847
 4644TIP3    H113875   6.479   2.318   2.911
 4644TIP3    H213876   6.444   2.447   2.840
 4645TIP3   OH213877   7.632   1.112   0.692
 4645TIP3    H113878   7.564   1.130   0.627
 4645TIP3    H213879   7.673   1.031   0.661
 4646TIP3   OH213880   6.462   4.775   5.620
 4646TIP3    H113881   6.509   4.856   5.597
 4646TIP3    H213882   6.476   4.718   5.545
 4647TIP3   OH213883   7.944   6.313   6.286
 4647TIP3    H113884   7.931   6.313   6.380
 4647TIP3    H213885   7.875   6.371   6.253
 4648TIP3   OH213886   1.337   1.784   5.952
 4648TIP3    H113887   1.400   1.804   5.883
 4648TIP3    H213888   1.255   1.769   5.906
 4649TIP3   OH213889   7.879   3.196   0.233
 4649TIP3    H113890   7.862   3.178   0.326
 4649TIP3    H213891   7.895   3.110   0.195
 4650TIP3   OH213892   8.268   4.249   1.903
 4650TIP3    H113893   8.325   4.171   1.903
 4650TIP3    H213894   8.215   4.240   1.824
 4651TIP3   OH213895   5.921   3.370   6.357
 4651TIP3    H113896   5.996   3.320   6.391
 4651TIP3    H213897   5.959   3.424   6.287
 4652TIP3   OH213898   7.031   3.032   6.616
 4652TIP3    H113899   6.995   2.943   6.618
 4652TIP3    H213900   6.967   3.084   6.665
 4653TIP3   OH213901   7.501   7.161   0.709
 4653TIP3    H113902   7.544   7.081   0.739
 4653TIP3    H213903   7.552   7.232   0.746
 4654TIP3   OH213904   6.897   7.120   5.492
 4654TIP3    H113905   6.972   7.171   5.523
 4654TIP3    H213906   6.826   7.183   5.486
 4655TIP3   OH213907   0.997   0.114   1.695
 4655TIP3    H113908   0.930   0.085   1.756
 4655TIP3    H213909   0.983   0.060   1.617
 4656TIP3   OH213910   6.417   6.885   0.191
 4656TIP3    H113911   6.470   6.926   0.123
 4656TIP3    H213912   6.478   6.873   0.264
 4657TIP3   OH213913   1.469   3.689   4.566
 4657TIP3    H113914   1.405   3.689   4.494
 4657TIP3    H213915   1.428   3.743   4.634
 4658TIP3   OH213916   4.218   2.745   4.465
 4658TIP3    H113917   4.293   2.686   4.461
 4658TIP3    H213918   4.257   2.831   4.481
 4659TIP3   OH213919   5.361   0.346   6.246
 4659TIP3    H113920   5.454   0.333   6.264
 4659TIP3    H213921   5.337   0.272   6.191
 4660TIP3   OH213922   2.440   4.917   0.599
 4660TIP3    H113923   2.432   4.834   0.645
 4660TIP3    H213924   2.530   4.946   0.616
 4661TIP3   OH213925   0.552   2.959   3.458
 4661TIP3    H113926   0.593   3.006   3.531
 4661TIP3    H213927   0.461   2.990   3.458
 4662TIP3   OH213928   2.066   3.437   1.680
 4662TIP3    H113929   2.127   3.478   1.741
 4662TIP3    H213930   1.980   3.466   1.708
 4663TIP3   OH213931   0.360   3.766   0.365
 4663TIP3    H113932   0.365   3.848   0.415
 4663TIP3    H213933   0.429   3.774   0.300
 4664TIP3   OH213934   5.569   2.304   1.940
 4664TIP3    H113935   5.517   2.251   1.880
 4664TIP3    H213936   5.506   2.335   2.005
 4665TIP3   OH213937   2.912   4.742   2.110
 4665TIP3    H113938   2.853   4.806   2.150
 4665TIP3    H213939   2.938   4.782   2.027
 4666TIP3   OH213940   0.317   7.205   2.213
 4666TIP3    H113941   0.228   7.172   2.198
 4666TIP3    H213942   0.318   7.229   2.306
 4667TIP3   OH213943   0.850   6.912   3.536
 4667TIP3    H113944   0.757   6.892   3.527
 4667TIP3    H213945   0.894   6.848   3.479
 4668TIP3   OH213946   4.102   3.240   3.041
 4668TIP3    H113947   4.143   3.221   2.957
 4668TIP3    H213948   4.011   3.262   3.019
 4669TIP3   OH213949   1.720   1.212   0.088
 4669TIP3    H113950   1.707   1.257   0.172
 4669TIP3    H213951   1.792   1.259   0.046
 4670TIP3   OH213952   3.262   3.129   0.977
 4670TIP3    H113953   3.266   3.220   0.949
 4670TIP3    H213954   3.190   3.126   1.041
 4671TIP3   OH213955   2.872   2.667   4.661
 4671TIP3    H113956   2.911   2.584   4.690
 4671TIP3    H213957   2.919   2.734   4.711
 4672TIP3   OH213958   0.931   5.979   4.586
 4672TIP3    H113959   0.981   6.020   4.515
 4672TIP3    H213960   0.898   6.053   4.637
 4673TIP3   OH213961   5.744   1.735   3.549
 4673TIP3    H113962   5.754   1.830   3.539
 4673TIP3    H213963   5.707   1.706   3.466
 4674TIP3   OH213964   5.515   1.547   0.372
 4674TIP3    H113965   5.585   1.487   0.398
 4674TIP3    H213966   5.528   1.624   0.427
 4675TIP3   OH213967   0.710   2.643   4.922
 4675TIP3    H113968   0.703   2.723   4.973
 4675TIP3    H213969   0.663   2.577   4.972
 4676TIP3   OH213970   4.735   6.317   4.082
 4676TIP3    H113971   4.707   6.302   4.173
 4676TIP3    H213972   4.760   6.410   4.080
 4677TIP3   OH213973   3.203   0.328   3.049
 4677TIP3    H113974   3.251   0.259   3.003
 4677TIP3    H213975   3.136   0.356   2.987
 4678TIP3   OH213976   1.058   2.284   3.418
 4678TIP3    H113977   1.105   2.258   3.339
 4678TIP3    H213978   1.069   2.379   3.422
 4679TIP3   OH213979   0.172   4.787   6.118
 4679TIP3    H113980   0.102   4.728   6.144
 4679TIP3    H213981   0.193   4.836   6.197
 4680TIP3   OH213982   5.880   2.429   2.714
 4680TIP3    H113983   5.846   2.353   2.761
 4680TIP3    H213984   5.878   2.500   2.777
 4681TIP3   OH213985   5.397   3.059   4.786
 4681TIP3    H113986   5.393   2.964   4.778
 4681TIP3    H213987   5.328   3.091   4.728
 4682TIP3   OH213988   1.398   0.335   6.501
 4682TIP3    H113989   1.338   0.374   6.565
 4682TIP3    H213990   1.440   0.409   6.458
 4683TIP3   OH213991   2.585   6.187   2.499
 4683TIP3    H113992   2.597   6.259   2.437
 4683TIP3    H213993   2.662   6.192   2.556
 4684TIP3   OH213994   3.322   4.744   5.076
 4684TIP3    H113995   3.272   4.691   5.014
 4684TIP3    H213996   3.340   4.686   5.150
 4685TIP3   OH213997   7.137   6.768   6.800
 4685TIP3    H113998   7.128   6.791   6.708
 4685TIP3    H213999   7.073   6.822   6.846
 4686TIP3   OH214000   2.577   7.643   2.718
 4686TIP3    H114001   2.643   7.693   2.767
 4686TIP3    H214002   2.627   7.601   2.648
 4687TIP3   OH214003   2.014   1.894   0.149
 4687TIP3    H114004   2.075   1.967   0.138
 4687TIP3    H214005   1.930   1.937   0.167
 4688TIP3   OH214006   3.745   6.805   6.746
 4688TIP3    H114007   3.680   6.833   6.810
 4688TIP3    H214008   3.722   6.854   6.666
 4689TIP3   OH214009   1.538   1.408   2.207
 4689TIP3    H114010   1.613   1.463   2.229
 4689TIP3    H214011   1.530   1.414   2.112
 4690TIP3   OH214012   3.161   0.115   6.530
 4690TIP3    H114013   3.134   0.052   6.463
 4690TIP3    H214014   3.126   0.079   6.611
 4691TIP3   OH214015   4.890   1.437   1.572
 4691TIP3    H114016   4.821   1.411   1.633
 4691TIP3    H214017   4.864   1.396   1.489
 4692TIP3   OH214018   2.965   1.808   3.626
 4692TIP3    H114019   2.949   1.743   3.557
 4692TIP3    H214020   2.952   1.892   3.583
 4693TIP3   OH214021   2.684   1.019   6.490
 4693TIP3    H114022   2.707   1.046   6.579
 4693TIP3    H214023   2.666   0.925   6.497
 4694TIP3   OH214024   7.721   4.487   0.455
 4694TIP3    H114025   7.627   4.482   0.468
 4694TIP3    H214026   7.757   4.423   0.517
 4695TIP3   OH214027   1.073   2.350   0.869
 4695TIP3    H114028   1.039   2.280   0.926
 4695TIP3    H214029   0.995   2.391   0.833
 4696TIP3   OH214030   5.484   4.759   0.921
 4696TIP3    H114031   5.566   4.807   0.919
 4696TIP3    H214032   5.459   4.757   1.014
 4697TIP3   OH214033   0.902   3.759   1.950
 4697TIP3    H114034   0.987   3.734   1.914
 4697TIP3    H214035   0.906   3.733   2.042
 4698TIP3   OH214036   7.501   6.274   3.740
 4698TIP3    H114037   7.438   6.257   3.670
 4698TIP3    H214038   7.579   6.223   3.716
 4699TIP3   OH214039   7.742   4.985   5.154
 4699TIP3    H114040   7.732   5.051   5.085
 4699TIP3    H214041   7.654   4.976   5.191
 4700TIP3   OH214042   8.181   4.260   1.628
 4700TIP3    H114043   8.197   4.264   1.534
 4700TIP3    H214044   8.130   4.180   1.640
 4701TIP3   OH214045   5.907   0.550   0.386
 4701TIP3    H114046   5.868   0.610   0.449
 4701TIP3    H214047   5.997   0.581   0.375
 4702TIP3   OH214048   6.904   7.015   2.669
 4702TIP3    H114049   6.864   7.023   2.582
 4702TIP3    H214050   6.866   7.086   2.720
 4703TIP3   OH214051   5.759   7.176   3.001
 4703TIP3    H114052   5.796   7.095   3.036
 4703TIP3    H214053   5.668   7.154   2.980
 4704TIP3   OH214054   2.117   4.199   1.056
 4704TIP3    H114055   2.046   4.237   1.108
 4704TIP3    H214056   2.084   4.199   0.966
 4705TIP3   OH214057   7.534   4.826   2.976
 4705TIP3    H114058   7.539   4.921   2.986
 4705TIP3    H214059   7.444   4.810   2.945
 4706TIP3   OH214060   5.062   6.882   3.581
 4706TIP3    H114061   4.997   6.949   3.558
 4706TIP3    H214062   5.089   6.904   3.670
 4707TIP3   OH214063   5.744   2.622   4.791
 4707TIP3    H114064   5.657   2.583   4.786
 4707TIP3    H214065   5.747   2.663   4.877
 4708TIP3   OH214066   3.607   6.951   6.548
 4708TIP3    H114067   3.514   6.961   6.567
 4708TIP3    H214068   3.610   6.922   6.457
 4709TIP3   OH214069   3.189   4.774   4.088
 4709TIP3    H114070   3.224   4.863   4.088
 4709TIP3    H214071   3.115   4.778   4.148
 4710TIP3   OH214072   6.771   0.736   5.255
 4710TIP3    H114073   6.755   0.673   5.325
 4710TIP3    H214074   6.710   0.711   5.186
 4711TIP3   OH214075   7.835   4.756   6.582
 4711TIP3    H114076   7.768   4.696   6.547
 4711TIP3    H214077   7.885   4.784   6.506
 4712TIP3   OH214078   4.809   7.250   1.217
 4712TIP3    H114079   4.768   7.171   1.183
 4712TIP3    H214080   4.777   7.320   1.161
 4713TIP3   OH214081   5.392   0.831   0.423
 4713TIP3    H114082   5.354   0.841   0.336
 4713TIP3    H214083   5.346   0.895   0.477
 4714TIP3   OH214084   3.447   6.578   2.573
 4714TIP3    H114085   3.522   6.518   2.580
 4714TIP3    H214086   3.483   6.657   2.532
 4715TIP3   OH214087   4.552   6.289   5.714
 4715TIP3    H114088   4.531   6.357   5.779
 4715TIP3    H214089   4.468   6.267   5.674
 4716TIP3   OH214090   7.941   5.774   6.154
 4716TIP3    H114091   7.874   5.727   6.104
 4716TIP3    H214092   7.920   5.867   6.142
 4717TIP3   OH214093   6.558   7.645   2.366
 4717TIP3    H114094   6.631   7.692   2.325
 4717TIP3    H214095   6.591   7.556   2.377
 4718TIP3   OH214096   7.586   2.934   1.863
 4718TIP3    H114097   7.588   2.839   1.874
 4718TIP3    H214098   7.500   2.951   1.824
 4719TIP3   OH214099   4.426   1.651   5.910
 4719TIP3    H114100   4.380   1.691   5.836
 4719TIP3    H214101   4.408   1.558   5.902
 4720TIP3   OH214102   3.412   1.743   2.950
 4720TIP3    H114103   3.489   1.756   3.005
 4720TIP3    H214104   3.418   1.813   2.884
 4721TIP3   OH214105   3.925   3.659   0.315
 4721TIP3    H114106   3.887   3.680   0.230
 4721TIP3    H214107   3.955   3.744   0.349
 4722TIP3   OH214108   6.810   0.961   0.398
 4722TIP3    H114109   6.872   0.950   0.470
 4722TIP3    H214110   6.864   0.983   0.322
 4723TIP3   OH214111   1.755   6.760   4.298
 4723TIP3    H114112   1.706   6.740   4.378
 4723TIP3    H214113   1.817   6.828   4.324
 4724TIP3   OH214114   2.184   4.818   4.476
 4724TIP3    H114115   2.258   4.761   4.495
 4724TIP3    H214116   2.223   4.906   4.469
 4725TIP3   OH214117   7.423   5.415   1.634
 4725TIP3    H114118   7.370   5.467   1.694
 4725TIP3    H214119   7.434   5.470   1.557
 4726TIP3   OH214120   7.851   1.773   1.493
 4726TIP3    H114121   7.760   1.796   1.474
 4726TIP3    H214122   7.884   1.846   1.546
 4727TIP3   OH214123   1.741   3.780   2.546
 4727TIP3    H114124   1.676   3.762   2.614
 4727TIP3    H214125   1.805   3.837   2.589
 4728TIP3   OH214126   3.350   3.653   2.662
 4728TIP3    H114127   3.388   3.698   2.587
 4728TIP3    H214128   3.413   3.584   2.683
 4729TIP3   OH214129   1.046   3.377   6.072
 4729TIP3    H114130   1.119   3.346   6.018
 4729TIP3    H214131   1.044   3.318   6.147
 4730TIP3   OH214132   5.195   1.257   3.619
 4730TIP3    H114133   5.165   1.273   3.529
 4730TIP3    H214134   5.115   1.242   3.669
 4731TIP3   OH214135   6.288   6.494   2.469
 4731TIP3    H114136   6.379   6.469   2.455
 4731TIP3    H214137   6.282   6.511   2.563
 4732TIP3   OH214138   0.246   7.556   3.668
 4732TIP3    H114139   0.293   7.485   3.712
 4732TIP3    H214140   0.154   7.532   3.678
 4733TIP3   OH214141   5.744   1.333   6.251
 4733TIP3    H114142   5.659   1.308   6.216
 4733TIP3    H214143   5.738   1.427   6.265
 4734TIP3   OH214144   5.325   4.491   4.265
 4734TIP3    H114145   5.408   4.503   4.311
 4734TIP3    H214146   5.332   4.405   4.224
 4735TIP3   OH214147   0.518   4.424   0.047
 4735TIP3    H114148   0.559   4.338   0.035
 4735TIP3    H214149   0.448   4.408   0.109
 4736TIP3   OH214150   4.795   1.407   5.606
 4736TIP3    H114151   4.805   1.346   5.533
 4736TIP3    H214152   4.703   1.400   5.631
 4737TIP3   OH214153   5.482   2.152   0.449
 4737TIP3    H114154   5.539   2.104   0.510
 4737TIP3    H214155   5.438   2.084   0.399
 4738TIP3   OH214156   2.084   2.634   0.125
 4738TIP3    H114157   1.997   2.673   0.131
 4738TIP3    H214158   2.073   2.546   0.161
 4739TIP3   OH214159   5.101   4.360   3.510
 4739TIP3    H114160   5.038   4.288   3.506
 4739TIP3    H214161   5.057   4.427   3.563
 4740TIP3   OH214162   7.028   7.463   0.140
 4740TIP3    H114163   7.042   7.525   0.068
 4740TIP3    H214164   6.933   7.466   0.156
 4741TIP3   OH214165   4.092   0.101   5.529
 4741TIP3    H114166   4.021   0.137   5.581
 4741TIP3    H214167   4.091   0.152   5.448
 4742TIP3   OH214168   4.264   7.436   5.802
 4742TIP3    H114169   4.320   7.513   5.795
 4742TIP3    H214170   4.226   7.426   5.715
 4743TIP3   OH214171   7.282   3.838   0.741
 4743TIP3    H114172   7.330   3.767   0.700
 4743TIP3    H214173   7.343   3.874   0.806
 4744TIP3   OH214174   5.804   7.358   3.212
 4744TIP3    H114175   5.830   7.447   3.186
 4744TIP3    H214176   5.778   7.316   3.130
 4745TIP3   OH214177   3.170   4.754   4.451
 4745TIP3    H114178   3.210   4.837   4.479
 4745TIP3    H214179   3.077   4.765   4.473
 4746TIP3   OH214180   0.453   6.064   1.404
 4746TIP3    H114181   0.366   6.092   1.435
 4746TIP3    H214182   0.481   6.133   1.344
 4747TIP3   OH214183   4.595   1.787   1.994
 4747TIP3    H114184   4.625   1.762   1.907
 4747TIP3    H214185   4.662   1.846   2.027
 4748TIP3   OH214186   4.980   4.130   0.283
 4748TIP3    H114187   4.919   4.063   0.253
 4748TIP3    H214188   4.962   4.206   0.227
 4749TIP3   OH214189   2.968   5.600   6.277
 4749TIP3    H114190   2.950   5.633   6.365
 4749TIP3    H214191   3.061   5.578   6.278
 4750TIP3   OH214192   6.424   4.911   5.241
 4750TIP3    H114193   6.505   4.878   5.280
 4750TIP3    H214194   6.374   4.832   5.219
 4751TIP3   OH214195   1.006   4.774   6.452
 4751TIP3    H114196   1.000   4.684   6.419
 4751TIP3    H214197   1.005   4.828   6.373
 4752TIP3   OH214198   2.815   5.378   2.942
 4752TIP3    H114199   2.749   5.426   2.993
 4752TIP3    H214200   2.897   5.423   2.962
 4753TIP3   OH214201   2.742   2.285   2.760
 4753TIP3    H114202   2.780   2.270   2.847
 4753TIP3    H214203   2.665   2.339   2.777
 4754TIP3   OH214204   5.381   5.309   1.474
 4754TIP3    H114205   5.400   5.374   1.407
 4754TIP3    H214206   5.285   5.307   1.479
 4755TIP3   OH214207   8.083   1.336   3.023
 4755TIP3    H114208   8.028   1.409   3.053
 4755TIP3    H214209   8.081   1.343   2.928
 4756TIP3   OH214210   8.053   5.764   1.126
 4756TIP3    H114211   8.081   5.676   1.101
 4756TIP3    H214212   8.066   5.767   1.221
 4757TIP3   OH214213   1.150   6.300   2.052
 4757TIP3    H114214   1.183   6.348   2.129
 4757TIP3    H214215   1.169   6.358   1.978
 4758TIP3   OH214216   2.633   1.832   5.595
 4758TIP3    H114217   2.546   1.795   5.579
 4758TIP3    H214218   2.692   1.782   5.539
 4759TIP3   OH214219   5.170   5.811   3.263
 4759TIP3    H114220   5.075   5.800   3.255
 4759TIP3    H214221   5.202   5.812   3.173
 4760TIP3   OH214222   6.401   6.281   2.803
 4760TIP3    H114223   6.348   6.324   2.736
 4760TIP3    H214224   6.490   6.281   2.768
 4761TIP3   OH214225   5.503   5.427   5.569
 4761TIP3    H114226   5.569   5.493   5.589
 4761TIP3    H214227   5.438   5.437   5.638
 4762TIP3   OH214228   7.804   6.462   4.821
 4762TIP3    H114229   7.783   6.399   4.890
 4762TIP3    H214230   7.734   6.527   4.827
 4763TIP3   OH214231   5.210   6.231   2.071
 4763TIP3    H114232   5.261   6.312   2.071
 4763TIP3    H214233   5.164   6.232   1.987
 4764TIP3   OH214234   4.677   0.386   4.030
 4764TIP3    H114235   4.629   0.318   4.077
 4764TIP3    H214236   4.769   0.361   4.040
 4765TIP3   OH214237   2.886   0.208   0.764
 4765TIP3    H114238   2.830   0.168   0.831
 4765TIP3    H214239   2.939   0.135   0.731
 4766TIP3   OH214240   4.019   0.405   3.899
 4766TIP3    H114241   4.019   0.329   3.958
 4766TIP3    H214242   4.066   0.375   3.821
 4767TIP3   OH214243   5.327   6.703   4.980
 4767TIP3    H114244   5.364   6.779   5.025
 4767TIP3    H214245   5.404   6.658   4.945
 4768TIP3   OH214246   4.751   6.982   1.128
 4768TIP3    H114247   4.688   6.911   1.123
 4768TIP3    H214248   4.751   7.021   1.041
 4769TIP3   OH214249   1.039   6.569   2.951
 4769TIP3    H114250   1.003   6.481   2.957
 4769TIP3    H214251   1.131   6.556   2.929
 4770TIP3   OH214252   6.977   1.575   4.619
 4770TIP3    H114253   7.018   1.659   4.600
 4770TIP3    H214254   6.893   1.597   4.659
 4771TIP3   OH214255   6.425   0.781   4.403
 4771TIP3    H114256   6.433   0.876   4.409
 4771TIP3    H214257   6.341   0.767   4.360
 4772TIP3   OH214258   1.552   0.735   4.215
 4772TIP3    H114259   1.534   0.650   4.175
 4772TIP3    H214260   1.611   0.716   4.287
 4773TIP3   OH214261   2.031   2.333   2.873
 4773TIP3    H114262   2.023   2.245   2.837
 4773TIP3    H214263   2.122   2.357   2.858
 4774TIP3   OH214264   2.516   2.440   5.935
 4774TIP3    H114265   2.512   2.518   5.990
 4774TIP3    H214266   2.450   2.382   5.971
 4775TIP3   OH214267   2.394   3.768   1.917
 4775TIP3    H114268   2.356   3.832   1.857
 4775TIP3    H214269   2.488   3.776   1.905
 4776TIP3   OH214270   5.215   7.166   0.596
 4776TIP3    H114271   5.212   7.202   0.508
 4776TIP3    H214272   5.259   7.232   0.649
 4777TIP3   OH214273   4.731   6.450   1.417
 4777TIP3    H114274   4.806   6.408   1.376
 4777TIP3    H214275   4.692   6.503   1.347
 4778TIP3   OH214276   4.946   1.163   3.775
 4778TIP3    H114277   4.869   1.148   3.831
 4778TIP3    H214278   4.935   1.100   3.704
 4779TIP3   OH214279   5.845   1.412   2.668
 4779TIP3    H114280   5.886   1.364   2.596
 4779TIP3    H214281   5.753   1.387   2.664
 4780TIP3   OH214282   7.696   2.500   3.374
 4780TIP3    H114283   7.627   2.565   3.363
 4780TIP3    H214284   7.652   2.426   3.416
 4781TIP3   OH214285   4.594   3.225   6.026
 4781TIP3    H114286   4.547   3.149   6.059
 4781TIP3    H214287   4.681   3.218   6.066
 4782TIP3   OH214288   7.837   7.174   5.149
 4782TIP3    H114289   7.765   7.217   5.197
 4782TIP3    H214290   7.843   7.087   5.189
 4783TIP3   OH214291   4.171   5.443   6.174
 4783TIP3    H114292   4.173   5.352   6.203
 4783TIP3    H214293   4.195   5.439   6.081
 4784TIP3   OH214294   5.859   1.950   3.811
 4784TIP3    H114295   5.815   2.000   3.880
 4784TIP3    H214296   5.850   1.858   3.838
 4785TIP3   OH214297   1.126   3.102   0.700
 4785TIP3    H114298   1.179   3.127   0.776
 4785TIP3    H214299   1.112   3.008   0.711
 4786TIP3   OH214300   3.986   0.542   6.198
 4786TIP3    H114301   3.942   0.511   6.277
 4786TIP3    H214302   3.915   0.561   6.137
 4787TIP3   OH214303   2.357   3.067   5.898
 4787TIP3    H114304   2.349   3.153   5.940
 4787TIP3    H214305   2.292   3.013   5.943
 4788TIP3   OH214306   3.239   0.861   1.049
 4788TIP3    H114307   3.287   0.855   0.967
 4788TIP3    H214308   3.161   0.913   1.028
 4789TIP3   OH214309   5.260   6.593   3.330
 4789TIP3    H114310   5.350   6.593   3.297
 4789TIP3    H214311   5.266   6.551   3.416
 4790TIP3   OH214312   3.432   6.950   0.480
 4790TIP3    H114313   3.343   6.921   0.457
 4790TIP3    H214314   3.488   6.875   0.457
 4791TIP3   OH214315   3.407   4.267   3.478
 4791TIP3    H114316   3.430   4.241   3.388
 4791TIP3    H214317   3.459   4.344   3.495
 4792TIP3   OH214318   0.503   4.745   0.323
 4792TIP3    H114319   0.532   4.761   0.413
 4792TIP3    H214320   0.580   4.764   0.270
 4793TIP3   OH214321   4.580   6.637   3.148
 4793TIP3    H114322   4.545   6.726   3.140
 4793TIP3    H214323   4.666   6.641   3.106
 4794TIP3   OH214324   6.977   3.989   2.348
 4794TIP3    H114325   6.926   3.976   2.268
 4794TIP3    H214326   6.952   3.915   2.404
 4795TIP3   OH214327   2.659   4.433   6.530
 4795TIP3    H114328   2.665   4.370   6.602
 4795TIP3    H214329   2.604   4.504   6.564
 4796TIP3   OH214330   8.083   5.804   4.456
 4796TIP3    H114331   8.083   5.719   4.413
 4796TIP3    H214332   8.146   5.857   4.406
 4797TIP3   OH214333   1.274   1.418   5.352
 4797TIP3    H114334   1.212   1.491   5.351
 4797TIP3    H214335   1.310   1.416   5.263
 4798TIP3   OH214336   5.267   1.019   0.578
 4798TIP3    H114337   5.175   1.009   0.600
 4798TIP3    H214338   5.297   1.093   0.630
 4799TIP3   OH214339   4.799   7.535   5.780
 4799TIP3    H114340   4.770   7.479   5.852
 4799TIP3    H214341   4.737   7.607   5.779
 4800TIP3   OH214342   6.426   1.884   0.938
 4800TIP3    H114343   6.392   1.833   1.011
 4800TIP3    H214344   6.350   1.902   0.884
 4801TIP3   OH214345   4.316   6.915   4.298
 4801TIP3    H114346   4.232   6.960   4.290
 4801TIP3    H214347   4.323   6.893   4.390
 4802TIP3   OH214348   3.432   0.266   6.234
 4802TIP3    H114349   3.392   0.214   6.165
 4802TIP3    H214350   3.525   0.270   6.211
 4803TIP3   OH214351   7.031   3.235   2.600
 4803TIP3    H114352   7.017   3.313   2.546
 4803TIP3    H214353   7.124   3.238   2.622
 4804TIP3   OH214354   0.598   7.791   1.433
 4804TIP3    H114355   0.682   7.746   1.439
 4804TIP3    H214356   0.589   7.814   1.340
 4805TIP3   OH214357   6.343   1.727   3.066
 4805TIP3    H114358   6.419   1.785   3.072
 4805TIP3    H214359   6.315   1.734   2.975
 4806TIP3   OH214360   0.286   3.987   6.407
 4806TIP3    H114361   0.199   4.027   6.408
 4806TIP3    H214362   0.269   3.893   6.401
 4807TIP3   OH214363   4.770   2.604   4.827
 4807TIP3    H114364   4.748   2.514   4.850
 4807TIP3    H214365   4.847   2.596   4.770
 4808TIP3   OH214366   5.110   0.900   1.731
 4808TIP3    H114367   5.140   0.981   1.690
 4808TIP3    H214368   5.187   0.844   1.734
 4809TIP3   OH214369   7.339   6.557   1.683
 4809TIP3    H114370   7.344   6.479   1.628
 4809TIP3    H214371   7.393   6.536   1.760
 4810TIP3   OH214372   0.066   3.870   4.932
 4810TIP3    H114373   0.024   3.785   4.920
 4810TIP3    H214374  -0.006   3.933   4.935
 4811TIP3   OH214375   1.484   3.203   4.601
 4811TIP3    H114376   1.444   3.266   4.541
 4811TIP3    H214377   1.449   3.118   4.573
 4812TIP3   OH214378   1.988   1.272   3.564
 4812TIP3    H114379   1.914   1.332   3.560
 4812TIP3    H214380   2.022   1.281   3.653
 4813TIP3   OH214381   5.444   4.465   5.232
 4813TIP3    H114382   5.465   4.421   5.315
 4813TIP3    H214383   5.405   4.548   5.259
 4814TIP3   OH214384   2.287   1.013   3.282
 4814TIP3    H114385   2.210   1.051   3.241
 4814TIP3    H214386   2.300   1.063   3.362
 4815TIP3   OH214387   8.290   3.758   0.242
 4815TIP3    H114388   8.380   3.724   0.249
 4815TIP3    H214389   8.238   3.700   0.298
 4816TIP3   OH214390   3.287   4.810   6.425
 4816TIP3    H114391   3.304   4.747   6.355
 4816TIP3    H214392   3.357   4.874   6.417
 4817TIP3   OH214393   5.097   7.552   1.469
 4817TIP3    H114394   5.040   7.478   1.494
 4817TIP3    H214395   5.038   7.614   1.426
 4818TIP3   OH214396   6.332   5.245   2.009
 4818TIP3    H114397   6.377   5.160   2.012
 4818TIP3    H214398   6.399   5.306   1.978
 4819TIP3   OH214399   4.042   0.174   1.249
 4819TIP3    H114400   4.062   0.206   1.161
 4819TIP3    H214401   4.119   0.123   1.274
 4820TIP3   OH214402   1.450   7.593   3.156
 4820TIP3    H114403   1.358   7.621   3.154
 4820TIP3    H214404   1.445   7.497   3.155
 4821TIP3   OH214405   1.817   2.087   0.834
 4821TIP3    H114406   1.856   2.121   0.914
 4821TIP3    H214407   1.855   1.999   0.824
 4822TIP3   OH214408   6.918   6.839   2.382
 4822TIP3    H114409   6.924   6.926   2.343
 4822TIP3    H214410   7.009   6.815   2.400
 4823TIP3   OH214411   0.244   7.485   0.775
 4823TIP3    H114412   0.219   7.393   0.782
 4823TIP3    H214413   0.289   7.504   0.858
 4824TIP3   OH214414   4.134   0.253   4.237
 4824TIP3    H114415   4.039   0.252   4.228
 4824TIP3    H214416   4.161   0.336   4.197
 4825TIP3   OH214417   4.841   5.076   0.963
 4825TIP3    H114418   4.935   5.061   0.972
 4825TIP3    H214419   4.835   5.155   0.908
 4826TIP3   OH214420   2.999   5.578   1.240
 4826TIP3    H114421   2.942   5.501   1.235
 4826TIP3    H214422   3.088   5.542   1.245
 4827TIP3   OH214423   5.242   1.876   4.384
 4827TIP3    H114424   5.323   1.895   4.432
 4827TIP3    H214425   5.271   1.861   4.294
 4828TIP3   OH214426   7.358   2.804   2.745
 4828TIP3    H114427   7.439   2.767   2.778
 4828TIP3    H214428   7.385   2.858   2.671
 4829TIP3   OH214429   5.524   6.696   0.577
 4829TIP3    H114430   5.603   6.749   0.577
 4829TIP3    H214431   5.452   6.759   0.572
 4830TIP3   OH214432   7.382   2.693   1.703
 4830TIP3    H114433   7.309   2.706   1.764
 4830TIP3    H214434   7.452   2.657   1.756
 4831TIP3   OH214435   4.153   0.128   3.975
 4831TIP3    H114436   4.134   0.043   3.937
 4831TIP3    H214437   4.190   0.108   4.061
 4832TIP3   OH214438   5.168   5.798   5.318
 4832TIP3    H114439   5.115   5.789   5.397
 4832TIP3    H214440   5.242   5.740   5.332
 4833TIP3   OH214441   4.169   0.803   2.049
 4833TIP3    H114442   4.218   0.882   2.024
 4833TIP3    H214443   4.081   0.819   2.017
 4834TIP3   OH214444   5.610   4.092   0.487
 4834TIP3    H114445   5.656   4.106   0.405
 4834TIP3    H214446   5.650   4.153   0.549
 4835TIP3   OH214447   7.694   5.547   5.979
 4835TIP3    H114448   7.616   5.509   6.019
 4835TIP3    H214449   7.690   5.640   6.002
 4836TIP3   OH214450   7.307   5.853   4.251
 4836TIP3    H114451   7.290   5.932   4.304
 4836TIP3    H214452   7.343   5.790   4.313
 4837TIP3   OH214453   1.896   3.876   2.246
 4837TIP3    H114454   1.902   3.792   2.291
 4837TIP3    H214455   1.847   3.932   2.305
 4838TIP3   OH214456   7.761   6.101   0.882
 4838TIP3    H114457   7.745   6.120   0.789
 4838TIP3    H214458   7.832   6.159   0.907
 4839TIP3   OH214459   0.682   0.677   1.973
 4839TIP3    H114460   0.631   0.663   2.052
 4839TIP3    H214461   0.727   0.760   1.989
 4840TIP3   OH214462   6.963   1.973   3.468
 4840TIP3    H114463   7.028   2.021   3.521
 4840TIP3    H214464   6.897   2.039   3.446
 4841TIP3   OH214465   1.213   3.054   4.948
 4841TIP3    H114466   1.262   3.117   4.895
 4841TIP3    H214467   1.269   2.977   4.953
 4842TIP3   OH214468   2.304   2.450   1.068
 4842TIP3    H114469   2.335   2.360   1.054
 4842TIP3    H214470   2.378   2.496   1.107
 4843TIP3   OH214471   3.598   3.587   2.235
 4843TIP3    H114472   3.643   3.578   2.319
 4843TIP3    H214473   3.668   3.592   2.170
 4844TIP3   OH214474   4.851   4.976   2.416
 4844TIP3    H114475   4.803   4.996   2.497
 4844TIP3    H214476   4.783   4.962   2.351
 4845TIP3   OH214477   5.412   3.199   1.852
 4845TIP3    H114478   5.478   3.142   1.890
 4845TIP3    H214479   5.461   3.257   1.793
 4846TIP3   OH214480   2.410   6.255   4.004
 4846TIP3    H114481   2.417   6.191   3.933
 4846TIP3    H214482   2.316   6.267   4.016
 4847TIP3   OH214483   7.656   3.847   0.943
 4847TIP3    H114484   7.622   3.824   1.029
 4847TIP3    H214485   7.582   3.888   0.898
 4848TIP3   OH214486   2.258   7.014   2.172
 4848TIP3    H114487   2.339   7.030   2.220
 4848TIP3    H214488   2.281   6.948   2.107
 4849TIP3   OH214489   1.726   2.313   3.300
 4849TIP3    H114490   1.794   2.303   3.366
 4849TIP3    H214491   1.764   2.372   3.234
 4850TIP3   OH214492   2.953   3.398   1.061
 4850TIP3    H114493   2.908   3.344   0.995
 4850TIP3    H214494   2.884   3.454   1.097
 4851TIP3   OH214495   7.467   3.290   0.340
 4851TIP3    H114496   7.469   3.204   0.298
 4851TIP3    H214497   7.534   3.285   0.408
 4852TIP3   OH214498   6.051   3.385   4.551
 4852TIP3    H114499   6.061   3.456   4.614
 4852TIP3    H214500   5.991   3.420   4.485
 4853TIP3   OH214501   3.106   4.600   2.814
 4853TIP3    H114502   3.154   4.602   2.731
 4853TIP3    H214503   3.020   4.636   2.792
 4854TIP3   OH214504   6.450   0.229   2.212
 4854TIP3    H114505   6.443   0.147   2.164
 4854TIP3    H214506   6.360   0.263   2.214
 4855TIP3   OH214507   4.469   2.863   5.908
 4855TIP3    H114508   4.505   2.802   5.843
 4855TIP3    H214509   4.545   2.912   5.940
 4856TIP3   OH214510   0.799   4.874   4.144
 4856TIP3    H114511   0.724   4.830   4.185
 4856TIP3    H214512   0.826   4.940   4.207
 4857TIP3   OH214513   6.984   5.773   1.404
 4857TIP3    H114514   6.900   5.774   1.358
 4857TIP3    H214515   6.970   5.831   1.479
 4858TIP3   OH214516   0.532   3.785   0.169
 4858TIP3    H114517   0.610   3.790   0.114
 4858TIP3    H214518   0.461   3.820   0.114
 4859TIP3   OH214519   1.633   1.650   6.732
 4859TIP3    H114520   1.577   1.691   6.798
 4859TIP3    H214521   1.697   1.600   6.782
 4860TIP3   OH214522   8.213   1.659   6.002
 4860TIP3    H114523   8.186   1.701   5.920
 4860TIP3    H214524   8.302   1.692   6.017
 4861TIP3   OH214525   7.522   0.424   2.049
 4861TIP3    H114526   7.494   0.423   1.957
 4861TIP3    H214527   7.515   0.333   2.077
 4862TIP3   OH214528   1.926   2.543   4.045
 4862TIP3    H114529   1.890   2.487   4.114
 4862TIP3    H214530   1.852   2.561   3.987
 4863TIP3   OH214531   6.909   6.537   0.611
 4863TIP3    H114532   6.903   6.630   0.591
 4863TIP3    H214533   6.956   6.533   0.694
 4864TIP3   OH214534   3.723   7.503   2.608
 4864TIP3    H114535   3.694   7.558   2.536
 4864TIP3    H214536   3.714   7.413   2.575
 4865TIP3   OH214537   3.549   2.670   6.207
 4865TIP3    H114538   3.536   2.758   6.171
 4865TIP3    H214539   3.643   2.665   6.224
 4866TIP3   OH214540   5.235   1.038   4.834
 4866TIP3    H114541   5.151   0.991   4.839
 4866TIP3    H214542   5.261   1.029   4.742
 4867TIP3   OH214543   0.670   4.759   3.631
 4867TIP3    H114544   0.720   4.753   3.713
 4867TIP3    H214545   0.645   4.851   3.625
 4868TIP3   OH214546   6.567   1.604   2.297
 4868TIP3    H114547   6.609   1.614   2.382
 4868TIP3    H214548   6.638   1.609   2.233
 4869TIP3   OH214549   6.023   7.036   4.152
 4869TIP3    H114550   5.985   7.119   4.180
 4869TIP3    H214551   6.094   7.020   4.214
 4870TIP3   OH214552   5.124   5.921   6.691
 4870TIP3    H114553   5.073   5.936   6.771
 4870TIP3    H214554   5.059   5.918   6.621
 4871TIP3   OH214555   4.733   4.095   2.762
 4871TIP3    H114556   4.755   4.051   2.844
 4871TIP3    H214557   4.757   4.031   2.694
 4872TIP3   OH214558   3.893   2.568   1.217
 4872TIP3    H114559   3.799   2.587   1.212
 4872TIP3    H214560   3.918   2.546   1.128
 4873TIP3   OH214561   6.315   6.916   5.474
 4873TIP3    H114562   6.387   6.962   5.431
 4873TIP3    H214563   6.252   6.985   5.496
 4874TIP3   OH214564   1.105   2.963   2.771
 4874TIP3    H114565   1.025   3.014   2.786
 4874TIP3    H214566   1.094   2.884   2.823
 4875TIP3   OH214567   0.322   3.528   6.553
 4875TIP3    H114568   0.377   3.498   6.481
 4875TIP3    H214569   0.381   3.537   6.627
 4876TIP3   OH214570   7.720   0.381   0.350
 4876TIP3    H114571   7.672   0.299   0.358
 4876TIP3    H214572   7.661   0.447   0.388
 4877TIP3   OH214573   7.954   1.092   6.416
 4877TIP3    H114574   7.920   1.066   6.331
 4877TIP3    H214575   8.011   1.020   6.443
 4878TIP3   OH214576   2.637   6.397   2.333
 4878TIP3    H114577   2.600   6.411   2.246
 4878TIP3    H214578   2.629   6.482   2.376
 4879TIP3   OH214579   8.009   6.374   1.809
 4879TIP3    H114580   8.033   6.285   1.784
 4879TIP3    H214581   7.984   6.416   1.727
 4880TIP3   OH214582   2.136   0.134   6.731
 4880TIP3    H114583   2.209   0.083   6.694
 4880TIP3    H214584   2.062   0.114   6.674
 4881TIP3   OH214585   4.968   1.275   4.126
 4881TIP3    H114586   4.919   1.196   4.105
 4881TIP3    H214587   4.913   1.347   4.094
 4882TIP3   OH214588   0.700   3.528   3.143
 4882TIP3    H114589   0.677   3.438   3.118
 4882TIP3    H214590   0.675   3.533   3.236
 4883TIP3   OH214591   6.395   3.795   4.415
 4883TIP3    H114592   6.387   3.817   4.508
 4883TIP3    H214593   6.461   3.855   4.382
 4884TIP3   OH214594   7.106   5.962   2.557
 4884TIP3    H114595   7.096   5.890   2.619
 4884TIP3    H214596   7.048   5.939   2.484
 4885TIP3   OH214597   1.142   4.019   6.254
 4885TIP3    H114598   1.165   4.079   6.183
 4885TIP3    H214599   1.209   3.950   6.250
 4886TIP3   OH214600   1.447   4.187   2.117
 4886TIP3    H114601   1.543   4.194   2.110
 4886TIP3    H214602   1.416   4.207   2.029
 4887TIP3   OH214603   2.755   6.964   0.434
 4887TIP3    H114604   2.706   6.926   0.361
 4887TIP3    H214605   2.841   6.923   0.429
 4888TIP3   OH214606   1.620   7.407   0.475
 4888TIP3    H114607   1.616   7.500   0.498
 4888TIP3    H214608   1.710   7.393   0.447
 4889TIP3   OH214609   7.688   3.200   3.638
 4889TIP3    H114610   7.708   3.133   3.703
 4889TIP3    H214611   7.747   3.182   3.564
 4890TIP3   OH214612   6.712   3.634   3.874
 4890TIP3    H114613   6.738   3.707   3.930
 4890TIP3    H214614   6.764   3.560   3.905
 4891TIP3   OH214615   7.320   4.304   1.856
 4891TIP3    H114616   7.241   4.309   1.803
 4891TIP3    H214617   7.313   4.376   1.918
 4892TIP3   OH214618   4.880   2.890   2.324
 4892TIP3    H114619   4.970   2.890   2.357
 4892TIP3    H214620   4.837   2.819   2.372
 4893TIP3   OH214621   2.364   5.204   1.661
 4893TIP3    H114622   2.441   5.226   1.714
 4893TIP3    H214623   2.374   5.255   1.581
 4894TIP3   OH214624   2.788   2.165   5.821
 4894TIP3    H114625   2.782   2.182   5.727
 4894TIP3    H214626   2.848   2.090   5.828
 4895TIP3   OH214627   7.005   0.284   2.837
 4895TIP3    H114628   7.078   0.345   2.829
 4895TIP3    H214629   6.928   0.339   2.842
 4896TIP3   OH214630   4.081   5.772   1.562
 4896TIP3    H114631   4.004   5.803   1.611
 4896TIP3    H214632   4.056   5.783   1.471
 4897TIP3   OH214633   2.890   0.878   4.327
 4897TIP3    H114634   2.901   0.970   4.303
 4897TIP3    H214635   2.945   0.867   4.405
 4898TIP3   OH214636   5.907   1.354   2.931
 4898TIP3    H114637   5.875   1.385   2.846
 4898TIP3    H214638   5.984   1.409   2.949
 4899TIP3   OH214639   2.924   0.236   1.770
 4899TIP3    H114640   3.017   0.225   1.787
 4899TIP3    H214641   2.911   0.202   1.681
 4900TIP3   OH214642   1.488   5.392   1.283
 4900TIP3    H114643   1.397   5.410   1.262
 4900TIP3    H214644   1.491   5.394   1.379
 4901TIP3   OH214645   7.674   4.323   6.317
 4901TIP3    H114646   7.677   4.242   6.265
 4901TIP3    H214647   7.589   4.362   6.295
 4902TIP3   OH214648   3.079   5.546   1.701
 4902TIP3    H114649   3.000   5.576   1.745
 4902TIP3    H214650   3.140   5.620   1.709
 4903TIP3   OH214651   1.268   5.302   0.689
 4903TIP3    H114652   1.213   5.356   0.746
 4903TIP3    H214653   1.207   5.266   0.624
 4904TIP3   OH214654   7.322   7.376   4.675
 4904TIP3    H114655   7.399   7.321   4.686
 4904TIP3    H214656   7.248   7.319   4.697
 4905TIP3   OH214657   6.591   4.539   1.670
 4905TIP3    H114658   6.619   4.574   1.755
 4905TIP3    H214659   6.639   4.457   1.661
 4906TIP3   OH214660   0.405   0.093   4.273
 4906TIP3    H114661   0.325   0.066   4.227
 4906TIP3    H214662   0.424   0.180   4.240
 4907TIP3   OH214663   3.946   0.570   3.294
 4907TIP3    H114664   3.924   0.495   3.240
 4907TIP3    H214665   3.905   0.644   3.250
 4908TIP3   OH214666   5.934   6.173   5.956
 4908TIP3    H114667   6.008   6.166   6.016
 4908TIP3    H214668   5.867   6.118   5.995
 4909TIP3   OH214669   4.957   7.021   0.609
 4909TIP3    H114670   5.043   7.061   0.601
 4909TIP3    H214671   4.963   6.965   0.686
 4910TIP3   OH214672   5.650   1.836   2.859
 4910TIP3    H114673   5.580   1.871   2.803
 4910TIP3    H214674   5.654   1.898   2.932
 4911TIP3   OH214675   0.433   6.045   0.820
 4911TIP3    H114676   0.377   6.085   0.888
 4911TIP3    H214677   0.461   5.962   0.858
 4912TIP3   OH214678   2.043   7.536   2.884
 4912TIP3    H114679   2.116   7.576   2.837
 4912TIP3    H214680   1.996   7.610   2.922
 4913TIP3   OH214681   2.270   3.831   1.074
 4913TIP3    H114682   2.330   3.838   1.147
 4913TIP3    H214683   2.185   3.855   1.111
 4914TIP3   OH214684   7.585   2.466   3.837
 4914TIP3    H114685   7.512   2.480   3.776
 4914TIP3    H214686   7.614   2.377   3.819
 4915TIP3   OH214687   0.540   2.206   2.767
 4915TIP3    H114688   0.561   2.112   2.770
 4915TIP3    H214689   0.454   2.213   2.808
 4916TIP3   OH214690   2.718   4.086   4.835
 4916TIP3    H114691   2.778   4.013   4.845
 4916TIP3    H214692   2.754   4.136   4.761
 4917TIP3   OH214693   4.911   2.993   2.621
 4917TIP3    H114694   4.964   3.068   2.648
 4917TIP3    H214695   4.971   2.920   2.621
 4918TIP3   OH214696   1.854   4.335   5.625
 4918TIP3    H114697   1.790   4.406   5.629
 4918TIP3    H214698   1.937   4.375   5.652
 4919TIP3   OH214699   2.728   1.675   0.330
 4919TIP3    H114700   2.792   1.604   0.326
 4919TIP3    H214701   2.695   1.673   0.420
 4920TIP3   OH214702   4.006   2.082   6.650
 4920TIP3    H114703   4.090   2.037   6.647
 4920TIP3    H214704   3.976   2.072   6.740
 4921TIP3   OH214705   3.373   3.072   5.528
 4921TIP3    H114706   3.311   3.058   5.457
 4921TIP3    H214707   3.416   3.155   5.506
 4922TIP3   OH214708   5.294   5.385   4.428
 4922TIP3    H114709   5.243   5.462   4.452
 4922TIP3    H214710   5.344   5.364   4.506
 4923TIP3   OH214711   3.638   1.274   1.386
 4923TIP3    H114712   3.567   1.237   1.439
 4923TIP3    H214713   3.619   1.368   1.383
 4924TIP3   OH214714   2.220   1.527   1.035
 4924TIP3    H114715   2.278   1.596   1.068
 4924TIP3    H214716   2.256   1.504   0.950
 4925TIP3   OH214717   6.748   0.558   3.904
 4925TIP3    H114718   6.728   0.516   3.988
 4925TIP3    H214719   6.810   0.498   3.862
 4926TIP3   OH214720   1.869   1.680   3.988
 4926TIP3    H114721   1.876   1.629   3.908
 4926TIP3    H214722   1.907   1.765   3.965
 4927TIP3   OH214723   2.985   2.139   5.014
 4927TIP3    H114724   2.927   2.081   5.064
 4927TIP3    H214725   2.936   2.160   4.935
 4928TIP3   OH214726   1.764   6.229   0.517
 4928TIP3    H114727   1.854   6.210   0.543
 4928TIP3    H214728   1.737   6.300   0.576
 4929TIP3   OH214729   3.171   0.649   2.891
 4929TIP3    H114730   3.122   0.577   2.931
 4929TIP3    H214731   3.259   0.614   2.879
 4930TIP3   OH214732   8.159   1.677   6.558
 4930TIP3    H114733   8.172   1.602   6.616
 4930TIP3    H214734   8.228   1.738   6.582
 4931TIP3   OH214735   7.270   5.038   2.368
 4931TIP3    H114736   7.226   5.078   2.292
 4931TIP3    H214737   7.360   5.024   2.338
 4932TIP3   OH214738   1.142   6.103   1.287
 4932TIP3    H114739   1.099   6.044   1.349
 4932TIP3    H214740   1.191   6.164   1.342
 4933TIP3   OH214741   2.226   2.374   4.125
 4933TIP3    H114742   2.163   2.316   4.167
 4933TIP3    H214743   2.211   2.459   4.165
 4934TIP3   OH214744   7.810   1.559   2.692
 4934TIP3    H114745   7.750   1.530   2.761
 4934TIP3    H214746   7.784   1.509   2.615
 4935TIP3   OH214747   7.849   1.136   1.000
 4935TIP3    H114748   7.930   1.149   0.951
 4935TIP3    H214749   7.877   1.132   1.092
 4936TIP3   OH214750   7.842   2.051   2.117
 4936TIP3    H114751   7.764   2.068   2.063
 4936TIP3    H214752   7.819   2.085   2.203
 4937TIP3   OH214753   6.045   6.698   4.362
 4937TIP3    H114754   5.973   6.732   4.415
 4937TIP3    H214755   6.014   6.614   4.330
 4938TIP3   OH214756   7.139   3.023   4.725
 4938TIP3    H114757   7.124   2.946   4.778
 4938TIP3    H214758   7.185   2.991   4.647
 4939TIP3   OH214759   1.849   4.884   3.324
 4939TIP3    H114760   1.793   4.958   3.301
 4939TIP3    H214761   1.791   4.809   3.328
 4940TIP3   OH214762   7.455   2.131   3.011
 4940TIP3    H114763   7.439   2.054   2.955
 4940TIP3    H214764   7.522   2.102   3.073
 4941TIP3   OH214765   2.675   4.075   5.469
 4941TIP3    H114766   2.589   4.095   5.433
 4941TIP3    H214767   2.730   4.059   5.393
 4942TIP3   OH214768   7.013   2.033   6.023
 4942TIP3    H114769   6.969   2.116   6.043
 4942TIP3    H214770   7.100   2.042   6.062
 4943TIP3   OH214771   6.685   5.966   4.835
 4943TIP3    H114772   6.607   5.997   4.790
 4943TIP3    H214773   6.754   6.028   4.810
 4944TIP3   OH214774   2.867   6.433   6.015
 4944TIP3    H114775   2.771   6.431   6.010
 4944TIP3    H214776   2.897   6.421   5.925
 4945TIP3   OH214777   2.871   7.679   4.492
 4945TIP3    H114778   2.950   7.662   4.543
 4945TIP3    H214779   2.801   7.682   4.557
 4946TIP3   OH214780   2.251   5.078   4.183
 4946TIP3    H114781   2.234   5.099   4.275
 4946TIP3    H214782   2.165   5.084   4.141
 4947TIP3   OH214783   7.716   5.196   5.663
 4947TIP3    H114784   7.802   5.178   5.625
 4947TIP3    H214785   7.721   5.287   5.692
 4948TIP3   OH214786   4.264   2.118   0.280
 4948TIP3    H114787   4.295   2.093   0.367
 4948TIP3    H214788   4.306   2.056   0.221
 4949TIP3   OH214789   8.031   6.052   0.590
 4949TIP3    H114790   7.984   6.127   0.627
 4949TIP3    H214791   8.076   6.013   0.664
 4950TIP3   OH214792   5.789   0.281   5.360
 4950TIP3    H114793   5.710   0.301   5.411
 4950TIP3    H214794   5.861   0.312   5.415
 4951TIP3   OH214795   3.976   1.694   0.991
 4951TIP3    H114796   3.923   1.709   1.069
 4951TIP3    H214797   3.955   1.768   0.933
 4952TIP3   OH214798   3.831   2.386   2.567
 4952TIP3    H114799   3.873   2.463   2.528
 4952TIP3    H214800   3.844   2.396   2.662
 4953TIP3   OH214801   0.179   1.958   4.672
 4953TIP3    H114802   0.213   1.885   4.723
 4953TIP3    H214803   0.235   1.961   4.594
 4954TIP3   OH214804   5.970   4.907   5.824
 4954TIP3    H114805   6.063   4.888   5.835
 4954TIP3    H214806   5.964   4.956   5.742
 4955TIP3   OH214807   2.101   1.633   3.672
 4955TIP3    H114808   2.020   1.592   3.704
 4955TIP3    H214809   2.169   1.567   3.687
 4956TIP3   OH214810   4.161   2.084   5.675
 4956TIP3    H114811   4.116   2.168   5.665
 4956TIP3    H214812   4.091   2.019   5.669
 4957TIP3   OH214813   7.545   5.137   1.088
 4957TIP3    H114814   7.469   5.097   1.046
 4957TIP3    H214815   7.587   5.065   1.135
 4958TIP3   OH214816   7.516   6.446   4.968
 4958TIP3    H114817   7.594   6.399   4.997
 4958TIP3    H214818   7.468   6.464   5.049
 4959TIP3   OH214819   5.865   2.514   0.193
 4959TIP3    H114820   5.786   2.531   0.245
 4959TIP3    H214821   5.924   2.586   0.216
 4960TIP3   OH214822   6.147   4.912   3.735
 4960TIP3    H114823   6.241   4.896   3.724
 4960TIP3    H214824   6.135   4.918   3.830
 4961TIP3   OH214825   7.641   0.600   1.424
 4961TIP3    H114826   7.685   0.567   1.502
 4961TIP3    H214827   7.692   0.678   1.399
 4962TIP3   OH214828   3.963   3.978   1.462
 4962TIP3    H114829   4.036   4.012   1.512
 4962TIP3    H214830   3.921   3.915   1.520
 4963TIP3   OH214831   5.225   0.362   1.923
 4963TIP3    H114832   5.141   0.389   1.886
 4963TIP3    H214833   5.239   0.273   1.890
 4964TIP3   OH214834   7.701   1.458   1.482
 4964TIP3    H114835   7.701   1.474   1.387
 4964TIP3    H214836   7.781   1.409   1.498
 4965TIP3   OH214837   3.056   3.068   5.087
 4965TIP3    H114838   3.033   3.119   5.009
 4965TIP3    H214839   2.974   3.024   5.111
 4966TIP3   OH214840   8.092   6.906   5.869
 4966TIP3    H114841   8.073   6.973   5.804
 4966TIP3    H214842   8.007   6.880   5.903
 4967TIP3   OH214843   3.733   4.704   0.448
 4967TIP3    H114844   3.790   4.684   0.522
 4967TIP3    H214845   3.720   4.799   0.452
 4968TIP3   OH214846   8.296   5.486   1.472
 4968TIP3    H114847   8.345   5.554   1.517
 4968TIP3    H214848   8.206   5.496   1.503
 4969TIP3   OH214849   3.871   5.819   1.744
 4969TIP3    H114850   3.903   5.756   1.809
 4969TIP3    H214851   3.840   5.893   1.795
 4970TIP3   OH214852   7.508   6.296   0.310
 4970TIP3    H114853   7.534   6.265   0.396
 4970TIP3    H214854   7.491   6.216   0.260
 4971TIP3   OH214855   4.648   4.629   3.660
 4971TIP3    H114856   4.742   4.643   3.673
 4971TIP3    H214857   4.640   4.603   3.568
 4972TIP3   OH214858   7.607   6.650   0.573
 4972TIP3    H114859   7.637   6.572   0.621
 4972TIP3    H214860   7.667   6.720   0.601
 4973TIP3   OH214861   1.747   2.877   0.336
 4973TIP3    H114862   1.765   2.940   0.405
 4973TIP3    H214863   1.710   2.929   0.265
 4974TIP3   OH214864   8.214   3.438   2.452
 4974TIP3    H114865   8.297   3.426   2.406
 4974TIP3    H214866   8.227   3.396   2.537
 4975TIP3   OH214867   4.396   3.027   5.167
 4975TIP3    H114868   4.441   3.084   5.230
 4975TIP3    H214869   4.362   2.955   5.220
 4976TIP3   OH214870   2.518   2.852   0.389
 4976TIP3    H114871   2.435   2.899   0.398
 4976TIP3    H214872   2.533   2.812   0.475
 4977TIP3   OH214873   2.895   5.302   3.602
 4977TIP3    H114874   2.963   5.369   3.615
 4977TIP3    H214875   2.821   5.350   3.564
 4978TIP3   OH214876   4.540   0.615   3.433
 4978TIP3    H114877   4.488   0.681   3.386
 4978TIP3    H214878   4.610   0.665   3.474
 4979TIP3   OH214879   6.989   1.226   6.436
 4979TIP3    H114880   7.024   1.143   6.469
 4979TIP3    H214881   6.989   1.216   6.341
 4980TIP3   OH214882   2.671   0.849   5.681
 4980TIP3    H114883   2.620   0.856   5.600
 4980TIP3    H214884   2.754   0.891   5.660
 4981TIP3   OH214885   0.986   4.275   4.374
 4981TIP3    H114886   1.011   4.363   4.402
 4981TIP3    H214887   1.061   4.243   4.324
 4982TIP3   OH214888   3.647   4.378   6.687
 4982TIP3    H114889   3.622   4.295   6.727
 4982TIP3    H214890   3.580   4.395   6.621
 4983TIP3   OH214891   4.489   5.757   0.475
 4983TIP3    H114892   4.442   5.712   0.545
 4983TIP3    H214893   4.545   5.690   0.436
 4984TIP3   OH214894   8.187   5.428   0.398
 4984TIP3    H114895   8.157   5.490   0.465
 4984TIP3    H214896   8.184   5.343   0.442
 4985TIP3   OH214897   7.160   2.652   3.468
 4985TIP3    H114898   7.123   2.735   3.437
 4985TIP3    H214899   7.243   2.644   3.421
 4986TIP3   OH214900   2.192   5.276   1.027
 4986TIP3    H114901   2.171   5.280   1.121
 4986TIP3    H214902   2.284   5.303   1.023
 4987TIP3   OH214903   2.988   2.235   1.727
 4987TIP3    H114904   3.037   2.198   1.800
 4987TIP3    H214905   3.054   2.250   1.659
 4988TIP3   OH214906   1.102   6.910   1.668
 4988TIP3    H114907   1.181   6.910   1.723
 4988TIP3    H214908   1.056   6.830   1.693
 4989TIP3   OH214909   0.069   0.317   3.393
 4989TIP3    H114910   0.096   0.404   3.363
 4989TIP3    H214911   0.072   0.263   3.314
 4990TIP3   OH214912   3.012   0.837   4.567
 4990TIP3    H114913   3.094   0.844   4.616
 4990TIP3    H214914   2.944   0.850   4.633
 4991TIP3   OH214915   4.983   6.897   1.274
 4991TIP3    H114916   4.910   6.943   1.232
 4991TIP3    H214917   5.048   6.966   1.291
 4992TIP3   OH214918   3.988   3.405   0.267
 4992TIP3    H114919   3.973   3.499   0.278
 4992TIP3    H214920   3.902   3.366   0.283
 4993TIP3   OH214921   4.832   4.645   6.054
 4993TIP3    H114922   4.908   4.619   6.106
 4993TIP3    H214923   4.792   4.563   6.027
 4994TIP3   OH214924   1.715   7.248   1.644
 4994TIP3    H114925   1.775   7.233   1.571
 4994TIP3    H214926   1.662   7.323   1.617
 4995TIP3   OH214927   2.668   5.737   6.708
 4995TIP3    H114928   2.676   5.642   6.696
 4995TIP3    H214929   2.742   5.761   6.764
 4996TIP3   OH214930   3.539   5.395   0.858
 4996TIP3    H114931   3.552   5.369   0.767
 4996TIP3    H214932   3.544   5.491   0.856
 4997TIP3   OH214933   1.686   1.336   6.191
 4997TIP3    H114934   1.631   1.268   6.230
 4997TIP3    H214935   1.748   1.359   6.260
 4998TIP3   OH214936   0.040   3.212   2.201
 4998TIP3    H114937   0.114   3.158   2.230
 4998TIP3    H214938   0.077   3.300   2.192
 4999TIP3   OH214939   6.857   5.271   0.425
 4999TIP3    H114940   6.854   5.261   0.520
 4999TIP3    H214941   6.818   5.191   0.390
 5000TIP3   OH214942   4.606   4.576   3.030
 5000TIP3    H114943   4.685   4.550   3.078
 5000TIP3    H214944   4.638   4.636   2.963
 5001TIP3   OH214945   3.655   4.967   0.460
 5001TIP3    H114946   3.620   4.964   0.549
 5001TIP3    H214947   3.580   4.993   0.406
 5002TIP3   OH214948   3.126   5.466   4.191
 5002TIP3    H114949   3.111   5.472   4.286
 5002TIP3    H214950   3.170   5.548   4.169
 5003TIP3   OH214951   5.536   6.832   5.859
 5003TIP3    H114952   5.542   6.819   5.953
 5003TIP3    H214953   5.583   6.758   5.821
 5004TIP3   OH214954   8.135   3.560   1.325
 5004TIP3    H114955   8.100   3.471   1.326
 5004TIP3    H214956   8.187   3.566   1.405
 5005TIP3   OH214957   3.965   4.630   6.632
 5005TIP3    H114958   4.023   4.696   6.670
 5005TIP3    H214959   4.008   4.603   6.551
 5006TIP3   OH214960   6.120   7.069   5.582
 5006TIP3    H114961   6.150   7.094   5.669
 5006TIP3    H214962   6.025   7.082   5.584
 5007TIP3   OH214963   1.537   7.801   2.724
 5007TIP3    H114964   1.459   7.765   2.682
 5007TIP3    H214965   1.512   7.811   2.816
 5008TIP3   OH214966   2.034   4.031   0.154
 5008TIP3    H114967   1.971   4.088   0.109
 5008TIP3    H214968   2.099   4.011   0.087
 5009TIP3   OH214969   6.821   4.219   2.864
 5009TIP3    H114970   6.899   4.164   2.854
 5009TIP3    H214971   6.765   4.193   2.791
 5010TIP3   OH214972   5.887   1.300   5.791
 5010TIP3    H114973   5.918   1.332   5.707
 5010TIP3    H214974   5.802   1.260   5.772
 5011TIP3   OH214975   3.605   4.891   3.364
 5011TIP3    H114976   3.661   4.950   3.313
 5011TIP3    H214977   3.662   4.857   3.432
 5012TIP3   OH214978   4.010   1.831   6.139
 5012TIP3    H114979   3.965   1.889   6.078
 5012TIP3    H214980   3.952   1.755   6.148
 5013TIP3   OH214981   1.581   7.047   5.999
 5013TIP3    H114982   1.672   7.051   6.027
 5013TIP3    H214983   1.537   7.113   6.053
 5014TIP3   OH214984   8.059   0.213   5.051
 5014TIP3    H114985   7.985   0.261   5.015
 5014TIP3    H214986   8.022   0.161   5.123
 5015TIP3   OH214987   6.449   2.829   4.474
 5015TIP3    H114988   6.439   2.862   4.563
 5015TIP3    H214989   6.491   2.900   4.426
 5016TIP3   OH214990   5.268   6.102   6.153
 5016TIP3    H114991   5.272   6.133   6.243
 5016TIP3    H214992   5.245   6.179   6.101
 5017TIP3   OH214993   4.827   0.481   3.699
 5017TIP3    H114994   4.840   0.525   3.615
 5017TIP3    H214995   4.916   0.472   3.734
 5018TIP3   OH214996   3.036   3.028   0.073
 5018TIP3    H114997   3.041   3.124   0.081
 5018TIP3    H214998   3.066   3.010  -0.016
 5019TIP3   OH214999   0.952   2.590   5.258
 5019TIP3    H115000   0.949   2.532   5.182
 5019TIP3    H215001   0.961   2.531   5.333
 5020TIP3   OH215002   0.439   0.201   0.412
 5020TIP3    H115003   0.384   0.259   0.465
 5020TIP3    H215004   0.398   0.201   0.326
 5021TIP3   OH215005   1.662   7.175   4.763
 5021TIP3    H115006   1.567   7.189   4.768
 5021TIP3    H215007   1.697   7.232   4.832
 5022TIP3   OH215008   2.802   7.018   2.555
 5022TIP3    H115009   2.713   7.047   2.534
 5022TIP3    H215010   2.811   7.035   2.648
 5023TIP3   OH215011   3.584   7.085   4.550
 5023TIP3    H115012   3.506   7.083   4.496
 5023TIP3    H215013   3.551   7.081   4.640
 5024TIP3   OH215014   0.841   4.460   4.151
 5024TIP3    H115015   0.866   4.427   4.237
 5024TIP3    H215016   0.769   4.403   4.124
 5025TIP3   OH215017   6.814   2.789   2.274
 5025TIP3    H115018   6.791   2.859   2.213
 5025TIP3    H215019   6.846   2.834   2.352
 5026TIP3   OH215020   4.136   7.737   0.712
 5026TIP3    H115021   4.222   7.748   0.671
 5026TIP3    H215022   4.077   7.717   0.639
 5027TIP3   OH215023   4.670   3.776   3.842
 5027TIP3    H115024   4.667   3.791   3.748
 5027TIP3    H215025   4.600   3.713   3.859
 5028TIP3   OH215026   4.271   4.921   4.374
 5028TIP3    H115027   4.297   4.832   4.400
 5028TIP3    H215028   4.267   4.970   4.456
 5029TIP3   OH215029   2.085   7.252   2.569
 5029TIP3    H115030   2.080   7.217   2.480
 5029TIP3    H215031   2.080   7.174   2.625
 5030TIP3   OH215032   5.714   4.014   4.509
 5030TIP3    H115033   5.656   3.951   4.552
 5030TIP3    H215034   5.683   4.100   4.537
 5031TIP3   OH215035   4.423   2.252   5.381
 5031TIP3    H115036   4.470   2.335   5.381
 5031TIP3    H215037   4.331   2.277   5.376
 5032TIP3   OH215038   7.718   6.745   2.852
 5032TIP3    H115039   7.628   6.768   2.828
 5032TIP3    H215040   7.724   6.651   2.837
 5033TIP3   OH215041   7.040   2.954   3.513
 5033TIP3    H115042   6.967   2.972   3.572
 5033TIP3    H215043   7.117   2.983   3.562
 5034TIP3   OH215044   0.535   6.509   4.158
 5034TIP3    H115045   0.520   6.415   4.162
 5034TIP3    H215046   0.561   6.525   4.067
 5035TIP3   OH215047   6.772   7.449   4.132
 5035TIP3    H115048   6.768   7.540   4.160
 5035TIP3    H215049   6.716   7.402   4.194
 5036TIP3   OH215050   4.548   4.501   4.038
 5036TIP3    H115051   4.470   4.550   4.064
 5036TIP3    H215052   4.525   4.409   4.055
 5037TIP3   OH215053   7.024   3.417   4.962
 5037TIP3    H115054   6.945   3.368   4.939
 5037TIP3    H215055   7.037   3.400   5.055
 5038TIP3   OH215056   0.914   2.090   5.991
 5038TIP3    H115057   1.002   2.062   5.965
 5038TIP3    H215058   0.928   2.171   6.039
 5039TIP3   OH215059   3.663   6.571   0.744
 5039TIP3    H115060   3.666   6.666   0.752
 5039TIP3    H215061   3.717   6.552   0.668
 5040TIP3   OH215062   5.099   0.379   0.787
 5040TIP3    H115063   5.022   0.347   0.833
 5040TIP3    H215064   5.065   0.449   0.730
 5041TIP3   OH215065   3.019   3.653   6.148
 5041TIP3    H115066   3.039   3.570   6.190
 5041TIP3    H215067   2.970   3.702   6.214
 5042TIP3   OH215068   0.766   2.823   0.160
 5042TIP3    H115069   0.778   2.743   0.109
 5042TIP3    H215070   0.694   2.869   0.118
 5043TIP3   OH215071   6.978   1.664   3.738
 5043TIP3    H115072   7.063   1.622   3.744
 5043TIP3    H215073   6.944   1.639   3.652
 5044TIP3   OH215074   2.694   6.439   3.192
 5044TIP3    H115075   2.722   6.410   3.279
 5044TIP3    H215076   2.635   6.512   3.210
 5045TIP3   OH215077   5.786   3.164   5.388
 5045TIP3    H115078   5.855   3.201   5.443
 5045TIP3    H215079   5.818   3.179   5.298
 5046TIP3   OH215080   4.835   4.580   4.705
 5046TIP3    H115081   4.786   4.553   4.627
 5046TIP3    H215082   4.926   4.565   4.682
 5047TIP3   OH215083   2.699   4.875   3.867
 5047TIP3    H115084   2.689   4.888   3.961
 5047TIP3    H215085   2.733   4.959   3.835
 5048TIP3   OH215086   3.340   5.037   0.528
 5048TIP3    H115087   3.372   5.045   0.438
 5048TIP3    H215088   3.418   5.020   0.580
 5049TIP3   OH215089   5.321   7.403   0.676
 5049TIP3    H115090   5.264   7.479   0.663
 5049TIP3    H215091   5.400   7.440   0.715
 5050TIP3   OH215092   3.170   4.296   0.430
 5050TIP3    H115093   3.236   4.266   0.368
 5050TIP3    H215094   3.210   4.370   0.475
 5051TIP3   OH215095   0.625   5.908   4.798
 5051TIP3    H115096   0.612   5.968   4.724
 5051TIP3    H215097   0.549   5.851   4.797
 5052TIP3   OH215098   7.578   0.070   5.847
 5052TIP3    H115099   7.651   0.052   5.906
 5052TIP3    H215100   7.613   0.134   5.784
 5053TIP3   OH215101   4.731   3.297   0.828
 5053TIP3    H115102   4.797   3.311   0.760
 5053TIP3    H215103   4.781   3.292   0.909
 5054TIP3   OH215104   3.692   2.078   0.607
 5054TIP3    H115105   3.744   2.151   0.641
 5054TIP3    H215106   3.753   2.031   0.550
 5055TIP3   OH215107   3.334   5.626   3.771
 5055TIP3    H115108   3.411   5.674   3.742
 5055TIP3    H215109   3.265   5.653   3.710
 5056TIP3   OH215110   7.101   0.243   1.795
 5056TIP3    H115111   7.121   0.334   1.818
 5056TIP3    H215112   7.112   0.239   1.700
 5057TIP3   OH215113   0.868   6.784   5.238
 5057TIP3    H115114   0.822   6.797   5.156
 5057TIP3    H215115   0.899   6.694   5.235
 5058TIP3   OH215116   7.579   5.034   6.557
 5058TIP3    H115117   7.656   4.995   6.515
 5058TIP3    H215118   7.560   4.977   6.631
 5059TIP3   OH215119   2.096   6.558   4.746
 5059TIP3    H115120   2.099   6.465   4.728
 5059TIP3    H215121   2.166   6.573   4.810
 5060TIP3   OH215122   3.446   3.521   0.441
 5060TIP3    H115123   3.415   3.431   0.435
 5060TIP3    H215124   3.460   3.535   0.534
 5061TIP3   OH215125   5.869   5.396   0.900
 5061TIP3    H115126   5.851   5.320   0.957
 5061TIP3    H215127   5.882   5.468   0.961
 5062TIP3   OH215128   0.992   6.815   4.186
 5062TIP3    H115129   0.969   6.764   4.264
 5062TIP3    H215130   0.951   6.768   4.113
 5063TIP3   OH215131   6.875   0.528   4.533
 5063TIP3    H115132   6.834   0.511   4.448
 5063TIP3    H215133   6.867   0.623   4.543
 5064TIP3   OH215134   1.870   6.391   2.013
 5064TIP3    H115135   1.879   6.299   2.040
 5064TIP3    H215136   1.880   6.441   2.094
 5065TIP3   OH215137   4.400   4.004   1.697
 5065TIP3    H115138   4.453   4.059   1.755
 5065TIP3    H215139   4.462   3.944   1.656
 5066TIP3   OH215140   6.790   1.847   6.732
 5066TIP3    H115141   6.802   1.891   6.648
 5066TIP3    H215142   6.695   1.842   6.744
 5067TIP3   OH215143   1.677   3.570   3.431
 5067TIP3    H115144   1.751   3.546   3.488
 5067TIP3    H215145   1.697   3.659   3.402
 5068TIP3   OH215146   3.262   2.992   3.655
 5068TIP3    H115147   3.271   3.020   3.746
 5068TIP3    H215148   3.349   3.006   3.618
 5069TIP3   OH215149   4.379   5.682   2.113
 5069TIP3    H115150   4.305   5.705   2.168
 5069TIP3    H215151   4.402   5.593   2.138
 5070TIP3   OH215152   6.722   7.191   3.531
 5070TIP3    H115153   6.652   7.240   3.574
 5070TIP3    H215154   6.750   7.247   3.459
 5071TIP3   OH215155   2.418   2.968   2.893
 5071TIP3    H115156   2.454   2.953   2.806
 5071TIP3    H215157   2.426   3.062   2.907
 5072TIP3   OH215158   3.980   1.519   3.431
 5072TIP3    H115159   4.068   1.532   3.395
 5072TIP3    H215160   3.987   1.553   3.521
 5073TIP3   OH215161   7.054   3.796   2.968
 5073TIP3    H115162   7.110   3.814   3.043
 5073TIP3    H215163   7.080   3.860   2.902
 5074TIP3   OH215164   2.906   5.471   0.123
 5074TIP3    H115165   2.854   5.444   0.047
 5074TIP3    H215166   2.940   5.389   0.160
 5075TIP3   OH215167   4.975   6.289   1.001
 5075TIP3    H115168   4.943   6.339   0.926
 5075TIP3    H215169   5.063   6.260   0.975
 5076TIP3   OH215170   0.612   1.951   0.746
 5076TIP3    H115171   0.599   2.040   0.716
 5076TIP3    H215172   0.704   1.948   0.773
 5077TIP3   OH215173   4.060   3.466   1.996
 5077TIP3    H115174   4.140   3.510   1.967
 5077TIP3    H215175   4.027   3.423   1.917
 5078TIP3   OH215176   7.264   1.950   6.406
 5078TIP3    H115177   7.286   1.857   6.407
 5078TIP3    H215178   7.296   1.982   6.491
 5079TIP3   OH215179   3.090   0.458   5.889
 5079TIP3    H115180   3.118   0.398   5.819
 5079TIP3    H215181   3.132   0.541   5.868
 5080TIP3   OH215182   2.112   1.124   1.601
 5080TIP3    H115183   2.170   1.193   1.568
 5080TIP3    H215184   2.163   1.081   1.671
 5081TIP3   OH215185   2.338   0.902   5.041
 5081TIP3    H115186   2.284   0.969   4.999
 5081TIP3    H215187   2.367   0.846   4.969
 5082TIP3   OH215188   3.507   1.618   0.469
 5082TIP3    H115189   3.564   1.665   0.531
 5082TIP3    H215190   3.418   1.635   0.500
 5083TIP3   OH215191   0.607   4.696   2.853
 5083TIP3    H115192   0.624   4.788   2.872
 5083TIP3    H215193   0.571   4.660   2.934
 5084TIP3   OH215194   0.218   2.768   5.396
 5084TIP3    H115195   0.177   2.777   5.310
 5084TIP3    H215196   0.193   2.847   5.444
 5085TIP3   OH215197   6.453   4.711   3.403
 5085TIP3    H115198   6.393   4.645   3.368
 5085TIP3    H215199   6.523   4.717   3.339
 5086TIP3   OH215200   3.960   2.166   0.238
 5086TIP3    H115201   3.926   2.101   0.178
 5086TIP3    H215202   4.055   2.166   0.222
 5087TIP3   OH215203   4.248   6.533   4.277
 5087TIP3    H115204   4.199   6.451   4.284
 5087TIP3    H215205   4.269   6.556   4.367
 5088TIP3   OH215206   6.177   0.249   2.221
 5088TIP3    H115207   6.151   0.229   2.131
 5088TIP3    H215208   6.112   0.312   2.252
 5089TIP3   OH215209   5.466   2.641   0.344
 5089TIP3    H115210   5.407   2.579   0.388
 5089TIP3    H215211   5.456   2.620   0.251
 5090TIP3   OH215212   3.285   7.482   3.897
 5090TIP3    H115213   3.293   7.413   3.963
 5090TIP3    H215214   3.240   7.439   3.824
 5091TIP3   OH215215   6.349   7.739   5.206
 5091TIP3    H115216   6.300   7.807   5.159
 5091TIP3    H215217   6.328   7.753   5.298
 5092TIP3   OH215218   8.097   1.725   4.844
 5092TIP3    H115219   8.008   1.757   4.856
 5092TIP3    H215220   8.089   1.630   4.841
 5093TIP3   OH215221   2.890   5.429   5.354
 5093TIP3    H115222   2.839   5.510   5.352
 5093TIP3    H215223   2.937   5.432   5.437
 5094TIP3   OH215224   2.135   1.872   3.525
 5094TIP3    H115225   2.111   1.791   3.570
 5094TIP3    H215226   2.102   1.942   3.582
 5095TIP3   OH215227   0.790   4.739   0.160
 5095TIP3    H115228   0.864   4.725   0.220
 5095TIP3    H215229   0.769   4.832   0.169
 5096TIP3   OH215230   5.291   6.454   3.600
 5096TIP3    H115231   5.324   6.529   3.649
 5096TIP3    H215232   5.368   6.416   3.558
 5097TIP3   OH215233   7.412   2.831   4.516
 5097TIP3    H115234   7.337   2.887   4.494
 5097TIP3    H215235   7.433   2.787   4.434
 5098TIP3   OH215236   6.569   6.881   2.804
 5098TIP3    H115237   6.663   6.861   2.804
 5098TIP3    H215238   6.546   6.888   2.897
 5099TIP3   OH215239   1.024   5.680   5.208
 5099TIP3    H115240   1.062   5.630   5.280
 5099TIP3    H215241   0.967   5.618   5.162
 5100TIP3   OH215242   3.294   4.194   1.688
 5100TIP3    H115243   3.228   4.260   1.665
 5100TIP3    H215244   3.297   4.136   1.613
 5101TIP3   OH215245   6.761   3.235   5.013
 5101TIP3    H115246   6.804   3.194   4.937
 5101TIP3    H215247   6.790   3.182   5.088
 5102TIP3   OH215248   0.740   5.054   6.105
 5102TIP3    H115249   0.824   5.085   6.073
 5102TIP3    H215250   0.752   4.960   6.116
 5103TIP3   OH215251   1.922   4.224  -0.022
 5103TIP3    H115252   1.831   4.216  -0.048
 5103TIP3    H215253   1.971   4.231  -0.104
 5104TIP3   OH215254   6.931   6.151   5.154
 5104TIP3    H115255   7.001   6.128   5.093
 5104TIP3    H215256   6.975   6.160   5.239
 5105TIP3   OH215257   7.632   1.007   1.093
 5105TIP3    H115258   7.688   1.057   1.034
 5105TIP3    H215259   7.650   1.044   1.180
 5106TIP3   OH215260   7.358   0.254   4.919
 5106TIP3    H115261   7.306   0.176   4.940
 5106TIP3    H215262   7.368   0.250   4.823
 5107TIP3   OH215263   2.739   2.358   3.414
 5107TIP3    H115264   2.725   2.448   3.386
 5107TIP3    H215265   2.680   2.346   3.488
 5108TIP3   OH215266   2.935   1.262   6.018
 5108TIP3    H115267   2.842   1.275   6.036
 5108TIP3    H215268   2.969   1.218   6.097
 5109TIP3   OH215269   3.090   1.118   1.338
 5109TIP3    H115270   3.047   1.198   1.307
 5109TIP3    H215271   3.108   1.068   1.258
 5110TIP3   OH215272   4.323   5.196   3.865
 5110TIP3    H115273   4.392   5.173   3.929
 5110TIP3    H215274   4.356   5.275   3.822
 5111TIP3   OH215275   2.522   6.702   1.400
 5111TIP3    H115276   2.531   6.636   1.469
 5111TIP3    H215277   2.569   6.779   1.435
 5112TIP3   OH215278   4.716   2.557   1.764
 5112TIP3    H115279   4.760   2.521   1.687
 5112TIP3    H215280   4.656   2.623   1.729
 5113TIP3   OH215281   7.007   4.853   1.184
 5113TIP3    H115282   6.916   4.872   1.207
 5113TIP3    H215283   7.059   4.896   1.252
 5114TIP3   OH215284   3.425   5.167   0.970
 5114TIP3    H115285   3.346   5.114   0.964
 5114TIP3    H215286   3.411   5.239   0.909
 5115TIP3   OH215287   1.789   3.634   5.530
 5115TIP3    H115288   1.878   3.618   5.562
 5115TIP3    H215289   1.766   3.554   5.483
 5116TIP3   OH215290   0.429   1.337   2.843
 5116TIP3    H115291   0.357   1.392   2.874
 5116TIP3    H215292   0.501   1.354   2.905
 5117TIP3   OH215293   6.733   3.123   4.179
 5117TIP3    H115294   6.819   3.149   4.214
 5117TIP3    H215295   6.732   3.158   4.090
 5118TIP3   OH215296   4.089   6.862   5.651
 5118TIP3    H115297   4.177   6.849   5.614
 5118TIP3    H215298   4.070   6.954   5.631
 5119TIP3   OH215299   3.594   6.724   0.383
 5119TIP3    H115300   3.547   6.753   0.305
 5119TIP3    H215301   3.658   6.793   0.399
 5120TIP3   OH215302   3.019   4.145   5.625
 5120TIP3    H115303   3.098   4.197   5.607
 5120TIP3    H215304   3.018   4.078   5.556
 5121TIP3   OH215305   1.604   2.799   5.259
 5121TIP3    H115306   1.661   2.786   5.183
 5121TIP3    H215307   1.663   2.829   5.328
 5122TIP3   OH215308   6.092   7.755   1.193
 5122TIP3    H115309   6.049   7.832   1.231
 5122TIP3    H215310   6.121   7.783   1.106
 5123TIP3   OH215311   7.607   1.128   3.010
 5123TIP3    H115312   7.667   1.057   3.033
 5123TIP3    H215313   7.664   1.200   2.984
 5124TIP3   OH215314   3.137   3.648   0.077
 5124TIP3    H115315   3.147   3.674   0.169
 5124TIP3    H215316   3.081   3.716   0.039
 5125TIP3   OH215317   5.604   5.091   0.230
 5125TIP3    H115318   5.660   5.020   0.200
 5125TIP3    H215319   5.577   5.065   0.318
 5126TIP3   OH215320   1.281   7.373   6.360
 5126TIP3    H115321   1.245   7.436   6.423
 5126TIP3    H215322   1.235   7.291   6.379
 5127TIP3   OH215323   3.409   5.052   2.220
 5127TIP3    H115324   3.315   5.060   2.236
 5127TIP3    H215325   3.450   5.098   2.293
 5128TIP3   OH215326   1.514   1.371   3.869
 5128TIP3    H115327   1.526   1.365   3.964
 5128TIP3    H215328   1.425   1.338   3.854
 5129TIP3   OH215329   7.629   2.180   1.980
 5129TIP3    H115330   7.553   2.153   2.032
 5129TIP3    H215331   7.595   2.246   1.919
 5130TIP3   OH215332   0.540   1.106   3.946
 5130TIP3    H115333   0.629   1.144   3.945
 5130TIP3    H215334   0.482   1.182   3.941
 5131TIP3   OH215335   5.190   4.065   2.042
 5131TIP3    H115336   5.239   4.130   2.093
 5131TIP3    H215337   5.099   4.080   2.066
 5132TIP3   OH215338   4.291   4.573   4.082
 5132TIP3    H115339   4.245   4.533   4.155
 5132TIP3    H215340   4.241   4.653   4.063
 5133TIP3   OH215341   3.551   2.508   1.422
 5133TIP3    H115342   3.550   2.476   1.332
 5133TIP3    H215343   3.552   2.429   1.475
 5134TIP3   OH215344   2.104   7.002   0.265
 5134TIP3    H115345   2.034   6.951   0.307
 5134TIP3    H215346   2.151   6.937   0.212
 5135TIP3   OH215347   7.527   6.490   4.533
 5135TIP3    H115348   7.597   6.435   4.499
 5135TIP3    H215349   7.449   6.462   4.486
 5136TIP3   OH215350   3.609   0.672   2.276
 5136TIP3    H115351   3.620   0.725   2.197
 5136TIP3    H215352   3.517   0.645   2.274
 5137TIP3   OH215353   4.310   1.172   0.755
 5137TIP3    H115354   4.345   1.177   0.666
 5137TIP3    H215355   4.302   1.263   0.783
 5138TIP3   OH215356   4.136   6.094   4.864
 5138TIP3    H115357   4.138   6.040   4.784
 5138TIP3    H215358   4.053   6.140   4.860
 5139TIP3   OH215359   3.015   1.862   0.621
 5139TIP3    H115360   3.040   1.772   0.602
 5139TIP3    H215361   3.057   1.881   0.705
 5140TIP3   OH215362   0.813   5.749   5.440
 5140TIP3    H115363   0.855   5.811   5.500
 5140TIP3    H215364   0.886   5.704   5.398
 5141TIP3   OH215365   8.262   5.256   5.940
 5141TIP3    H115366   8.240   5.322   6.005
 5141TIP3    H215367   8.342   5.287   5.899
 5142TIP3   OH215368   6.232   6.693   0.544
 5142TIP3    H115369   6.202   6.615   0.591
 5142TIP3    H215370   6.169   6.761   0.567
 5143TIP3   OH215371   7.221   4.400   2.647
 5143TIP3    H115372   7.168   4.478   2.663
 5143TIP3    H215373   7.180   4.332   2.701
 5144TIP3   OH215374   3.347   3.138   3.924
 5144TIP3    H115375   3.335   3.106   4.013
 5144TIP3    H215376   3.410   3.210   3.933
 5145TIP3   OH215377   4.719   2.979   4.410
 5145TIP3    H115378   4.638   3.030   4.399
 5145TIP3    H215379   4.708   2.905   4.351
 5146TIP3   OH215380   5.706   2.027   3.065
 5146TIP3    H115381   5.626   1.997   3.109
 5146TIP3    H215382   5.769   2.040   3.136
 5147TIP3   OH215383   5.187   6.648   1.555
 5147TIP3    H115384   5.183   6.569   1.609
 5147TIP3    H215385   5.231   6.620   1.475
 5148TIP3   OH215386   0.895   3.061   6.089
 5148TIP3    H115387   0.965   3.106   6.136
 5148TIP3    H215388   0.872   3.120   6.018
 5149TIP3   OH215389   2.486   0.908   5.467
 5149TIP3    H115390   2.459   1.000   5.474
 5149TIP3    H215391   2.403   0.860   5.464
 5150TIP3   OH215392   1.226   0.754   3.164
 5150TIP3    H115393   1.219   0.791   3.252
 5150TIP3    H215394   1.170   0.809   3.110
 5151TIP3   OH215395   7.202   0.335   0.689
 5151TIP3    H115396   7.210   0.254   0.738
 5151TIP3    H215397   7.163   0.310   0.605
 5152TIP3   OH215398   5.839   1.790   0.666
 5152TIP3    H115399   5.876   1.729   0.602
 5152TIP3    H215400   5.748   1.800   0.639
 5153TIP3   OH215401   5.625   7.708   4.639
 5153TIP3    H115402   5.542   7.709   4.592
 5153TIP3    H215403   5.602   7.690   4.730
 5154TIP3   OH215404   0.979   6.478   5.558
 5154TIP3    H115405   1.004   6.388   5.579
 5154TIP3    H215406   1.053   6.512   5.508
 5155TIP3   OH215407   3.502   5.824   2.623
 5155TIP3    H115408   3.496   5.811   2.528
 5155TIP3    H215409   3.592   5.799   2.644
 5156TIP3   OH215410   3.217   0.401   0.501
 5156TIP3    H115411   3.177   0.433   0.581
 5156TIP3    H215412   3.273   0.329   0.529
 5157TIP3   OH215413   0.463   7.160   3.040
 5157TIP3    H115414   0.557   7.148   3.024
 5157TIP3    H215415   0.422   7.135   2.957
 5158TIP3   OH215416   7.667   7.776   4.343
 5158TIP3    H115417   7.612   7.845   4.306
 5158TIP3    H215418   7.613   7.697   4.338
 5159TIP3   OH215419   5.886   1.926   3.269
 5159TIP3    H115420   5.884   1.830   3.269
 5159TIP3    H215421   5.907   1.950   3.359
 5160TIP3   OH215422   1.397   5.055   0.535
 5160TIP3    H115423   1.396   5.111   0.613
 5160TIP3    H215424   1.326   4.992   0.550
 5161TIP3   OH215425   8.123   6.206   4.000
 5161TIP3    H115426   8.215   6.216   4.023
 5161TIP3    H215427   8.100   6.288   3.956
 5162TIP3   OH215428   1.455   5.610   5.528
 5162TIP3    H115429   1.549   5.627   5.540
 5162TIP3    H215430   1.450   5.558   5.448
 5163TIP3   OH215431   6.042   0.728   5.782
 5163TIP3    H115432   6.081   0.792   5.723
 5163TIP3    H215433   5.963   0.698   5.736
 5164TIP3   OH215434   6.718   2.852   0.495
 5164TIP3    H115435   6.692   2.845   0.587
 5164TIP3    H215436   6.719   2.761   0.464
 5165TIP3   OH215437   3.994   5.088   5.054
 5165TIP3    H115438   3.925   5.138   5.097
 5165TIP3    H215439   3.981   5.104   4.960
 5166TIP3   OH215440   1.937   3.093   6.530
 5166TIP3    H115441   2.016   3.098   6.476
 5166TIP3    H215442   1.906   3.003   6.520
 5167TIP3   OH215443   4.833   1.559   0.269
 5167TIP3    H115444   4.882   1.633   0.234
 5167TIP3    H215445   4.806   1.509   0.192
 5168TIP3   OH215446   1.990   0.947   1.836
 5168TIP3    H115447   2.012   1.039   1.852
 5168TIP3    H215448   1.919   0.929   1.898
 5169TIP3   OH215449   1.543   7.658   0.691
 5169TIP3    H115450   1.467   7.677   0.636
 5169TIP3    H215451   1.617   7.658   0.631
 5170TIP3   OH215452   6.083   5.709   3.104
 5170TIP3    H115453   6.135   5.637   3.138
 5170TIP3    H215454   5.992   5.681   3.116
 5171TIP3   OH215455   1.121   3.445   4.448
 5171TIP3    H115456   1.212   3.472   4.430
 5171TIP3    H215457   1.118   3.431   4.542
 5172TIP3   OH215458   2.229   2.630   5.541
 5172TIP3    H115459   2.322   2.650   5.533
 5172TIP3    H215460   2.221   2.540   5.508
 5173TIP3   OH215461   6.806   6.568   3.270
 5173TIP3    H115462   6.763   6.640   3.224
 5173TIP3    H215463   6.852   6.609   3.343
 5174TIP3   OH215464   0.606   0.267   1.782
 5174TIP3    H115465   0.526   0.308   1.815
 5174TIP3    H215466   0.639   0.215   1.855
 5175TIP3   OH215467   4.491   5.678   5.672
 5175TIP3    H115468   4.409   5.726   5.670
 5175TIP3    H215469   4.474   5.603   5.730
 5176TIP3   OH215470   5.113   3.040   0.424
 5176TIP3    H115471   5.185   3.072   0.479
 5176TIP3    H215472   5.156   2.989   0.355
 5177TIP3   OH215473   3.219   6.958   5.681
 5177TIP3    H115474   3.192   6.872   5.715
 5177TIP3    H215475   3.246   6.940   5.591
 5178TIP3   OH215476   7.432   2.061   5.508
 5178TIP3    H115477   7.354   2.023   5.548
 5178TIP3    H215478   7.503   2.041   5.569
 5179TIP3   OH215479   1.555   3.002   6.460
 5179TIP3    H115480   1.592   2.914   6.472
 5179TIP3    H215481   1.482   3.005   6.521
 5180TIP3   OH215482   0.619   0.314   1.353
 5180TIP3    H115483   0.599   0.243   1.414
 5180TIP3    H215484   0.693   0.360   1.393
 5181TIP3   OH215485   5.051   5.087   4.468
 5181TIP3    H115486   5.022   5.118   4.554
 5181TIP3    H215487   5.085   4.999   4.484
 5182TIP3   OH215488   7.163   6.135   3.364
 5182TIP3    H115489   7.069   6.118   3.371
 5182TIP3    H215490   7.203   6.048   3.370
 5183TIP3   OH215491   2.387   3.725   4.253
 5183TIP3    H115492   2.374   3.642   4.208
 5183TIP3    H215493   2.429   3.782   4.188
 5184TIP3   OH215494   4.986   0.977   0.621
 5184TIP3    H115495   4.954   0.911   0.560
 5184TIP3    H215496   4.978   0.937   0.708
 5185TIP3   OH215497   6.079   7.606   0.176
 5185TIP3    H115498   6.043   7.672   0.117
 5185TIP3    H215499   6.050   7.633   0.263
 5186TIP3   OH215500   0.702   6.046   1.535
 5186TIP3    H115501   0.701   6.141   1.523
 5186TIP3    H215502   0.611   6.022   1.550
 5187TIP3   OH215503   3.719   3.977   0.050
 5187TIP3    H115504   3.810   4.000   0.070
 5187TIP3    H215505   3.711   3.988  -0.044
 5188TIP3   OH215506   0.205   7.205   2.796
 5188TIP3    H115507   0.222   7.206   2.702
 5188TIP3    H215508   0.213   7.296   2.824
 5189TIP3   OH215509   4.869   0.006   6.541
 5189TIP3    H115510   4.866   0.032   6.449
 5189TIP3    H215511   4.962   0.004   6.563
 5190TIP3   OH215512   7.889   5.204   1.988
 5190TIP3    H115513   7.880   5.285   2.038
 5190TIP3    H215514   7.922   5.140   2.050
 5191TIP3   OH215515   2.833   1.641   6.167
 5191TIP3    H115516   2.829   1.596   6.083
 5191TIP3    H215517   2.741   1.654   6.192
 5192TIP3   OH215518   3.276   3.553   1.801
 5192TIP3    H115519   3.306   3.634   1.841
 5192TIP3    H215520   3.297   3.562   1.708
 5193TIP3   OH215521   7.819   0.810   6.481
 5193TIP3    H115522   7.785   0.777   6.398
 5193TIP3    H215523   7.843   0.732   6.530
 5194TIP3   OH215524   0.086   5.627   3.712
 5194TIP3    H115525   0.101   5.678   3.791
 5194TIP3    H215526   0.152   5.558   3.713
 5195TIP3   OH215527   4.013   5.952   3.641
 5195TIP3    H115528   4.070   6.022   3.610
 5195TIP3    H215529   4.021   5.884   3.574
 5196TIP3   OH215530   7.842   4.314   0.175
 5196TIP3    H115531   7.865   4.387   0.117
 5196TIP3    H215532   7.747   4.317   0.183
 5197TIP3   OH215533   1.789   0.092   1.168
 5197TIP3    H115534   1.833   0.148   1.104
 5197TIP3    H215535   1.842   0.012   1.169
 5198TIP3   OH215536   4.959   4.360   0.132
 5198TIP3    H115537   4.979   4.312   0.051
 5198TIP3    H215538   5.038   4.411   0.150
 5199TIP3   OH215539   2.512   2.592   2.102
 5199TIP3    H115540   2.588   2.607   2.157
 5199TIP3    H215541   2.491   2.500   2.114
 5200TIP3   OH215542   4.121   5.959   3.331
 5200TIP3    H115543   4.049   5.974   3.270
 5200TIP3    H215544   4.180   6.034   3.318
 5201TIP3   OH215545   7.410   5.875   2.751
 5201TIP3    H115546   7.408   5.790   2.795
 5201TIP3    H215547   7.404   5.853   2.658
 5202TIP3   OH215548   4.204   7.135   2.334
 5202TIP3    H115549   4.272   7.085   2.287
 5202TIP3    H215550   4.192   7.088   2.416
 5203TIP3   OH215551   4.103   1.496   6.204
 5203TIP3    H115552   4.031   1.558   6.213
 5203TIP3    H215553   4.072   1.417   6.249
 5204TIP3   OH215554   7.984   4.903   4.672
 5204TIP3    H115555   8.054   4.903   4.737
 5204TIP3    H215556   8.023   4.862   4.595
 5205TIP3   OH215557   8.151   2.321   1.788
 5205TIP3    H115558   8.163   2.349   1.879
 5205TIP3    H215559   8.073   2.266   1.790
 5206TIP3   OH215560   6.214   3.417   5.654
 5206TIP3    H115561   6.182   3.464   5.731
 5206TIP3    H215562   6.154   3.442   5.584
 5207TIP3   OH215563   1.453   3.548   2.845
 5207TIP3    H115564   1.444   3.513   2.757
 5207TIP3    H215565   1.497   3.479   2.895
 5208TIP3   OH215566   5.905   3.059   3.423
 5208TIP3    H115567   5.824   3.010   3.418
 5208TIP3    H215568   5.901   3.120   3.350
 5209TIP3   OH215569   0.638   2.337   1.342
 5209TIP3    H115570   0.577   2.407   1.367
 5209TIP3    H215571   0.639   2.279   1.418
 5210TIP3   OH215572   8.264   0.525   5.186
 5210TIP3    H115573   8.202   0.593   5.157
 5210TIP3    H215574   8.226   0.491   5.267
 5211TIP3   OH215575   3.262   0.765   5.471
 5211TIP3    H115576   3.174   0.783   5.438
 5211TIP3    H215577   3.275   0.672   5.456
 5212TIP3   OH215578   4.585   2.163   0.271
 5212TIP3    H115579   4.527   2.185   0.344
 5212TIP3    H215580   4.672   2.191   0.301
 5213TIP3   OH215581   1.941   1.892   2.656
 5213TIP3    H115582   1.890   1.924   2.731
 5213TIP3    H215583   1.975   1.971   2.615
 5214TIP3   OH215584   2.356   1.520   4.024
 5214TIP3    H115585   2.326   1.488   3.939
 5214TIP3    H215586   2.284   1.498   4.084
 5215TIP3   OH215587   6.181   1.764   6.528
 5215TIP3    H115588   6.197   1.749   6.621
 5215TIP3    H215589   6.213   1.686   6.484
 5216TIP3   OH215590   5.554   2.500   4.225
 5216TIP3    H115591   5.519   2.425   4.272
 5216TIP3    H215592   5.646   2.504   4.253
 5217TIP3   OH215593   1.426   0.921   5.148
 5217TIP3    H115594   1.422   1.005   5.195
 5217TIP3    H215595   1.343   0.879   5.167
 5218TIP3   OH215596   3.173   6.400   4.246
 5218TIP3    H115597   3.087   6.419   4.208
 5218TIP3    H215598   3.154   6.347   4.323
 5219TIP3   OH215599   1.263   5.610   5.037
 5219TIP3    H115600   1.298   5.672   4.973
 5219TIP3    H215601   1.202   5.662   5.091
 5220TIP3   OH215602   3.073   0.443   0.749
 5220TIP3    H115603   3.119   0.469   0.828
 5220TIP3    H215604   2.998   0.392   0.779
 5221TIP3   OH215605   4.555   4.048   4.875
 5221TIP3    H115606   4.483   4.072   4.816
 5221TIP3    H215607   4.548   4.109   4.948
 5222TIP3   OH215608   1.571   5.901   4.212
 5222TIP3    H115609   1.600   5.830   4.155
 5222TIP3    H215610   1.491   5.869   4.253
 5223TIP3   OH215611   3.239   0.806   6.374
 5223TIP3    H115612   3.189   0.881   6.407
 5223TIP3    H215613   3.185   0.730   6.397
 5224TIP3   OH215614   2.621   3.123   3.229
 5224TIP3    H115615   2.691   3.142   3.168
 5224TIP3    H215616   2.542   3.158   3.187
 5225TIP3   OH215617   6.837   0.271   3.213
 5225TIP3    H115618   6.801   0.282   3.301
 5225TIP3    H215619   6.907   0.336   3.207
 5226TIP3   OH215620   4.518   7.805   2.492
 5226TIP3    H115621   4.522   7.895   2.526
 5226TIP3    H215622   4.572   7.754   2.552
 5227TIP3   OH215623   4.562   2.007   4.234
 5227TIP3    H115624   4.582   1.914   4.235
 5227TIP3    H215625   4.496   2.017   4.166
 5228TIP3   OH215626   3.899   0.240   1.462
 5228TIP3    H115627   3.857   0.157   1.487
 5228TIP3    H215628   3.953   0.218   1.386
 5229TIP3   OH215629   5.731   3.572   5.301
 5229TIP3    H115630   5.662   3.537   5.358
 5229TIP3    H215631   5.684   3.601   5.222
 5230TIP3   OH215632   2.760   0.752   0.242
 5230TIP3    H115633   2.818   0.681   0.215
 5230TIP3    H215634   2.719   0.720   0.323
 5231TIP3   OH215635   2.690   0.914   0.601
 5231TIP3    H115636   2.670   0.820   0.600
 5231TIP3    H215637   2.750   0.925   0.675
 5232TIP3   OH215638   3.537   2.615   3.482
 5232TIP3    H115639   3.532   2.527   3.446
 5232TIP3    H215640   3.603   2.609   3.551
 5233TIP3   OH215641   5.372   6.917   5.130
 5233TIP3    H115642   5.327   6.991   5.089
 5233TIP3    H215643   5.382   6.942   5.222
 5234TIP3   OH215644   0.645   3.708   0.928
 5234TIP3    H115645   0.642   3.795   0.968
 5234TIP3    H215646   0.563   3.700   0.881
 5235TIP3   OH215647   3.428   0.360   5.684
 5235TIP3    H115648   3.446   0.277   5.640
 5235TIP3    H215649   3.504   0.415   5.664
 5236TIP3   OH215650   5.604   6.509   5.116
 5236TIP3    H115651   5.661   6.433   5.129
 5236TIP3    H215652   5.604   6.553   5.201
 5237TIP3   OH215653   3.819   4.966   5.338
 5237TIP3    H115654   3.803   5.058   5.314
 5237TIP3    H215655   3.854   4.970   5.427
 5238TIP3   OH215656   3.171   2.429   5.930
 5238TIP3    H115657   3.204   2.518   5.930
 5238TIP3    H215658   3.094   2.432   5.987
 5239TIP3   OH215659   2.109   5.802   5.747
 5239TIP3    H115660   2.165   5.815   5.671
 5239TIP3    H215661   2.164   5.826   5.822
 5240TIP3   OH215662   8.159   6.722   6.137
 5240TIP3    H115663   8.081   6.718   6.191
 5240TIP3    H215664   8.227   6.679   6.189
 5241TIP3   OH215665   7.107   3.895   4.445
 5241TIP3    H115666   7.031   3.928   4.493
 5241TIP3    H215667   7.139   3.822   4.498
 5242TIP3   OH215668   8.069   0.764   5.252
 5242TIP3    H115669   8.065   0.751   5.157
 5242TIP3    H215670   7.979   0.756   5.282
 5243TIP3   OH215671   1.303   5.573   6.065
 5243TIP3    H115672   1.377   5.613   6.112
 5243TIP3    H215673   1.337   5.553   5.978
 5244TIP3   OH215674   0.668  -0.048   6.065
 5244TIP3    H115675   0.585  -0.033   6.021
 5244TIP3    H215676   0.670   0.016   6.136
 5245TIP3   OH215677   2.579   4.217   1.431
 5245TIP3    H115678   2.484   4.214   1.430
 5245TIP3    H215679   2.600   4.290   1.489
 5246TIP3   OH215680   7.527   6.955   4.308
 5246TIP3    H115681   7.505   6.862   4.317
 5246TIP3    H215682   7.453   7.000   4.349
 5247TIP3   OH215683   5.588   7.527   0.512
 5247TIP3    H115684   5.680   7.515   0.539
 5247TIP3    H215685   5.575   7.621   0.515
 5248TIP3   OH215686   7.966   0.274   3.487
 5248TIP3    H115687   7.927   0.188   3.500
 5248TIP3    H215688   7.987   0.277   3.394
 5249TIP3   OH215689   1.620   1.643   3.846
 5249TIP3    H115690   1.704   1.652   3.890
 5249TIP3    H215691   1.595   1.551   3.861
 5250TIP3   OH215692   6.684   2.226   2.678
 5250TIP3    H115693   6.615   2.194   2.620
 5250TIP3    H215694   6.642   2.292   2.733
 5251TIP3   OH215695   2.548   1.486   0.908
 5251TIP3    H115696   2.564   1.416   0.846
 5251TIP3    H215697   2.472   1.533   0.874
 5252TIP3   OH215698   1.820   2.414   6.702
 5252TIP3    H115699   1.812   2.507   6.681
 5252TIP3    H215700   1.733   2.378   6.687
 5253TIP3   OH215701   4.889  -0.010   4.702
 5253TIP3    H115702   4.925  -0.083   4.753
 5253TIP3    H215703   4.901  -0.036   4.611
 5254TIP3   OH215704   3.340   2.852   1.954
 5254TIP3    H115705   3.343   2.758   1.972
 5254TIP3    H215706   3.399   2.891   2.019
 5255TIP3   OH215707   7.496   5.970   0.839
 5255TIP3    H115708   7.592   5.979   0.835
 5255TIP3    H215709   7.482   5.880   0.868
 5256TIP3   OH215710   6.496   6.343   4.623
 5256TIP3    H115711   6.555   6.418   4.630
 5256TIP3    H215712   6.422   6.376   4.572
 5257TIP3   OH215713   3.264   3.146   4.853
 5257TIP3    H115714   3.171   3.165   4.847
 5257TIP3    H215715   3.278   3.122   4.945
 5258TIP3   OH215716   8.268   6.610   2.471
 5258TIP3    H115717   8.295   6.534   2.522
 5258TIP3    H215718   8.210   6.659   2.530
 5259TIP3   OH215719   3.098   2.018   5.658
 5259TIP3    H115720   3.149   2.028   5.738
 5259TIP3    H215721   3.129   1.937   5.618
 5260TIP3   OH215722   5.488   0.878   6.125
 5260TIP3    H115723   5.421   0.876   6.057
 5260TIP3    H215724   5.469   0.802   6.180
 5261TIP3   OH215725   4.556   3.464   6.391
 5261TIP3    H115726   4.498   3.473   6.467
 5261TIP3    H215727   4.516   3.395   6.338
 5262TIP3   OH215728   1.500   1.931   3.138
 5262TIP3    H115729   1.519   2.022   3.114
 5262TIP3    H215730   1.582   1.884   3.122
 5263TIP3   OH215731   4.951   0.759   3.764
 5263TIP3    H115732   4.953   0.663   3.773
 5263TIP3    H215733   4.955   0.791   3.854
 5264TIP3   OH215734   7.895   6.245   3.463
 5264TIP3    H115735   7.829   6.289   3.409
 5264TIP3    H215736   7.866   6.261   3.553
 5265TIP3   OH215737   7.201   7.097   5.325
 5265TIP3    H115738   7.263   7.131   5.260
 5265TIP3    H215739   7.226   7.141   5.406
 5266TIP3   OH215740   6.088   1.544   5.908
 5266TIP3    H115741   6.158   1.591   5.864
 5266TIP3    H215742   6.033   1.613   5.946
 5267TIP3   OH215743   5.865   1.904   0.398
 5267TIP3    H115744   5.894   1.995   0.387
 5267TIP3    H215745   5.906   1.857   0.326
 5268TIP3   OH215746   1.588   0.031   6.234
 5268TIP3    H115747   1.521   0.065   6.294
 5268TIP3    H215748   1.671   0.062   6.270
 5269TIP3   OH215749   2.886   5.883   0.330
 5269TIP3    H115750   2.864   5.976   0.322
 5269TIP3    H215751   2.829   5.851   0.400
 5270TIP3   OH215752   7.036   2.612   0.948
 5270TIP3    H115753   7.113   2.556   0.946
 5270TIP3    H215754   6.971   2.565   0.895
 5271TIP3   OH215755   3.315   4.390   4.811
 5271TIP3    H115756   3.295   4.346   4.729
 5271TIP3    H215757   3.410   4.381   4.821
 5272TIP3   OH215758   1.472   6.903   2.866
 5272TIP3    H115759   1.379   6.888   2.851
 5272TIP3    H215760   1.488   6.871   2.955
 5273TIP3   OH215761   5.234   5.333   6.166
 5273TIP3    H115762   5.287   5.305   6.240
 5273TIP3    H215763   5.236   5.259   6.106
 5274TIP3   OH215764   7.377   6.585   4.735
 5274TIP3    H115765   7.433   6.558   4.663
 5274TIP3    H215766   7.339   6.503   4.768
 5275TIP3   OH215767   4.925   5.330   2.919
 5275TIP3    H115768   4.905   5.367   2.832
 5275TIP3    H215769   4.973   5.250   2.900
 5276TIP3   OH215770   8.226   5.274   1.293
 5276TIP3    H115771   8.303   5.230   1.254
 5276TIP3    H215772   8.262   5.348   1.340
 5277TIP3   OH215773   1.997   1.547   5.044
 5277TIP3    H115774   1.945   1.520   5.120
 5277TIP3    H215775   2.079   1.577   5.081
 5278TIP3   OH215776   5.558   4.939   2.642
 5278TIP3    H115777   5.539   5.000   2.571
 5278TIP3    H215778   5.483   4.947   2.701
 5279TIP3   OH215779   4.355   7.025   6.661
 5279TIP3    H115780   4.290   7.091   6.639
 5279TIP3    H215781   4.381   6.988   6.577
 5280TIP3   OH215782   6.155   3.061   1.105
 5280TIP3    H115783   6.250   3.052   1.103
 5280TIP3    H215784   6.136   3.104   1.188
 5281TIP3   OH215785   2.812   6.852   3.276
 5281TIP3    H115786   2.904   6.825   3.285
 5281TIP3    H215787   2.762   6.775   3.303
 5282TIP3   OH215788   5.867   7.428   6.319
 5282TIP3    H115789   5.920   7.504   6.298
 5282TIP3    H215790   5.858   7.382   6.236
 5283TIP3   OH215791   0.183   4.159   3.098
 5283TIP3    H115792   0.247   4.092   3.123
 5283TIP3    H215793   0.178   4.153   3.003
 5284TIP3   OH215794   1.744   1.026   6.649
 5284TIP3    H115795   1.810   0.964   6.680
 5284TIP3    H215796   1.789   1.078   6.582
 5285TIP3   OH215797   0.769   5.722   0.384
 5285TIP3    H115798   0.829   5.794   0.401
 5285TIP3    H215799   0.757   5.680   0.469
 5286TIP3   OH215800   4.487   0.895   3.394
 5286TIP3    H115801   4.463   0.967   3.452
 5286TIP3    H215802   4.572   0.865   3.426
 5287TIP3   OH215803   4.419   2.168   1.978
 5287TIP3    H115804   4.469   2.249   1.974
 5287TIP3    H215805   4.481   2.100   1.953
 5288TIP3   OH215806   0.393   0.542   4.048
 5288TIP3    H115807   0.319   0.601   4.035
 5288TIP3    H215808   0.460   0.574   3.988
 5289TIP3   OH215809   2.677   6.961   1.242
 5289TIP3    H115810   2.695   6.910   1.321
 5289TIP3    H215811   2.593   6.927   1.210
 5290TIP3   OH215812   0.952   3.984   4.529
 5290TIP3    H115813   0.903   4.009   4.607
 5290TIP3    H215814   0.952   4.062   4.474
 5291TIP3   OH215815   2.799   1.636   4.739
 5291TIP3    H115816   2.787   1.622   4.645
 5291TIP3    H215817   2.889   1.665   4.748
 5292TIP3   OH215818   5.993   0.444   5.470
 5292TIP3    H115819   6.077   0.461   5.428
 5292TIP3    H215820   5.983   0.515   5.533
 5293TIP3   OH215821   3.347   7.696   2.650
 5293TIP3    H115822   3.321   7.678   2.741
 5293TIP3    H215823   3.268   7.683   2.599
 5294TIP3   OH215824   3.671   2.886   4.109
 5294TIP3    H115825   3.698   2.871   4.200
 5294TIP3    H215826   3.578   2.866   4.109
 5295TIP3   OH215827   5.954   3.404   0.415
 5295TIP3    H115828   5.894   3.381   0.344
 5295TIP3    H215829   5.952   3.329   0.474
 5296TIP3   OH215830   0.722   1.373   6.709
 5296TIP3    H115831   0.639   1.411   6.681
 5296TIP3    H215832   0.778   1.378   6.632
 5297TIP3   OH215833   1.339   1.787   0.846
 5297TIP3    H115834   1.428   1.750   0.846
 5297TIP3    H215835   1.342   1.857   0.780
 5298TIP3   OH215836   6.971   5.721   4.930
 5298TIP3    H115837   6.973   5.669   5.010
 5298TIP3    H215838   7.036   5.679   4.873
 5299TIP3   OH215839   2.682   6.910   3.828
 5299TIP3    H115840   2.609   6.960   3.865
 5299TIP3    H215841   2.658   6.818   3.842
 5300TIP3   OH215842   0.134   6.908   6.715
 5300TIP3    H115843   0.107   6.834   6.661
 5300TIP3    H215844   0.143   6.981   6.654
 5301TIP3   OH215845   5.121   7.481   0.926
 5301TIP3    H115846   5.151   7.422   0.995
 5301TIP3    H215847   5.138   7.569   0.959
 5302TIP3   OH215848   3.215   7.341   0.452
 5302TIP3    H115849   3.261   7.398   0.391
 5302TIP3    H215850   3.129   7.381   0.462
 5303TIP3   OH215851   2.294   7.655   2.770
 5303TIP3    H115852   2.281   7.583   2.708
 5303TIP3    H215853   2.381   7.640   2.807
 5304TIP3   OH215854   2.246   3.234   5.664
 5304TIP3    H115855   2.291   3.197   5.740
 5304TIP3    H215856   2.309   3.297   5.628
 5305TIP3   OH215857   7.096   4.664   5.265
 5305TIP3    H115858   7.124   4.607   5.194
 5305TIP3    H215859   7.001   4.665   5.259
 5306TIP3   OH215860   2.630   2.460   0.044
 5306TIP3    H115861   2.592   2.547   0.042
 5306TIP3    H215862   2.704   2.468   0.105
 5307TIP3   OH215863   2.296   5.096   4.460
 5307TIP3    H115864   2.384   5.121   4.488
 5307TIP3    H215865   2.238   5.125   4.530
 5308TIP3   OH215866   0.871   1.398   2.539
 5308TIP3    H115867   0.820   1.331   2.494
 5308TIP3    H215868   0.961   1.383   2.510
 5309TIP3   OH215869   4.794   5.744   0.309
 5309TIP3    H115870   4.771   5.836   0.322
 5309TIP3    H215871   4.887   5.745   0.289
 5310TIP3   OH215872   1.086   0.445   3.733
 5310TIP3    H115873   1.010   0.428   3.678
 5310TIP3    H215874   1.062   0.408   3.818
 5311TIP3   OH215875   6.546   1.602   3.432
 5311TIP3    H115876   6.535   1.552   3.351
 5311TIP3    H215877   6.465   1.586   3.481
 5312TIP3   OH215878   5.428   4.524   3.174
 5312TIP3    H115879   5.341   4.531   3.212
 5312TIP3    H215880   5.477   4.470   3.236
 5313TIP3   OH215881   3.451   3.298   0.807
 5313TIP3    H115882   3.467   3.229   0.743
 5313TIP3    H215883   3.520   3.287   0.873
 5314TIP3   OH215884   5.787   4.773   0.946
 5314TIP3    H115885   5.775   4.814   1.031
 5314TIP3    H215886   5.856   4.824   0.904
 5315TIP3   OH215887   4.434   5.355   3.192
 5315TIP3    H115888   4.390   5.424   3.142
 5315TIP3    H215889   4.527   5.368   3.172
 5316TIP3   OH215890   7.584   6.702   3.290
 5316TIP3    H115891   7.517   6.678   3.354
 5316TIP3    H215892   7.548   6.673   3.206
 5317TIP3   OH215893   2.652   5.330   3.931
 5317TIP3    H115894   2.722   5.269   3.953
 5317TIP3    H215895   2.611   5.291   3.853
 5318TIP3   OH215896   2.107   7.205   0.071
 5318TIP3    H115897   2.094   7.136   0.136
 5318TIP3    H215898   2.180   7.174   0.018
 5319TIP3   OH215899   2.528   4.981   5.817
 5319TIP3    H115900   2.604   4.925   5.834
 5319TIP3    H215901   2.472   4.968   5.893
 5320TIP3   OH215902   7.113   5.762   1.173
 5320TIP3    H115903   7.045   5.737   1.110
 5320TIP3    H215904   7.075   5.743   1.258
 5321TIP3   OH215905   6.481   7.595   6.195
 5321TIP3    H115906   6.529   7.597   6.112
 5321TIP3    H215907   6.491   7.683   6.230
 5322TIP3   OH215908   6.975   7.350   1.255
 5322TIP3    H115909   6.928   7.421   1.212
 5322TIP3    H215910   6.918   7.325   1.328
 5323TIP3   OH215911   1.696   1.743   2.470
 5323TIP3    H115912   1.607   1.776   2.456
 5323TIP3    H215913   1.751   1.822   2.464
 5324TIP3   OH215914   1.121   5.464   6.219
 5324TIP3    H115915   1.158   5.376   6.222
 5324TIP3    H215916   1.172   5.510   6.153
 5325TIP3   OH215917   6.285   2.557   0.179
 5325TIP3    H115918   6.212   2.616   0.196
 5325TIP3    H215919   6.351   2.582   0.244
 5326TIP3   OH215920   4.123   7.426   2.748
 5326TIP3    H115921   4.097   7.481   2.822
 5326TIP3    H215922   4.204   7.465   2.716
 5327TIP3   OH215923   4.909   0.154   3.041
 5327TIP3    H115924   4.991   0.201   3.057
 5327TIP3    H215925   4.868   0.147   3.127
 5328TIP3   OH215926   5.504   7.144   2.528
 5328TIP3    H115927   5.509   7.142   2.432
 5328TIP3    H215928   5.476   7.233   2.549
 5329TIP3   OH215929   1.848   7.402   3.207
 5329TIP3    H115930   1.824   7.415   3.115
 5329TIP3    H215931   1.816   7.480   3.251
 5330TIP3   OH215932   2.139   3.265   0.809
 5330TIP3    H115933   2.159   3.338   0.867
 5330TIP3    H215934   2.050   3.238   0.833
 5331TIP3   OH215935   3.730   5.232   5.682
 5331TIP3    H115936   3.714   5.197   5.594
 5331TIP3    H215937   3.749   5.325   5.668
 5332TIP3   OH215938   3.467   6.383   4.614
 5332TIP3    H115939   3.494   6.340   4.532
 5332TIP3    H215940   3.404   6.322   4.653
 5333TIP3   OH215941   3.501   4.963   6.369
 5333TIP3    H115942   3.595   4.944   6.377
 5333TIP3    H215943   3.486   4.968   6.275
 5334TIP3   OH215944   7.921   3.770   3.030
 5334TIP3    H115945   7.909   3.857   3.068
 5334TIP3    H215946   7.945   3.788   2.939
 5335TIP3   OH215947   5.890   4.503   5.238
 5335TIP3    H115948   5.829   4.462   5.177
 5335TIP3    H215949   5.969   4.517   5.187
 5336TIP3   OH215950   4.877   6.276   6.269
 5336TIP3    H115951   4.931   6.315   6.201
 5336TIP3    H215952   4.904   6.184   6.272
 5337TIP3   OH215953   7.931   4.848   3.559
 5337TIP3    H115954   7.866   4.784   3.528
 5337TIP3    H215955   7.921   4.922   3.499
 5338TIP3   OH215956   5.411   1.586   2.148
 5338TIP3    H115957   5.505   1.602   2.155
 5338TIP3    H215958   5.388   1.616   2.060
 5339TIP3   OH215959   0.515   2.656   1.179
 5339TIP3    H115960   0.495   2.615   1.262
 5339TIP3    H215961   0.458   2.733   1.175
 5340TIP3   OH215962   5.346   2.650   5.593
 5340TIP3    H115963   5.390   2.579   5.546
 5340TIP3    H215964   5.399   2.663   5.672
 5341TIP3   OH215965   7.279   7.546   3.806
 5341TIP3    H115966   7.298   7.467   3.858
 5341TIP3    H215967   7.267   7.514   3.717
 5342TIP3   OH215968   5.064   5.623   3.579
 5342TIP3    H115969   5.036   5.554   3.640
 5342TIP3    H215970   5.160   5.623   3.585
 5343TIP3   OH215971   1.836   3.498   2.933
 5343TIP3    H115972   1.846   3.590   2.909
 5343TIP3    H215973   1.884   3.489   3.015
 5344TIP3   OH215974   3.006   4.529   5.852
 5344TIP3    H115975   3.064   4.564   5.919
 5344TIP3    H215976   2.982   4.606   5.799
 5345TIP3   OH215977   5.789   0.665   6.444
 5345TIP3    H115978   5.850   0.605   6.402
 5345TIP3    H215979   5.798   0.746   6.395
 5346TIP3   OH215980   3.509   4.795   0.839
 5346TIP3    H115981   3.448   4.740   0.888
 5346TIP3    H215982   3.596   4.760   0.860
 5347TIP3   OH215983   5.175   3.470   1.457
 5347TIP3    H115984   5.125   3.526   1.517
 5347TIP3    H215985   5.241   3.528   1.420
 5348TIP3   OH215986   5.089   5.381   5.785
 5348TIP3    H115987   5.052   5.447   5.843
 5348TIP3    H215988   5.017   5.320   5.768
 5349TIP3   OH215989   6.820   1.738   2.836
 5349TIP3    H115990   6.766   1.808   2.871
 5349TIP3    H215991   6.804   1.663   2.894
 5350TIP3   OH215992   5.767   7.452   4.744
 5350TIP3    H115993   5.783   7.544   4.723
 5350TIP3    H215994   5.835   7.430   4.808
 5351TIP3   OH215995   1.158   2.170   3.183
 5351TIP3    H115996   1.236   2.219   3.211
 5351TIP3    H215997   1.178   2.079   3.206
 5352TIP3   OH215998   6.995   4.183   0.988
 5352TIP3    H115999   6.975   4.147   1.074
 5352TIP3    H216000   7.001   4.107   0.930
 5353TIP3   OH216001   5.196   3.424   3.017
 5353TIP3    H116002   5.130   3.438   3.085
 5353TIP3    H216003   5.262   3.369   3.060
 5354TIP3   OH216004   4.299   6.987   5.078
 5354TIP3    H116005   4.268   7.068   5.118
 5354TIP3    H216006   4.287   6.921   5.146
 5355TIP3   OH216007   4.145   3.085   3.759
 5355TIP3    H116008   4.118   3.102   3.850
 5355TIP3    H216009   4.219   3.025   3.768
 5356TIP3   OH216010   5.090   2.338   4.607
 5356TIP3    H116011   5.144   2.261   4.623
 5356TIP3    H216012   5.105   2.395   4.682
 5357TIP3   OH216013   1.301   3.137   0.069
 5357TIP3    H116014   1.346   3.064   0.025
 5357TIP3    H216015   1.239   3.169   0.003
 5358TIP3   OH216016   0.979   5.555   1.150
 5358TIP3    H116017   0.913   5.593   1.208
 5358TIP3    H216018   0.935   5.478   1.113
 5359TIP3   OH216019   6.727   1.432   4.126
 5359TIP3    H116020   6.752   1.515   4.085
 5359TIP3    H216021   6.764   1.437   4.215
 5360TIP3   OH216022   7.481   7.088   3.030
 5360TIP3    H116023   7.521   7.166   2.991
 5360TIP3    H216024   7.500   7.096   3.124
 5361TIP3   OH216025   5.144   3.685   1.935
 5361TIP3    H116026   5.201   3.611   1.912
 5361TIP3    H216027   5.199   3.740   1.991
 5362TIP3   OH216028   6.072   4.586   5.772
 5362TIP3    H116029   6.069   4.642   5.694
 5362TIP3    H216030   5.981   4.585   5.803
 5363TIP3   OH216031   5.521   3.880   3.376
 5363TIP3    H116032   5.575   3.845   3.305
 5363TIP3    H216033   5.485   3.961   3.341
 5364TIP3   OH216034   4.506   2.451   0.515
 5364TIP3    H116035   4.512   2.502   0.596
 5364TIP3    H216036   4.437   2.496   0.465
 5365TIP3   OH216037   6.041   6.828   0.739
 5365TIP3    H116038   5.947   6.829   0.758
 5365TIP3    H216039   6.079   6.780   0.813
 5366TIP3   OH216040   6.614   5.101   2.660
 5366TIP3    H116041   6.709   5.096   2.669
 5366TIP3    H216042   6.596   5.195   2.658
 5367TIP3   OH216043   1.508   4.687   2.404
 5367TIP3    H116044   1.572   4.731   2.348
 5367TIP3    H216045   1.478   4.612   2.352
 5368TIP3   OH216046   6.884   6.707   5.836
 5368TIP3    H116047   6.836   6.666   5.763
 5368TIP3    H216048   6.901   6.796   5.806
 5369TIP3   OH216049   5.780   5.612   1.134
 5369TIP3    H116050   5.706   5.619   1.074
 5369TIP3    H216051   5.758   5.672   1.206
 5370TIP3   OH216052   1.093   3.814   1.333
 5370TIP3    H116053   1.162   3.769   1.382
 5370TIP3    H216054   1.106   3.787   1.243
 5371TIP3   OH216055   5.180   3.629   4.308
 5371TIP3    H116056   5.139   3.604   4.226
 5371TIP3    H216057   5.135   3.576   4.374
 5372TIP3   OH216058   1.460   7.357   6.639
 5372TIP3    H116059   1.395   7.290   6.658
 5372TIP3    H216060   1.430   7.397   6.558
 5373TIP3   OH216061   2.414   2.650   5.112
 5373TIP3    H116062   2.340   2.706   5.131
 5373TIP3    H216063   2.404   2.575   5.171
 5374TIP3   OH216064   1.738   1.894   3.009
 5374TIP3    H116065   1.737   1.988   3.025
 5374TIP3    H216066   1.669   1.880   2.944
 5375TIP3   OH216067   5.905   0.739   4.662
 5375TIP3    H116068   5.960   0.660   4.672
 5375TIP3    H216069   5.816   0.705   4.656
 5376TIP3   OH216070   4.275   3.108   4.749
 5376TIP3    H116071   4.182   3.125   4.736
 5376TIP3    H216072   4.279   3.020   4.786
 5377TIP3   OH216073   0.610   3.174   4.049
 5377TIP3    H116074   0.535   3.174   3.990
 5377TIP3    H216075   0.684   3.196   3.992
 5378TIP3   OH216076   5.673   5.672   1.981
 5378TIP3    H116077   5.668   5.767   1.988
 5378TIP3    H216078   5.765   5.651   1.995
 5379TIP3   OH216079   0.774   4.382   1.920
 5379TIP3    H116080   0.741   4.467   1.949
 5379TIP3    H216081   0.695   4.328   1.911
 5380TIP3   OH216082   7.192   3.933   3.470
 5380TIP3    H116083   7.241   3.864   3.514
 5380TIP3    H216084   7.247   4.011   3.478
 5381TIP3   OH216085   3.872   2.995   1.444
 5381TIP3    H116086   3.930   2.960   1.512
 5381TIP3    H216087   3.894   2.944   1.366
 5382TIP3   OH216088   2.370   7.110   0.365
 5382TIP3    H116089   2.278   7.098   0.341
 5382TIP3    H216090   2.416   7.036   0.325
 5383TIP3   OH216091   2.717   6.557   1.217
 5383TIP3    H116092   2.751   6.471   1.242
 5383TIP3    H216093   2.702   6.602   1.301
 5384TIP3   OH216094   4.255   3.893   6.241
 5384TIP3    H116095   4.233   3.985   6.226
 5384TIP3    H216096   4.339   3.882   6.195
 5385TIP3   OH216097   3.492   3.060   3.511
 5385TIP3    H116098   3.458   3.139   3.553
 5385TIP3    H216099   3.555   3.092   3.447
 5386TIP3   OH216100   1.313   2.472   3.868
 5386TIP3    H116101   1.322   2.496   3.960
 5386TIP3    H216102   1.242   2.527   3.835
 5387TIP3   OH216103   6.352   0.588   1.700
 5387TIP3    H116104   6.400   0.653   1.648
 5387TIP3    H216105   6.288   0.639   1.749
 5388TIP3   OH216106   0.590   1.794   4.954
 5388TIP3    H116107   0.581   1.839   4.870
 5388TIP3    H216108   0.661   1.840   4.998
 5389TIP3   OH216109   5.877   3.901   3.744
 5389TIP3    H116110   5.849   3.848   3.819
 5389TIP3    H216111   5.939   3.964   3.780
 5390TIP3   OH216112   7.805   0.429   5.391
 5390TIP3    H116113   7.793   0.337   5.414
 5390TIP3    H216114   7.744   0.476   5.448
 5391TIP3   OH216115   5.102   6.031   5.918
 5391TIP3    H116116   5.139   5.991   5.996
 5391TIP3    H216117   5.161   6.004   5.847
 5392TIP3   OH216118   6.184   4.630   3.577
 5392TIP3    H116119   6.272   4.641   3.612
 5392TIP3    H216120   6.132   4.599   3.651
 5393TIP3   OH216121   2.559   2.284   0.366
 5393TIP3    H116122   2.549   2.377   0.388
 5393TIP3    H216123   2.499   2.270   0.293
 5394TIP3   OH216124   3.905   6.388   2.776
 5394TIP3    H116125   3.872   6.326   2.841
 5394TIP3    H216126   3.974   6.340   2.730
 5395TIP3   OH216127   3.699   7.368   4.252
 5395TIP3    H116128   3.761   7.428   4.293
 5395TIP3    H216129   3.620   7.420   4.239
 5396TIP3   OH216130   1.629   4.873   4.528
 5396TIP3    H116131   1.646   4.788   4.490
 5396TIP3    H216132   1.586   4.923   4.458
 5397TIP3   OH216133   6.079   7.326   2.679
 5397TIP3    H116134   6.091   7.240   2.719
 5397TIP3    H216135   6.166   7.350   2.647
 5398TIP3   OH216136   5.750   1.349   6.575
 5398TIP3    H116137   5.699   1.333   6.496
 5398TIP3    H216138   5.805   1.271   6.584
 5399TIP3   OH216139   0.640   5.154   5.628
 5399TIP3    H116140   0.552   5.187   5.613
 5399TIP3    H216141   0.695   5.232   5.635
 5400TIP3   OH216142   2.468   0.235   4.909
 5400TIP3    H116143   2.462   0.319   4.865
 5400TIP3    H216144   2.477   0.171   4.838
 5401TIP3   OH216145   5.540   3.221   6.552
 5401TIP3    H116146   5.617   3.213   6.607
 5401TIP3    H216147   5.570   3.268   6.474
 5402TIP3   OH216148   8.100   5.953   4.084
 5402TIP3    H116149   8.007   5.952   4.061
 5402TIP3    H216150   8.129   6.042   4.065
 5403TIP3   OH216151   8.037   3.186   1.691
 5403TIP3    H116152   7.963   3.193   1.630
 5403TIP3    H216153   8.015   3.111   1.746
 5404TIP3   OH216154   4.751   1.653   2.372
 5404TIP3    H116155   4.803   1.607   2.437
 5404TIP3    H216156   4.801   1.643   2.290
 5405TIP3   OH216157   7.390   1.405   2.284
 5405TIP3    H116158   7.348   1.324   2.311
 5405TIP3    H216159   7.321   1.454   2.240
 5406TIP3   OH216160   2.837   5.730   1.435
 5406TIP3    H116161   2.905   5.796   1.446
 5406TIP3    H216162   2.873   5.669   1.370
 5407TIP3   OH216163   5.878   2.387   1.369
 5407TIP3    H116164   5.795   2.433   1.383
 5407TIP3    H216165   5.889   2.384   1.274
 5408TIP3   OH216166   4.713   5.414   3.977
 5408TIP3    H116167   4.686   5.505   3.973
 5408TIP3    H216168   4.767   5.402   3.898
 5409TIP3   OH216169   3.932   6.420   0.064
 5409TIP3    H116170   3.860   6.443   0.122
 5409TIP3    H216171   4.001   6.388   0.123
 5410TIP3   OH216172   5.650   2.551   2.202
 5410TIP3    H116173   5.636   2.623   2.140
 5410TIP3    H216174   5.687   2.481   2.148
 5411TIP3   OH216175   7.745   5.300   3.075
 5411TIP3    H116176   7.765   5.366   3.141
 5411TIP3    H216177   7.761   5.343   2.992
 5412TIP3   OH216178   7.654   0.788   0.247
 5412TIP3    H116179   7.573   0.825   0.211
 5412TIP3    H216180   7.624   0.720   0.308
 5413TIP3   OH216181   0.198   0.663   0.477
 5413TIP3    H116182   0.174   0.744   0.432
 5413TIP3    H216183   0.266   0.689   0.538
 5414TIP3   OH216184   4.710   2.600   4.316
 5414TIP3    H116185   4.767   2.569   4.245
 5414TIP3    H216186   4.738   2.550   4.393
 5415TIP3   OH216187   7.908   5.226   0.516
 5415TIP3    H116188   7.893   5.183   0.432
 5415TIP3    H216189   8.002   5.217   0.531
 5416TIP3   OH216190   7.121   1.885   1.009
 5416TIP3    H116191   7.123   1.858   1.101
 5416TIP3    H216192   7.055   1.829   0.969
 5417TIP3   OH216193   0.675   4.288   3.992
 5417TIP3    H116194   0.674   4.315   3.900
 5417TIP3    H216195   0.679   4.192   3.988
 5418TIP3   OH216196   3.516   1.652   2.057
 5418TIP3    H116197   3.524   1.723   2.120
 5418TIP3    H216198   3.482   1.578   2.107
 5419TIP3   OH216199   3.107   0.163   4.027
 5419TIP3    H116200   3.095   0.123   4.113
 5419TIP3    H216201   3.072   0.252   4.037
 5420TIP3   OH216202   0.849   1.661   2.223
 5420TIP3    H116203   0.941   1.663   2.249
 5420TIP3    H216204   0.838   1.740   2.169
 5421TIP3   OH216205   8.070   6.596   6.562
 5421TIP3    H116206   8.050   6.504   6.548
 5421TIP3    H216207   8.008   6.643   6.506
 5422TIP3   OH216208   5.545   3.227   0.444
 5422TIP3    H116209   5.516   3.317   0.425
 5422TIP3    H216210   5.598   3.235   0.523
 5423TIP3   OH216211   1.426   3.810   0.356
 5423TIP3    H116212   1.376   3.745   0.307
 5423TIP3    H216213   1.389   3.809   0.444
 5424TIP3   OH216214   6.250   3.135   5.742
 5424TIP3    H116215   6.174   3.193   5.741
 5424TIP3    H216216   6.229   3.067   5.678
 5425TIP3   OH216217   1.308   5.363   4.942
 5425TIP3    H116218   1.313   5.386   4.849
 5425TIP3    H216219   1.287   5.446   4.986
 5426TIP3   OH216220   6.376   2.397   0.736
 5426TIP3    H116221   6.439   2.452   0.781
 5426TIP3    H216222   6.300   2.395   0.794
 5427TIP3   OH216223   4.679   5.003   3.642
 5427TIP3    H116224   4.654   4.965   3.727
 5427TIP3    H216225   4.643   5.091   3.644
 5428TIP3   OH216226   0.745   0.405   6.526
 5428TIP3    H116227   0.785   0.359   6.601
 5428TIP3    H216228   0.794   0.372   6.450
 5429TIP3   OH216229   3.364   6.098   0.698
 5429TIP3    H116230   3.268   6.095   0.692
 5429TIP3    H216231   3.381   6.145   0.780
 5430TIP3   OH216232   1.125   2.946   2.140
 5430TIP3    H116233   1.174   3.015   2.185
 5430TIP3    H216234   1.055   2.992   2.095
 5431TIP3   OH216235   1.547   5.852   5.991
 5431TIP3    H116236   1.638   5.875   5.972
 5431TIP3    H216237   1.505   5.845   5.906
 5432TIP3   OH216238   4.151   6.344   2.288
 5432TIP3    H116239   4.201   6.302   2.219
 5432TIP3    H216240   4.168   6.438   2.277
 5433TIP3   OH216241   6.470   7.423   3.118
 5433TIP3    H116242   6.544   7.372   3.083
 5433TIP3    H216243   6.397   7.402   3.060
 5434TIP3   OH216244   3.873   7.126   4.708
 5434TIP3    H116245   3.882   7.168   4.793
 5434TIP3    H216246   3.790   7.079   4.713
 5435TIP3   OH216247   3.545   7.103   0.784
 5435TIP3    H116248   3.461   7.141   0.758
 5435TIP3    H216249   3.610   7.154   0.736
 5436TIP3   OH216250   7.279   6.710   3.882
 5436TIP3    H116251   7.184   6.711   3.887
 5436TIP3    H216252   7.302   6.618   3.867
 5437TIP3   OH216253   6.336   1.789   2.578
 5437TIP3    H116254   6.346   1.833   2.494
 5437TIP3    H216255   6.426   1.773   2.607
 5438TIP3   OH216256   3.362   0.581   3.467
 5438TIP3    H116257   3.345   0.505   3.411
 5438TIP3    H216258   3.439   0.622   3.428
 5439TIP3   OH216259   2.281   3.008   0.408
 5439TIP3    H116260   2.263   3.101   0.424
 5439TIP3    H216261   2.195   2.968   0.400
 5440TIP3   OH216262   1.956   5.895   5.341
 5440TIP3    H116263   2.032   5.841   5.362
 5440TIP3    H216264   1.972   5.925   5.251
 5441TIP3   OH216265   3.337   2.843   0.904
 5441TIP3    H116266   3.385   2.837   0.821
 5441TIP3    H216267   3.348   2.934   0.932
 5442TIP3   OH216268   4.091   2.350   2.218
 5442TIP3    H116269   4.040   2.269   2.218
 5442TIP3    H216270   4.027   2.418   2.198
 5443TIP3   OH216271   1.551   7.105   3.851
 5443TIP3    H116272   1.593   7.185   3.821
 5443TIP3    H216273   1.607   7.073   3.921
 5444TIP3   OH216274   7.660   2.122   3.187
 5444TIP3    H116275   7.734   2.176   3.159
 5444TIP3    H216276   7.681   2.096   3.277
 5445TIP3   OH216277   5.999   5.068   3.158
 5445TIP3    H116278   6.007   5.135   3.089
 5445TIP3    H216279   5.921   5.093   3.207
 5446TIP3   OH216280   2.819   6.158   5.574
 5446TIP3    H116281   2.878   6.129   5.504
 5446TIP3    H216282   2.783   6.077   5.609
 5447TIP3   OH216283   3.456   4.083   0.645
 5447TIP3    H116284   3.411   4.061   0.564
 5447TIP3    H216285   3.421   4.023   0.710
 5448TIP3   OH216286   4.684   7.380   1.953
 5448TIP3    H116287   4.722   7.358   2.038
 5448TIP3    H216288   4.619   7.312   1.937
 5449TIP3   OH216289   4.434   1.441   0.809
 5449TIP3    H116290   4.408   1.499   0.881
 5449TIP3    H216291   4.514   1.481   0.774
 5450TIP3   OH216292   7.077   7.568   2.232
 5450TIP3    H116293   7.168   7.581   2.205
 5450TIP3    H216294   7.074   7.601   2.322
 5451TIP3   OH216295   7.925   7.101   6.361
 5451TIP3    H116296   7.865   7.064   6.295
 5451TIP3    H216297   7.884   7.183   6.387
 5452TIP3   OH216298   2.297   6.842   1.446
 5452TIP3    H116299   2.385   6.808   1.435
 5452TIP3    H216300   2.250   6.814   1.368
 5453TIP3   OH216301   7.459   0.780   1.063
 5453TIP3    H116302   7.520   0.854   1.058
 5453TIP3    H216303   7.515   0.703   1.067
 5454TIP3   OH216304   0.232   6.150   1.586
 5454TIP3    H116305   0.265   6.182   1.670
 5454TIP3    H216306   0.150   6.198   1.572
 5455TIP3   OH216307   0.898   6.001   3.263
 5455TIP3    H116308   0.850   6.081   3.243
 5455TIP3    H216309   0.842   5.930   3.233
 5456TIP3   OH216310   1.906   0.201   0.347
 5456TIP3    H116311   1.994   0.235   0.332
 5456TIP3    H216312   1.885   0.228   0.436
 5457TIP3   OH216313   1.697   0.977   5.127
 5457TIP3    H116314   1.715   1.030   5.204
 5457TIP3    H216315   1.601   0.975   5.121
 5458TIP3   OH216316   1.751   0.761   1.793
 5458TIP3    H116317   1.811   0.758   1.719
 5458TIP3    H216318   1.728   0.670   1.810
 5459TIP3   OH216319   6.395   0.473   6.559
 5459TIP3    H116320   6.398   0.508   6.648
 5459TIP3    H216321   6.338   0.534   6.511
 5460TIP3   OH216322   4.767   3.210   5.782
 5460TIP3    H116323   4.700   3.218   5.850
 5460TIP3    H216324   4.842   3.172   5.827
 5461TIP3   OH216325   7.435   7.567   0.032
 5461TIP3    H116326   7.468   7.656   0.044
 5461TIP3    H216327   7.439   7.553  -0.063
 5462TIP3   OH216328   0.857   4.201   6.310
 5462TIP3    H116329   0.896   4.204   6.397
 5462TIP3    H216330   0.764   4.184   6.326
 5463TIP3   OH216331   6.563   6.724   6.084
 5463TIP3    H116332   6.487   6.768   6.045
 5463TIP3    H216333   6.639   6.770   6.048
 5464TIP3   OH216334   6.527   7.496   2.078
 5464TIP3    H116335   6.519   7.424   2.141
 5464TIP3    H216336   6.519   7.576   2.131
 5465TIP3   OH216337   4.004   3.167   4.673
 5465TIP3    H116338   3.949   3.222   4.729
 5465TIP3    H216339   4.003   3.211   4.588
 5466TIP3   OH216340   3.763   1.093   5.241
 5466TIP3    H116341   3.737   1.105   5.149
 5466TIP3    H216342   3.684   1.112   5.291
 5467TIP3   OH216343   2.163   3.410   2.754
 5467TIP3    H116344   2.151   3.505   2.747
 5467TIP3    H216345   2.097   3.373   2.695
 5468TIP3   OH216346   3.538   4.080   6.586
 5468TIP3    H116347   3.485   4.007   6.554
 5468TIP3    H216348   3.512   4.154   6.532
 5469TIP3   OH216349   2.437   1.283   1.093
 5469TIP3    H116350   2.495   1.319   1.026
 5469TIP3    H216351   2.490   1.282   1.172
 5470TIP3   OH216352   6.564   2.611   6.599
 5470TIP3    H116353   6.540   2.703   6.592
 5470TIP3    H216354   6.538   2.586   6.687
 5471TIP3   OH216355   3.007   3.993   1.418
 5471TIP3    H116356   2.991   4.037   1.502
 5471TIP3    H216357   3.098   3.965   1.424
 5472TIP3   OH216358   5.077   1.434   6.816
 5472TIP3    H116359   5.023   1.504   6.779
 5472TIP3    H216360   5.165   1.471   6.820
 5473TIP3   OH216361   6.413   6.178   5.467
 5473TIP3    H116362   6.506   6.173   5.441
 5473TIP3    H216363   6.398   6.096   5.514
 5474TIP3   OH216364   4.476   2.203  -0.032
 5474TIP3    H116365   4.506   2.196   0.058
 5474TIP3    H216366   4.511   2.125  -0.075
 5475TIP3   OH216367   7.575   4.975   5.700
 5475TIP3    H116368   7.484   4.986   5.673
 5475TIP3    H216369   7.619   5.054   5.670
 5476TIP3   OH216370   0.440   2.610   3.009
 5476TIP3    H116371   0.474   2.628   3.097
 5476TIP3    H216372   0.362   2.556   3.023
 5477TIP3   OH216373   4.043   7.011   4.172
 5477TIP3    H116374   3.951   7.009   4.144
 5477TIP3    H216375   4.039   7.038   4.264
 5478TIP3   OH216376   2.414   3.224   3.094
 5478TIP3    H116377   2.337   3.235   3.038
 5478TIP3    H216378   2.416   3.303   3.148
 5479TIP3   OH216379   3.622   3.949   1.832
 5479TIP3    H116380   3.680   4.007   1.883
 5479TIP3    H216381   3.661   3.946   1.745
 5480TIP3   OH216382   7.962   0.732   2.491
 5480TIP3    H116383   7.965   0.757   2.583
 5480TIP3    H216384   7.889   0.671   2.485
 5481TIP3   OH216385   6.031   4.440   1.973
 5481TIP3    H116386   6.104   4.476   2.023
 5481TIP3    H216387   5.987   4.517   1.936
 5482TIP3   OH216388   4.420   7.725   6.367
 5482TIP3    H116389   4.445   7.732   6.275
 5482TIP3    H216390   4.421   7.631   6.386
 5483TIP3   OH216391   7.892   4.100   4.062
 5483TIP3    H116392   7.946   4.157   4.118
 5483TIP3    H216393   7.803   4.130   4.077
 5484TIP3   OH216394   6.358   0.429   1.195
 5484TIP3    H116395   6.410   0.351   1.218
 5484TIP3    H216396   6.299   0.441   1.270
 5485TIP3   OH216397   7.104   1.513   0.335
 5485TIP3    H116398   7.144   1.427   0.325
 5485TIP3    H216399   7.155   1.555   0.404
 5486TIP3   OH216400   6.143   2.958   3.155
 5486TIP3    H116401   6.178   2.949   3.066
 5486TIP3    H216402   6.066   3.014   3.145
 5487TIP3   OH216403   2.084   1.126   2.752
 5487TIP3    H116404   2.168   1.113   2.708
 5487TIP3    H216405   2.095   1.081   2.836
 5488TIP3   OH216406   4.524   7.720   5.332
 5488TIP3    H116407   4.452   7.753   5.279
 5488TIP3    H216408   4.493   7.637   5.367
 5489TIP3   OH216409   8.146   4.050   4.915
 5489TIP3    H116410   8.113   4.121   4.861
 5489TIP3    H216411   8.080   3.981   4.907
 5490TIP3   OH216412   4.913   4.730   3.708
 5490TIP3    H116413   4.995   4.736   3.660
 5490TIP3    H216414   4.914   4.806   3.767
 5491TIP3   OH216415   3.497   7.531   4.219
 5491TIP3    H116416   3.529   7.607   4.171
 5491TIP3    H216417   3.406   7.552   4.239
 5492TIP3   OH216418   7.031   6.785   3.811
 5492TIP3    H116419   6.954   6.728   3.816
 5492TIP3    H216420   6.999   6.872   3.833
 5493TIP3   OH216421   2.662   1.875   4.811
 5493TIP3    H116422   2.587   1.855   4.868
 5493TIP3    H216423   2.704   1.790   4.797
 5494TIP3   OH216424   6.769   1.893   3.164
 5494TIP3    H116425   6.824   1.968   3.140
 5494TIP3    H216426   6.830   1.831   3.203
 5495TIP3   OH216427   6.008   3.834   2.913
 5495TIP3    H116428   6.079   3.803   2.969
 5495TIP3    H216429   6.052   3.883   2.843
 5496TIP3   OH216430   8.232   4.682   6.284
 5496TIP3    H116431   8.144   4.646   6.298
 5496TIP3    H216432   8.242   4.747   6.354
 5497TIP3   OH216433   5.218   4.056   4.929
 5497TIP3    H116434   5.165   4.112   4.987
 5497TIP3    H216435   5.255   4.116   4.865
 5498TIP3   OH216436   6.495   1.924   1.606
 5498TIP3    H116437   6.462   1.840   1.636
 5498TIP3    H216438   6.534   1.905   1.520
 5499TIP3   OH216439   2.571   6.125   1.574
 5499TIP3    H116440   2.590   6.033   1.590
 5499TIP3    H216441   2.603   6.171   1.652
 5500TIP3   OH216442   5.825   4.348   4.989
 5500TIP3    H116443   5.914   4.314   4.978
 5500TIP3    H216444   5.769   4.272   4.975
 5501TIP3   OH216445   0.620   2.216   0.634
 5501TIP3    H116446   0.573   2.298   0.651
 5501TIP3    H216447   0.708   2.244   0.607
 5502TIP3   OH216448   8.268   1.218   5.207
 5502TIP3    H116449   8.295   1.264   5.127
 5502TIP3    H216450   8.250   1.288   5.270
 5503TIP3   OH216451   3.236   2.707   3.652
 5503TIP3    H116452   3.313   2.663   3.690
 5503TIP3    H216453   3.268   2.794   3.627
 5504TIP3   OH216454   7.511   7.006   3.347
 5504TIP3    H116455   7.425   7.037   3.321
 5504TIP3    H216456   7.500   6.911   3.359
 5505TIP3   OH216457   1.477   2.680   6.531
 5505TIP3    H116458   1.480   2.587   6.507
 5505TIP3    H216459   1.430   2.681   6.615
 5506TIP3   OH216460   5.654   3.118   4.009
 5506TIP3    H116461   5.707   3.175   4.065
 5506TIP3    H216462   5.648   3.036   4.058
 5507TIP3   OH216463   3.250   6.697   4.042
 5507TIP3    H116464   3.265   6.753   3.966
 5507TIP3    H216465   3.191   6.628   4.011
 5508TIP3   OH216466   2.818   7.724   1.770
 5508TIP3    H116467   2.809   7.658   1.839
 5508TIP3    H216468   2.845   7.803   1.817
 5509TIP3   OH216469   5.955   1.969   3.547
 5509TIP3    H116470   6.027   1.912   3.571
 5509TIP3    H216471   5.921   2.002   3.631
 5510TIP3   OH216472   2.243   3.038   4.905
 5510TIP3    H116473   2.184   3.077   4.969
 5510TIP3    H216474   2.272   3.112   4.852
 5511TIP3   OH216475   8.003   3.109   4.300
 5511TIP3    H116476   7.966   3.139   4.383
 5511TIP3    H216477   8.086   3.068   4.323
 5512TIP3   OH216478   2.930   0.209   5.387
 5512TIP3    H116479   2.949   0.116   5.376
 5512TIP3    H216480   3.005   0.254   5.347
 5513TIP3   OH216481   1.435   0.102   1.925
 5513TIP3    H116482   1.420   0.012   1.895
 5513TIP3    H216483   1.349   0.133   1.953
 5514TIP3   OH216484   5.369   3.886   0.683
 5514TIP3    H116485   5.381   3.844   0.768
 5514TIP3    H216486   5.331   3.818   0.628
 5515TIP3   OH216487   6.993   7.774   6.669
 5515TIP3    H116488   7.084   7.752   6.690
 5515TIP3    H216489   6.954   7.799   6.752
 5516TIP3   OH216490   6.219   0.118   5.430
 5516TIP3    H116491   6.141   0.112   5.375
 5516TIP3    H216492   6.187   0.148   5.514
 5517TIP3   OH216493   1.051   5.825   3.864
 5517TIP3    H116494   1.060   5.914   3.897
 5517TIP3    H216495   1.139   5.788   3.872
 5518TIP3   OH216496   3.582   7.612   0.564
 5518TIP3    H116497   3.490   7.631   0.583
 5518TIP3    H216498   3.626   7.613   0.649
 5519TIP3   OH216499   7.121   2.659   4.310
 5519TIP3    H116500   7.101   2.586   4.251
 5519TIP3    H216501   7.125   2.736   4.254
 5520TIP3   OH216502   2.318   2.158   3.551
 5520TIP3    H116503   2.286   2.113   3.473
 5520TIP3    H216504   2.245   2.155   3.612
 5521TIP3   OH216505   3.768   6.985   0.980
 5521TIP3    H116506   3.794   7.076   0.990
 5521TIP3    H216507   3.745   6.957   1.069
 5522TIP3   OH216508   6.266   5.586   0.156
 5522TIP3    H116509   6.274   5.541   0.072
 5522TIP3    H216510   6.332   5.656   0.152
 5523TIP3   OH216511   5.421   5.230   3.000
 5523TIP3    H116512   5.372   5.210   3.080
 5523TIP3    H216513   5.500   5.275   3.031
 5524TIP3   OH216514   5.509   1.762   4.354
 5524TIP3    H116515   5.427   1.741   4.310
 5524TIP3    H216516   5.503   1.717   4.438
 5525TIP3   OH216517   7.685   5.164   1.821
 5525TIP3    H116518   7.742   5.169   1.897
 5525TIP3    H216519   7.739   5.197   1.748
 5526TIP3   OH216520   2.582   1.428   5.399
 5526TIP3    H116521   2.529   1.353   5.424
 5526TIP3    H216522   2.635   1.397   5.325
 5527TIP3   OH216523   0.867   3.379   5.420
 5527TIP3    H116524   0.779   3.366   5.455
 5527TIP3    H216525   0.895   3.291   5.395
 5528TIP3   OH216526   8.144   0.073   0.288
 5528TIP3    H116527   8.086   0.138   0.327
 5528TIP3    H216528   8.109  -0.011   0.317
 5529TIP3   OH216529   5.389   5.645   5.403
 5529TIP3    H116530   5.435   5.635   5.320
 5529TIP3    H216531   5.412   5.566   5.453
 5530TIP3   OH216532   3.158   2.175   0.709
 5530TIP3    H116533   3.163   2.089   0.750
 5530TIP3    H216534   3.088   2.220   0.758
 5531TIP3   OH216535   6.115   1.782   1.070
 5531TIP3    H116536   6.165   1.847   1.119
 5531TIP3    H216537   6.171   1.704   1.068
 5532TIP3   OH216538   1.426   0.497   4.454
 5532TIP3    H116539   1.331   0.498   4.460
 5532TIP3    H216540   1.446   0.438   4.381
 5533TIP3   OH216541   4.007   2.391   1.538
 5533TIP3    H116542   4.022   2.396   1.633
 5533TIP3    H216543   3.933   2.449   1.523
 5534TIP3   OH216544   7.836   4.043   0.538
 5534TIP3    H116545   7.768   4.002   0.484
 5534TIP3    H216546   7.849   3.982   0.611
 5535TIP3   OH216547   7.220   7.054   0.731
 5535TIP3    H116548   7.244   7.058   0.638
 5535TIP3    H216549   7.228   7.144   0.762
 5536TIP3   OH216550   2.918   5.222   6.766
 5536TIP3    H116551   2.871   5.192   6.688
 5536TIP3    H216552   2.884   5.168   6.837
 5537TIP3   OH216553   5.646   5.164   4.044
 5537TIP3    H116554   5.662   5.216   3.965
 5537TIP3    H216555   5.578   5.101   4.018
 5538TIP3   OH216556   2.780   2.318   6.592
 5538TIP3    H116557   2.759   2.225   6.585
 5538TIP3    H216558   2.846   2.322   6.661
 5539TIP3   OH216559   8.036   5.558   5.919
 5539TIP3    H116560   8.040   5.475   5.871
 5539TIP3    H216561   8.054   5.534   6.010
 5540TIP3   OH216562   5.581   2.041   4.284
 5540TIP3    H116563   5.556   1.953   4.312
 5540TIP3    H216564   5.525   2.059   4.209
 5541TIP3   OH216565   1.738   1.936   0.508
 5541TIP3    H116566   1.672   1.976   0.450
 5541TIP3    H216567   1.742   1.845   0.479
 5542TIP3   OH216568   2.643   1.473   2.641
 5542TIP3    H116569   2.593   1.398   2.672
 5542TIP3    H216570   2.591   1.549   2.666
 5543TIP3   OH216571   6.749   0.923   0.856
 5543TIP3    H116572   6.775   1.009   0.823
 5543TIP3    H216573   6.758   0.930   0.951
 5544TIP3   OH216574   7.627   2.550   1.041
 5544TIP3    H116575   7.555   2.496   1.075
 5544TIP3    H216576   7.685   2.488   0.997
 5545TIP3   OH216577   3.356   7.670   5.981
 5545TIP3    H116578   3.441   7.669   5.937
 5545TIP3    H216579   3.312   7.591   5.951
 5546TIP3   OH216580   5.708   0.083   1.358
 5546TIP3    H116581   5.759   0.165   1.358
 5546TIP3    H216582   5.755   0.025   1.298
 5547TIP3   OH216583   0.716   4.110   5.936
 5547TIP3    H116584   0.806   4.118   5.969
 5547TIP3    H216585   0.675   4.193   5.960
 5548TIP3   OH216586   4.826   2.342   1.024
 5548TIP3    H116587   4.843   2.324   1.116
 5548TIP3    H216588   4.735   2.371   1.022
 5549TIP3   OH216589   6.765   6.261   0.677
 5549TIP3    H116590   6.769   6.303   0.591
 5549TIP3    H216591   6.691   6.303   0.720
 5550TIP3   OH216592   1.717   3.684   5.873
 5550TIP3    H116593   1.682   3.727   5.951
 5550TIP3    H216594   1.801   3.727   5.859
 5551TIP3   OH216595   0.686   1.039   1.646
 5551TIP3    H116596   0.662   1.110   1.705
 5551TIP3    H216597   0.629   0.966   1.671
 5552TIP3   OH216598   2.739   0.572   4.770
 5552TIP3    H116599   2.826   0.596   4.802
 5552TIP3    H216600   2.725   0.629   4.694
 5553TIP3   OH216601   8.202   5.674   2.866
 5553TIP3    H116602   8.139   5.726   2.815
 5553TIP3    H216603   8.282   5.728   2.866
 5554TIP3   OH216604   7.454   2.617   0.123
 5554TIP3    H116605   7.405   2.688   0.082
 5554TIP3    H216606   7.484   2.653   0.206
 5555TIP3   OH216607   3.302   4.731   2.994
 5555TIP3    H116608   3.250   4.713   2.916
 5555TIP3    H216609   3.276   4.819   3.022
 5556TIP3   OH216610   1.774   6.131   6.644
 5556TIP3    H116611   1.832   6.203   6.669
 5556TIP3    H216612   1.820   6.052   6.674
 5557TIP3   OH216613   0.614   0.333   3.627
 5557TIP3    H116614   0.613   0.410   3.570
 5557TIP3    H216615   0.526   0.295   3.617
 5558TIP3   OH216616   0.951   6.468   3.409
 5558TIP3    H116617   1.030   6.414   3.406
 5558TIP3    H216618   0.984   6.558   3.418
 5559TIP3   OH216619   7.572   4.905   3.681
 5559TIP3    H116620   7.620   4.911   3.764
 5559TIP3    H216621   7.614   4.970   3.625
 5560TIP3   OH216622   0.825   0.804   4.094
 5560TIP3    H116623   0.732   0.802   4.070
 5560TIP3    H216624   0.854   0.891   4.066
 5561TIP3   OH216625   6.442   2.130   4.490
 5561TIP3    H116626   6.403   2.048   4.519
 5561TIP3    H216627   6.448   2.122   4.395
 5562TIP3   OH216628   2.287   5.393   4.424
 5562TIP3    H116629   2.347   5.427   4.357
 5562TIP3    H216630   2.343   5.349   4.487
 5563TIP3   OH216631   6.756   5.136   0.647
 5563TIP3    H116632   6.698   5.128   0.723
 5563TIP3    H216633   6.826   5.073   0.664
 5564TIP3   OH216634   4.614   4.941   3.906
 5564TIP3    H116635   4.664   4.871   3.948
 5564TIP3    H216636   4.659   5.021   3.931
 5565TIP3   OH216637   6.562   7.712   0.340
 5565TIP3    H116638   6.471   7.719   0.366
 5565TIP3    H216639   6.568   7.764   0.259
 5566TIP3   OH216640   0.673   2.478   4.176
 5566TIP3    H116641   0.721   2.500   4.096
 5566TIP3    H216642   0.640   2.389   4.161
 5567TIP3   OH216643   4.357  -0.016   1.332
 5567TIP3    H116644   4.362   0.073   1.297
 5567TIP3    H216645   4.403  -0.011   1.416
 5568TIP3   OH216646   3.198   1.401   1.978
 5568TIP3    H116647   3.184   1.381   2.070
 5568TIP3    H216648   3.145   1.479   1.961
 5569TIP3   OH216649   2.411   4.594   3.589
 5569TIP3    H116650   2.421   4.522   3.527
 5569TIP3    H216651   2.500   4.621   3.610
 5570TIP3   OH216652   7.532   7.068   6.280
 5570TIP3    H116653   7.527   7.098   6.370
 5570TIP3    H216654   7.508   7.145   6.228
 5571TIP3   OH216655   4.822   1.252   5.370
 5571TIP3    H116656   4.896   1.292   5.324
 5571TIP3    H216657   4.777   1.201   5.303
 5572TIP3   OH216658   0.791   1.503   3.243
 5572TIP3    H116659   0.828   1.442   3.307
 5572TIP3    H216660   0.831   1.587   3.264
 5573TIP3   OH216661   6.027   4.992   5.134
 5573TIP3    H116662   6.102   5.037   5.095
 5573TIP3    H216663   6.017   4.913   5.081
 5574TIP3   OH216664   3.095   7.611   3.583
 5574TIP3    H116665   3.187   7.627   3.602
 5574TIP3    H216666   3.059   7.698   3.565
 5575TIP3   OH216667   1.138   0.464   5.038
 5575TIP3    H116668   1.081   0.509   5.100
 5575TIP3    H216669   1.080   0.443   4.964
 5576TIP3   OH216670   4.721   7.504   1.641
 5576TIP3    H116671   4.707   7.409   1.643
 5576TIP3    H216672   4.728   7.529   1.733
 5577TIP3   OH216673   3.818   4.851   2.896
 5577TIP3    H116674   3.871   4.778   2.864
 5577TIP3    H216675   3.735   4.810   2.921
 5578TIP3   OH216676   5.928   3.588   1.879
 5578TIP3    H116677   5.901   3.575   1.788
 5578TIP3    H216678   5.919   3.682   1.893
 5579TIP3   OH216679   3.787   5.516   3.245
 5579TIP3    H116680   3.880   5.519   3.267
 5579TIP3    H216681   3.754   5.438   3.290
 5580TIP3   OH216682   1.519   0.757   3.265
 5580TIP3    H116683   1.433   0.743   3.303
 5580TIP3    H216684   1.506   0.744   3.171
 5581TIP3   OH216685   7.847   3.076   5.946
 5581TIP3    H116686   7.754   3.092   5.930
 5581TIP3    H216687   7.883   3.163   5.966
 5582TIP3   OH216688   1.508   6.900   6.791
 5582TIP3    H116689   1.442   6.950   6.838
 5582TIP3    H216690   1.567   6.966   6.754
 5583TIP3   OH216691   7.115   5.545   4.777
 5583TIP3    H116692   7.140   5.579   4.691
 5583TIP3    H216693   7.132   5.451   4.771
 5584TIP3   OH216694   4.288   1.771   4.108
 5584TIP3    H116695   4.298   1.839   4.174
 5584TIP3    H216696   4.293   1.689   4.157
 5585TIP3   OH216697   2.123   5.338   4.888
 5585TIP3    H116698   2.095   5.390   4.812
 5585TIP3    H216699   2.042   5.300   4.921
 5586TIP3   OH216700   4.256   7.520   4.690
 5586TIP3    H116701   4.218   7.463   4.756
 5586TIP3    H216702   4.351   7.507   4.699
 5587TIP3   OH216703   3.652   3.909   5.888
 5587TIP3    H116704   3.604   3.833   5.855
 5587TIP3    H216705   3.590   3.953   5.946
 5588TIP3   OH216706   2.949   1.785   4.432
 5588TIP3    H116707   2.967   1.751   4.520
 5588TIP3    H216708   3.020   1.847   4.415
 5589TIP3   OH216709   4.725   1.868   3.868
 5589TIP3    H116710   4.821   1.870   3.875
 5589TIP3    H216711   4.696   1.831   3.952
 5590TIP3   OH216712   4.623   1.500   2.761
 5590TIP3    H116713   4.713   1.501   2.796
 5590TIP3    H216714   4.617   1.416   2.716
 5591TIP3   OH216715   0.460   3.305   1.623
 5591TIP3    H116716   0.479   3.392   1.657
 5591TIP3    H216717   0.370   3.311   1.590
 5592TIP3   OH216718   5.027   3.894   2.391
 5592TIP3    H116719   5.098   3.880   2.454
 5592TIP3    H216720   5.062   3.860   2.308
 5593TIP3   OH216721   5.209   7.588   4.477
 5593TIP3    H116722   5.173   7.638   4.550
 5593TIP3    H216723   5.150   7.606   4.404
 5594TIP3   OH216724   6.829   1.004   3.488
 5594TIP3    H116725   6.742   0.979   3.457
 5594TIP3    H216726   6.826   1.100   3.491
 5595TIP3   OH216727   7.752   1.179   2.734
 5595TIP3    H116728   7.812   1.209   2.802
 5595TIP3    H216729   7.802   1.189   2.652
 5596TIP3   OH216730   6.972   5.480   5.140
 5596TIP3    H116731   6.893   5.525   5.167
 5596TIP3    H216732   7.016   5.458   5.223
 5597TIP3   OH216733   0.707   6.283   0.565
 5597TIP3    H116734   0.717   6.190   0.544
 5597TIP3    H216735   0.771   6.299   0.635
 5598TIP3   OH216736   2.924   6.109   4.224
 5598TIP3    H116737   2.923   6.201   4.197
 5598TIP3    H216738   2.831   6.084   4.226
 5599TIP3   OH216739   1.350   1.143   1.602
 5599TIP3    H116740   1.371   1.091   1.524
 5599TIP3    H216741   1.422   1.126   1.662
 5600TIP3   OH216742   3.585   2.961   5.715
 5600TIP3    H116743   3.500   2.950   5.758
 5600TIP3    H216744   3.602   3.055   5.719
 5601TIP3   OH216745   1.542   2.513   2.417
 5601TIP3    H116746   1.592   2.500   2.336
 5601TIP3    H216747   1.481   2.440   2.419
 5602TIP3   OH216748   6.898   3.780   4.067
 5602TIP3    H116749   6.981   3.804   4.107
 5602TIP3    H216750   6.874   3.698   4.110
 5603TIP3   OH216751   0.807   3.896   1.128
 5603TIP3    H116752   0.887   3.929   1.087
 5603TIP3    H216753   0.837   3.852   1.208
 5604TIP3   OH216754   4.220   6.661   0.937
 5604TIP3    H116755   4.292   6.682   0.877
 5604TIP3    H216756   4.144   6.706   0.899
 5605TIP3   OH216757   6.309   0.501   2.000
 5605TIP3    H116758   6.287   0.522   1.909
 5605TIP3    H216759   6.379   0.436   1.993
 5606TIP3   OH216760   7.396   0.191   4.650
 5606TIP3    H116761   7.380   0.222   4.561
 5606TIP3    H216762   7.489   0.208   4.666
 5607TIP3   OH216763   5.580   5.214   1.717
 5607TIP3    H116764   5.527   5.217   1.637
 5607TIP3    H216765   5.616   5.303   1.725
 5608TIP3   OH216766   0.954   5.883   6.541
 5608TIP3    H116767   0.912   5.954   6.588
 5608TIP3    H216768   0.956   5.810   6.603
 5609TIP3   OH216769   1.678   3.259   3.093
 5609TIP3    H116770   1.729   3.327   3.048
 5609TIP3    H216771   1.728   3.179   3.081
 5610TIP3   OH216772   1.352   5.259   6.400
 5610TIP3    H116773   1.273   5.254   6.454
 5610TIP3    H216774   1.320   5.258   6.310
 5611TIP3   OH216775   1.431   0.564   1.215
 5611TIP3    H116776   1.493   0.612   1.270
 5611TIP3    H216777   1.398   0.629   1.153
 5612TIP3   OH216778   0.518   5.953   1.106
 5612TIP3    H116779   0.552   6.040   1.124
 5612TIP3    H216780   0.584   5.912   1.051
 5613TIP3   OH216781   3.665   1.812   6.093
 5613TIP3    H116782   3.647   1.829   6.001
 5613TIP3    H216783   3.732   1.744   6.093
 5614TIP3   OH216784   4.274   7.703   5.695
 5614TIP3    H116785   4.276   7.741   5.607
 5614TIP3    H216786   4.201   7.747   5.738
 5615TIP3   OH216787   4.669   3.844   4.739
 5615TIP3    H116788   4.710   3.779   4.796
 5615TIP3    H216789   4.612   3.893   4.798
 5616TIP3   OH216790   6.000   0.840   0.143
 5616TIP3    H116791   5.962   0.754   0.122
 5616TIP3    H216792   6.043   0.868   0.062
 5617TIP3   OH216793   6.091   0.852   3.957
 5617TIP3    H116794   6.037   0.841   4.036
 5617TIP3    H216795   6.099   0.763   3.922
 5618TIP3   OH216796   1.806   2.732   0.092
 5618TIP3    H116797   1.721   2.727   0.048
 5618TIP3    H216798   1.786   2.759   0.181
 5619TIP3   OH216799   0.756   5.504   2.891
 5619TIP3    H116800   0.697   5.430   2.902
 5619TIP3    H216801   0.702   5.572   2.851
 5620TIP3   OH216802   4.705   1.958   0.497
 5620TIP3    H116803   4.658   1.960   0.580
 5620TIP3    H216804   4.652   1.902   0.441
 5621TIP3   OH216805   2.408   2.797   3.204
 5621TIP3    H116806   2.483   2.854   3.222
 5621TIP3    H216807   2.385   2.760   3.289
 5622TIP3   OH216808   4.588   1.853   3.009
 5622TIP3    H116809   4.596   1.828   3.101
 5622TIP3    H216810   4.671   1.898   2.990
 5623TIP3   OH216811   4.756   0.479   0.313
 5623TIP3    H116812   4.769   0.573   0.324
 5623TIP3    H216813   4.671   0.462   0.354
 5624TIP3   OH216814   5.371   4.737   5.290
 5624TIP3    H116815   5.341   4.698   5.372
 5624TIP3    H216816   5.380   4.830   5.309
 5625TIP3   OH216817   3.361   5.112   1.556
 5625TIP3    H116818   3.371   5.202   1.586
 5625TIP3    H216819   3.429   5.063   1.601
 5626TIP3   OH216820   7.613   7.127   4.648
 5626TIP3    H116821   7.652   7.132   4.735
 5626TIP3    H216822   7.675   7.075   4.596
 5627TIP3   OH216823   8.005   3.987   1.907
 5627TIP3    H116824   7.995   3.984   1.812
 5627TIP3    H216825   7.925   3.947   1.941
 5628TIP3   OH216826   0.251   0.202   2.485
 5628TIP3    H116827   0.187   0.247   2.541
 5628TIP3    H216828   0.235   0.109   2.500
 5629TIP3   OH216829   5.935   7.237   6.062
 5629TIP3    H116830   5.856   7.291   6.062
 5629TIP3    H216831   5.925   7.179   5.986
 5630TIP3   OH216832   0.620   4.153   3.601
 5630TIP3    H116833   0.662   4.221   3.653
 5630TIP3    H216834   0.672   4.147   3.521
 5631TIP3   OH216835   3.635   6.990   5.726
 5631TIP3    H116836   3.669   6.988   5.815
 5631TIP3    H216837   3.553   7.040   5.732
 5632TIP3   OH216838   4.208   0.513   4.089
 5632TIP3    H116839   4.164   0.504   4.004
 5632TIP3    H216840   4.282   0.572   4.072
 5633TIP3   OH216841   0.760   6.222   1.847
 5633TIP3    H116842   0.791   6.311   1.830
 5633TIP3    H216843   0.830   6.165   1.815
 5634TIP3   OH216844   5.217   2.551   0.222
 5634TIP3    H116845   5.175   2.609   0.158
 5634TIP3    H216846   5.267   2.489   0.168
 5635TIP3   OH216847   6.562   5.714   6.118
 5635TIP3    H116848   6.510   5.692   6.041
 5635TIP3    H216849   6.542   5.805   6.136
 5636TIP3   OH216850   4.836   6.709   4.837
 5636TIP3    H116851   4.789   6.771   4.894
 5636TIP3    H216852   4.767   6.651   4.805
 5637TIP3   OH216853   0.980   3.983   1.576
 5637TIP3    H116854   1.072   4.000   1.597
 5637TIP3    H216855   0.964   3.894   1.609
 5638TIP3   OH216856   5.058   4.021   6.577
 5638TIP3    H116857   5.106   4.018   6.494
 5638TIP3    H216858   4.981   3.967   6.562
 5639TIP3   OH216859   7.453   6.844   3.645
 5639TIP3    H116860   7.379   6.798   3.605
 5639TIP3    H216861   7.461   6.805   3.732
 5640TIP3   OH216862   7.796   5.963   1.785
 5640TIP3    H116863   7.874   5.924   1.827
 5640TIP3    H216864   7.830   6.036   1.734
 5641TIP3   OH216865   2.645   5.944   0.117
 5641TIP3    H116866   2.687   5.858   0.115
 5641TIP3    H216867   2.607   5.955   0.030
 5642TIP3   OH216868   4.037   1.189   3.531
 5642TIP3    H116869   3.962   1.178   3.589
 5642TIP3    H216870   4.012   1.145   3.450
 5643TIP3   OH216871   6.469   1.297   0.843
 5643TIP3    H116872   6.462   1.203   0.824
 5643TIP3    H216873   6.417   1.339   0.774
 5644TIP3   OH216874   2.804   6.382   4.770
 5644TIP3    H116875   2.748   6.377   4.693
 5644TIP3    H216876   2.746   6.361   4.843
 5645TIP3   OH216877   7.659   7.461   0.518
 5645TIP3    H116878   7.591   7.521   0.488
 5645TIP3    H216879   7.651   7.459   0.613
 5646TIP3   OH216880   5.170   7.452   5.244
 5646TIP3    H116881   5.204   7.411   5.324
 5646TIP3    H216882   5.083   7.414   5.233
 5647TIP3   OH216883   6.350   6.219   3.405
 5647TIP3    H116884   6.442   6.228   3.378
 5647TIP3    H216885   6.347   6.135   3.451
 5648TIP3   OH216886   1.136   4.356   2.276
 5648TIP3    H116887   1.046   4.388   2.274
 5648TIP3    H216888   1.143   4.298   2.200
 5649TIP3   OH216889   4.886   4.317   3.678
 5649TIP3    H116890   4.834   4.300   3.757
 5649TIP3    H216891   4.897   4.231   3.638
 5650TIP3   OH216892   6.114   6.664   3.370
 5650TIP3    H116893   6.188   6.607   3.389
 5650TIP3    H216894   6.040   6.605   3.359
 5651TIP3   OH216895   0.738   1.668   2.721
 5651TIP3    H116896   0.746   1.574   2.707
 5651TIP3    H216897   0.800   1.707   2.660
 5652TIP3   OH216898   0.713   2.879   5.042
 5652TIP3    H116899   0.669   2.959   5.068
 5652TIP3    H216900   0.806   2.895   5.062
 5653TIP3   OH216901   3.436   2.023   3.651
 5653TIP3    H116902   3.480   1.941   3.629
 5653TIP3    H216903   3.507   2.083   3.674
 5654TIP3   OH216904   3.297   7.716   0.523
 5654TIP3    H116905   3.243   7.679   0.593
 5654TIP3    H216906   3.313   7.806   0.550
 5655TIP3   OH216907   5.558   7.160   4.967
 5655TIP3    H116908   5.626   7.179   5.032
 5655TIP3    H216909   5.578   7.072   4.936
 5656TIP3   OH216910   0.894   2.501   0.766
 5656TIP3    H116911   0.914   2.593   0.786
 5656TIP3    H216912   0.800   2.493   0.778
 5657TIP3   OH216913   1.745   4.491   2.276
 5657TIP3    H116914   1.831   4.514   2.310
 5657TIP3    H216915   1.713   4.572   2.235
 5658TIP3   OH216916   6.555   2.638   3.269
 5658TIP3    H116917   6.609   2.573   3.314
 5658TIP3    H216918   6.618   2.692   3.222
 5659TIP3   OH216919   4.697   4.416   0.047
 5659TIP3    H116920   4.774   4.413   0.103
 5659TIP3    H216921   4.723   4.471  -0.027
 5660TIP3   OH216922   4.101   5.550   3.591
 5660TIP3    H116923   4.083   5.541   3.684
 5660TIP3    H216924   4.180   5.605   3.587
 5661TIP3   OH216925   3.751   2.427   1.867
 5661TIP3    H116926   3.681   2.409   1.804
 5661TIP3    H216927   3.819   2.472   1.816
 5662TIP3   OH216928   6.137   6.861   3.561
 5662TIP3    H116929   6.192   6.935   3.533
 5662TIP3    H216930   6.136   6.802   3.486
 5663TIP3   OH216931   6.575   4.587   6.125
 5663TIP3    H116932   6.622   4.624   6.050
 5663TIP3    H216933   6.505   4.535   6.086
 5664TIP3   OH216934   1.138   2.550   1.115
 5664TIP3    H116935   1.123   2.484   1.047
 5664TIP3    H216936   1.232   2.550   1.129
 5665TIP3   OH216937   2.134   7.454   1.565
 5665TIP3    H116938   2.224   7.479   1.586
 5665TIP3    H216939   2.110   7.512   1.493
 5666TIP3   OH216940   8.002   1.400   2.772
 5666TIP3    H116941   8.041   1.396   2.684
 5666TIP3    H216942   7.946   1.477   2.769
 5667TIP3   OH216943   4.983   1.647   6.572
 5667TIP3    H116944   5.052   1.598   6.528
 5667TIP3    H216945   4.902   1.617   6.531
 5668TIP3   OH216946   1.710   7.717   5.026
 5668TIP3    H116947   1.684   7.801   5.064
 5668TIP3    H216948   1.721   7.736   4.932
 5669TIP3   OH216949   7.084   4.724   1.744
 5669TIP3    H116950   7.025   4.666   1.695
 5669TIP3    H216951   7.037   4.807   1.750
 5670TIP3   OH216952   8.155   1.302   6.377
 5670TIP3    H116953   8.078   1.257   6.411
 5670TIP3    H216954   8.226   1.274   6.434
 5671TIP3   OH216955   6.192   1.403   0.190
 5671TIP3    H116956   6.108   1.428   0.152
 5671TIP3    H216957   6.205   1.465   0.262
 5672TIP3   OH216958   0.932   1.883   6.515
 5672TIP3    H116959   0.961   1.799   6.549
 5672TIP3    H216960   0.985   1.898   6.437
 5673TIP3   OH216961   7.540   1.142   2.452
 5673TIP3    H116962   7.519   1.143   2.358
 5673TIP3    H216963   7.601   1.215   2.464
 5674TIP3   OH216964   0.234   3.974   1.502
 5674TIP3    H116965   0.225   4.070   1.501
 5674TIP3    H216966   0.233   3.949   1.410
 5675TIP3   OH216967   5.591   3.648   0.678
 5675TIP3    H116968   5.531   3.722   0.680
 5675TIP3    H216969   5.678   3.687   0.682
 5676TIP3   OH216970   0.822   2.483   1.591
 5676TIP3    H116971   0.799   2.391   1.582
 5676TIP3    H216972   0.872   2.504   1.512
 5677TIP3   OH216973   0.322   2.687   3.960
 5677TIP3    H116974   0.333   2.755   3.894
 5677TIP3    H216975   0.239   2.707   4.002
 5678TIP3   OH216976   0.562   5.364   2.021
 5678TIP3    H116977   0.570   5.444   2.073
 5678TIP3    H216978   0.475   5.369   1.982
 5679TIP3   OH216979   7.029   2.102   1.564
 5679TIP3    H116980   7.038   2.093   1.659
 5679TIP3    H216981   6.990   2.188   1.552
 5680TIP3   OH216982   7.896   5.436   2.133
 5680TIP3    H116983   7.943   5.498   2.077
 5680TIP3    H216984   7.964   5.396   2.188
 5681TIP3   OH216985   5.417   5.454   1.246
 5681TIP3    H116986   5.455   5.409   1.171
 5681TIP3    H216987   5.343   5.503   1.210
 5682TIP3   OH216988   4.131   1.914   1.534
 5682TIP3    H116989   4.037   1.922   1.550
 5682TIP3    H216990   4.166   2.002   1.552
 5683TIP3   OH216991   2.496   1.729   2.652
 5683TIP3    H116992   2.410   1.766   2.629
 5683TIP3    H216993   2.548   1.805   2.679
 5684TIP3   OH216994   6.071   5.202   4.631
 5684TIP3    H116995   6.006   5.147   4.675
 5684TIP3    H216996   6.032   5.223   4.546
 5685TIP3   OH216997   1.378   0.027   4.315
 5685TIP3    H116998   1.420  -0.005   4.394
 5685TIP3    H216999   1.440   0.092   4.280
 5686TIP3   OH217000   2.106   0.987   2.142
 5686TIP3    H117001   2.151   0.903   2.130
 5686TIP3    H217002   2.013   0.964   2.143
 5687TIP3   OH217003   4.564   0.696   5.022
 5687TIP3    H117004   4.538   0.626   5.082
 5687TIP3    H217005   4.510   0.682   4.944
 5688TIP3   OH217006   8.069   6.422   3.023
 5688TIP3    H117007   8.004   6.361   3.057
 5688TIP3    H217008   8.110   6.375   2.951
 5689TIP3   OH217009   2.125   4.039   0.429
 5689TIP3    H117010   2.064   4.106   0.463
 5689TIP3    H217011   2.106   4.034   0.336
 5690TIP3   OH217012   3.646   3.387   0.328
 5690TIP3    H117013   3.634   3.342   0.411
 5690TIP3    H217014   3.574   3.450   0.324
 5691TIP3   OH217015   4.520   1.534   2.057
 5691TIP3    H117016   4.452   1.522   2.123
 5691TIP3    H217017   4.529   1.629   2.049
 5692TIP3   OH217018   5.305   4.014   0.998
 5692TIP3    H117019   5.337   4.078   0.935
 5692TIP3    H217020   5.260   4.065   1.065
 5693TIP3   OH217021   6.463   1.117   1.407
 5693TIP3    H117022   6.490   1.049   1.469
 5693TIP3    H217023   6.412   1.179   1.460
 5694TIP3   OH217024   6.866   4.982   4.654
 5694TIP3    H117025   6.861   4.998   4.749
 5694TIP3    H217026   6.959   4.985   4.634
 5695TIP3   OH217027   4.847   5.669   3.825
 5695TIP3    H117028   4.871   5.745   3.771
 5695TIP3    H217029   4.926   5.616   3.828
 5696TIP3   OH217030   3.508   5.941   6.130
 5696TIP3    H117031   3.434   5.988   6.093
 5696TIP3    H217032   3.576   5.947   6.062
 5697TIP3   OH217033   4.519   5.803   1.380
 5697TIP3    H117034   4.516   5.750   1.459
 5697TIP3    H217035   4.494   5.744   1.309
 5698TIP3   OH217036   4.426   0.689   4.029
 5698TIP3    H117037   4.470   0.690   3.944
 5698TIP3    H217038   4.496   0.672   4.092
 5699TIP3   OH217039   3.194   5.707   2.465
 5699TIP3    H117040   3.146   5.782   2.500
 5699TIP3    H217041   3.263   5.747   2.411
 5700TIP3   OH217042   5.375   4.784   3.446
 5700TIP3    H117043   5.338   4.742   3.369
 5700TIP3    H217044   5.428   4.856   3.411
 5701TIP3   OH217045   5.985   6.277   4.099
 5701TIP3    H117046   6.033   6.209   4.146
 5701TIP3    H217047   6.054   6.335   4.064
 5702TIP3   OH217048   5.383   3.079   1.572
 5702TIP3    H117049   5.435   3.149   1.612
 5702TIP3    H217050   5.449   3.014   1.545
 5703TIP3   OH217051   4.246   1.225   1.669
 5703TIP3    H117052   4.229   1.319   1.664
 5703TIP3    H217053   4.324   1.217   1.725
 5704TIP3   OH217054   6.224   4.510   0.997
 5704TIP3    H117055   6.254   4.428   1.038
 5704TIP3    H217056   6.247   4.578   1.061
 5705TIP3   OH217057   6.289   6.453   1.409
 5705TIP3    H117058   6.355   6.384   1.413
 5705TIP3    H217059   6.339   6.533   1.394
 5706TIP3   OH217060   0.258   5.067   5.043
 5706TIP3    H117061   0.344   5.109   5.041
 5706TIP3    H217062   0.270   4.988   4.990
 5707TIP3   OH217063   7.372   4.119   3.535
 5707TIP3    H117064   7.424   4.076   3.603
 5707TIP3    H217065   7.436   4.139   3.466
 5708TIP3   OH217066   6.576   4.944   6.735
 5708TIP3    H117067   6.504   4.976   6.681
 5708TIP3    H217068   6.544   4.952   6.825
 5709TIP3   OH217069   4.396   3.573   3.644
 5709TIP3    H117070   4.354   3.649   3.605
 5709TIP3    H217071   4.412   3.513   3.571
 5710TIP3   OH217072   7.771   7.305   6.376
 5710TIP3    H117073   7.682   7.309   6.341
 5710TIP3    H217074   7.808   7.391   6.357
 5711TIP3   OH217075   5.704   6.837   5.158
 5711TIP3    H117076   5.624   6.792   5.186
 5711TIP3    H217077   5.775   6.785   5.196
 5712TIP3   OH217078   5.181   2.227   1.477
 5712TIP3    H117079   5.210   2.305   1.524
 5712TIP3    H217080   5.250   2.210   1.413
 5713TIP3   OH217081   7.668   1.195   1.988
 5713TIP3    H117082   7.598   1.255   2.011
 5713TIP3    H217083   7.733   1.249   1.943
 5714TIP3   OH217084   4.853   4.125   4.839
 5714TIP3    H117085   4.758   4.120   4.851
 5714TIP3    H217086   4.889   4.106   4.926
 5715TIP3   OH217087   6.395   1.652   1.641
 5715TIP3    H117088   6.432   1.613   1.562
 5715TIP3    H217089   6.461   1.637   1.708
 5716TIP3   OH217090   1.555   3.311   4.169
 5716TIP3    H117091   1.473   3.263   4.172
 5716TIP3    H217092   1.589   3.307   4.258
 5717TIP3   OH217093   5.854   0.208   4.285
 5717TIP3    H117094   5.860   0.163   4.370
 5717TIP3    H217095   5.889   0.145   4.222
 5718TIP3   OH217096   3.425   4.260   1.028
 5718TIP3    H117097   3.489   4.201   0.988
 5718TIP3    H217098   3.340   4.220   1.007
 5719TIP3   OH217099   0.853   4.986   4.407
 5719TIP3    H117100   0.918   4.954   4.470
 5719TIP3    H217101   0.904   5.038   4.345
 5720TIP3   OH217102   7.046   7.744   1.252
 5720TIP3    H117103   7.118   7.803   1.228
 5720TIP3    H217104   7.009   7.716   1.169
 5721TIP3   OH217105   6.290   0.432   0.519
 5721TIP3    H117106   6.291   0.360   0.457
 5721TIP3    H217107   6.238   0.500   0.477
 5722TIP3   OH217108   2.736   6.377   5.713
 5722TIP3    H117109   2.764   6.303   5.660
 5722TIP3    H217110   2.793   6.449   5.686
 5723TIP3   OH217111   2.926   1.171   1.994
 5723TIP3    H117112   2.973   1.113   1.933
 5723TIP3    H217113   2.995   1.224   2.034
 5724TIP3   OH217114   1.916   5.881   6.690
 5724TIP3    H117115   1.872   5.797   6.676
 5724TIP3    H217116   2.009   5.862   6.677
 5725TIP3   OH217117   3.184   6.096   6.364
 5725TIP3    H117118   3.192   6.003   6.343
 5725TIP3    H217119   3.225   6.105   6.450
 5726TIP3   OH217120   7.060   2.933   6.174
 5726TIP3    H117121   7.148   2.919   6.138
 5726TIP3    H217122   7.070   3.008   6.232
 5727TIP3   OH217123   0.459   7.610   5.795
 5727TIP3    H117124   0.441   7.662   5.873
 5727TIP3    H217125   0.519   7.541   5.824
 5728TIP3   OH217126   2.542   2.782   0.674
 5728TIP3    H117127   2.451   2.753   0.680
 5728TIP3    H217128   2.553   2.839   0.750
 5729TIP3   OH217129   2.870   0.273   0.505
 5729TIP3    H117130   2.881   0.275   0.600
 5729TIP3    H217131   2.925   0.200   0.477
 5730TIP3   OH217132   6.868   5.123   6.003
 5730TIP3    H117133   6.872   5.158   6.092
 5730TIP3    H217134   6.857   5.200   5.947
 5731TIP3   OH217135   7.390   6.547   6.673
 5731TIP3    H117136   7.326   6.551   6.744
 5731TIP3    H217137   7.392   6.455   6.648
 5732TIP3   OH217138   5.983   2.639   1.684
 5732TIP3    H117139   6.027   2.559   1.654
 5732TIP3    H217140   6.001   2.703   1.616
 5733TIP3   OH217141   7.568   3.355   4.124
 5733TIP3    H117142   7.653   3.311   4.119
 5733TIP3    H217143   7.590   3.448   4.120
 5734TIP3   OH217144   7.661   2.229   4.935
 5734TIP3    H117145   7.729   2.263   4.993
 5734TIP3    H217146   7.709   2.202   4.856
 5735TIP3   OH217147   7.527   2.823   4.042
 5735TIP3    H117148   7.559   2.733   4.053
 5735TIP3    H217149   7.465   2.836   4.113
 5736TIP3   OH217150   5.483   1.798   1.683
 5736TIP3    H117151   5.433   1.853   1.622
 5736TIP3    H217152   5.574   1.827   1.671
 5737TIP3   OH217153   6.345   0.022   3.580
 5737TIP3    H117154   6.302   0.015   3.665
 5737TIP3    H217155   6.386  -0.063   3.566
 5738TIP3   OH217156   4.533   1.582   0.099
 5738TIP3    H117157   4.441   1.562   0.084
 5738TIP3    H217158   4.575   1.496   0.107
 5739TIP3   OH217159   7.729   4.175   4.953
 5739TIP3    H117160   7.808   4.174   5.007
 5739TIP3    H217161   7.657   4.184   5.016
 5740TIP3   OH217162   2.746   2.328   4.379
 5740TIP3    H117163   2.826   2.378   4.361
 5740TIP3    H217164   2.692   2.387   4.432
 5741TIP3   OH217165   1.820   3.297   1.815
 5741TIP3    H117166   1.742   3.241   1.809
 5741TIP3    H217167   1.878   3.251   1.876
 5742TIP3   OH217168   2.720   1.285   3.853
 5742TIP3    H117169   2.632   1.322   3.851
 5742TIP3    H217170   2.752   1.295   3.763
 5743TIP3   OH217171   5.992   1.952   2.480
 5743TIP3    H117172   6.079   1.992   2.477
 5743TIP3    H217173   5.931   2.025   2.483
 5744TIP3   OH217174   7.620   2.646   1.863
 5744TIP3    H117175   7.621   2.550   1.864
 5744TIP3    H217176   7.627   2.670   1.956
 5745TIP3   OH217177   1.271   3.919   1.883
 5745TIP3    H117178   1.245   3.829   1.899
 5745TIP3    H217179   1.220   3.971   1.945
 5746TIP3   OH217180   6.009   4.185   6.171
 5746TIP3    H117181   5.968   4.271   6.173
 5746TIP3    H217182   6.003   4.158   6.080
 5747TIP3   OH217183   3.076   6.421   5.794
 5747TIP3    H117184   3.143   6.377   5.741
 5747TIP3    H217185   3.105   6.409   5.884
 5748TIP3   OH217186   3.428   0.779   3.197
 5748TIP3    H117187   3.407   0.689   3.173
 5748TIP3    H217188   3.523   0.783   3.195
 5749TIP3   OH217189   0.929   4.004   2.344
 5749TIP3    H117190   0.943   4.023   2.437
 5749TIP3    H217191   0.894   4.086   2.308
 5750TIP3   OH217192   5.904   2.152   4.467
 5750TIP3    H117193   5.842   2.114   4.529
 5750TIP3    H217194   5.897   2.247   4.480
 5751TIP3   OH217195   7.938   1.640   4.482
 5751TIP3    H117196   7.958   1.560   4.432
 5751TIP3    H217197   7.879   1.690   4.425
 5752TIP3   OH217198   1.028   1.449   5.810
 5752TIP3    H117199   1.099   1.479   5.753
 5752TIP3    H217200   1.032   1.508   5.886
 5753TIP3   OH217201   2.795   5.778   2.607
 5753TIP3    H117202   2.707   5.782   2.644
 5753TIP3    H217203   2.847   5.734   2.675
 5754TIP3   OH217204   1.824   1.153   2.052
 5754TIP3    H117205   1.741   1.188   2.019
 5754TIP3    H217206   1.813   1.058   2.044
 5755TIP3   OH217207   3.851   7.282   1.034
 5755TIP3    H117208   3.813   7.298   0.948
 5755TIP3    H217209   3.876   7.368   1.066
 5756TIP3   OH217210   3.719   0.849   3.941
 5756TIP3    H117211   3.775   0.774   3.959
 5756TIP3    H217212   3.779   0.919   3.914
 5757TIP3   OH217213   5.823   6.142   1.963
 5757TIP3    H117214   5.885   6.195   1.913
 5757TIP3    H217215   5.738   6.185   1.949
 5758TIP3   OH217216   3.280   6.456   1.909
 5758TIP3    H117217   3.329   6.539   1.901
 5758TIP3    H217218   3.288   6.416   1.822
 5759TIP3   OH217219   7.262   2.875   1.235
 5759TIP3    H117220   7.174   2.902   1.211
 5759TIP3    H217221   7.279   2.919   1.318
 5760TIP3   OH217222   1.703   3.275   6.403
 5760TIP3    H117223   1.700   3.179   6.401
 5760TIP3    H217224   1.620   3.300   6.444
 5761TIP3   OH217225   5.705   5.662   3.917
 5761TIP3    H117226   5.714   5.668   3.822
 5761TIP3    H217227   5.792   5.680   3.952
 5762TIP3   OH217228   5.080   1.066   1.086
 5762TIP3    H117229   5.020   1.137   1.107
 5762TIP3    H217230   5.152   1.108   1.039
 5763TIP3   OH217231   2.076   5.736   1.775
 5763TIP3    H117232   2.053   5.656   1.728
 5763TIP3    H217233   1.996   5.789   1.773
 5764TIP3   OH217234   4.413   2.564   2.655
 5764TIP3    H117235   4.422   2.655   2.625
 5764TIP3    H217236   4.377   2.518   2.580
 5765TIP3   OH217237   4.514   5.215   1.069
 5765TIP3    H117238   4.492   5.183   1.157
 5765TIP3    H217239   4.504   5.139   1.012
 5766TIP3   OH217240   6.549   2.615   1.963
 5766TIP3    H117241   6.534   2.650   2.051
 5766TIP3    H217242   6.558   2.520   1.977
 5767TIP3   OH217243   7.523   6.424   5.611
 5767TIP3    H117244   7.444   6.374   5.590
 5767TIP3    H217245   7.593   6.359   5.612
 5768TIP3   OH217246   0.050   3.041   6.436
 5768TIP3    H117247   0.119   3.070   6.496
 5768TIP3    H217248   0.070   2.949   6.419
 5769TIP3   OH217249   7.536   1.247   5.477
 5769TIP3    H117250   7.541   1.287   5.390
 5769TIP3    H217251   7.626   1.217   5.494
 5770TIP3   OH217252   7.423   2.522   5.670
 5770TIP3    H117253   7.509   2.541   5.708
 5770TIP3    H217254   7.366   2.507   5.746
 5771TIP3   OH217255   0.699   4.434   3.032
 5771TIP3    H117256   0.615   4.406   2.998
 5771TIP3    H217257   0.678   4.504   3.094
 5772TIP3   OH217258   2.107   2.702   4.957
 5772TIP3    H117259   2.109   2.699   5.053
 5772TIP3    H217260   2.108   2.795   4.936
 5773TIP3   OH217261   1.721   7.279   6.737
 5773TIP3    H117262   1.765   7.226   6.670
 5773TIP3    H217263   1.638   7.303   6.696
 5774TIP3   OH217264   3.107   7.097   1.996
 5774TIP3    H117265   3.049   7.031   2.035
 5774TIP3    H217266   3.168   7.047   1.943
 5775TIP3   OH217267   2.176   1.989   0.848
 5775TIP3    H117268   2.107   1.939   0.806
 5775TIP3    H217269   2.253   1.976   0.793
 5776TIP3   OH217270   8.296   6.784   3.747
 5776TIP3    H117271   8.290   6.814   3.656
 5776TIP3    H217272   8.207   6.754   3.767
 5777TIP3   OH217273   5.326   6.716   3.812
 5777TIP3    H117274   5.313   6.782   3.744
 5777TIP3    H217275   5.312   6.764   3.894
 5778TIP3   OH217276   6.876   2.905   4.363
 5778TIP3    H117277   6.918   2.828   4.402
 5778TIP3    H217278   6.854   2.878   4.274
 5779TIP3   OH217279   2.642   7.252   6.027
 5779TIP3    H117280   2.576   7.263   5.959
 5779TIP3    H217281   2.682   7.167   6.009
 5780TIP3   OH217282   4.832   1.404   4.510
 5780TIP3    H117283   4.893   1.339   4.546
 5780TIP3    H217284   4.864   1.488   4.543
 5781TIP3   OH217285   5.918   2.184   0.428
 5781TIP3    H117286   5.900   2.197   0.521
 5781TIP3    H217287   5.906   2.270   0.388
 5782TIP3   OH217288   1.374   2.258   5.106
 5782TIP3    H117289   1.418   2.311   5.173
 5782TIP3    H217290   1.280   2.271   5.122
 5783TIP3   OH217291   2.119   2.613   4.248
 5783TIP3    H117292   2.063   2.573   4.315
 5783TIP3    H217293   2.065   2.612   4.169
 5784TIP3   OH217294   1.925   0.603   1.367
 5784TIP3    H117295   1.856   0.550   1.327
 5784TIP3    H217296   1.997   0.602   1.303
 5785TIP3   OH217297   3.236   3.318   1.935
 5785TIP3    H117298   3.307   3.317   1.999
 5785TIP3    H217299   3.256   3.393   1.879
 5786TIP3   OH217300   6.791   4.129   5.301
 5786TIP3    H117301   6.758   4.125   5.391
 5786TIP3    H217302   6.749   4.207   5.264
 5787TIP3   OH217303   1.979   7.361   5.553
 5787TIP3    H117304   1.969   7.345   5.647
 5787TIP3    H217305   1.933   7.289   5.511
 5788TIP3   OH217306   1.490   2.125   5.923
 5788TIP3    H117307   1.492   2.219   5.902
 5788TIP3    H217308   1.559   2.087   5.870
 5789TIP3   OH217309   6.752   0.165   3.952
 5789TIP3    H117310   6.827   0.107   3.949
 5789TIP3    H217311   6.770   0.231   3.884
 5790TIP3   OH217312   4.279   5.798   2.846
 5790TIP3    H117313   4.219   5.871   2.866
 5790TIP3    H217314   4.365   5.831   2.871
 5791TIP3   OH217315   2.693   5.001   5.237
 5791TIP3    H117316   2.741   5.079   5.208
 5791TIP3    H217317   2.678   5.016   5.330
 5792TIP3   OH217318   0.134   3.814   4.661
 5792TIP3    H117319   0.112   3.788   4.751
 5792TIP3    H217320   0.188   3.742   4.628
 5793TIP3   OH217321   6.807   7.370   6.124
 5793TIP3    H117322   6.875   7.309   6.152
 5793TIP3    H217323   6.732   7.349   6.180
 5794TIP3   OH217324   1.091   3.168   1.824
 5794TIP3    H117325   1.076   3.148   1.732
 5794TIP3    H217326   1.015   3.131   1.869
 5795TIP3   OH217327   4.236   2.400   0.960
 5795TIP3    H117328   4.176   2.333   0.928
 5795TIP3    H217329   4.237   2.467   0.891
 5796TIP3   OH217330   3.073   0.538   3.290
 5796TIP3    H117331   3.013   0.478   3.246
 5796TIP3    H217332   3.145   0.483   3.321
 5797TIP3   OH217333   6.904   1.608   6.246
 5797TIP3    H117334   6.957   1.683   6.271
 5797TIP3    H217335   6.877   1.568   6.329
 5798TIP3   OH217336   0.366   7.770   5.986
 5798TIP3    H117337   0.289   7.713   5.995
 5798TIP3    H217338   0.331   7.859   5.989
 5799TIP3   OH217339   6.202   4.816   6.090
 5799TIP3    H117340   6.283   4.848   6.128
 5799TIP3    H217341   6.216   4.821   5.996
 5800TIP3   OH217342   2.422   6.810   2.108
 5800TIP3    H117343   2.443   6.752   2.035
 5800TIP3    H217344   2.398   6.751   2.180
 5801TIP3   OH217345   7.504   6.797   2.010
 5801TIP3    H117346   7.580   6.840   1.971
 5801TIP3    H217347   7.459   6.756   1.937
 5802TIP3   OH217348   5.172   6.865   0.000
 5802TIP3    H117349   5.102   6.902   0.054
 5802TIP3    H217350   5.133   6.788  -0.041
 5803TIP3   OH217351   7.000   6.535   5.175
 5803TIP3    H117352   7.044   6.614   5.143
 5803TIP3    H217353   7.057   6.463   5.147
 5804TIP3   OH217354   5.954   5.961   5.707
 5804TIP3    H117355   6.049   5.973   5.702
 5804TIP3    H217356   5.927   6.018   5.779
 5805TIP3   OH217357   8.129   0.091   2.456
 5805TIP3    H117358   8.199   0.125   2.401
 5805TIP3    H217359   8.059   0.156   2.448
 5806TIP3   OH217360   3.490   6.825   4.297
 5806TIP3    H117361   3.460   6.868   4.377
 5806TIP3    H217362   3.438   6.744   4.293
 5807TIP3   OH217363   1.505   3.189   5.822
 5807TIP3    H117364   1.558   3.261   5.789
 5807TIP3    H217365   1.560   3.148   5.889
 5808TIP3   OH217366   4.142   4.749   6.003
 5808TIP3    H117367   4.174   4.660   5.985
 5808TIP3    H217368   4.046   4.741   5.999
 5809TIP3   OH217369   2.409   1.908   0.380
 5809TIP3    H117370   2.326   1.954   0.381
 5809TIP3    H217371   2.453   1.939   0.301
 5810TIP3   OH217372   3.121   7.363   1.756
 5810TIP3    H117373   3.188   7.329   1.816
 5810TIP3    H217374   3.161   7.356   1.669
 5811TIP3   OH217375   6.012   3.622   4.758
 5811TIP3    H117376   6.016   3.674   4.839
 5811TIP3    H217377   5.990   3.685   4.690
 5812TIP3   OH217378   1.445   0.946   4.627
 5812TIP3    H117379   1.363   0.922   4.584
 5812TIP3    H217380   1.429   0.930   4.720
 5813TIP3   OH217381   2.458   3.786   1.536
 5813TIP3    H117382   2.478   3.847   1.607
 5813TIP3    H217383   2.363   3.773   1.541
 5814TIP3   OH217384   5.569   5.670   2.253
 5814TIP3    H117385   5.614   5.741   2.207
 5814TIP3    H217386   5.528   5.618   2.183
 5815TIP3   OH217387   6.060   4.950   0.025
 5815TIP3    H117388   6.121   4.965   0.097
 5815TIP3    H217389   6.095   4.873  -0.021
 5816TIP3   OH217390   0.826   3.041   1.502
 5816TIP3    H117391   0.761   3.035   1.573
 5816TIP3    H217392   0.848   3.134   1.498
 5817TIP3   OH217393   6.201   4.381   4.652
 5817TIP3    H117394   6.277   4.432   4.681
 5817TIP3    H217395   6.126   4.437   4.671
 5818TIP3   OH217396   2.180   4.456   0.906
 5818TIP3    H117397   2.221   4.433   0.822
 5818TIP3    H217398   2.105   4.397   0.912
 5819TIP3   OH217399   2.420   4.151   5.339
 5819TIP3    H117400   2.336   4.121   5.372
 5819TIP3    H217401   2.406   4.163   5.245
 5820TIP3   OH217402   4.354   2.856   1.714
 5820TIP3    H117403   4.399   2.915   1.653
 5820TIP3    H217404   4.386   2.883   1.800
 5821TIP3   OH217405   5.650   2.309   4.963
 5821TIP3    H117406   5.671   2.399   4.988
 5821TIP3    H217407   5.612   2.271   5.042
 5822TIP3   OH217408   6.898   3.060   5.159
 5822TIP3    H117409   6.955   2.994   5.122
 5822TIP3    H217410   6.861   3.020   5.237
 5823TIP3   OH217411   1.216   7.624   0.982
 5823TIP3    H117412   1.206   7.689   0.912
 5823TIP3    H217413   1.300   7.581   0.964
 5824TIP3   OH217414   0.576   5.773   6.092
 5824TIP3    H117415   0.504   5.792   6.032
 5824TIP3    H217416   0.649   5.825   6.059
 5825TIP3   OH217417   7.835   5.674   6.439
 5825TIP3    H117418   7.778   5.608   6.478
 5825TIP3    H217419   7.901   5.623   6.392
 5826TIP3   OH217420   0.261   1.041   0.980
 5826TIP3    H117421   0.280   1.100   1.053
 5826TIP3    H217422   0.324   1.065   0.912
 5827TIP3   OH217423   5.701   3.106   1.309
 5827TIP3    H117424   5.629   3.169   1.313
 5827TIP3    H217425   5.687   3.059   1.227
 5828TIP3   OH217426   2.061   1.060   4.355
 5828TIP3    H117427   2.074   1.110   4.436
 5828TIP3    H217428   1.974   1.021   4.365
 5829TIP3   OH217429   3.844   4.421   3.409
 5829TIP3    H117430   3.864   4.331   3.434
 5829TIP3    H217431   3.893   4.475   3.471
 5830TIP3   OH217432   7.332   5.524   3.697
 5830TIP3    H117433   7.281   5.491   3.771
 5830TIP3    H217434   7.357   5.445   3.648
 5831TIP3   OH217435   4.410   1.188   0.492
 5831TIP3    H117436   4.462   1.246   0.437
 5831TIP3    H217437   4.369   1.127   0.430
 5832TIP3   OH217438   0.800   5.092   5.153
 5832TIP3    H117439   0.850   5.045   5.220
 5832TIP3    H217440   0.866   5.123   5.091
 5833TIP3   OH217441   4.703   6.198   4.593
 5833TIP3    H117442   4.645   6.210   4.667
 5833TIP3    H217443   4.685   6.109   4.562
 5834TIP3   OH217444   5.838   4.681   5.884
 5834TIP3    H117445   5.772   4.695   5.816
 5834TIP3    H217446   5.872   4.769   5.902
 5835TIP3   OH217447   6.958   5.964   3.779
 5835TIP3    H117448   6.893   6.024   3.815
 5835TIP3    H217449   6.923   5.938   3.694
 5836TIP3   OH217450   7.014   4.813   3.264
 5836TIP3    H117451   7.037   4.863   3.342
 5836TIP3    H217452   6.926   4.780   3.282
 5837TIP3   OH217453   3.567   1.812   3.567
 5837TIP3    H117454   3.568   1.740   3.631
 5837TIP3    H217455   3.634   1.788   3.504
 5838TIP3   OH217456   3.225   1.933   3.470
 5838TIP3    H117457   3.148   1.946   3.526
 5838TIP3    H217458   3.299   1.962   3.524
 5839TIP3   OH217459   4.409   4.717   0.864
 5839TIP3    H117460   4.334   4.734   0.807
 5839TIP3    H217461   4.396   4.627   0.894
 5840TIP3   OH217462   8.016   6.218   3.207
 5840TIP3    H117463   7.931   6.186   3.178
 5840TIP3    H217464   8.000   6.258   3.292
 5841TIP3   OH217465   7.169   1.856   3.909
 5841TIP3    H117466   7.104   1.924   3.928
 5841TIP3    H217467   7.148   1.826   3.821
 5842TIP3   OH217468   5.125   3.442   0.629
 5842TIP3    H117469   5.051   3.493   0.595
 5842TIP3    H217470   5.090   3.353   0.636
 5843TIP3   OH217471   0.888   4.298   1.143
 5843TIP3    H117472   0.876   4.239   1.217
 5843TIP3    H217473   0.971   4.271   1.104
 5844TIP3   OH217474   7.752   6.794   1.789
 5844TIP3    H117475   7.676   6.851   1.778
 5844TIP3    H217476   7.762   6.750   1.705
 5845TIP3   OH217477   2.822   7.455   3.592
 5845TIP3    H117478   2.843   7.548   3.585
 5845TIP3    H217479   2.898   7.417   3.637
 5846TIP3   OH217480   0.280   5.389   6.550
 5846TIP3    H117481   0.244   5.320   6.606
 5846TIP3    H217482   0.372   5.396   6.576
 5847TIP3   OH217483   5.824   0.761   0.539
 5847TIP3    H117484   5.845   0.807   0.620
 5847TIP3    H217485   5.891   0.789   0.476
 5848TIP3   OH217486   2.334   6.785   2.870
 5848TIP3    H117487   2.241   6.808   2.880
 5848TIP3    H217488   2.378   6.868   2.853
 5849TIP3   OH217489   1.625   5.532   2.410
 5849TIP3    H117490   1.602   5.546   2.502
 5849TIP3    H217491   1.546   5.556   2.361
 5850TIP3   OH217492   4.495   6.401   0.282
 5850TIP3    H117493   4.411   6.446   0.274
 5850TIP3    H217494   4.490   6.329   0.218
 5851TIP3   OH217495   7.321   5.124   1.372
 5851TIP3    H117496   7.346   5.128   1.464
 5851TIP3    H217497   7.227   5.143   1.371
 5852TIP3   OH217498   2.856   4.930   3.509
 5852TIP3    H117499   2.940   4.896   3.478
 5852TIP3    H217500   2.801   4.852   3.519
 5853TIP3   OH217501   7.884   5.466   2.496
 5853TIP3    H117502   7.884   5.372   2.478
 5853TIP3    H217503   7.925   5.473   2.583
 5854TIP3   OH217504   7.894   4.982   6.745
 5854TIP3    H117505   7.878   4.906   6.689
 5854TIP3    H217506   7.894   5.057   6.685
 5855TIP3   OH217507   5.050   0.206   2.376
 5855TIP3    H117508   5.045   0.224   2.283
 5855TIP3    H217509   5.033   0.112   2.384
 5856TIP3   OH217510   0.727   6.409   6.486
 5856TIP3    H117511   0.691   6.489   6.524
 5856TIP3    H217512   0.794   6.439   6.425
 5857TIP3   OH217513   1.799   6.423   1.410
 5857TIP3    H117514   1.856   6.389   1.479
 5857TIP3    H217515   1.714   6.382   1.428
 5858TIP3   OH217516   1.074   0.970   2.987
 5858TIP3    H117517   1.013   0.961   2.914
 5858TIP3    H217518   1.025   1.019   3.053
 5859TIP3   OH217519   8.233   0.161   6.080
 5859TIP3    H117520   8.260   0.090   6.138
 5859TIP3    H217521   8.169   0.211   6.131
 5860TIP3   OH217522   0.575   0.559   2.255
 5860TIP3    H117523   0.514   0.506   2.307
 5860TIP3    H217524   0.651   0.571   2.312
 5861TIP3   OH217525   6.214   5.590   4.423
 5861TIP3    H117526   6.202   5.520   4.488
 5861TIP3    H217527   6.218   5.670   4.475
 5862TIP3   OH217528   5.849   1.005   6.021
 5862TIP3    H117529   5.911   0.947   5.977
 5862TIP3    H217530   5.825   1.069   5.954
 5863TIP3   OH217531   3.606   4.853   4.028
 5863TIP3    H117532   3.648   4.934   3.999
 5863TIP3    H217533   3.678   4.791   4.038
 5864TIP3   OH217534   2.369   6.851   1.729
 5864TIP3    H117535   2.345   6.851   1.637
 5864TIP3    H217536   2.413   6.935   1.743
 5865TIP3   OH217537   0.599   0.618   5.490
 5865TIP3    H117538   0.606   0.523   5.479
 5865TIP3    H217539   0.550   0.647   5.414
 5866TIP3   OH217540   7.062   5.463   3.817
 5866TIP3    H117541   7.073   5.444   3.724
 5866TIP3    H217542   7.050   5.558   3.821
 5867TIP3   OH217543   6.968   5.314   2.901
 5867TIP3    H117544   6.934   5.278   2.983
 5867TIP3    H217545   7.063   5.316   2.914
 5868TIP3   OH217546   3.444   1.979   6.521
 5868TIP3    H117547   3.483   2.053   6.568
 5868TIP3    H217548   3.509   1.957   6.455
 5869TIP3   OH217549   2.440   6.105   2.169
 5869TIP3    H117550   2.389   6.118   2.250
 5869TIP3    H217551   2.459   6.193   2.138
 5870TIP3   OH217552   3.528   4.589   6.513
 5870TIP3    H117553   3.608   4.642   6.515
 5870TIP3    H217554   3.457   4.654   6.515
 5871TIP3   OH217555   3.856   4.311   3.981
 5871TIP3    H117556   3.910   4.244   4.024
 5871TIP3    H217557   3.919   4.374   3.946
 5872TIP3   OH217558   5.938   2.164   1.629
 5872TIP3    H117559   5.883   2.155   1.706
 5872TIP3    H217560   5.990   2.243   1.645
 5873TIP3   OH217561   4.449   6.934   1.398
 5873TIP3    H117562   4.485   7.022   1.392
 5873TIP3    H217563   4.525   6.878   1.414
 5874TIP3   OH217564   7.290   0.669   2.984
 5874TIP3    H117565   7.304   0.579   2.955
 5874TIP3    H217566   7.205   0.693   2.947
 5875TIP3   OH217567   3.736   2.455   0.438
 5875TIP3    H117568   3.795   2.531   0.435
 5875TIP3    H217569   3.654   2.490   0.473
 5876TIP3   OH217570   0.573   4.351   5.910
 5876TIP3    H117571   0.495   4.316   5.867
 5876TIP3    H217572   0.614   4.407   5.845
 5877TIP3   OH217573   7.141   0.826   5.902
 5877TIP3    H117574   7.112   0.735   5.904
 5877TIP3    H217575   7.122   0.859   5.990
 5878TIP3   OH217576   3.615   5.321   0.605
 5878TIP3    H117577   3.673   5.245   0.603
 5878TIP3    H217578   3.662   5.388   0.555
 5879TIP3   OH217579   5.630   2.013   0.668
 5879TIP3    H117580   5.712   2.057   0.691
 5879TIP3    H217581   5.575   2.023   0.746
 5880TIP3   OH217582   4.953   0.516   6.656
 5880TIP3    H117583   4.911   0.525   6.742
 5880TIP3    H217584   5.046   0.532   6.673
 5881TIP3   OH217585   6.598   1.782   5.473
 5881TIP3    H117586   6.671   1.829   5.434
 5881TIP3    H217587   6.636   1.697   5.499
 5882TIP3   OH217588   1.296   4.515   0.731
 5882TIP3    H117589   1.388   4.489   0.732
 5882TIP3    H217590   1.259   4.478   0.811
 5883TIP3   OH217591   1.033   1.153   6.207
 5883TIP3    H117592   0.980   1.200   6.270
 5883TIP3    H217593   1.097   1.104   6.259
 5884TIP3   OH217594   2.782   4.706   5.616
 5884TIP3    H117595   2.769   4.756   5.535
 5884TIP3    H217596   2.847   4.640   5.593
 5885TIP3   OH217597   4.892   3.737   1.926
 5885TIP3    H117598   4.986   3.717   1.927
 5885TIP3    H217599   4.882   3.801   1.855
 5886TIP3   OH217600   4.704   6.099   2.685
 5886TIP3    H117601   4.766   6.165   2.656
 5886TIP3    H217602   4.632   6.149   2.723
 5887TIP3   OH217603   4.863   6.886   2.652
 5887TIP3    H117604   4.921   6.830   2.600
 5887TIP3    H217605   4.832   6.829   2.722
 5888TIP3   OH217606   0.677   4.602   2.369
 5888TIP3    H117607   0.710   4.577   2.455
 5888TIP3    H217608   0.582   4.604   2.380
 5889TIP3   OH217609   4.267   6.395   1.287
 5889TIP3    H117610   4.179   6.358   1.287
 5889TIP3    H217611   4.325   6.321   1.273
 5890TIP3   OH217612   7.287   7.607   0.983
 5890TIP3    H117613   7.217   7.671   0.973
 5890TIP3    H217614   7.248   7.536   1.034
 5891TIP3   OH217615   0.007   4.128   2.489
 5891TIP3    H117616   0.028   4.222   2.488
 5891TIP3    H217617  -0.074   4.121   2.439
 5892TIP3   OH217618   8.103   6.285   6.779
 5892TIP3    H117619   8.033   6.247   6.725
 5892TIP3    H217620   8.176   6.297   6.718
 5893TIP3   OH217621   6.314   2.189   5.852
 5893TIP3    H117622   6.389   2.198   5.794
 5893TIP3    H217623   6.301   2.095   5.861
 5894TIP3   OH217624   3.658   3.271   0.573
 5894TIP3    H117625   3.672   3.310   0.659
 5894TIP3    H217626   3.630   3.181   0.592
 5895TIP3   OH217627   7.106   7.431   6.169
 5895TIP3    H117628   7.036   7.497   6.164
 5895TIP3    H217629   7.067   7.357   6.215
 5896TIP3   OH217630   4.931   2.477   0.802
 5896TIP3    H117631   4.930   2.431   0.718
 5896TIP3    H217632   4.918   2.408   0.868
 5897TIP3   OH217633   0.095   4.430   6.737
 5897TIP3    H117634   0.117   4.360   6.799
 5897TIP3    H217635   0.029   4.391   6.680
 5898TIP3   OH217636   0.459   2.841   6.110
 5898TIP3    H117637   0.383   2.847   6.168
 5898TIP3    H217638   0.533   2.866   6.164
 5899TIP3   OH217639   0.396   3.749   1.574
 5899TIP3    H117640   0.304   3.767   1.555
 5899TIP3    H217641   0.431   3.833   1.607
 5900TIP3   OH217642   2.917   4.031   4.304
 5900TIP3    H117643   2.826   4.033   4.274
 5900TIP3    H217644   2.961   4.097   4.250
 5901TIP3   OH217645   0.099   4.823   3.107
 5901TIP3    H117646   0.129   4.732   3.118
 5901TIP3    H217647   0.076   4.851   3.195
 5902TIP3   OH217648   3.784   6.139   2.399
 5902TIP3    H117649   3.754   6.054   2.368
 5902TIP3    H217650   3.811   6.124   2.489
 5903TIP3   OH217651   0.578   6.644   6.550
 5903TIP3    H117652   0.543   6.722   6.594
 5903TIP3    H217653   0.589   6.670   6.459
 5904TIP3   OH217654   0.854   2.235   3.834
 5904TIP3    H117655   0.904   2.199   3.908
 5904TIP3    H217656   0.803   2.161   3.801
 5905TIP3   OH217657   3.314   6.121   4.996
 5905TIP3    H117658   3.371   6.187   5.037
 5905TIP3    H217659   3.276   6.166   4.921
 5906TIP3   OH217660   7.016   3.525   2.984
 5906TIP3    H117661   7.057   3.611   2.982
 5906TIP3    H217662   7.079   3.468   2.940
 5907TIP3   OH217663   1.858   6.333   5.324
 5907TIP3    H117664   1.873   6.306   5.233
 5907TIP3    H217665   1.873   6.427   5.324
 5908TIP3   OH217666   4.198   2.700   3.615
 5908TIP3    H117667   4.140   2.734   3.683
 5908TIP3    H217668   4.140   2.677   3.542
 5909TIP3   OH217669   5.421   7.214   3.751
 5909TIP3    H117670   5.434   7.191   3.843
 5909TIP3    H217671   5.460   7.301   3.741
 5910TIP3   OH217672   2.659   3.673   1.784
 5910TIP3    H117673   2.679   3.726   1.707
 5910TIP3    H217674   2.744   3.655   1.823
 5911TIP3   OH217675   1.684   2.438   4.197
 5911TIP3    H117676   1.670   2.447   4.291
 5911TIP3    H217677   1.629   2.363   4.172
 5912TIP3   OH217678   3.518   7.663   3.111
 5912TIP3    H117679   3.511   7.624   3.198
 5912TIP3    H217680   3.584   7.731   3.120
 5913TIP3   OH217681   3.822   6.102   1.150
 5913TIP3    H117682   3.837   6.193   1.127
 5913TIP3    H217683   3.764   6.105   1.225
 5914TIP3   OH217684   0.055   6.665   6.556
 5914TIP3    H117685   0.126   6.605   6.531
 5914TIP3    H217686  -0.025   6.618   6.534
 5915TIP3   OH217687   6.559   6.219   6.149
 5915TIP3    H117688   6.536   6.305   6.114
 5915TIP3    H217689   6.547   6.227   6.244
 5916TIP3   OH217690   3.588   6.918   1.853
 5916TIP3    H117691   3.540   6.942   1.933
 5916TIP3    H217692   3.662   6.865   1.884
 5917TIP3   OH217693   3.736   3.917   5.495
 5917TIP3    H117694   3.828   3.916   5.470
 5917TIP3    H217695   3.707   3.826   5.486
 5918TIP3   OH217696   1.978   4.894   5.197
 5918TIP3    H117697   1.977   4.929   5.286
 5918TIP3    H217698   1.897   4.926   5.158
 5919TIP3   OH217699   3.667   6.256   6.601
 5919TIP3    H117700   3.736   6.301   6.551
 5919TIP3    H217701   3.606   6.225   6.535
 5920TIP3   OH217702   5.792   5.596   4.455
 5920TIP3    H117703   5.854   5.594   4.383
 5920TIP3    H217704   5.715   5.549   4.423
 5921TIP3   OH217705   6.166   0.929   0.669
 5921TIP3    H117706   6.095   0.898   0.612
 5921TIP3    H217707   6.246   0.898   0.627
 5922TIP3   OH217708   1.199   3.466   1.098
 5922TIP3    H117709   1.123   3.429   1.052
 5922TIP3    H217710   1.254   3.390   1.118
 5923TIP3   OH217711   0.643   7.663   6.453
 5923TIP3    H117712   0.710   7.629   6.393
 5923TIP3    H217713   0.579   7.706   6.396
 5924TIP3   OH217714   2.059   1.867   6.420
 5924TIP3    H117715   2.049   1.884   6.514
 5924TIP3    H217716   2.154   1.860   6.407
 5925TIP3   OH217717   0.395   0.523   4.788
 5925TIP3    H117718   0.433   0.598   4.834
 5925TIP3    H217719   0.304   0.519   4.819
 5926TIP3   OH217720   4.145   4.182   5.429
 5926TIP3    H117721   4.170   4.215   5.343
 5926TIP3    H217722   4.052   4.205   5.437
 5927TIP3   OH217723   7.284   0.023   1.512
 5927TIP3    H117724   7.289   0.003   1.419
 5927TIP3    H217725   7.367  -0.008   1.548
 5928TIP3   OH217726   7.128   6.194   5.707
 5928TIP3    H117727   7.047   6.237   5.737
 5928TIP3    H217728   7.151   6.134   5.777
 5929TIP3   OH217729   6.717   0.923   4.034
 5929TIP3    H117730   6.759   0.847   4.074
 5929TIP3    H217731   6.689   0.893   3.948
 5930TIP3   OH217732   4.592   2.932   1.845
 5930TIP3    H117733   4.611   3.026   1.853
 5930TIP3    H217734   4.659   2.890   1.899
 5931TIP3   OH217735   8.054   0.069   5.506
 5931TIP3    H117736   7.971   0.022   5.505
 5931TIP3    H217737   8.056   0.111   5.592
 5932TIP3   OH217738   6.670   2.499   4.216
 5932TIP3    H117739   6.759   2.529   4.197
 5932TIP3    H217740   6.682   2.419   4.267
 5933TIP3   OH217741   5.167   3.853   1.412
 5933TIP3    H117742   5.235   3.788   1.394
 5933TIP3    H217743   5.204   3.908   1.481
 5934TIP3   OH217744   5.907   6.756   5.554
 5934TIP3    H117745   5.882   6.722   5.640
 5934TIP3    H217746   5.987   6.806   5.570
 5935TIP3   OH217747   1.110   6.720   2.705
 5935TIP3    H117748   1.143   6.788   2.764
 5935TIP3    H217749   1.056   6.767   2.642
 5936TIP3   OH217750   6.501   1.277   1.145
 5936TIP3    H117751   6.506   1.243   1.055
 5936TIP3    H217752   6.488   1.199   1.199
 5937TIP3   OH217753   8.086   5.015   6.048
 5937TIP3    H117754   8.134   4.942   6.008
 5937TIP3    H217755   8.128   5.093   6.012
 5938TIP3   OH217756   5.302   0.023   6.092
 5938TIP3    H117757   5.230   0.035   6.030
 5938TIP3    H217758   5.376   0.070   6.052
 5939TIP3   OH217759   6.778   3.892   2.958
 5939TIP3    H117760   6.872   3.878   2.948
 5939TIP3    H217761   6.742   3.805   2.977
 5940TIP3   OH217762   0.007   0.886   0.361
 5940TIP3    H117763   0.034   0.976   0.379
 5940TIP3    H217764   0.005   0.881   0.265
 5941TIP3   OH217765   0.584   0.955   5.507
 5941TIP3    H117766   0.491   0.932   5.509
 5941TIP3    H217767   0.586   1.050   5.512
 5942TIP3   OH217768   4.803   4.434   4.953
 5942TIP3    H117769   4.788   4.481   4.871
 5942TIP3    H217770   4.895   4.450   4.973
 5943TIP3   OH217771   2.499   2.376   5.630
 5943TIP3    H117772   2.461   2.366   5.717
 5943TIP3    H217773   2.509   2.470   5.619
 5944TIP3   OH217774   8.122   2.802   3.524
 5944TIP3    H117775   8.038   2.789   3.481
 5944TIP3    H217776   8.108   2.775   3.615
 5945TIP3   OH217777   2.482   5.808   4.935
 5945TIP3    H117778   2.443   5.727   4.902
 5945TIP3    H217779   2.427   5.833   5.009
 5946TIP3   OH217780   7.439   7.303   2.507
 5946TIP3    H117781   7.472   7.238   2.446
 5946TIP3    H217782   7.353   7.329   2.472
 5947TIP3   OH217783   5.219   2.384   3.009
 5947TIP3    H117784   5.254   2.296   3.004
 5947TIP3    H217785   5.271   2.427   3.077
 5948TIP3   OH217786   6.510   3.634   5.499
 5948TIP3    H117787   6.496   3.666   5.588
 5948TIP3    H217788   6.572   3.696   5.460
 5949TIP3   OH217789   7.642   3.379   4.877
 5949TIP3    H117790   7.641   3.458   4.822
 5949TIP3    H217791   7.551   3.366   4.903
 5950TIP3   OH217792   5.915   3.915   5.204
 5950TIP3    H117793   5.824   3.940   5.222
 5950TIP3    H217794   5.910   3.823   5.178
 5951TIP3   OH217795   6.206   4.819   2.303
 5951TIP3    H117796   6.130   4.872   2.327
 5951TIP3    H217797   6.244   4.864   2.227
 5952TIP3   OH217798   7.360   2.852   5.044
 5952TIP3    H117799   7.328   2.816   4.962
 5952TIP3    H217800   7.394   2.939   5.021
 5953TIP3   OH217801   1.544   6.647   4.146
 5953TIP3    H117802   1.543   6.568   4.200
 5953TIP3    H217803   1.594   6.711   4.197
 5954TIP3   OH217804   6.726   4.189   4.426
 5954TIP3    H117805   6.766   4.239   4.498
 5954TIP3    H217806   6.686   4.255   4.370
 5955TIP3   OH217807   8.138   3.734   5.198
 5955TIP3    H117808   8.203   3.668   5.175
 5955TIP3    H217809   8.186   3.800   5.247
 5956TIP3   OH217810   5.361   5.515   5.781
 5956TIP3    H117811   5.406   5.518   5.866
 5956TIP3    H217812   5.295   5.447   5.792
 5957TIP3   OH217813   8.199   6.764   2.725
 5957TIP3    H117814   8.248   6.695   2.769
 5957TIP3    H217815   8.107   6.736   2.732
 5958TIP3   OH217816   5.156   3.083   3.841
 5958TIP3    H117817   5.112   3.050   3.919
 5958TIP3    H217818   5.241   3.039   3.840
 5959TIP3   OH217819   2.130   0.971   4.863
 5959TIP3    H117820   2.068   1.033   4.822
 5959TIP3    H217821   2.098   0.961   4.952
 5960TIP3   OH217822   1.017   0.770   6.037
 5960TIP3    H117823   1.059   0.748   6.120
 5960TIP3    H217824   1.054   0.707   5.975
 5961TIP3   OH217825   0.472   5.455   5.604
 5961TIP3    H117826   0.440   5.538   5.569
 5961TIP3    H217827   0.441   5.389   5.541
 5962TIP3   OH217828   6.548   6.457   5.340
 5962TIP3    H117829   6.508   6.446   5.426
 5962TIP3    H217830   6.642   6.462   5.358
 5963TIP3   OH217831   7.489   0.125   0.623
 5963TIP3    H117832   7.424   0.139   0.555
 5963TIP3    H217833   7.514   0.213   0.651
 5964TIP3   OH217834   3.132   5.976   1.085
 5964TIP3    H117835   3.091   6.038   1.024
 5964TIP3    H217836   3.060   5.924   1.119
 5965TIP3   OH217837   4.633   5.076   3.112
 5965TIP3    H117838   4.720   5.046   3.085
 5965TIP3    H217839   4.646   5.114   3.198
 5966TIP3   OH217840   2.705   5.324   5.564
 5966TIP3    H117841   2.796   5.295   5.551
 5966TIP3    H217842   2.683   5.292   5.652
 5967TIP3   OH217843   5.391   1.910   0.364
 5967TIP3    H117844   5.313   1.887   0.314
 5967TIP3    H217845   5.378   1.870   0.450
 5968TIP3   OH217846   0.543   2.908   3.109
 5968TIP3    H117847   0.609   2.929   3.176
 5968TIP3    H217848   0.584   2.842   3.054
 5969TIP3   OH217849   4.637   0.174   4.704
 5969TIP3    H117850   4.652   0.217   4.619
 5969TIP3    H217851   4.713   0.118   4.717
 5970TIP3   OH217852   5.036   4.794   2.061
 5970TIP3    H117853   5.036   4.702   2.038
 5970TIP3    H217854   5.012   4.796   2.154
 5971TIP3   OH217855   3.838   4.839   1.981
 5971TIP3    H117856   3.788   4.761   1.954
 5971TIP3    H217857   3.895   4.807   2.051
 5972TIP3   OH217858   5.099   1.421   3.429
 5972TIP3    H117859   5.014   1.392   3.464
 5972TIP3    H217860   5.124   1.495   3.484
 5973TIP3   OH217861   0.376   0.768   2.520
 5973TIP3    H117862   0.469   0.751   2.538
 5973TIP3    H217863   0.376   0.816   2.437
 5974TIP3   OH217864   1.524   0.738   2.429
 5974TIP3    H117865   1.495   0.681   2.500
 5974TIP3    H217866   1.472   0.818   2.440
 5975TIP3   OH217867   7.897   2.170   0.718
 5975TIP3    H117868   7.858   2.190   0.633
 5975TIP3    H217869   7.872   2.079   0.736
 5976TIP3   OH217870   3.272   5.563   2.682
 5976TIP3    H117871   3.316   5.483   2.655
 5976TIP3    H217872   3.257   5.611   2.600
 5977TIP3   OH217873   8.116   4.650   5.147
 5977TIP3    H117874   8.211   4.645   5.139
 5977TIP3    H217875   8.101   4.704   5.225
 5978TIP3   OH217876   7.296   6.435   3.851
 5978TIP3    H117877   7.375   6.388   3.824
 5978TIP3    H217878   7.225   6.389   3.807
 5979TIP3   OH217879   3.938   1.134   6.016
 5979TIP3    H117880   3.996   1.090   5.955
 5979TIP3    H217881   3.873   1.068   6.041
 5980TIP3   OH217882   0.769   7.435   0.988
 5980TIP3    H117883   0.864   7.430   0.975
 5980TIP3    H217884   0.746   7.523   0.958
 5981TIP3   OH217885   2.610   5.617   3.665
 5981TIP3    H117886   2.696   5.604   3.706
 5981TIP3    H217887   2.610   5.709   3.638
 5982TIP3   OH217888   2.132   3.698   6.316
 5982TIP3    H117889   2.104   3.735   6.232
 5982TIP3    H217890   2.183   3.620   6.291
 5983TIP3   OH217891   1.335   4.495   1.811
 5983TIP3    H117892   1.423   4.500   1.774
 5983TIP3    H217893   1.317   4.401   1.819
 5984TIP3   OH217894   4.892   0.069   2.010
 5984TIP3    H117895   4.968   0.096   2.063
 5984TIP3    H217896   4.824   0.133   2.031
 5985TIP3   OH217897   2.424   5.644   6.092
 5985TIP3    H117898   2.444   5.558   6.128
 5985TIP3    H217899   2.491   5.702   6.129
 5986TIP3   OH217900   7.303   2.527   0.359
 5986TIP3    H117901   7.302   2.619   0.385
 5986TIP3    H217902   7.328   2.528   0.267
 5987TIP3   OH217903   4.506   2.569   0.753
 5987TIP3    H117904   4.578   2.631   0.745
 5987TIP3    H217905   4.460   2.596   0.833
 5988TIP3   OH217906   6.944   3.802   2.576
 5988TIP3    H117907   6.906   3.756   2.650
 5988TIP3    H217908   6.976   3.885   2.612
 5989TIP3   OH217909   2.503   7.468   4.584
 5989TIP3    H117910   2.513   7.374   4.604
 5989TIP3    H217911   2.432   7.497   4.641
 5990TIP3   OH217912   5.324   4.644   2.741
 5990TIP3    H117913   5.291   4.594   2.667
 5990TIP3    H217914   5.419   4.650   2.726
 5991TIP3   OH217915   6.094   7.806   2.248
 5991TIP3    H117916   6.110   7.834   2.158
 5991TIP3    H217917   6.145   7.726   2.258
 5992TIP3   OH217918   0.968   1.712   3.298
 5992TIP3    H117919   0.969   1.749   3.386
 5992TIP3    H217920   1.058   1.680   3.284
 5993TIP3   OH217921   1.774   6.681   5.529
 5993TIP3    H117922   1.765   6.586   5.543
 5993TIP3    H217923   1.720   6.720   5.598
 5994TIP3   OH217924   0.709   5.426   3.418
 5994TIP3    H117925   0.801   5.413   3.443
 5994TIP3    H217926   0.684   5.508   3.460
 5995TIP3   OH217927   1.330   0.730   5.506
 5995TIP3    H117928   1.380   0.811   5.520
 5995TIP3    H217929   1.384   0.679   5.446
 5996TIP3   OH217930   1.261   1.341   6.209
 5996TIP3    H117931   1.344   1.292   6.212
 5996TIP3    H217932   1.201   1.282   6.164
 5997TIP3   OH217933   7.202   4.850   1.380
 5997TIP3    H117934   7.128   4.868   1.438
 5997TIP3    H217935   7.268   4.915   1.404
 5998TIP3   OH217936   4.580   7.738   6.587
 5998TIP3    H117937   4.508   7.762   6.528
 5998TIP3    H217938   4.538   7.689   6.657
 5999TIP3   OH217939   0.615   6.787   0.879
 5999TIP3    H117940   0.569   6.703   0.873
 5999TIP3    H217941   0.590   6.822   0.964
 6000TIP3   OH217942   2.887   0.770   6.504
 6000TIP3    H117943   2.792   0.779   6.515
 6000TIP3    H217944   2.897   0.690   6.451
 6001TIP3   OH217945   5.214   5.226   2.571
 6001TIP3    H117946   5.207   5.320   2.555
 6001TIP3    H217947   5.303   5.203   2.546
 6002TIP3   OH217948   4.812   6.450   1.889
 6002TIP3    H117949   4.773   6.463   1.803
 6002TIP3    H217950   4.867   6.527   1.903
 6003TIP3   OH217951   6.152   4.847   5.357
 6003TIP3    H117952   6.203   4.925   5.376
 6003TIP3    H217953   6.129   4.855   5.265
 6004TIP3   OH217954   7.379   4.303   0.885
 6004TIP3    H117955   7.454   4.361   0.873
 6004TIP3    H217956   7.347   4.322   0.973
 6005TIP3   OH217957   7.493   5.328   1.286
 6005TIP3    H117958   7.444   5.250   1.313
 6005TIP3    H217959   7.531   5.304   1.201
 6006TIP3   OH217960   1.829   0.124   2.342
 6006TIP3    H117961   1.855   0.215   2.356
 6006TIP3    H217962   1.751   0.129   2.286
 6007TIP3   OH217963   7.936   4.549   0.036
 6007TIP3    H117964   7.910   4.627   0.085
 6007TIP3    H217965   8.017   4.521   0.077
 6008TIP3   OH217966   7.254   3.560   6.138
 6008TIP3    H117967   7.180   3.574   6.079
 6008TIP3    H217968   7.303   3.642   6.135
 6009TIP3   OH217969   2.223   7.488   3.521
 6009TIP3    H117970   2.167   7.556   3.558
 6009TIP3    H217971   2.201   7.409   3.570
 6010TIP3   OH217972   0.432   7.100   4.803
 6010TIP3    H117973   0.337   7.107   4.798
 6010TIP3    H217974   0.461   7.101   4.712
 6011TIP3   OH217975   7.416   5.331   4.971
 6011TIP3    H117976   7.388   5.325   4.879
 6011TIP3    H217977   7.354   5.275   5.018
 6012TIP3   OH217978   6.057   2.738   0.252
 6012TIP3    H117979   6.102   2.758   0.170
 6012TIP3    H217980   6.047   2.823   0.295
 6013TIP3   OH217981   7.275   5.431   0.396
 6013TIP3    H117982   7.365   5.411   0.422
 6013TIP3    H217983   7.225   5.353   0.419
 6014TIP3   OH217984   4.489   6.054   0.898
 6014TIP3    H117985   4.483   6.104   0.816
 6014TIP3    H217986   4.571   6.084   0.938
 6015TIP3   OH217987   7.692   6.984   3.703
 6015TIP3    H117988   7.604   6.955   3.677
 6015TIP3    H217989   7.676   7.052   3.769
 6016TIP3   OH217990   4.504   6.584  -0.002
 6016TIP3    H117991   4.544   6.595   0.084
 6016TIP3    H217992   4.444   6.658  -0.009
 6017TIP3   OH217993   0.267   6.838   2.057
 6017TIP3    H117994   0.296   6.783   1.984
 6017TIP3    H217995   0.172   6.843   2.047
 6018TIP3   OH217996   7.358   0.995   6.143
 6018TIP3    H117997   7.439   1.015   6.097
 6018TIP3    H217998   7.290   1.042   6.094
 6019TIP3   OH217999   1.697   7.080   0.333
 6019TIP3    H118000   1.631   7.057   0.399
 6019TIP3    H218001   1.781   7.061   0.376
 6020TIP3   OH218002   5.691   2.758   5.014
 6020TIP3    H118003   5.653   2.772   5.101
 6020TIP3    H218004   5.706   2.846   4.979
 6021TIP3   OH218005   5.490   4.087   2.692
 6021TIP3    H118006   5.541   4.043   2.623
 6021TIP3    H218007   5.436   4.018   2.730
 6022TIP3   OH218008   0.981   0.864   3.624
 6022TIP3    H118009   0.980   0.814   3.706
 6022TIP3    H218010   0.972   0.955   3.651
 6023TIP3   OH218011   0.334   6.976   2.567
 6023TIP3    H118012   0.350   7.068   2.547
 6023TIP3    H218013   0.248   6.975   2.610
 6024TIP3   OH218014   1.790   0.193   0.611
 6024TIP3    H118015   1.728   0.252   0.654
 6024TIP3    H218016   1.741   0.111   0.601
 6025TIP3   OH218017   8.131   4.000   3.937
 6025TIP3    H118018   8.112   3.973   4.027
 6025TIP3    H218019   8.141   3.919   3.888
 6026TIP3   OH218020   0.461   7.784   6.269
 6026TIP3    H118021   0.424   7.866   6.236
 6026TIP3    H218022   0.419   7.716   6.217
 6027TIP3   OH218023   0.349   7.598   1.372
 6027TIP3    H118024   0.402   7.647   1.309
 6027TIP3    H218025   0.259   7.610   1.342
 6028TIP3   OH218026   5.983   5.070   4.007
 6028TIP3    H118027   5.929   5.094   3.932
 6028TIP3    H218028   5.933   5.003   4.054
 6029TIP3   OH218029   8.229   3.783   3.536
 6029TIP3    H118030   8.136   3.790   3.516
 6029TIP3    H218031   8.273   3.822   3.461
 6030TIP3   OH218032   3.485   7.649   6.714
 6030TIP3    H118033   3.508   7.632   6.622
 6030TIP3    H218034   3.547   7.597   6.764
 6031TIP3   OH218035   7.820   5.400   3.679
 6031TIP3    H118036   7.745   5.454   3.705
 6031TIP3    H218037   7.863   5.451   3.610
 6032TIP3   OH218038   2.165   5.715   5.348
 6032TIP3    H118039   2.222   5.678   5.416
 6032TIP3    H218040   2.131   5.639   5.301
 6033TIP3   OH218041   3.833   1.712   6.654
 6033TIP3    H118042   3.820   1.779   6.722
 6033TIP3    H218043   3.885   1.757   6.587
 6034TIP3   OH218044   3.002   0.615   6.264
 6034TIP3    H118045   3.077   0.562   6.239
 6034TIP3    H218046   3.006   0.692   6.206
 6035TIP3   OH218047   1.312   5.893   4.348
 6035TIP3    H118048   1.259   5.828   4.394
 6035TIP3    H218049   1.302   5.973   4.400
 6036TIP3   OH218050   2.993   2.816   2.315
 6036TIP3    H118051   2.924   2.879   2.335
 6036TIP3    H218052   3.019   2.836   2.225
 6037TIP3   OH218053   2.948   4.712   6.265
 6037TIP3    H118054   2.971   4.805   6.261
 6037TIP3    H218055   2.854   4.712   6.287
 6038TIP3   OH218056   5.698   1.455   5.544
 6038TIP3    H118057   5.701   1.549   5.561
 6038TIP3    H218058   5.702   1.448   5.448
 6039TIP3   OH218059   4.508   0.195   1.982
 6039TIP3    H118060   4.413   0.195   1.990
 6039TIP3    H218061   4.525   0.217   1.890
 6040TIP3   OH218062   5.267   4.539   1.566
 6040TIP3    H118063   5.214   4.459   1.562
 6040TIP3    H218064   5.337   4.518   1.629
 6041TIP3   OH218065   0.630   6.107   5.880
 6041TIP3    H118066   0.665   6.190   5.848
 6041TIP3    H218067   0.573   6.131   5.953
 6042TIP3   OH218068   7.196   4.852   6.127
 6042TIP3    H118069   7.132   4.827   6.194
 6042TIP3    H218070   7.276   4.872   6.176
 6043TIP3   OH218071   1.625   2.867   6.195
 6043TIP3    H118072   1.660   2.781   6.214
 6043TIP3    H218073   1.633   2.916   6.277
 6044TIP3   OH218074   3.095   4.755   5.314
 6044TIP3    H118075   3.140   4.779   5.233
 6044TIP3    H218076   3.061   4.667   5.297
 6045TIP3   OH218077   6.447   4.420   4.994
 6045TIP3    H118078   6.422   4.343   4.943
 6045TIP3    H218079   6.508   4.468   4.937
 6046TIP3   OH218080   0.098   4.384   5.927
 6046TIP3    H118081   0.076   4.291   5.918
 6046TIP3    H218082   0.183   4.384   5.971
 6047TIP3   OH218083   0.298   3.241   1.918
 6047TIP3    H118084   0.258   3.327   1.904
 6047TIP3    H218085   0.376   3.259   1.971
 6048TIP3   OH218086   4.137  -0.010   1.525
 6048TIP3    H118087   4.197   0.027   1.461
 6048TIP3    H218088   4.164   0.029   1.609
 6049TIP3   OH218089   4.196   1.090   2.940
 6049TIP3    H118090   4.269   1.125   2.889
 6049TIP3    H218091   4.151   1.168   2.974
 6050TIP3   OH218092   3.053   0.357   4.287
 6050TIP3    H118093   3.122   0.422   4.271
 6050TIP3    H218094   3.071   0.325   4.376
 6051TIP3   OH218095   2.080   4.986   2.736
 6051TIP3    H118096   2.167   4.996   2.775
 6051TIP3    H218097   2.095   4.932   2.659
 6052TIP3   OH218098   0.641   7.426   2.131
 6052TIP3    H118099   0.547   7.408   2.132
 6052TIP3    H218100   0.649   7.514   2.168
 6053TIP3   OH218101   6.424   3.982   2.385
 6053TIP3    H118102   6.389   4.065   2.353
 6053TIP3    H218103   6.376   3.966   2.466
 6054TIP3   OH218104   2.537   1.960   0.136
 6054TIP3    H118105   2.471   1.978   0.068
 6054TIP3    H218106   2.571   1.873   0.113
 6055TIP3   OH218107   3.121   1.187   5.810
 6055TIP3    H118108   3.066   1.250   5.856
 6055TIP3    H218109   3.202   1.183   5.861
 6056TIP3   OH218110   2.658   2.848   6.089
 6056TIP3    H118111   2.735   2.796   6.113
 6056TIP3    H218112   2.694   2.924   6.043
 6057TIP3   OH218113   3.223   5.473   1.344
 6057TIP3    H118114   3.294   5.424   1.303
 6057TIP3    H218115   3.193   5.415   1.415
 6058TIP3   OH218116   3.110   6.144   2.726
 6058TIP3    H118117   3.190   6.102   2.694
 6058TIP3    H218118   3.105   6.227   2.678
 6059TIP3   OH218119   1.548   4.256   5.139
 6059TIP3    H118120   1.526   4.336   5.092
 6059TIP3    H218121   1.527   4.275   5.230
 6060TIP3   OH218122   3.009   3.112   2.520
 6060TIP3    H118123   2.993   3.062   2.440
 6060TIP3    H218124   3.050   3.193   2.491
 6061TIP3   OH218125   0.470   5.663   4.146
 6061TIP3    H118126   0.489   5.699   4.059
 6061TIP3    H218127   0.516   5.579   4.147
 6062TIP3   OH218128   0.907   3.683   0.645
 6062TIP3    H118129   0.863   3.768   0.654
 6062TIP3    H218130   0.870   3.629   0.715
 6063TIP3   OH218131   5.702   6.627   2.353
 6063TIP3    H118132   5.693   6.563   2.424
 6063TIP3    H218133   5.793   6.621   2.327
 6064TIP3   OH218134   7.509   3.457   3.213
 6064TIP3    H118135   7.517   3.463   3.117
 6064TIP3    H218136   7.576   3.517   3.246
 6065TIP3   OH218137   7.080   1.515   4.134
 6065TIP3    H118138   7.056   1.435   4.182
 6065TIP3    H218139   6.996   1.553   4.108
 6066TIP3   OH218140   2.098   5.666   6.039
 6066TIP3    H118141   2.125   5.632   6.125
 6066TIP3    H218142   2.171   5.721   6.011
 6067TIP3   OH218143   8.222   1.373   3.489
 6067TIP3    H118144   8.253   1.355   3.578
 6067TIP3    H218145   8.136   1.333   3.485
 6068TIP3   OH218146   7.832   7.555   1.513
 6068TIP3    H118147   7.772   7.508   1.455
 6068TIP3    H218148   7.914   7.560   1.463
 6069TIP3   OH218149   4.485   2.602   0.144
 6069TIP3    H118150   4.430   2.674   0.175
 6069TIP3    H218151   4.541   2.582   0.218
 6070TIP3   OH218152   6.880   4.428   5.647
 6070TIP3    H118153   6.796   4.473   5.646
 6070TIP3    H218154   6.940   4.489   5.604
 6071TIP3   OH218155   0.023   6.541   0.536
 6071TIP3    H118156   0.053   6.626   0.567
 6071TIP3    H218157   0.096   6.507   0.484
 6072TIP3   OH218158   4.543   0.028   6.248
 6072TIP3    H118159   4.570   0.030   6.156
 6072TIP3    H218160   4.608   0.082   6.293
 6073TIP3   OH218161   7.834   5.447   3.310
 6073TIP3    H118162   7.926   5.427   3.326
 6073TIP3    H218163   7.829   5.542   3.311
 6074TIP3   OH218164   6.855   3.506   5.552
 6074TIP3    H118165   6.895   3.424   5.583
 6074TIP3    H218166   6.789   3.478   5.488
 6075TIP3   OH218167   4.071   1.212   3.812
 6075TIP3    H118168   4.077   1.305   3.831
 6075TIP3    H218169   4.090   1.205   3.718
 6076TIP3   OH218170   7.625   0.278   5.687
 6076TIP3    H118171   7.667   0.254   5.604
 6076TIP3    H218172   7.653   0.368   5.702
 6077TIP3   OH218173   2.340   0.939   0.005
 6077TIP3    H118174   2.328   0.892   0.088
 6077TIP3    H218175   2.430   0.920  -0.020
 6078TIP3   OH218176   6.430   1.510   1.379
 6078TIP3    H118177   6.507   1.456   1.362
 6078TIP3    H218178   6.385   1.516   1.295
 6079TIP3   OH218179   5.152   0.264   0.492
 6079TIP3    H118180   5.158   0.221   0.407
 6079TIP3    H218181   5.120   0.196   0.552
 6080TIP3   OH218182   3.719   4.135   3.240
 6080TIP3    H118183   3.780   4.062   3.247
 6080TIP3    H218184   3.769   4.205   3.200
 6081TIP3   OH218185   7.582   6.052   5.263
 6081TIP3    H118186   7.568   6.043   5.168
 6081TIP3    H218187   7.674   6.028   5.275
 6082TIP3   OH218188   6.461   2.374   4.611
 6082TIP3    H118189   6.505   2.434   4.551
 6082TIP3    H218190   6.463   2.289   4.565
 6083TIP3   OH218191   8.234   0.224   5.257
 6083TIP3    H118192   8.256   0.135   5.229
 6083TIP3    H218193   8.188   0.262   5.183
 6084TIP3   OH218194   5.653   0.108   6.203
 6084TIP3    H118195   5.607   0.161   6.138
 6084TIP3    H218196   5.736   0.085   6.161
 6085TIP3   OH218197   6.394   0.432   2.947
 6085TIP3    H118198   6.464   0.439   3.012
 6085TIP3    H218199   6.433   0.379   2.877
 6086TIP3   OH218200   5.694   2.154   0.006
 6086TIP3    H118201   5.726   2.093  -0.061
 6086TIP3    H218202   5.629   2.103   0.055
 6087TIP3   OH218203   3.193   5.507   4.893
 6087TIP3    H118204   3.157   5.423   4.921
 6087TIP3    H218205   3.127   5.543   4.833
 6088TIP3   OH218206   2.998   6.943   0.841
 6088TIP3    H118207   2.940   6.897   0.780
 6088TIP3    H218208   3.063   6.876   0.866
 6089TIP3   OH218209   2.476   4.947   3.512
 6089TIP3    H118210   2.463   5.039   3.489
 6089TIP3    H218211   2.435   4.938   3.598
 6090TIP3   OH218212   2.696   3.518   6.662
 6090TIP3    H118213   2.662   3.571   6.734
 6090TIP3    H218214   2.650   3.434   6.670
 6091TIP3   OH218215   0.856   0.294   5.145
 6091TIP3    H118216   0.863   0.273   5.052
 6091TIP3    H218217   0.809   0.378   5.147
 6092TIP3   OH218218   1.207   7.001   6.174
 6092TIP3    H118219   1.120   7.034   6.194
 6092TIP3    H218220   1.261   7.080   6.167
 6093TIP3   OH218221   5.200   5.820   2.941
 6093TIP3    H118222   5.193   5.810   2.846
 6093TIP3    H218223   5.181   5.733   2.976
 6094TIP3   OH218224   4.502   1.943   3.761
 6094TIP3    H118225   4.586   1.924   3.803
 6094TIP3    H218226   4.517   2.026   3.716
 6095TIP3   OH218227   7.808   5.481   6.651
 6095TIP3    H118228   7.750   5.538   6.703
 6095TIP3    H218229   7.826   5.407   6.709
 6096TIP3   OH218230   2.834   5.074   1.210
 6096TIP3    H118231   2.866   4.986   1.228
 6096TIP3    H218232   2.901   5.132   1.247
 6097TIP3   OH218233   4.785   6.470   5.797
 6097TIP3    H118234   4.722   6.478   5.869
 6097TIP3    H218235   4.747   6.403   5.740
 6098TIP3   OH218236   6.205   1.222   0.611
 6098TIP3    H118237   6.284   1.191   0.567
 6098TIP3    H218238   6.170   1.144   0.655
 6099TIP3   OH218239   5.427   1.223   4.982
 6099TIP3    H118240   5.460   1.216   4.892
 6099TIP3    H218241   5.361   1.154   4.988
 6100TIP3   OH218242   4.354   0.382   6.409
 6100TIP3    H118243   4.330   0.313   6.348
 6100TIP3    H218244   4.434   0.351   6.451
 6101TIP3   OH218245   0.168   4.580   3.214
 6101TIP3    H118246   0.241   4.519   3.209
 6101TIP3    H218247   0.129   4.565   3.300
 6102TIP3   OH218248   5.347   1.933   5.055
 6102TIP3    H118249   5.289   1.921   4.979
 6102TIP3    H218250   5.311   1.874   5.121
 6103TIP3   OH218251   3.188   2.908   1.279
 6103TIP3    H118252   3.227   2.822   1.263
 6103TIP3    H218253   3.134   2.925   1.201
 6104TIP3   OH218254   0.079   0.559   3.206
 6104TIP3    H118255   0.140   0.585   3.136
 6104TIP3    H218256   0.051   0.642   3.245
 6105TIP3   OH218257   4.380   6.781   0.744
 6105TIP3    H118258   4.390   6.873   0.721
 6105TIP3    H218259   4.372   6.736   0.660
 6106TIP3   OH218260   0.809   7.512   6.287
 6106TIP3    H118261   0.794   7.492   6.195
 6106TIP3    H218262   0.796   7.429   6.332
 6107TIP3   OH218263   0.276   0.050   1.000
 6107TIP3    H118264   0.331   0.094   1.064
 6107TIP3    H218265   0.192   0.095   1.006
 6108TIP3   OH218266   6.166   2.869   3.441
 6108TIP3    H118267   6.097   2.814   3.476
 6108TIP3    H218268   6.135   2.893   3.354
 6109TIP3   OH218269   1.811   4.440   4.146
 6109TIP3    H118270   1.815   4.344   4.144
 6109TIP3    H218271   1.797   4.465   4.054
 6110TIP3   OH218272   4.228   1.492   1.598
 6110TIP3    H118273   4.279   1.572   1.609
 6110TIP3    H218274   4.239   1.469   1.505
 6111TIP3   OH218275   5.775   7.486   5.045
 6111TIP3    H118276   5.838   7.547   5.006
 6111TIP3    H218277   5.819   7.401   5.041
 6112TIP3   OH218278   1.103   6.217   4.821
 6112TIP3    H118279   1.016   6.228   4.858
 6112TIP3    H218280   1.120   6.298   4.774
 6113TIP3   OH218281   7.038   0.149   1.256
 6113TIP3    H118282   6.993   0.105   1.183
 6113TIP3    H218283   7.119   0.182   1.217
 6114TIP3   OH218284   1.536   5.009   4.293
 6114TIP3    H118285   1.500   4.928   4.259
 6114TIP3    H218286   1.595   5.040   4.224
 6115TIP3   OH218287   3.516  -0.029   4.664
 6115TIP3    H118288   3.516   0.058   4.704
 6115TIP3    H218289   3.441  -0.029   4.605
 6116TIP3   OH218290   0.254   3.921   3.532
 6116TIP3    H118291   0.173   3.970   3.546
 6116TIP3    H218292   0.284   3.899   3.620
 6117TIP3   OH218293   0.114   5.841   2.723
 6117TIP3    H118294   0.117   5.793   2.641
 6117TIP3    H218295   0.047   5.909   2.709
 6118TIP3   OH218296   0.650   3.122   1.705
 6118TIP3    H118297   0.606   3.043   1.734
 6118TIP3    H218298   0.587   3.192   1.721
 6119TIP3   OH218299   2.075   6.855   4.947
 6119TIP3    H118300   1.982   6.873   4.958
 6119TIP3    H218301   2.102   6.818   5.031
 6120TIP3   OH218302   6.984   0.477   4.101
 6120TIP3    H118303   7.021   0.497   4.015
 6120TIP3    H218304   6.996   0.557   4.152
 6121TIP3   OH218305   6.082   0.056   0.863
 6121TIP3    H118306   5.989   0.075   0.851
 6121TIP3    H218307   6.084  -0.030   0.905
 6122TIP3   OH218308   7.288   1.687   4.092
 6122TIP3    H118309   7.208   1.644   4.120
 6122TIP3    H218310   7.260   1.750   4.025
 6123TIP3   OH218311   0.988   5.452   5.972
 6123TIP3    H118312   1.044   5.389   6.017
 6123TIP3    H218313   0.973   5.521   6.037
 6124TIP3   OH218314   3.225   2.095   4.172
 6124TIP3    H118315   3.155   2.139   4.124
 6124TIP3    H218316   3.266   2.037   4.107
 6125TIP3   OH218317   5.398   1.164   1.333
 6125TIP3    H118318   5.325   1.172   1.272
 6125TIP3    H218319   5.404   1.250   1.374
 6126TIP3   OH218320   1.833   2.636   0.460
 6126TIP3    H118321   1.779   2.712   0.438
 6126TIP3    H218322   1.771   2.570   0.492
 6127TIP3   OH218323   2.909   4.894   0.115
 6127TIP3    H118324   2.976   4.872   0.179
 6127TIP3    H218325   2.871   4.976   0.146
 6128TIP3   OH218326   5.474   5.547   6.042
 6128TIP3    H118327   5.525   5.595   6.108
 6128TIP3    H218328   5.387   5.538   6.081
 6129TIP3   OH218329   6.326   1.523   3.586
 6129TIP3    H118330   6.239   1.486   3.571
 6129TIP3    H218331   6.309   1.606   3.630
 6130TIP3   OH218332   4.810   7.507   0.149
 6130TIP3    H118333   4.766   7.555   0.219
 6130TIP3    H218334   4.746   7.441   0.122
 6131TIP3   OH218335   4.798   7.620   5.052
 6131TIP3    H118336   4.863   7.581   4.994
 6131TIP3    H218337   4.766   7.547   5.105
 6132TIP3   OH218338   1.615   3.450   1.280
 6132TIP3    H118339   1.589   3.390   1.350
 6132TIP3    H218340   1.615   3.536   1.320
 6133TIP3   OH218341   7.194   7.723   1.991
 6133TIP3    H118342   7.110   7.710   1.946
 6133TIP3    H218343   7.190   7.814   2.021
 6134TIP3   OH218344   6.665   6.049   0.211
 6134TIP3    H118345   6.732   5.981   0.200
 6134TIP3    H218346   6.700   6.107   0.278
 6135TIP3   OH218347   4.223   2.573   5.609
 6135TIP3    H118348   4.296   2.629   5.582
 6135TIP3    H218349   4.185   2.619   5.684
 6136TIP3   OH218350   0.543   5.280   1.696
 6136TIP3    H118351   0.486   5.326   1.759
 6136TIP3    H218352   0.528   5.187   1.713
 6137TIP3   OH218353   1.688   6.673   2.032
 6137TIP3    H118354   1.617   6.686   1.969
 6137TIP3    H218355   1.767   6.701   1.987
 6138TIP3   OH218356   3.139   4.627   1.846
 6138TIP3    H118357   3.124   4.690   1.917
 6138TIP3    H218358   3.051   4.602   1.817
 6139TIP3   OH218359   7.894   6.998   5.470
 6139TIP3    H118360   7.935   6.935   5.529
 6139TIP3    H218361   7.954   7.005   5.396
 6140TIP3   OH218362   4.993   7.330   4.339
 6140TIP3    H118363   5.041   7.247   4.337
 6140TIP3    H218364   5.062   7.397   4.342
 6141TIP3   OH218365   4.272   5.397   2.412
 6141TIP3    H118366   4.326   5.328   2.450
 6141TIP3    H218367   4.335   5.456   2.370
 6142TIP3   OH218368   3.959   4.312   4.851
 6142TIP3    H118369   4.024   4.324   4.781
 6142TIP3    H218370   3.875   4.321   4.807
 6143TIP3   OH218371   7.836   6.146   0.033
 6143TIP3    H118372   7.759   6.106  -0.008
 6143TIP3    H218373   7.870   6.078   0.091
 6144TIP3   OH218374   5.027   7.211   5.539
 6144TIP3    H118375   5.103   7.268   5.548
 6144TIP3    H218376   5.062   7.123   5.539
 6145TIP3   OH218377   0.779   4.090   4.256
 6145TIP3    H118378   0.772   4.006   4.211
 6145TIP3    H218379   0.852   4.134   4.213
 6146TIP3   OH218380   7.253   6.381   2.838
 6146TIP3    H118381   7.239   6.464   2.883
 6146TIP3    H218382   7.167   6.339   2.837
 6147TIP3   OH218383   3.349   3.036   1.453
 6147TIP3    H118384   3.316   3.020   1.542
 6147TIP3    H218385   3.295   2.980   1.397
 6148TIP3   OH218386   7.896   0.254   5.839
 6148TIP3    H118387   7.928   0.343   5.853
 6148TIP3    H218388   7.923   0.233   5.749
 6149TIP3   OH218389   6.397   2.433   1.636
 6149TIP3    H118390   6.394   2.350   1.683
 6149TIP3    H218391   6.372   2.498   1.701
 6150TIP3   OH218392   3.338   5.414   1.697
 6150TIP3    H118393   3.342   5.427   1.792
 6150TIP3    H218394   3.265   5.469   1.669
 6151TIP3   OH218395   3.426   6.427   0.110
 6151TIP3    H118396   3.397   6.398   0.197
 6151TIP3    H218397   3.499   6.370   0.089
 6152TIP3   OH218398   6.382   0.281   5.945
 6152TIP3    H118399   6.304   0.328   5.914
 6152TIP3    H218400   6.419   0.240   5.867
 6153TIP3   OH218401   5.118   5.133   2.818
 6153TIP3    H118402   5.152   5.161   2.733
 6153TIP3    H218403   5.193   5.091   2.861
 6154TIP3   OH218404   7.150   2.341   5.638
 6154TIP3    H118405   7.226   2.285   5.655
 6154TIP3    H218406   7.137   2.389   5.720
 6155TIP3   OH218407   2.396   1.484   6.105
 6155TIP3    H118408   2.403   1.437   6.022
 6155TIP3    H218409   2.305   1.471   6.133
 6156TIP3   OH218410   6.432   4.273   5.241
 6156TIP3    H118411   6.404   4.339   5.177
 6156TIP3    H218412   6.389   4.299   5.322
 6157TIP3   OH218413   1.525   2.434   5.412
 6157TIP3    H118414   1.504   2.350   5.452
 6157TIP3    H218415   1.603   2.416   5.359
 6158TIP3   OH218416   3.476   1.580   4.463
 6158TIP3    H118417   3.415   1.621   4.525
 6158TIP3    H218418   3.460   1.625   4.380
 6159TIP3   OH218419   7.826   1.496   3.429
 6159TIP3    H118420   7.793   1.406   3.425
 6159TIP3    H218421   7.868   1.502   3.515
 6160TIP3   OH218422   0.979   1.670   6.002
 6160TIP3    H118423   1.001   1.740   5.940
 6160TIP3    H218424   0.889   1.646   5.980
 6161TIP3   OH218425   0.032  -0.019   0.619
 6161TIP3    H118426  -0.021  -0.035   0.697
 6161TIP3    H218427   0.115   0.015   0.653
 6162TIP3   OH218428   7.637   5.592   4.078
 6162TIP3    H118429   7.570   5.657   4.056
 6162TIP3    H218430   7.639   5.591   4.174
 6163TIP3   OH218431   0.749   2.917   2.638
 6163TIP3    H118432   0.784   2.977   2.703
 6163TIP3    H218433   0.726   2.838   2.687
 6164TIP3   OH218434   7.618   0.777   4.242
 6164TIP3    H118435   7.548   0.717   4.268
 6164TIP3    H218436   7.688   0.719   4.211
 6165TIP3   OH218437   5.198   2.127   4.785
 6165TIP3    H118438   5.261   2.173   4.841
 6165TIP3    H218439   5.207   2.035   4.809
 6166TIP3   OH218440   7.475   1.175   0.924
 6166TIP3    H118441   7.537   1.156   0.854
 6166TIP3    H218442   7.496   1.112   0.993
 6167TIP3   OH218443   7.375   7.587   6.164
 6167TIP3    H118444   7.392   7.656   6.100
 6167TIP3    H218445   7.295   7.615   6.209
 6168TIP3   OH218446   8.132   2.970   5.589
 6168TIP3    H118447   8.058   2.976   5.528
 6168TIP3    H218448   8.102   2.912   5.659
 6169TIP3   OH218449   5.478   2.779   2.659
 6169TIP3    H118450   5.458   2.687   2.677
 6169TIP3    H218451   5.573   2.784   2.657
 6170TIP3   OH218452   0.818   0.548   4.606
 6170TIP3    H118453   0.749   0.613   4.612
 6170TIP3    H218454   0.776   0.472   4.566
 6171TIP3   OH218455   7.524   3.514   6.279
 6171TIP3    H118456   7.581   3.459   6.332
 6171TIP3    H218457   7.464   3.453   6.236
 6172TIP3   OH218458   4.322   3.156   2.096
 6172TIP3    H118459   4.350   3.072   2.133
 6172TIP3    H218460   4.290   3.134   2.009
 6173TIP3   OH218461   6.604   1.772   4.749
 6173TIP3    H118462   6.602   1.713   4.825
 6173TIP3    H218463   6.631   1.715   4.676
 6174TIP3   OH218464   6.301   0.147   4.346
 6174TIP3    H118465   6.363   0.218   4.358
 6174TIP3    H218466   6.284   0.115   4.434
 6175TIP3   OH218467   3.067   1.446   5.243
 6175TIP3    H118468   3.128   1.433   5.315
 6175TIP3    H218469   2.990   1.395   5.267
 6176TIP3   OH218470   4.693   3.084   4.709
 6176TIP3    H118471   4.624   3.126   4.658
 6176TIP3    H218472   4.749   3.157   4.737
 6177TIP3   OH218473   5.319   6.763   1.013
 6177TIP3    H118474   5.342   6.673   1.036
 6177TIP3    H218475   5.224   6.762   1.003
 6178TIP3   OH218476   1.427   2.069   4.896
 6178TIP3    H118477   1.521   2.056   4.901
 6178TIP3    H218478   1.405   2.117   4.976
 6179TIP3   OH218479   2.617   7.522   6.470
 6179TIP3    H118480   2.563   7.596   6.442
 6179TIP3    H218481   2.638   7.541   6.561
 6180TIP3   OH218482   4.910   2.532   2.156
 6180TIP3    H118483   4.852   2.456   2.146
 6180TIP3    H218484   4.922   2.564   2.067
 6181TIP3   OH218485   4.299   5.163   6.259
 6181TIP3    H118486   4.394   5.171   6.256
 6181TIP3    H218487   4.270   5.232   6.319
 6182TIP3   OH218488   7.320   3.047   1.838
 6182TIP3    H118489   7.384   3.115   1.856
 6182TIP3    H218490   7.318   2.993   1.917
 6183TIP3   OH218491   4.245   2.897   1.067
 6183TIP3    H118492   4.220   2.889   1.159
 6183TIP3    H218493   4.162   2.913   1.021
 6184TIP3   OH218494   0.060   0.438   3.637
 6184TIP3    H118495   0.057   0.374   3.566
 6184TIP3    H218496   0.101   0.392   3.710
 6185TIP3   OH218497   6.333   2.978   2.338
 6185TIP3    H118498   6.363   3.052   2.391
 6185TIP3    H218499   6.298   2.916   2.402
 6186TIP3   OH218500   2.161   4.837   2.509
 6186TIP3    H118501   2.253   4.814   2.522
 6186TIP3    H218502   2.128   4.769   2.451
 6187TIP3   OH218503   4.987   1.702   3.878
 6187TIP3    H118504   4.955   1.621   3.840
 6187TIP3    H218505   5.082   1.696   3.872
 6188TIP3   OH218506   2.993   4.734   6.676
 6188TIP3    H118507   2.968   4.826   6.660
 6188TIP3    H218508   2.996   4.695   6.588
 6189TIP3   OH218509   0.555   0.484   0.048
 6189TIP3    H118510   0.576   0.572   0.017
 6189TIP3    H218511   0.639   0.438   0.051
 6190TIP3   OH218512   6.868   2.919   3.161
 6190TIP3    H118513   6.806   2.985   3.130
 6190TIP3    H218514   6.877   2.859   3.087
 6191TIP3   OH218515   1.815   4.873   0.599
 6191TIP3    H118516   1.773   4.933   0.537
 6191TIP3    H218517   1.869   4.929   0.654
 6192TIP3   OH218518   0.596   1.626   2.947
 6192TIP3    H118519   0.646   1.651   2.869
 6192TIP3    H218520   0.635   1.544   2.976
 6193TIP3   OH218521   0.796   5.156   3.854
 6193TIP3    H118522   0.831   5.146   3.766
 6193TIP3    H218523   0.722   5.216   3.843
 6194TIP3   OH218524   6.602   6.004   0.777
 6194TIP3    H118525   6.697   6.002   0.791
 6194TIP3    H218526   6.590   5.973   0.688
 6195TIP3   OH218527   1.339   3.617   6.016
 6195TIP3    H118528   1.396   3.547   5.986
 6195TIP3    H218529   1.278   3.631   5.944
 6196TIP3   OH218530   4.149   7.798   6.194
 6196TIP3    H118531   4.199   7.728   6.237
 6196TIP3    H218532   4.058   7.773   6.205
 6197TIP3   OH218533   1.683   6.287   6.153
 6197TIP3    H118534   1.641   6.372   6.160
 6197TIP3    H218535   1.691   6.257   6.244
 6198TIP3   OH218536   5.799   3.497   3.603
 6198TIP3    H118537   5.747   3.519   3.526
 6198TIP3    H218538   5.736   3.495   3.675
 6199TIP3   OH218539   2.368   1.021   5.795
 6199TIP3    H118540   2.372   0.928   5.771
 6199TIP3    H218541   2.329   1.063   5.719
 6200TIP3   OH218542   1.719   4.152   1.146
 6200TIP3    H118543   1.721   4.099   1.225
 6200TIP3    H218544   1.790   4.216   1.159
 6201TIP3   OH218545   5.596   1.456   4.497
 6201TIP3    H118546   5.535   1.504   4.554
 6201TIP3    H218547   5.609   1.372   4.542
 6202TIP3   OH218548   2.461   6.556   1.072
 6202TIP3    H118549   2.547   6.587   1.099
 6202TIP3    H218550   2.399   6.617   1.111
 6203TIP3   OH218551   3.473   5.167   4.383
 6203TIP3    H118552   3.473   5.239   4.446
 6203TIP3    H218553   3.455   5.208   4.299
 6204TIP3   OH218554   6.853   6.455   4.691
 6204TIP3    H118555   6.904   6.519   4.741
 6204TIP3    H218556   6.768   6.496   4.678
 6205TIP3   OH218557   3.074   4.730   1.256
 6205TIP3    H118558   3.118   4.666   1.201
 6205TIP3    H218559   3.115   4.720   1.342
 6206TIP3   OH218560   1.587   5.527   6.727
 6206TIP3    H118561   1.517   5.480   6.682
 6206TIP3    H218562   1.552   5.543   6.815
 6207TIP3   OH218563   0.886   7.679   3.478
 6207TIP3    H118564   0.825   7.614   3.442
 6207TIP3    H218565   0.968   7.631   3.490
 6208TIP3   OH218566   6.706   5.483   5.285
 6208TIP3    H118567   6.632   5.473   5.225
 6208TIP3    H218568   6.743   5.395   5.292
 6209TIP3   OH218569   6.666   3.485   3.418
 6209TIP3    H118570   6.612   3.509   3.493
 6209TIP3    H218571   6.603   3.467   3.348
 6210TIP3   OH218572   0.459   1.040   3.651
 6210TIP3    H118573   0.380   0.994   3.623
 6210TIP3    H218574   0.461   1.029   3.746
 6211TIP3   OH218575   3.953   6.408   3.908
 6211TIP3    H118576   3.975   6.376   3.995
 6211TIP3    H218577   3.909   6.491   3.923
 6212TIP3   OH218578   7.621   3.046   0.356
 6212TIP3    H118579   7.584   3.062   0.443
 6212TIP3    H218580   7.627   2.951   0.349
 6213TIP3   OH218581   6.353   4.122   6.753
 6213TIP3    H118582   6.418   4.070   6.706
 6213TIP3    H218583   6.272   4.112   6.703
 6214TIP3   OH218584   6.509   2.452   4.001
 6214TIP3    H118585   6.562   2.386   3.955
 6214TIP3    H218586   6.554   2.463   4.085
 6215TIP3   OH218587   6.309   3.976   5.468
 6215TIP3    H118588   6.333   4.038   5.537
 6215TIP3    H218589   6.366   3.998   5.395
 6216TIP3   OH218590   7.945   0.387   4.614
 6216TIP3    H118591   7.948   0.362   4.521
 6216TIP3    H218592   7.898   0.470   4.614
 6217TIP3   OH218593   6.319   0.453   0.179
 6217TIP3    H118594   6.410   0.481   0.170
 6217TIP3    H218595   6.300   0.405   0.098
 6218TIP3   OH218596   5.531   6.464   1.516
 6218TIP3    H118597   5.504   6.430   1.601
 6218TIP3    H218598   5.622   6.438   1.508
 6219TIP3   OH218599   7.877   2.225   1.794
 6219TIP3    H118600   7.819   2.227   1.870
 6219TIP3    H218601   7.833   2.279   1.728
 6220TIP3   OH218602   5.058   4.709   1.580
 6220TIP3    H118603   5.143   4.664   1.582
 6220TIP3    H218604   4.999   4.650   1.627
 6221TIP3   OH218605   7.392   4.661   2.670
 6221TIP3    H118606   7.343   4.579   2.665
 6221TIP3    H218607   7.459   4.645   2.737
 6222TIP3   OH218608   7.036   0.114   4.334
 6222TIP3    H118609   7.053   0.091   4.426
 6222TIP3    H218610   7.049   0.033   4.286
 6223TIP3   OH218611   5.370   2.454   2.081
 6223TIP3    H118612   5.297   2.514   2.097
 6223TIP3    H218613   5.445   2.495   2.124
 6224TIP3   OH218614   2.932   6.859   0.035
 6224TIP3    H118615   2.982   6.850   0.116
 6224TIP3    H218616   2.933   6.953   0.016
 6225TIP3   OH218617   0.095   5.010   4.686
 6225TIP3    H118618   0.187   5.015   4.710
 6225TIP3    H218619   0.095   4.973   4.598
 6226TIP3   OH218620   0.644   2.599   0.615
 6226TIP3    H118621   0.699   2.547   0.557
 6226TIP3    H218622   0.582   2.643   0.556
 6227TIP3   OH218623   4.250   1.633   2.836
 6227TIP3    H118624   4.263   1.721   2.871
 6227TIP3    H218625   4.282   1.575   2.904
 6228TIP3   OH218626   1.506   3.585   6.529
 6228TIP3    H118627   1.505   3.656   6.593
 6228TIP3    H218628   1.553   3.621   6.453
 6229TIP3   OH218629   4.829   2.932   3.259
 6229TIP3    H118630   4.844   2.887   3.176
 6229TIP3    H218631   4.812   2.861   3.321
 6230TIP3   OH218632   3.846   5.700   0.399
 6230TIP3    H118633   3.852   5.730   0.490
 6230TIP3    H218634   3.805   5.773   0.353
 6231TIP3   OH218635   1.689   4.829   2.594
 6231TIP3    H118636   1.692   4.925   2.596
 6231TIP3    H218637   1.653   4.808   2.508
 6232TIP3   OH218638   7.096   1.339   4.593
 6232TIP3    H118639   7.014   1.297   4.565
 6232TIP3    H218640   7.069   1.425   4.624
 6233TIP3   OH218641   5.107   3.276   0.220
 6233TIP3    H118642   5.078   3.251   0.307
 6233TIP3    H218643   5.197   3.241   0.213
 6234TIP3   OH218644   1.133   0.713   2.748
 6234TIP3    H118645   1.145   0.693   2.655
 6234TIP3    H218646   1.221   0.736   2.778
 6235TIP3   OH218647   7.979   0.587   0.319
 6235TIP3    H118648   8.070   0.595   0.348
 6235TIP3    H218649   7.928   0.615   0.395
 6236TIP3   OH218650   1.317   1.444   4.483
 6236TIP3    H118651   1.364   1.365   4.508
 6236TIP3    H218652   1.286   1.426   4.394
 6237TIP3   OH218653   5.089   0.212   6.662
 6237TIP3    H118654   5.184   0.208   6.659
 6237TIP3    H218655   5.064   0.263   6.584
 6238TIP3   OH218656   4.394   1.132   6.811
 6238TIP3    H118657   4.310   1.095   6.839
 6238TIP3    H218658   4.429   1.068   6.749
 6239TIP3   OH218659   6.010   0.097   1.532
 6239TIP3    H118660   5.974   0.182   1.558
 6239TIP3    H218661   6.099   0.117   1.502
 6240TIP3   OH218662   7.476   1.275   6.291
 6240TIP3    H118663   7.481   1.207   6.358
 6240TIP3    H218664   7.489   1.229   6.208
 6241TIP3   OH218665   2.929   0.911   5.681
 6241TIP3    H118666   2.962   0.823   5.666
 6241TIP3    H218667   2.980   0.966   5.622
 6242TIP3   OH218668   0.872   5.906   5.679
 6242TIP3    H118669   0.839   5.833   5.731
 6242TIP3    H218670   0.964   5.914   5.705
 6243TIP3   OH218671   5.415   4.201   0.732
 6243TIP3    H118672   5.391   4.290   0.757
 6243TIP3    H218673   5.508   4.194   0.753
 6244TIP3   OH218674   4.022   4.512   4.643
 6244TIP3    H118675   4.035   4.542   4.553
 6244TIP3    H218676   3.927   4.500   4.651
 6245TIP3   OH218677   5.867   3.142   2.003
 6245TIP3    H118678   5.870   3.145   2.099
 6245TIP3    H218679   5.943   3.090   1.978
 6246TIP3   OH218680   2.158   0.427   4.211
 6246TIP3    H118681   2.107   0.445   4.132
 6246TIP3    H218682   2.215   0.354   4.187
 6247TIP3   OH218683   4.219   7.293   4.252
 6247TIP3    H118684   4.164   7.267   4.178
 6247TIP3    H218685   4.182   7.247   4.327
 6248TIP3   OH218686   7.120   6.527   1.953
 6248TIP3    H118687   7.158   6.606   1.993
 6248TIP3    H218688   7.028   6.531   1.978
 6249TIP3   OH218689   0.774   3.367   6.104
 6249TIP3    H118690   0.795   3.410   6.187
 6249TIP3    H218691   0.836   3.402   6.041
 6250TIP3   OH218692   2.661   6.674   0.371
 6250TIP3    H118693   2.757   6.668   0.364
 6250TIP3    H218694   2.630   6.595   0.326
 6251TIP3   OH218695   3.196   7.267   5.050
 6251TIP3    H118696   3.174   7.280   4.957
 6251TIP3    H218697   3.240   7.182   5.052
 6252TIP3   OH218698   5.052   3.295   2.268
 6252TIP3    H118699   4.963   3.268   2.247
 6252TIP3    H218700   5.105   3.262   2.195
 6253TIP3   OH218701   2.414   5.378   0.583
 6253TIP3    H118702   2.397   5.451   0.643
 6253TIP3    H218703   2.327   5.353   0.551
 6254TIP3   OH218704   0.429   2.716   1.943
 6254TIP3    H118705   0.370   2.729   1.869
 6254TIP3    H218706   0.455   2.804   1.969
 6255TIP3   OH218707   1.167   0.880   1.278
 6255TIP3    H118708   1.218   0.802   1.256
 6255TIP3    H218709   1.149   0.871   1.372
 6256TIP3   OH218710   1.218   3.358   6.455
 6256TIP3    H118711   1.191   3.382   6.544
 6256TIP3    H218712   1.237   3.441   6.413
 6257TIP3   OH218713   2.815   3.360   3.263
 6257TIP3    H118714   2.722   3.355   3.285
 6257TIP3    H218715   2.848   3.272   3.277
 6258TIP3   OH218716   2.411   4.784   4.025
 6258TIP3    H118717   2.317   4.780   4.042
 6258TIP3    H218718   2.419   4.832   3.943
 6259TIP3   OH218719   7.047   0.039   2.984
 6259TIP3    H118720   7.130   0.027   2.937
 6259TIP3    H218721   7.017   0.125   2.955
 6260TIP3   OH218722   6.401   1.787   4.144
 6260TIP3    H118723   6.421   1.715   4.205
 6260TIP3    H218724   6.467   1.778   4.075
 6261TIP3   OH218725   2.801   2.522   6.414
 6261TIP3    H118726   2.763   2.460   6.476
 6261TIP3    H218727   2.892   2.533   6.442
 6262TIP3   OH218728   8.237   6.112   1.008
 6262TIP3    H118729   8.284   6.108   1.091
 6262TIP3    H218730   8.165   6.173   1.024
 6263TIP3   OH218731   0.900   7.354   2.073
 6263TIP3    H118732   0.807   7.364   2.091
 6263TIP3    H218733   0.943   7.364   2.158
 6264TIP3   OH218734   1.303   5.239   2.673
 6264TIP3    H118735   1.321   5.155   2.716
 6264TIP3    H218736   1.254   5.289   2.738
 6265TIP3   OH218737   1.549   3.995   6.484
 6265TIP3    H118738   1.514   4.070   6.436
 6265TIP3    H218739   1.477   3.966   6.540
 6266TIP3   OH218740   3.184   2.554   2.270
 6266TIP3    H118741   3.169   2.639   2.312
 6266TIP3    H218742   3.131   2.493   2.321
 6267TIP3   OH218743   5.512   5.260   5.373
 6267TIP3    H118744   5.597   5.283   5.336
 6267TIP3    H218745   5.510   5.303   5.458
 6268TIP3   OH218746   4.925   5.042   3.232
 6268TIP3    H118747   4.972   4.993   3.299
 6268TIP3    H218748   4.839   5.059   3.270
 6269TIP3   OH218749   0.860   4.539   6.649
 6269TIP3    H118750   0.871   4.446   6.668
 6269TIP3    H218751   0.948   4.576   6.661
 6270TIP3   OH218752   2.300   5.585   6.750
 6270TIP3    H118753   2.368   5.534   6.794
 6270TIP3    H218754   2.336   5.602   6.663
 6271TIP3   OH218755   7.176   7.090   0.284
 6271TIP3    H118756   7.252   7.070   0.338
 6271TIP3    H218757   7.169   7.015   0.224
 6272TIP3   OH218758   6.293   0.079   4.618
 6272TIP3    H118759   6.291  -0.007   4.661
 6272TIP3    H218760   6.252   0.138   4.682
 6273TIP3   OH218761   5.883   2.747   3.808
 6273TIP3    H118762   5.971   2.752   3.847
 6273TIP3    H218763   5.884   2.813   3.738
 6274TIP3   OH218764   7.446   2.200   3.835
 6274TIP3    H118765   7.367   2.253   3.827
 6274TIP3    H218766   7.429   2.123   3.780
 6275TIP3   OH218767   8.152   3.585   0.415
 6275TIP3    H118768   8.151   3.498   0.455
 6275TIP3    H218769   8.075   3.586   0.358
 6276TIP3   OH218770   0.545   4.499   4.698
 6276TIP3    H118771   0.479   4.431   4.687
 6276TIP3    H218772   0.572   4.522   4.609
 6277TIP3   OH218773   8.028   2.629   2.720
 6277TIP3    H118774   8.121   2.651   2.719
 6277TIP3    H218775   8.018   2.568   2.793
 6278TIP3   OH218776   1.561   4.350   0.435
 6278TIP3    H118777   1.570   4.375   0.527
 6278TIP3    H218778   1.629   4.283   0.422
 6279TIP3   OH218779   3.489   3.781   4.264
 6279TIP3    H118780   3.533   3.815   4.186
 6279TIP3    H218781   3.434   3.854   4.293
 6280TIP3   OH218782   6.205   3.277   3.559
 6280TIP3    H118783   6.276   3.317   3.609
 6280TIP3    H218784   6.126   3.321   3.590
 6281TIP3   OH218785   1.603   4.420   5.869
 6281TIP3    H118786   1.638   4.424   5.959
 6281TIP3    H218787   1.620   4.330   5.842
 6282TIP3   OH218788   4.605   6.272   4.294
 6282TIP3    H118789   4.627   6.333   4.365
 6282TIP3    H218790   4.567   6.197   4.339
 6283TIP3   OH218791   3.217   5.814   6.344
 6283TIP3    H118792   3.171   5.772   6.417
 6283TIP3    H218793   3.290   5.755   6.324
 6284TIP3   OH218794   4.930   3.230   1.146
 6284TIP3    H118795   4.941   3.320   1.116
 6284TIP3    H218796   5.015   3.188   1.129
 6285TIP3   OH218797   5.909   3.899   0.658
 6285TIP3    H118798   5.845   3.857   0.600
 6285TIP3    H218799   5.857   3.935   0.730
 6286TIP3   OH218800   0.903   1.286   6.436
 6286TIP3    H118801   0.837   1.355   6.429
 6286TIP3    H218802   0.960   1.314   6.508
 6287TIP3   OH218803   7.583   0.933   2.007
 6287TIP3    H118804   7.600   1.027   2.001
 6287TIP3    H218805   7.660   0.898   2.051
 6288TIP3   OH218806   0.047   4.602   0.486
 6288TIP3    H118807   0.108   4.562   0.548
 6288TIP3    H218808  -0.039   4.573   0.515
 6289TIP3   OH218809   2.266   4.274   1.312
 6289TIP3    H118810   2.252   4.255   1.219
 6289TIP3    H218811   2.258   4.369   1.319
 6290TIP3   OH218812   1.129   2.070   5.070
 6290TIP3    H118813   1.112   1.980   5.098
 6290TIP3    H218814   1.133   2.120   5.151
 6291TIP3   OH218815   2.447   0.549   3.646
 6291TIP3    H118816   2.381   0.517   3.707
 6291TIP3    H218817   2.398   0.607   3.587
 6292TIP3   OH218818   4.721   0.640   1.494
 6292TIP3    H118819   4.738   0.694   1.418
 6292TIP3    H218820   4.787   0.667   1.558
 6293TIP3   OH218821   2.941   2.455   0.826
 6293TIP3    H118822   2.901   2.373   0.796
 6293TIP3    H218823   2.915   2.520   0.761
 6294TIP3   OH218824   6.609   5.430   0.258
 6294TIP3    H118825   6.594   5.336   0.265
 6294TIP3    H218826   6.534   5.470   0.303
 6295TIP3   OH218827   0.969   2.981   5.040
 6295TIP3    H118828   1.005   2.922   5.107
 6295TIP3    H218829   1.042   2.998   4.980
 6296TIP3   OH218830   5.112   7.494   3.008
 6296TIP3    H118831   5.131   7.406   3.043
 6296TIP3    H218832   5.194   7.542   3.020
 6297TIP3   OH218833   0.436   6.453   4.849
 6297TIP3    H118834   0.376   6.457   4.923
 6297TIP3    H218835   0.427   6.364   4.815
 6298TIP3   OH218836   3.104   1.958   0.881
 6298TIP3    H118837   3.011   1.979   0.878
 6298TIP3    H218838   3.123   1.943   0.974
 6299TIP3   OH218839   1.256   3.839   5.030
 6299TIP3    H118840   1.309   3.817   5.107
 6299TIP3    H218841   1.213   3.756   5.007
 6300TIP3   OH218842   5.797   3.298   6.001
 6300TIP3    H118843   5.787   3.250   6.083
 6300TIP3    H218844   5.892   3.306   5.988
 6301TIP3   OH218845   0.307   1.803   4.217
 6301TIP3    H118846   0.330   1.853   4.139
 6301TIP3    H218847   0.242   1.739   4.186
 6302TIP3   OH218848   3.192   4.817   1.475
 6302TIP3    H118849   3.256   4.760   1.518
 6302TIP3    H218850   3.209   4.903   1.512
 6303TIP3   OH218851   7.164   2.704   6.401
 6303TIP3    H118852   7.160   2.610   6.383
 6303TIP3    H218853   7.256   2.727   6.384
 6304TIP3   OH218854   6.138   5.637   5.649
 6304TIP3    H118855   6.196   5.694   5.599
 6304TIP3    H218856   6.160   5.656   5.741
 6305TIP3   OH218857   1.468   5.299   5.705
 6305TIP3    H118858   1.521   5.368   5.745
 6305TIP3    H218859   1.452   5.329   5.616
 6306TIP3   OH218860   7.858   4.843   2.927
 6306TIP3    H118861   7.864   4.889   2.843
 6306TIP3    H218862   7.774   4.870   2.963
 6307TIP3   OH218863   4.196   0.509   1.449
 6307TIP3    H118864   4.101   0.509   1.445
 6307TIP3    H218865   4.217   0.560   1.527
 6308TIP3   OH218866   0.192   2.057   2.626
 6308TIP3    H118867   0.228   1.969   2.640
 6308TIP3    H218868   0.215   2.105   2.705
 6309TIP3   OH218869   3.723   0.013   2.406
 6309TIP3    H118870   3.810   0.052   2.403
 6309TIP3    H218871   3.680   0.044   2.326
 6310TIP3   OH218872   7.194   6.833   5.350
 6310TIP3    H118873   7.236   6.793   5.274
 6310TIP3    H218874   7.189   6.926   5.329
 6311TIP3   OH218875   3.703   5.637   2.210
 6311TIP3    H118876   3.695   5.718   2.160
 6311TIP3    H218877   3.772   5.655   2.274
 6312TIP3   OH218878   3.492   1.834   2.254
 6312TIP3    H118879   3.399   1.848   2.272
 6312TIP3    H218880   3.532   1.819   2.340
 6313TIP3   OH218881   1.510   4.802   5.838
 6313TIP3    H118882   1.575   4.811   5.907
 6313TIP3    H218883   1.501   4.891   5.803
 6314TIP3   OH218884   7.322   3.561   6.600
 6314TIP3    H118885   7.300   3.543   6.692
 6314TIP3    H218886   7.346   3.476   6.563
 6315TIP3   OH218887   5.529   6.077   0.556
 6315TIP3    H118888   5.567   6.134   0.490
 6315TIP3    H218889   5.559   5.989   0.533
 6316TIP3   OH218890   1.235   1.542   2.244
 6316TIP3    H118891   1.185   1.618   2.275
 6316TIP3    H218892   1.214   1.537   2.150
 6317TIP3   OH218893   3.835   5.597   6.043
 6317TIP3    H118894   3.863   5.527   5.984
 6317TIP3    H218895   3.785   5.552   6.111
 6318TIP3   OH218896   1.738   0.379   5.976
 6318TIP3    H118897   1.794   0.303   5.960
 6318TIP3    H218898   1.658   0.361   5.927
 6319TIP3   OH218899   7.018   1.280   4.258
 6319TIP3    H118900   6.997   1.217   4.189
 6319TIP3    H218901   6.933   1.311   4.288
 6320TIP3   OH218902   8.216   0.501   2.655
 6320TIP3    H118903   8.206   0.565   2.726
 6320TIP3    H218904   8.292   0.448   2.681
 6321TIP3   OH218905   7.639   3.945   2.988
 6321TIP3    H118906   7.546   3.941   3.010
 6321TIP3    H218907   7.683   3.957   3.071
 6322TIP3   OH218908   3.578   2.231   2.832
 6322TIP3    H118909   3.669   2.261   2.825
 6322TIP3    H218910   3.527   2.312   2.840
 6323TIP3   OH218911   2.911   6.030   1.464
 6323TIP3    H118912   2.859   6.094   1.513
 6323TIP3    H218913   2.963   6.082   1.404
 6324TIP3   OH218914   0.570   3.835   0.640
 6324TIP3    H118915   0.650   3.881   0.614
 6324TIP3    H218916   0.580   3.747   0.603
 6325TIP3   OH218917   0.912   6.193   2.963
 6325TIP3    H118918   0.904   6.099   2.981
 6325TIP3    H218919   0.823   6.227   2.970
 6326TIP3   OH218920   1.545   0.422   5.777
 6326TIP3    H118921   1.458   0.463   5.770
 6326TIP3    H218922   1.606   0.489   5.746
 6327TIP3   OH218923   6.268   3.188   2.894
 6327TIP3    H118924   6.350   3.223   2.858
 6327TIP3    H218925   6.269   3.095   2.871
 6328TIP3   OH218926   5.518   1.796   1.344
 6328TIP3    H118927   5.470   1.862   1.394
 6328TIP3    H218928   5.485   1.804   1.255
 6329TIP3   OH218929   3.846   2.021   3.867
 6329TIP3    H118930   3.918   1.984   3.917
 6329TIP3    H218931   3.769   2.008   3.923
 6330TIP3   OH218932   2.362   3.496   6.244
 6330TIP3    H118933   2.395   3.542   6.321
 6330TIP3    H218934   2.438   3.488   6.187
 6331TIP3   OH218935   6.155   2.813   5.961
 6331TIP3    H118936   6.156   2.816   6.057
 6331TIP3    H218937   6.091   2.880   5.936
 6332TIP3   OH218938   1.904   1.428   2.548
 6332TIP3    H118939   1.956   1.494   2.593
 6332TIP3    H218940   1.966   1.383   2.491
 6333TIP3   OH218941   0.394   1.136   3.197
 6333TIP3    H118942   0.422   1.207   3.139
 6333TIP3    H218943   0.342   1.179   3.265
 6334TIP3   OH218944   3.677   7.475   5.490
 6334TIP3    H118945   3.598   7.517   5.523
 6334TIP3    H218946   3.647   7.417   5.421
 6335TIP3   OH218947   1.818   5.175   1.770
 6335TIP3    H118948   1.912   5.185   1.783
 6335TIP3    H218949   1.778   5.240   1.828
 6336TIP3   OH218950   2.428   4.404   3.361
 6336TIP3    H118951   2.467   4.408   3.274
 6336TIP3    H218952   2.469   4.329   3.403
 6337TIP3   OH218953   3.835   7.511   1.817
 6337TIP3    H118954   3.751   7.548   1.787
 6337TIP3    H218955   3.830   7.515   1.912
 6338TIP3   OH218956   4.771   6.867   2.990
 6338TIP3    H118957   4.845   6.922   3.016
 6338TIP3    H218958   4.806   6.778   2.987
 6339TIP3   OH218959   5.845   0.974   1.603
 6339TIP3    H118960   5.792   0.895   1.608
 6339TIP3    H218961   5.811   1.021   1.527
 6340TIP3   OH218962   7.430   3.198   5.507
 6340TIP3    H118963   7.348   3.174   5.550
 6340TIP3    H218964   7.498   3.177   5.571
 6341TIP3   OH218965   5.424   2.520   5.216
 6341TIP3    H118966   5.366   2.559   5.151
 6341TIP3    H218967   5.483   2.591   5.241
 6342TIP3   OH218968   3.814   6.097   2.678
 6342TIP3    H118969   3.852   6.010   2.688
 6342TIP3    H218970   3.820   6.136   2.766
 6343TIP3   OH218971   0.330   4.458   6.064
 6343TIP3    H118972   0.345   4.551   6.047
 6343TIP3    H218973   0.416   4.423   6.084
 6344TIP3   OH218974   2.153   5.488   6.310
 6344TIP3    H118975   2.195   5.403   6.298
 6344TIP3    H218976   2.061   5.468   6.327
 6345TIP3   OH218977   0.850   0.743   5.233
 6345TIP3    H118978   0.803   0.773   5.311
 6345TIP3    H218979   0.942   0.763   5.250
 6346TIP3   OH218980   7.911   1.831   1.872
 6346TIP3    H118981   7.954   1.888   1.809
 6346TIP3    H218982   7.818   1.834   1.848
 6347TIP3   OH218983   3.567   6.233   2.716
 6347TIP3    H118984   3.633   6.167   2.693
 6347TIP3    H218985   3.599   6.313   2.673
 6348TIP3   OH218986   5.041   6.006   0.820
 6348TIP3    H118987   4.992   6.087   0.833
 6348TIP3    H218988   4.974   5.940   0.801
 6349TIP3   OH218989   4.565   5.139   1.416
 6349TIP3    H118990   4.495   5.104   1.361
 6349TIP3    H218991   4.524   5.156   1.501
 6350TIP3   OH218992   3.429   4.399   5.901
 6350TIP3    H118993   3.429   4.347   5.821
 6350TIP3    H218994   3.442   4.489   5.872
 6351TIP3   OH218995   0.331   5.461   5.282
 6351TIP3    H118996   0.336   5.367   5.263
 6351TIP3    H218997   0.252   5.490   5.237
 6352TIP3   OH218998   7.931   0.922   4.151
 6352TIP3    H118999   7.985   0.953   4.078
 6352TIP3    H219000   7.847   0.967   4.139
 6353TIP3   OH219001   1.319   0.982   4.878
 6353TIP3    H119002   1.358   0.925   4.945
 6353TIP3    H219003   1.349   1.070   4.902
 6354TIP3   OH219004   2.544   5.195   1.211
 6354TIP3    H119005   2.609   5.127   1.226
 6354TIP3    H219006   2.460   5.148   1.213
 6355TIP3   OH219007   1.852   3.689   0.490
 6355TIP3    H119008   1.847   3.667   0.583
 6355TIP3    H219009   1.795   3.766   0.480
 6356TIP3   OH219010   0.675   3.866   6.099
 6356TIP3    H119011   0.647   3.950   6.062
 6356TIP3    H219012   0.737   3.888   6.168
 6357TIP3   OH219013   2.714   3.442   2.261
 6357TIP3    H119014   2.807   3.461   2.273
 6357TIP3    H219015   2.700   3.358   2.305
 6358TIP3   OH219016   4.335   4.283   1.806
 6358TIP3    H119017   4.429   4.262   1.800
 6358TIP3    H219018   4.322   4.308   1.897
 6359TIP3   OH219019   7.017   3.006   1.739
 6359TIP3    H119020   7.111   3.009   1.760
 6359TIP3    H219021   7.007   2.926   1.687
 6360TIP3   OH219022   0.414   1.011   2.255
 6360TIP3    H119023   0.444   1.072   2.187
 6360TIP3    H219024   0.407   1.066   2.334
 6361TIP3   OH219025   5.644   4.954   4.557
 6361TIP3    H119026   5.595   4.893   4.613
 6361TIP3    H219027   5.594   5.035   4.560
 6362TIP3   OH219028   3.001   4.432   3.059
 6362TIP3    H119029   3.075   4.421   3.119
 6362TIP3    H219030   3.031   4.497   2.995
 6363TIP3   OH219031   5.176   3.901   3.702
 6363TIP3    H119032   5.240   3.856   3.646
 6363TIP3    H219033   5.098   3.910   3.647
 6364TIP3   OH219034   6.250   2.829   2.573
 6364TIP3    H119035   6.214   2.744   2.597
 6364TIP3    H219036   6.188   2.892   2.610
 6365TIP3   OH219037   5.717   4.276   2.511
 6365TIP3    H119038   5.721   4.198   2.567
 6365TIP3    H219039   5.754   4.248   2.428
 6366TIP3   OH219040   6.718   6.419   0.970
 6366TIP3    H119041   6.712   6.509   0.939
 6366TIP3    H219042   6.629   6.398   0.999
 6367TIP3   OH219043   2.415   4.908   6.603
 6367TIP3    H119044   2.440   4.908   6.695
 6367TIP3    H219045   2.491   4.944   6.557
 6368TIP3   OH219046   6.791   5.909   1.243
 6368TIP3    H119047   6.697   5.926   1.251
 6368TIP3    H219048   6.832   5.986   1.282
 6369TIP3   OH219049   7.977   0.262   0.445
 6369TIP3    H119050   7.905   0.323   0.424
 6369TIP3    H219051   8.032   0.311   0.506
 6370TIP3   OH219052   5.537   5.054   0.498
 6370TIP3    H119053   5.603   5.032   0.563
 6370TIP3    H219054   5.458   5.009   0.527
 6371TIP3   OH219055   5.083   1.302   0.335
 6371TIP3    H119056   5.007   1.293   0.392
 6371TIP3    H219057   5.123   1.215   0.334
 6372TIP3   OH219058   2.469   1.884   3.534
 6372TIP3    H119059   2.431   1.840   3.458
 6372TIP3    H219060   2.395   1.920   3.581
 6373TIP3   OH219061   7.231   4.116   4.326
 6373TIP3    H119062   7.306   4.161   4.365
 6373TIP3    H219063   7.212   4.044   4.386
 6374TIP3   OH219064   5.867   3.290   5.640
 6374TIP3    H119065   5.806   3.274   5.712
 6374TIP3    H219066   5.861   3.384   5.624
 6375TIP3   OH219067   7.656   1.496   6.292
 6375TIP3    H119068   7.739   1.505   6.340
 6375TIP3    H219069   7.620   1.412   6.322
 6376TIP3   OH219070   8.163   1.459   4.902
 6376TIP3    H119071   8.137   1.387   4.845
 6376TIP3    H219072   8.259   1.461   4.897
 6377TIP3   OH219073   6.486   0.706   4.014
 6377TIP3    H119074   6.463   0.620   3.980
 6377TIP3    H219075   6.443   0.768   3.955
 6378TIP3   OH219076   7.111   1.202   1.456
 6378TIP3    H119077   7.173   1.264   1.495
 6378TIP3    H219078   7.160   1.160   1.385
 6379TIP3   OH219079   4.562   4.321   1.194
 6379TIP3    H119080   4.655   4.300   1.187
 6379TIP3    H219081   4.559   4.400   1.248
 6380TIP3   OH219082   6.314   0.513   0.937
 6380TIP3    H119083   6.226   0.476   0.947
 6380TIP3    H219084   6.350   0.515   1.026
 6381TIP3   OH219085   4.131   2.788   4.160
 6381TIP3    H119086   4.154   2.879   4.144
 6381TIP3    H219087   4.119   2.782   4.255
 6382TIP3   OH219088   0.794   4.437   4.843
 6382TIP3    H119089   0.709   4.444   4.799
 6382TIP3    H219090   0.830   4.526   4.839
 6383TIP3   OH219091   5.393   3.990   1.813
 6383TIP3    H119092   5.321   4.001   1.876
 6383TIP3    H219093   5.461   3.944   1.863
 6384TIP3   OH219094   0.521   7.649   0.549
 6384TIP3    H119095   0.584   7.671   0.480
 6384TIP3    H219096   0.490   7.562   0.526
 6385TIP3   OH219097   0.322   5.341   4.775
 6385TIP3    H119098   0.339   5.398   4.850
 6385TIP3    H219099   0.409   5.310   4.749
 6386TIP3   OH219100   6.995   1.231   1.740
 6386TIP3    H119101   6.971   1.295   1.672
 6386TIP3    H219102   6.912   1.190   1.764
 6387TIP3   OH219103   7.932   2.014   1.633
 6387TIP3    H119104   7.977   2.051   1.557
 6387TIP3    H219105   7.906   2.090   1.685
 6388TIP3   OH219106   3.102   2.604   0.368
 6388TIP3    H119107   3.074   2.692   0.345
 6388TIP3    H219108   3.141   2.569   0.287
 6389TIP3   OH219109   1.174   5.063   5.323
 6389TIP3    H119110   1.205   5.067   5.233
 6389TIP3    H219111   1.126   5.145   5.336
 6390TIP3   OH219112   0.320   4.276   0.569
 6390TIP3    H119113   0.351   4.238   0.487
 6390TIP3    H219114   0.397   4.276   0.626
 6391TIP3   OH219115   7.529   0.304  -0.028
 6391TIP3    H119116   7.524   0.209  -0.024
 6391TIP3    H219117   7.619   0.325  -0.003
 6392TIP3   OH219118   7.256   1.982   4.389
 6392TIP3    H119119   7.225   2.016   4.473
 6392TIP3    H219120   7.192   1.914   4.365
 6393TIP3   OH219121   0.669   2.150   5.412
 6393TIP3    H119122   0.607   2.214   5.447
 6393TIP3    H219123   0.613   2.081   5.375
 6394TIP3   OH219124   6.907   3.548   2.468
 6394TIP3    H119125   6.912   3.637   2.506
 6394TIP3    H219126   6.822   3.515   2.497
 6395TIP3   OH219127   2.002   4.191   6.455
 6395TIP3    H119128   2.007   4.189   6.551
 6395TIP3    H219129   1.926   4.138   6.434
 6396TIP3   OH219130   0.305   4.634   2.952
 6396TIP3    H119131   0.227   4.579   2.946
 6396TIP3    H219132   0.339   4.637   2.862
 6397TIP3   OH219133   2.240   1.879   1.506
 6397TIP3    H119134   2.221   1.959   1.556
 6397TIP3    H219135   2.267   1.815   1.572
 6398TIP3   OH219136   2.725   1.513   1.687
 6398TIP3    H119137   2.660   1.443   1.693
 6398TIP3    H219138   2.768   1.513   1.773
 6399TIP3   OH219139   8.043   0.867   2.281
 6399TIP3    H119140   8.021   0.793   2.337
 6399TIP3    H219141   7.984   0.860   2.206
 6400TIP3   OH219142   4.852   6.166   3.666
 6400TIP3    H119143   4.908   6.243   3.661
 6400TIP3    H219144   4.801   6.168   3.585
 6401TIP3   OH219145   7.426   4.631   6.142
 6401TIP3    H119146   7.446   4.675   6.060
 6401TIP3    H219147   7.342   4.588   6.126
 6402TIP3   OH219148   5.632   2.938   5.302
 6402TIP3    H119149   5.688   3.016   5.301
 6402TIP3    H219150   5.555   2.963   5.251
 6403TIP3   OH219151   1.643   6.419   3.377
 6403TIP3    H119152   1.721   6.370   3.350
 6403TIP3    H219153   1.674   6.476   3.447
 6404TIP3   OH219154   7.152   0.365   5.208
 6404TIP3    H119155   7.219   0.330   5.266
 6404TIP3    H219156   7.199   0.390   5.128
 6405TIP3   OH219157   2.804   3.529   3.796
 6405TIP3    H119158   2.843   3.535   3.709
 6405TIP3    H219159   2.713   3.555   3.784
 6406TIP3   OH219160   3.191   6.703   5.744
 6406TIP3    H119161   3.136   6.634   5.782
 6406TIP3    H219162   3.258   6.655   5.695
 6407TIP3   OH219163   4.357   6.098   4.346
 6407TIP3    H119164   4.345   6.119   4.253
 6407TIP3    H219165   4.282   6.138   4.390
 6408TIP3   OH219166   0.598   6.020   1.994
 6408TIP3    H119167   0.584   5.993   1.904
 6408TIP3    H219168   0.665   6.088   1.988
 6409TIP3   OH219169   4.525   5.430   4.728
 6409TIP3    H119170   4.499   5.448   4.637
 6409TIP3    H219171   4.558   5.340   4.725
 6410TIP3   OH219172   1.139   7.409   0.398
 6410TIP3    H119173   1.143   7.324   0.441
 6410TIP3    H219174   1.171   7.392   0.309
 6411TIP3   OH219175   5.714   0.689   2.830
 6411TIP3    H119176   5.740   0.716   2.918
 6411TIP3    H219177   5.782   0.725   2.773
 6412TIP3   OH219178   5.370   4.148   6.256
 6412TIP3    H119179   5.457   4.114   6.237
 6412TIP3    H219180   5.327   4.079   6.306
 6413TIP3   OH219181   4.262   1.946   6.305
 6413TIP3    H119182   4.301   1.875   6.357
 6413TIP3    H219183   4.204   1.901   6.244
 6414TIP3   OH219184   3.530   7.299   1.816
 6414TIP3    H119185   3.447   7.313   1.863
 6414TIP3    H219186   3.560   7.388   1.795
 6415TIP3   OH219187   8.240   2.818   2.427
 6415TIP3    H119188   8.320   2.866   2.451
 6415TIP3    H219189   8.269   2.752   2.364
 6416TIP3   OH219190   4.394   1.772   2.518
 6416TIP3    H119191   4.448   1.791   2.595
 6416TIP3    H219192   4.333   1.705   2.547
 6417TIP3   OH219193   1.067   4.591   3.699
 6417TIP3    H119194   1.038   4.567   3.787
 6417TIP3    H219195   0.994   4.566   3.642
 6418TIP3   OH219196   2.172   3.117   6.267
 6418TIP3    H119197   2.190   3.116   6.361
 6418TIP3    H219198   2.190   3.028   6.238
 6419TIP3   OH219199   4.788   3.872   6.524
 6419TIP3    H119200   4.767   3.779   6.520
 6419TIP3    H219201   4.816   3.886   6.615
 6420TIP3   OH219202   5.991   2.500   2.467
 6420TIP3    H119203   5.957   2.585   2.438
 6420TIP3    H219204   5.960   2.492   2.558
 6421TIP3   OH219205   3.337   6.006   5.765
 6421TIP3    H119206   3.358   6.037   5.853
 6421TIP3    H219207   3.299   5.919   5.779
 6422TIP3   OH219208   6.938   3.898   4.950
 6422TIP3    H119209   6.875   3.837   4.912
 6422TIP3    H219210   7.023   3.863   4.925
 6423TIP3   OH219211   5.598   7.604   2.238
 6423TIP3    H119212   5.687   7.618   2.207
 6423TIP3    H219213   5.575   7.517   2.206
 6424TIP3   OH219214   4.687   1.183   2.784
 6424TIP3    H119215   4.712   1.185   2.692
 6424TIP3    H219216   4.770   1.184   2.831
 6425TIP3   OH219217   3.499   5.323   0.212
 6425TIP3    H119218   3.490   5.417   0.203
 6425TIP3    H219219   3.538   5.294   0.129
 6426TIP3   OH219220   7.962   0.548   1.779
 6426TIP3    H119221   7.974   0.465   1.826
 6426TIP3    H219222   7.998   0.532   1.692
 6427TIP3   OH219223   3.206   4.213   4.997
 6427TIP3    H119224   3.261   4.234   5.072
 6427TIP3    H219225   3.229   4.279   4.931
 6428TIP3   OH219226   3.920   5.234   2.056
 6428TIP3    H119227   3.852   5.169   2.077
 6428TIP3    H219228   3.871   5.307   2.018
 6429TIP3   OH219229   6.817   7.284   2.773
 6429TIP3    H119230   6.759   7.313   2.703
 6429TIP3    H219231   6.903   7.319   2.749
 6430TIP3   OH219232   6.374   3.442   2.608
 6430TIP3    H119233   6.380   3.354   2.572
 6430TIP3    H219234   6.281   3.460   2.612
 6431TIP3   OH219235   1.408   1.042   3.851
 6431TIP3    H119236   1.377   1.059   3.940
 6431TIP3    H219237   1.501   1.023   3.861
 6432TIP3   OH219238   2.132   6.682   1.750
 6432TIP3    H119239   2.187   6.605   1.733
 6432TIP3    H219240   2.194   6.755   1.757
 6433TIP3   OH219241   4.985   7.009   4.522
 6433TIP3    H119242   5.068   7.057   4.526
 6433TIP3    H219243   4.941   7.032   4.604
 6434TIP3   OH219244   1.868   6.662   4.595
 6434TIP3    H119245   1.903   6.643   4.682
 6434TIP3    H219246   1.939   6.709   4.550
 6435TIP3   OH219247   3.083   1.182   6.233
 6435TIP3    H119248   3.126   1.256   6.275
 6435TIP3    H219249   3.020   1.151   6.298
 6436TIP3   OH219250   3.880   2.014   4.372
 6436TIP3    H119251   3.958   2.037   4.321
 6436TIP3    H219252   3.905   2.026   4.463
 6437TIP3   OH219253   7.726   7.184   2.733
 6437TIP3    H119254   7.656   7.158   2.792
 6437TIP3    H219255   7.699   7.270   2.700
 6438TIP3   OH219256   5.601   3.535   1.911
 6438TIP3    H119257   5.516   3.517   1.873
 6438TIP3    H219258   5.664   3.516   1.842
 6439TIP3   OH219259   6.638   0.131   0.205
 6439TIP3    H119260   6.682   0.110   0.288
 6439TIP3    H219261   6.702   0.183   0.157
 6440TIP3   OH219262   6.938   0.745   4.001
 6440TIP3    H119263   6.878   0.671   4.013
 6440TIP3    H219264   6.940   0.760   3.907
 6441TIP3   OH219265   8.010   6.142   2.040
 6441TIP3    H119266   8.053   6.148   1.955
 6441TIP3    H219267   8.056   6.206   2.094
 6442TIP3   OH219268   6.744   1.155   2.110
 6442TIP3    H119269   6.659   1.198   2.122
 6442TIP3    H219270   6.800   1.198   2.175
 6443TIP3   OH219271   6.172   7.573   1.690
 6443TIP3    H119272   6.195   7.537   1.776
 6443TIP3    H219273   6.151   7.497   1.636
 6444TIP3   OH219274   6.546   0.114   3.364
 6444TIP3    H119275   6.640   0.132   3.373
 6444TIP3    H219276   6.519   0.082   3.449
 6445TIP3   OH219277   1.625   1.285   4.793
 6445TIP3    H119278   1.702   1.270   4.740
 6445TIP3    H219279   1.643   1.367   4.839
 6446TIP3   OH219280   6.695   4.001   2.713
 6446TIP3    H119281   6.782   4.014   2.675
 6446TIP3    H219282   6.712   3.974   2.803
 6447TIP3   OH219283   7.093   1.477   2.503
 6447TIP3    H119284   7.048   1.554   2.537
 6447TIP3    H219285   7.109   1.497   2.411
 6448TIP3   OH219286   6.100   6.021   6.638
 6448TIP3    H119287   6.004   6.017   6.632
 6448TIP3    H219288   6.130   5.955   6.576
 6449TIP3   OH219289   2.450   5.247   6.622
 6449TIP3    H119290   2.493   5.221   6.541
 6449TIP3    H219291   2.432   5.165   6.667
 6450TIP3   OH219292   7.529   5.361   0.526
 6450TIP3    H119293   7.604   5.416   0.546
 6450TIP3    H219294   7.511   5.314   0.607
 6451TIP3   OH219295   6.538   5.596   5.100
 6451TIP3    H119296   6.595   5.615   5.025
 6451TIP3    H219297   6.529   5.680   5.145
 6452TIP3   OH219298   3.482   5.643   4.619
 6452TIP3    H119299   3.574   5.660   4.641
 6452TIP3    H219300   3.483   5.559   4.574
 6453TIP3   OH219301   1.918   1.408   3.103
 6453TIP3    H119302   1.910   1.361   3.020
 6453TIP3    H219303   1.932   1.499   3.078
 6454TIP3   OH219304   3.909   7.472   4.384
 6454TIP3    H119305   3.898   7.449   4.476
 6454TIP3    H219306   3.985   7.529   4.382
 6455TIP3   OH219307   5.995   1.537   3.933
 6455TIP3    H119308   6.081   1.500   3.913
 6455TIP3    H219309   6.007   1.579   4.018
 6456TIP3   OH219310   7.544   2.253   0.898
 6456TIP3    H119311   7.462   2.216   0.930
 6456TIP3    H219312   7.612   2.206   0.946
 6457TIP3   OH219313   7.709   2.031   2.826
 6457TIP3    H119314   7.658   1.998   2.900
 6457TIP3    H219315   7.676   1.981   2.750
 6458TIP3   OH219316   3.882   2.055   5.952
 6458TIP3    H119317   3.803   2.028   5.906
 6458TIP3    H219318   3.926   2.117   5.892
 6459TIP3   OH219319   4.936   0.352   6.434
 6459TIP3    H119320   4.922   0.424   6.496
 6459TIP3    H219321   5.006   0.382   6.377
 6460TIP3   OH219322   0.245   5.222   0.381
 6460TIP3    H119323   0.280   5.133   0.392
 6460TIP3    H219324   0.253   5.239   0.287
 6461TIP3   OH219325   6.706   2.681   3.043
 6461TIP3    H119326   6.723   2.633   2.962
 6461TIP3    H219327   6.756   2.634   3.110
 6462TIP3   OH219328   4.347   4.300   2.356
 6462TIP3    H119329   4.396   4.382   2.361
 6462TIP3    H219330   4.406   4.235   2.396
 6463TIP3   OH219331   6.334   0.845   2.491
 6463TIP3    H119332   6.304   0.764   2.451
 6463TIP3    H219333   6.422   0.860   2.456
 6464TIP3   OH219334   4.242   1.250   2.054
 6464TIP3    H119335   4.267   1.278   2.142
 6464TIP3    H219336   4.262   1.156   2.053
 6465TIP3   OH219337   2.687   7.219   2.299
 6465TIP3    H119338   2.625   7.245   2.368
 6465TIP3    H219339   2.650   7.138   2.263
 6466TIP3   OH219340   0.738   1.661   5.855
 6466TIP3    H119341   0.744   1.705   5.771
 6466TIP3    H219342   0.644   1.650   5.870
 6467TIP3   OH219343   6.682   6.716   1.713
 6467TIP3    H119344   6.715   6.805   1.701
 6467TIP3    H219345   6.620   6.724   1.786
 6468TIP3   OH219346   7.304   5.563   5.482
 6468TIP3    H119347   7.395   5.558   5.455
 6468TIP3    H219348   7.307   5.558   5.578
 6469TIP3   OH219349   8.155   3.295   6.726
 6469TIP3    H119350   8.177   3.357   6.657
 6469TIP3    H219351   8.104   3.346   6.789
 6470TIP3   OH219352   0.380   6.587   3.102
 6470TIP3    H119353   0.322   6.655   3.067
 6470TIP3    H219354   0.392   6.610   3.194
 6471TIP3   OH219355   6.764   5.745   2.854
 6471TIP3    H119356   6.841   5.760   2.908
 6471TIP3    H219357   6.783   5.663   2.808
 6472TIP3   OH219358   0.178   1.166   3.623
 6472TIP3    H119359   0.209   1.157   3.713
 6472TIP3    H219360   0.258   1.181   3.572
 6473TIP3   OH219361   5.430   0.695   3.631
 6473TIP3    H119362   5.381   0.758   3.683
 6473TIP3    H219363   5.481   0.748   3.569
 6474TIP3   OH219364   4.838   5.884   1.139
 6474TIP3    H119365   4.860   5.896   1.231
 6474TIP3    H219366   4.769   5.947   1.122
 6475TIP3   OH219367   3.443   4.243   3.169
 6475TIP3    H119368   3.426   4.337   3.170
 6475TIP3    H219369   3.537   4.235   3.159
 6476TIP3   OH219370   7.681   6.534   3.894
 6476TIP3    H119371   7.634   6.605   3.938
 6476TIP3    H219372   7.716   6.573   3.814
 6477TIP3   OH219373   7.705   0.563   5.802
 6477TIP3    H119374   7.789   0.601   5.827
 6477TIP3    H219375   7.677   0.514   5.880
 6478TIP3   OH219376   1.093   1.629   5.339
 6478TIP3    H119377   1.057   1.716   5.356
 6478TIP3    H219378   1.018   1.570   5.343
 6479TIP3   OH219379   5.646   6.657   4.444
 6479TIP3    H119380   5.650   6.605   4.524
 6479TIP3    H219381   5.683   6.600   4.376
 6480TIP3   OH219382   2.376   1.032   1.728
 6480TIP3    H119383   2.386   0.970   1.800
 6480TIP3    H219384   2.465   1.055   1.703
 6481TIP3   OH219385   2.709   1.889   3.381
 6481TIP3    H119386   2.644   1.895   3.451
 6481TIP3    H219387   2.790   1.919   3.421
 6482TIP3   OH219388   2.226   3.212   4.186
 6482TIP3    H119389   2.149   3.259   4.218
 6482TIP3    H219390   2.251   3.153   4.257
 6483TIP3   OH219391   2.828   3.976   5.991
 6483TIP3    H119392   2.803   3.980   6.084
 6483TIP3    H219393   2.785   4.051   5.951
 6484TIP3   OH219394   6.939   0.931   5.766
 6484TIP3    H119395   7.011   0.895   5.818
 6484TIP3    H219396   6.971   0.926   5.675
 6485TIP3   OH219397   2.361   7.377   6.201
 6485TIP3    H119398   2.384   7.284   6.204
 6485TIP3    H219399   2.360   7.404   6.293
 6486TIP3   OH219400   2.001   1.252   3.882
 6486TIP3    H119401   2.050   1.170   3.884
 6486TIP3    H219402   1.943   1.248   3.958
 6487TIP3   OH219403   2.256   1.127   6.304
 6487TIP3    H119404   2.331   1.137   6.363
 6487TIP3    H219405   2.181   1.114   6.362
 6488TIP3   OH219406   0.770   1.027   0.283
 6488TIP3    H119407   0.833   1.099   0.279
 6488TIP3    H219408   0.769   1.001   0.375
 6489TIP3   OH219409   7.028   0.598   6.442
 6489TIP3    H119410   7.059   0.629   6.357
 6489TIP3    H219411   6.962   0.661   6.469
 6490TIP3   OH219412   3.491   4.616   4.748
 6490TIP3    H119413   3.470   4.701   4.785
 6490TIP3    H219414   3.418   4.597   4.688
 6491TIP3   OH219415   4.841   5.360   0.925
 6491TIP3    H119416   4.753   5.332   0.951
 6491TIP3    H219417   4.836   5.456   0.926
 6492TIP3   OH219418   7.189   5.449   4.272
 6492TIP3    H119419   7.208   5.391   4.345
 6492TIP3    H219420   7.149   5.526   4.312
 6493TIP3   OH219421   7.767   6.298   3.999
 6493TIP3    H119422   7.725   6.370   3.953
 6493TIP3    H219423   7.858   6.300   3.970
 6494TIP3   OH219424   0.818   4.513   5.240
 6494TIP3    H119425   0.751   4.457   5.278
 6494TIP3    H219426   0.870   4.454   5.185
 6495TIP3   OH219427   1.687   6.141   4.643
 6495TIP3    H119428   1.683   6.133   4.547
 6495TIP3    H219429   1.678   6.235   4.659
 6496TIP3   OH219430   5.046   3.785   3.958
 6496TIP3    H119431   5.004   3.785   4.044
 6496TIP3    H219432   4.994   3.722   3.907
 6497TIP3   OH219433   0.596   2.335   6.173
 6497TIP3    H119434   0.505   2.341   6.144
 6497TIP3    H219435   0.596   2.264   6.237
 6498TIP3   OH219436   0.123   0.987   0.734
 6498TIP3    H119437   0.215   0.986   0.760
 6498TIP3    H219438   0.075   0.973   0.815
 6499TIP3   OH219439   1.155   5.886   6.361
 6499TIP3    H119440   1.122   5.915   6.276
 6499TIP3    H219441   1.078   5.883   6.417
 6500TIP3   OH219442   4.848   6.208   6.612
 6500TIP3    H119443   4.883   6.150   6.544
 6500TIP3    H219444   4.915   6.274   6.624
 6501TIP3   OH219445   1.169   7.472   3.929
 6501TIP3    H119446   1.167   7.447   3.836
 6501TIP3    H219447   1.081   7.452   3.961
 6502TIP3   OH219448   0.993   1.120   3.207
 6502TIP3    H119449   1.041   1.198   3.179
 6502TIP3    H219450   1.053   1.074   3.265
 6503TIP3   OH219451   8.126   2.404   3.606
 6503TIP3    H119452   8.096   2.313   3.605
 6503TIP3    H219453   8.219   2.398   3.631
 6504TIP3   OH219454   4.594   3.213   5.376
 6504TIP3    H119455   4.637   3.277   5.433
 6504TIP3    H219456   4.652   3.137   5.377
 6505TIP3   OH219457   4.954   3.758   3.084
 6505TIP3    H119458   5.016   3.807   3.138
 6505TIP3    H219459   4.891   3.824   3.055
 6506TIP3   OH219460   4.266   6.488   1.594
 6506TIP3    H119461   4.245   6.395   1.584
 6506TIP3    H219462   4.276   6.521   1.505
 6507TIP3   OH219463   0.066   1.851   3.897
 6507TIP3    H119464   0.066   1.789   3.825
 6507TIP3    H219465   0.158   1.856   3.924
 6508TIP3   OH219466   6.706   5.528   4.440
 6508TIP3    H119467   6.673   5.589   4.505
 6508TIP3    H219468   6.646   5.539   4.365
 6509TIP3   OH219469   4.916   1.584   2.570
 6509TIP3    H119470   4.973   1.511   2.545
 6509TIP3    H219471   4.908   1.577   2.665
 6510TIP3   OH219472   3.305   7.736   3.342
 6510TIP3    H119473   3.360   7.808   3.310
 6510TIP3    H219474   3.302   7.748   3.437
 6511TIP3   OH219475   8.077   5.693   5.400
 6511TIP3    H119476   8.134   5.759   5.361
 6511TIP3    H219477   8.110   5.683   5.490
 6512TIP3   OH219478   4.631   1.615   5.207
 6512TIP3    H119479   4.710   1.637   5.156
 6512TIP3    H219480   4.558   1.641   5.150
 6513TIP3   OH219481   6.246   5.119   2.373
 6513TIP3    H119482   6.304   5.060   2.325
 6513TIP3    H219483   6.160   5.106   2.335
 6514TIP3   OH219484   4.156   3.574   4.091
 6514TIP3    H119485   4.202   3.625   4.025
 6514TIP3    H219486   4.198   3.599   4.174
 6515TIP3   OH219487   6.028   4.006   6.669
 6515TIP3    H119488   5.947   4.049   6.698
 6515TIP3    H219489   6.029   4.017   6.574
 6516TIP3   OH219490   6.344   4.320   1.132
 6516TIP3    H119491   6.367   4.228   1.146
 6516TIP3    H219492   6.286   4.342   1.205
 6517TIP3   OH219493   3.409   3.978   1.193
 6517TIP3    H119494   3.479   4.033   1.156
 6517TIP3    H219495   3.347   4.040   1.230
 6518TIP3   OH219496   3.728   3.600   4.954
 6518TIP3    H119497   3.821   3.615   4.969
 6518TIP3    H219498   3.723   3.550   4.873
 6519TIP3   OH219499   6.319   5.439   4.144
 6519TIP3    H119500   6.388   5.373   4.132
 6519TIP3    H219501   6.251   5.394   4.194
 6520TIP3   OH219502   7.316   4.617   3.029
 6520TIP3    H119503   7.296   4.550   3.094
 6520TIP3    H219504   7.232   4.660   3.013
 6521TIP3   OH219505   7.813   7.354   4.562
 6521TIP3    H119506   7.876   7.347   4.490
 6521TIP3    H219507   7.727   7.346   4.520
 6522TIP3   OH219508   2.700   0.035   5.484
 6522TIP3    H119509   2.755  -0.001   5.414
 6522TIP3    H219510   2.695  -0.036   5.548
 6523TIP3   OH219511   3.720   4.872   5.063
 6523TIP3    H119512   3.812   4.879   5.089
 6523TIP3    H219513   3.672   4.864   5.145
 6524TIP3   OH219514   7.129   7.787   0.654
 6524TIP3    H119515   7.077   7.861   0.684
 6524TIP3    H219516   7.070   7.738   0.596
 6525TIP3   OH219517   7.243   5.476   3.331
 6525TIP3    H119518   7.291   5.546   3.285
 6525TIP3    H219519   7.190   5.435   3.263
 6526TIP3   OH219520   1.224   2.391   5.982
 6526TIP3    H119521   1.205   2.484   5.979
 6526TIP3    H219522   1.264   2.372   5.896
 6527TIP3   OH219523   5.468   6.799   2.651
 6527TIP3    H119524   5.502   6.813   2.739
 6527TIP3    H219525   5.411   6.874   2.635
 6528TIP3   OH219526   3.673   1.104   2.313
 6528TIP3    H119527   3.685   1.138   2.402
 6528TIP3    H219528   3.603   1.157   2.277
 6529TIP3   OH219529   2.087   5.164   3.942
 6529TIP3    H119530   2.004   5.119   3.924
 6529TIP3    H219531   2.114   5.200   3.857
 6530TIP3   OH219532   7.432   3.393   1.666
 6530TIP3    H119533   7.473   3.433   1.589
 6530TIP3    H219534   7.403   3.467   1.719
 6531TIP3   OH219535   1.302   0.213   1.206
 6531TIP3    H119536   1.209   0.223   1.187
 6531TIP3    H219537   1.309   0.132   1.255
 6532TIP3   OH219538   1.663   7.651   4.342
 6532TIP3    H119539   1.581   7.685   4.307
 6532TIP3    H219540   1.696   7.720   4.399
 6533TIP3   OH219541   1.680   0.215   1.820
 6533TIP3    H119542   1.593   0.196   1.855
 6533TIP3    H219543   1.674   0.189   1.727
 6534TIP3   OH219544   0.597   3.288   5.522
 6534TIP3    H119545   0.581   3.236   5.601
 6534TIP3    H219546   0.541   3.365   5.532
 6535TIP3   OH219547   2.825   5.105   1.936
 6535TIP3    H119548   2.758   5.126   2.001
 6535TIP3    H219549   2.886   5.179   1.942
 6536TIP3   OH219550   0.955   1.761   4.091
 6536TIP3    H119551   0.959   1.681   4.039
 6536TIP3    H219552   0.992   1.737   4.176
 6537TIP3   OH219553   7.564   7.542   5.882
 6537TIP3    H119554   7.482   7.575   5.919
 6537TIP3    H219555   7.601   7.618   5.837
 6538TIP3   OH219556   0.496   1.578   5.744
 6538TIP3    H119557   0.429   1.590   5.677
 6538TIP3    H219558   0.448   1.575   5.826
 6539TIP3   OH219559   6.500   3.464   0.487
 6539TIP3    H119560   6.553   3.505   0.555
 6539TIP3    H219561   6.420   3.438   0.531
 6540TIP3   OH219562   6.648   0.522   5.149
 6540TIP3    H119563   6.591   0.463   5.100
 6540TIP3    H219564   6.729   0.473   5.161
 6541TIP3   OH219565   6.645   4.656   2.205
 6541TIP3    H119566   6.609   4.573   2.172
 6541TIP3    H219567   6.740   4.643   2.204
 6542TIP3   OH219568   6.088   7.773   6.450
 6542TIP3    H119569   6.125   7.740   6.533
 6542TIP3    H219570   6.068   7.865   6.468
 6543TIP3   OH219571   6.840   3.365   3.766
 6543TIP3    H119572   6.858   3.446   3.717
 6543TIP3    H219573   6.860   3.388   3.856
 6544TIP3   OH219574   7.503   5.871   5.441
 6544TIP3    H119575   7.461   5.801   5.391
 6544TIP3    H219576   7.504   5.946   5.381
 6545TIP3   OH219577   0.775   4.493   1.303
 6545TIP3    H119578   0.826   4.447   1.236
 6545TIP3    H219579   0.822   4.476   1.384
 6546TIP3   OH219580   3.152   4.575   4.939
 6546TIP3    H119581   3.208   4.508   4.899
 6546TIP3    H219582   3.068   4.567   4.894
 6547TIP3   OH219583   1.662   3.160   2.213
 6547TIP3    H119584   1.667   3.256   2.213
 6547TIP3    H219585   1.628   3.138   2.300
 6548TIP3   OH219586   1.424   2.197   5.558
 6548TIP3    H119587   1.412   2.138   5.633
 6548TIP3    H219588   1.417   2.139   5.482
 6549TIP3   OH219589   4.394   3.526   0.257
 6549TIP3    H119590   4.405   3.467   0.332
 6549TIP3    H219591   4.409   3.613   0.292
 6550TIP3   OH219592   2.201   1.706   0.586
 6550TIP3    H119593   2.144   1.703   0.509
 6550TIP3    H219594   2.240   1.793   0.583
 6551TIP3   OH219595   7.524   2.623   4.321
 6551TIP3    H119596   7.544   2.562   4.392
 6551TIP3    H219597   7.572   2.590   4.246
 6552TIP3   OH219598   1.338   6.100   6.379
 6552TIP3    H119599   1.299   6.014   6.360
 6552TIP3    H219600   1.414   6.080   6.434
 6553TIP3   OH219601   3.343   4.076   4.277
 6553TIP3    H119602   3.437   4.087   4.267
 6553TIP3    H219603   3.318   4.145   4.339
 6554TIP3   OH219604   3.953   4.942   0.837
 6554TIP3    H119605   3.894   5.017   0.834
 6554TIP3    H219606   3.925   4.893   0.915
 6555TIP3   OH219607   5.252   5.420   4.140
 6555TIP3    H119608   5.292   5.420   4.227
 6555TIP3    H219609   5.317   5.463   4.084
 6556TIP3   OH219610   4.587   6.118   3.203
 6556TIP3    H119611   4.658   6.053   3.212
 6556TIP3    H219612   4.628   6.201   3.227
 6557TIP3   OH219613   3.432   4.501   3.919
 6557TIP3    H119614   3.345   4.533   3.898
 6557TIP3    H219615   3.449   4.433   3.853
 6558TIP3   OH219616   0.331   3.833   2.995
 6558TIP3    H119617   0.328   3.884   3.075
 6558TIP3    H219618   0.394   3.878   2.939
 6559TIP3   OH219619   0.668   1.010   5.196
 6559TIP3    H119620   0.648   0.927   5.239
 6559TIP3    H219621   0.609   1.014   5.121
 6560TIP3   OH219622   1.035   1.569   4.594
 6560TIP3    H119623   1.074   1.598   4.677
 6560TIP3    H219624   1.023   1.474   4.605
 6561TIP3   OH219625   1.710   7.408   2.965
 6561TIP3    H119626   1.627   7.364   2.946
 6561TIP3    H219627   1.775   7.358   2.916
 6562TIP3   OH219628   7.015   0.932   3.212
 6562TIP3    H119629   7.043   0.983   3.136
 6562TIP3    H219630   6.985   0.997   3.275
 6563TIP3   OH219631   6.678   3.900   1.083
 6563TIP3    H119632   6.592   3.933   1.059
 6563TIP3    H219633   6.695   3.830   1.020
 6564TIP3   OH219634   7.031   0.974   0.657
 6564TIP3    H119635   7.121   1.009   0.656
 6564TIP3    H219636   6.983   1.035   0.714
 6565TIP3   OH219637   7.634   2.361   3.043
 6565TIP3    H119638   7.563   2.299   3.022
 6565TIP3    H219639   7.695   2.351   2.970
 6566TIP3   OH219640   7.683   5.486   1.386
 6566TIP3    H119641   7.632   5.562   1.413
 6566TIP3    H219642   7.619   5.416   1.377
 6567TIP3   OH219643   6.845   5.597   0.102
 6567TIP3    H119644   6.858   5.621   0.010
 6567TIP3    H219645   6.784   5.663   0.136
 6568TIP3   OH219646   1.802   7.626   2.373
 6568TIP3    H119647   1.879   7.613   2.317
 6568TIP3    H219648   1.837   7.631   2.462
 6569TIP3   OH219649   4.542   4.607   5.134
 6569TIP3    H119650   4.619   4.550   5.134
 6569TIP3    H219651   4.483   4.568   5.069
 6570TIP3   OH219652   6.975   7.625   5.161
 6570TIP3    H119653   6.908   7.693   5.154
 6570TIP3    H219654   7.044   7.664   5.214
 6571TIP3   OH219655   6.905   7.014   1.264
 6571TIP3    H119656   6.925   7.090   1.319
 6571TIP3    H219657   6.869   7.051   1.184
 6572TIP3   OH219658   8.059   2.089   2.291
 6572TIP3    H119659   7.975   2.051   2.266
 6572TIP3    H219660   8.105   2.017   2.335
 6573TIP3   OH219661   4.897   0.080   2.777
 6573TIP3    H119662   4.904   0.105   2.869
 6573TIP3    H219663   4.980   0.038   2.757
 6574TIP3   OH219664   8.126   0.859   4.989
 6574TIP3    H119665   8.061   0.925   4.965
 6574TIP3    H219666   8.206   0.909   5.005
 6575TIP3   OH219667   4.266   3.121   0.674
 6575TIP3    H119668   4.358   3.144   0.685
 6575TIP3    H219669   4.242   3.160   0.590
 6576TIP3   OH219670   6.113   6.518   1.609
 6576TIP3    H119671   6.174   6.499   1.538
 6576TIP3    H219672   6.043   6.453   1.597
 6577TIP3   OH219673   6.666   6.655   4.925
 6577TIP3    H119674   6.610   6.661   5.003
 6577TIP3    H219675   6.749   6.694   4.952
 6578TIP3   OH219676   4.249   0.302   2.086
 6578TIP3    H119677   4.246   0.394   2.060
 6578TIP3    H219678   4.274   0.304   2.178
 6579TIP3   OH219679   2.470   5.240   4.184
 6579TIP3    H119680   2.460   5.292   4.104
 6579TIP3    H219681   2.400   5.175   4.180
 6580TIP3   OH219682   2.213   2.126   0.391
 6580TIP3    H119683   2.159   2.050   0.415
 6580TIP3    H219684   2.212   2.182   0.469
 6581TIP3   OH219685   5.886   6.374   5.608
 6581TIP3    H119686   5.821   6.371   5.677
 6581TIP3    H219687   5.969   6.356   5.652
 6582TIP3   OH219688   1.055   4.412   1.903
 6582TIP3    H119689   1.056   4.508   1.909
 6582TIP3    H219690   0.962   4.389   1.913
 6583TIP3   OH219691   5.837   5.610   3.126
 6583TIP3    H119692   5.843   5.597   3.220
 6583TIP3    H219693   5.771   5.679   3.115
 6584TIP3   OH219694   1.994   5.772   0.182
 6584TIP3    H119695   1.924   5.739   0.126
 6584TIP3    H219696   2.068   5.783   0.123
 6585TIP3   OH219697   0.772   1.958   5.180
 6585TIP3    H119698   0.860   1.976   5.148
 6585TIP3    H219699   0.728   2.044   5.179
 6586TIP3   OH219700   8.292   7.620   1.511
 6586TIP3    H119701   8.241   7.541   1.531
 6586TIP3    H219702   8.328   7.603   1.423
 6587TIP3   OH219703   4.006   3.563   4.998
 6587TIP3    H119704   3.986   3.644   5.045
 6587TIP3    H219705   4.018   3.498   5.067
 6588TIP3   OH219706   0.527   0.731   4.901
 6588TIP3    H119707   0.544   0.813   4.948
 6588TIP3    H219708   0.614   0.694   4.885
 6589TIP3   OH219709   7.407   2.475   2.031
 6589TIP3    H119710   7.445   2.454   2.116
 6589TIP3    H219711   7.383   2.568   2.038
 6590TIP3   OH219712   7.940   7.323   2.080
 6590TIP3    H119713   7.868   7.386   2.079
 6590TIP3    H219714   7.936   7.284   2.168
 6591TIP3   OH219715   6.858   7.056   5.747
 6591TIP3    H119716   6.851   7.065   5.652
 6591TIP3    H219717   6.871   7.145   5.779
 6592TIP3   OH219718   3.035   3.938   5.466
 6592TIP3    H119719   2.969   3.944   5.397
 6592TIP3    H219720   3.024   3.850   5.502
 6593TIP3   OH219721   5.112   0.123   3.909
 6593TIP3    H119722   5.192   0.176   3.905
 6593TIP3    H219723   5.128   0.061   3.980
 6594TIP3   OH219724   5.348   1.152   3.081
 6594TIP3    H119725   5.426   1.109   3.047
 6594TIP3    H219726   5.323   1.214   3.012
 6595TIP3   OH219727   1.665   3.555   4.763
 6595TIP3    H119728   1.738   3.614   4.744
 6595TIP3    H219729   1.597   3.580   4.702
 6596TIP3   OH219730   1.934   2.788   1.074
 6596TIP3    H119731   1.902   2.699   1.060
 6596TIP3    H219732   2.027   2.784   1.051
 6597TIP3   OH219733   2.588   6.603   5.775
 6597TIP3    H119734   2.663   6.544   5.768
 6597TIP3    H219735   2.597   6.644   5.860
 6598TIP3   OH219736   2.192   6.647   5.459
 6598TIP3    H119737   2.160   6.577   5.516
 6598TIP3    H219738   2.287   6.636   5.459
 6599TIP3   OH219739   0.127   0.252   4.755
 6599TIP3    H119740   0.148   0.167   4.792
 6599TIP3    H219741   0.083   0.299   4.825
 6600TIP3   OH219742   1.777   0.381   4.283
 6600TIP3    H119743   1.864   0.342   4.290
 6600TIP3    H219744   1.788   0.470   4.317
 6601TIP3   OH219745   5.412   0.537   4.974
 6601TIP3    H119746   5.383   0.466   4.917
 6601TIP3    H219747   5.346   0.539   5.044
 6602TIP3   OH219748   6.032   1.466   6.747
 6602TIP3    H119749   6.078   1.384   6.729
 6602TIP3    H219750   6.099   1.523   6.784
 6603TIP3   OH219751   6.011   6.459   5.352
 6603TIP3    H119752   5.982   6.421   5.435
 6603TIP3    H219753   6.073   6.394   5.317
 6604TIP3   OH219754   2.369   7.636   5.486
 6604TIP3    H119755   2.404   7.558   5.530
 6604TIP3    H219756   2.347   7.606   5.398
 6605TIP3   OH219757   4.938   4.138   3.432
 6605TIP3    H119758   4.849   4.154   3.399
 6605TIP3    H219759   4.955   4.046   3.411
 6606TIP3   OH219760   4.914   2.656   3.873
 6606TIP3    H119761   4.946   2.678   3.786
 6606TIP3    H219762   4.844   2.593   3.858
 6607TIP3   OH219763   3.794   0.782   3.534
 6607TIP3    H119764   3.837   0.858   3.573
 6607TIP3    H219765   3.722   0.762   3.593
 6608TIP3   OH219766   4.752   2.714   2.492
 6608TIP3    H119767   4.723   2.730   2.581
 6608TIP3    H219768   4.778   2.622   2.492
 6609TIP3   OH219769   4.188   0.313   0.087
 6609TIP3    H119770   4.206   0.384   0.026
 6609TIP3    H219771   4.271   0.266   0.094
 6610TIP3   OH219772   2.689   1.710   1.173
 6610TIP3    H119773   2.730   1.763   1.105
 6610TIP3    H219774   2.701   1.620   1.143
 6611TIP3   OH219775   7.762   2.577   0.272
 6611TIP3    H119776   7.705   2.506   0.302
 6611TIP3    H219777   7.820   2.593   0.346
 6612TIP3   OH219778   2.355   6.236   0.801
 6612TIP3    H119779   2.403   6.286   0.867
 6612TIP3    H219780   2.379   6.277   0.718
 6613TIP3   OH219781   5.618   1.001   0.572
 6613TIP3    H119782   5.561   1.004   0.649
 6613TIP3    H219783   5.579   1.063   0.510
 6614TIP3   OH219784   3.485   6.644   2.180
 6614TIP3    H119785   3.428   6.567   2.170
 6614TIP3    H219786   3.569   6.617   2.143
 6615TIP3   OH219787   2.611   3.454   2.847
 6615TIP3    H119788   2.673   3.416   2.909
 6615TIP3    H219789   2.595   3.543   2.880
 6616TIP3   OH219790   7.144   1.004   4.771
 6616TIP3    H119791   7.204   1.063   4.725
 6616TIP3    H219792   7.149   0.922   4.722
 6617TIP3   OH219793   6.741   5.992   6.169
 6617TIP3    H119794   6.805   6.019   6.104
 6617TIP3    H219795   6.671   6.058   6.164
 6618TIP3   OH219796   6.558   5.958   0.496
 6618TIP3    H119797   6.636   6.011   0.482
 6618TIP3    H219798   6.580   5.872   0.461
 6619TIP3   OH219799   5.559   7.673   3.229
 6619TIP3    H119800   5.654   7.675   3.233
 6619TIP3    H219801   5.530   7.740   3.291
 6620TIP3   OH219802   7.825   5.039   5.943
 6620TIP3    H119803   7.816   5.134   5.942
 6620TIP3    H219804   7.911   5.024   5.983
 6621TIP3   OH219805   7.667   6.931   0.718
 6621TIP3    H119806   7.594   6.885   0.759
 6621TIP3    H219807   7.737   6.865   0.714
 6622TIP3   OH219808   2.630   3.430   1.622
 6622TIP3    H119809   2.604   3.349   1.666
 6622TIP3    H219810   2.618   3.498   1.688
 6623TIP3   OH219811   4.352   1.994   0.539
 6623TIP3    H119812   4.396   1.909   0.543
 6623TIP3    H219813   4.412   2.054   0.582
 6624TIP3   OH219814   6.943   5.806   1.771
 6624TIP3    H119815   6.885   5.738   1.738
 6624TIP3    H219816   6.917   5.886   1.726
 6625TIP3   OH219817   6.646   5.209   3.596
 6625TIP3    H119818   6.553   5.228   3.609
 6625TIP3    H219819   6.653   5.182   3.504
 6626TIP3   OH219820   7.603   6.351   6.410
 6626TIP3    H119821   7.520   6.397   6.395
 6626TIP3    H219822   7.577   6.271   6.455
 6627TIP3   OH219823   7.405   1.943   4.013
 6627TIP3    H119824   7.421   1.894   4.093
 6627TIP3    H219825   7.310   1.939   4.000
 6628TIP3   OH219826   6.521   2.737   3.760
 6628TIP3    H119827   6.502   2.766   3.671
 6628TIP3    H219828   6.516   2.816   3.813
 6629TIP3   OH219829   0.439   1.677   1.824
 6629TIP3    H119830   0.345   1.677   1.844
 6629TIP3    H219831   0.445   1.716   1.737
 6630TIP3   OH219832   5.310   2.435   1.593
 6630TIP3    H119833   5.357   2.518   1.607
 6630TIP3    H219834   5.270   2.416   1.678
 6631TIP3   OH219835   4.304   0.565   1.987
 6631TIP3    H119836   4.241   0.630   2.017
 6631TIP3    H219837   4.378   0.616   1.955
 6632TIP3   OH219838   7.889   6.160   1.643
 6632TIP3    H119839   7.917   6.251   1.631
 6632TIP3    H219840   7.952   6.109   1.592
 6633TIP3   OH219841   3.572   1.114   3.846
 6633TIP3    H119842   3.520   1.034   3.836
 6633TIP3    H219843   3.519   1.181   3.802
 6634TIP3   OH219844   1.800   0.277   6.660
 6634TIP3    H119845   1.754   0.350   6.701
 6634TIP3    H219846   1.788   0.204   6.721
 6635TIP3   OH219847   4.459   6.897   3.120
 6635TIP3    H119848   4.366   6.898   3.143
 6635TIP3    H219849   4.475   6.982   3.080
 6636TIP3   OH219850   3.349   6.587   4.265
 6636TIP3    H119851   3.290   6.512   4.258
 6636TIP3    H219852   3.327   6.641   4.189
 6637TIP3   OH219853   5.940   7.485   0.610
 6637TIP3    H119854   5.902   7.402   0.639
 6637TIP3    H219855   6.014   7.500   0.670
 6638TIP3   OH219856   2.107   7.436   3.147
 6638TIP3    H119857   2.013   7.429   3.165
 6638TIP3    H219858   2.112   7.451   3.053
 6639TIP3   OH219859   7.630   7.283   2.145
 6639TIP3    H119860   7.676   7.286   2.229
 6639TIP3    H219861   7.542   7.254   2.166
 6640TIP3   OH219862   2.165   2.945   1.241
 6640TIP3    H119863   2.137   2.929   1.331
 6640TIP3    H219864   2.126   3.029   1.218
 6641TIP3   OH219865   3.899   6.716   0.904
 6641TIP3    H119866   3.933   6.675   0.983
 6641TIP3    H219867   3.818   6.760   0.931
 6642TIP3   OH219868   0.184   5.418   4.225
 6642TIP3    H119869   0.258   5.458   4.269
 6642TIP3    H219870   0.185   5.454   4.137
 6643TIP3   OH219871   1.823   3.477   6.044
 6643TIP3    H119872   1.761   3.430   6.100
 6643TIP3    H219873   1.795   3.568   6.049
 6644TIP3   OH219874   1.851   2.495   0.943
 6644TIP3    H119875   1.807   2.518   0.861
 6644TIP3    H219876   1.781   2.465   1.000
 6645TIP3   OH219877   0.418   1.782   1.561
 6645TIP3    H119878   0.323   1.776   1.557
 6645TIP3    H219879   0.444   1.811   1.473
 6646TIP3   OH219880   3.671   3.213   5.627
 6646TIP3    H119881   3.752   3.200   5.578
 6646TIP3    H219882   3.615   3.265   5.568
 6647TIP3   OH219883   1.532   5.373   0.708
 6647TIP3    H119884   1.551   5.380   0.801
 6647TIP3    H219885   1.438   5.356   0.704
 6648TIP3   OH219886   0.433   1.392   1.963
 6648TIP3    H119887   0.481   1.466   1.925
 6648TIP3    H219888   0.344   1.401   1.928
 6649TIP3   OH219889   2.409   4.875   1.429
 6649TIP3    H119890   2.458   4.805   1.473
 6649TIP3    H219891   2.383   4.837   1.345
 6650TIP3   OH219892   0.141   5.051   3.589
 6650TIP3    H119893   0.062   5.105   3.589
 6650TIP3    H219894   0.175   5.059   3.678
 6651TIP3   OH219895   5.640   2.965   4.568
 6651TIP3    H119896   5.717   2.912   4.589
 6651TIP3    H219897   5.566   2.907   4.584
 6652TIP3   OH219898   0.774   0.968   6.196
 6652TIP3    H119899   0.745   1.053   6.162
 6652TIP3    H219900   0.866   0.963   6.173
 6653TIP3   OH219901   0.117   4.928   1.004
 6653TIP3    H119902   0.153   4.947   1.090
 6653TIP3    H219903   0.027   4.902   1.021
 6654TIP3   OH219904   4.329   3.757   3.209
 6654TIP3    H119905   4.392   3.685   3.216
 6654TIP3    H219906   4.344   3.794   3.122
 6655TIP3   OH219907   7.145   5.719   3.635
 6655TIP3    H119908   7.096   5.719   3.717
 6655TIP3    H219909   7.224   5.668   3.654
 6656TIP3   OH219910   3.207   0.478   0.228
 6656TIP3    H119911   3.184   0.461   0.320
 6656TIP3    H219912   3.284   0.423   0.213
 6657TIP3   OH219913   3.956   5.525   4.108
 6657TIP3    H119914   3.994   5.549   4.192
 6657TIP3    H219915   3.950   5.429   4.111
 6658TIP3   OH219916   3.259   3.991   1.879
 6658TIP3    H119917   3.274   4.055   1.810
 6658TIP3    H219918   3.164   3.976   1.877
 6659TIP3   OH219919   3.771   7.125   5.501
 6659TIP3    H119920   3.722   7.045   5.519
 6659TIP3    H219921   3.722   7.168   5.431
 6660TIP3   OH219922   6.174   1.134   0.239
 6660TIP3    H119923   6.269   1.121   0.244
 6660TIP3    H219924   6.162   1.229   0.244
 6661TIP3   OH219925   3.075   7.327   2.871
 6661TIP3    H119926   3.050   7.298   2.958
 6661TIP3    H219927   3.060   7.422   2.871
 6662TIP3   OH219928   5.749   4.782   5.016
 6662TIP3    H119929   5.709   4.695   5.020
 6662TIP3    H219930   5.840   4.765   4.992
 6663TIP3   OH219931   6.284   6.589   2.144
 6663TIP3    H119932   6.204   6.550   2.181
 6663TIP3    H219933   6.341   6.513   2.126
 6664TIP3   OH219934   2.817   7.028   6.075
 6664TIP3    H119935   2.903   7.046   6.039
 6664TIP3    H219936   2.834   6.983   6.158
 6665TIP3   OH219937   2.619   2.528   0.915
 6665TIP3    H119938   2.571   2.511   0.834
 6665TIP3    H219939   2.699   2.573   0.888
 6666TIP3   OH219940   6.562   5.127   0.105
 6666TIP3    H119941   6.539   5.046   0.061
 6666TIP3    H219942   6.487   5.147   0.161
 6667TIP3   OH219943   5.012   0.900   5.773
 6667TIP3    H119944   4.973   0.961   5.710
 6667TIP3    H219945   4.939   0.844   5.801
 6668TIP3   OH219946   2.089   1.202   0.282
 6668TIP3    H119947   1.998   1.190   0.258
 6668TIP3    H219948   2.086   1.261   0.358
 6669TIP3   OH219949   3.851   0.547   2.043
 6669TIP3    H119950   3.887   0.636   2.047
 6669TIP3    H219951   3.829   0.526   2.134
 6670TIP3   OH219952   0.397   2.693   0.189
 6670TIP3    H119953   0.325   2.692   0.126
 6670TIP3    H219954   0.372   2.628   0.255
 6671TIP3   OH219955   2.508   6.882   0.265
 6671TIP3    H119956   2.431   6.848   0.220
 6671TIP3    H219957   2.547   6.806   0.307
 6672TIP3   OH219958   1.164   3.192   5.168
 6672TIP3    H119959   1.167   3.164   5.076
 6672TIP3    H219960   1.255   3.185   5.197
 6673TIP3   OH219961   1.734   1.376   0.768
 6673TIP3    H119962   1.705   1.300   0.719
 6673TIP3    H219963   1.810   1.409   0.720
 6674TIP3   OH219964   2.874   3.970   5.226
 6674TIP3    H119965   2.826   4.052   5.219
 6674TIP3    H219966   2.937   3.973   5.154
 6675TIP3   OH219967   7.371   5.253   4.735
 6675TIP3    H119968   7.398   5.173   4.690
 6675TIP3    H219969   7.275   5.247   4.738
 6676TIP3   OH219970   6.469   0.082   0.535
 6676TIP3    H119971   6.440   0.049   0.620
 6676TIP3    H219972   6.389   0.108   0.491
 6677TIP3   OH219973   5.310   6.138   4.878
 6677TIP3    H119974   5.356   6.060   4.847
 6677TIP3    H219975   5.290   6.120   4.969
 6678TIP3   OH219976   7.407   0.850   0.624
 6678TIP3    H119977   7.367   0.936   0.640
 6678TIP3    H219978   7.417   0.845   0.529
 6679TIP3   OH219979   1.879   2.355   0.586
 6679TIP3    H119980   1.796   2.332   0.629
 6679TIP3    H219981   1.943   2.358   0.657
 6680TIP3   OH219982   7.949   4.834   1.058
 6680TIP3    H119983   8.040   4.814   1.037
 6680TIP3    H219984   7.915   4.876   0.979
 6681TIP3   OH219985   4.157   5.343   0.912
 6681TIP3    H119986   4.220   5.415   0.922
 6681TIP3    H219987   4.143   5.310   1.001
 6682TIP3   OH219988   7.796   3.174   6.268
 6682TIP3    H119989   7.811   3.242   6.202
 6682TIP3    H219990   7.709   3.192   6.302
 6683TIP3   OH219991   5.469   6.846   2.303
 6683TIP3    H119992   5.489   6.837   2.396
 6683TIP3    H219993   5.550   6.820   2.259
 6684TIP3   OH219994   0.606   0.649   4.532
 6684TIP3    H119995   0.552   0.660   4.454
 6684TIP3    H219996   0.545   0.622   4.600
 6685TIP3   OH219997   3.121   3.134   0.406
 6685TIP3    H119998   3.037   3.162   0.372
 6685TIP3    H219999   3.170   3.215   0.419
 6686TIP3   OH220000   7.775   0.571   4.744
 6686TIP3    H120001   7.784   0.615   4.828
 6686TIP3    H220002   7.689   0.598   4.712
 6687TIP3   OH220003   2.591   0.126   4.657
 6687TIP3    H120004   2.554   0.151   4.572
 6687TIP3    H220005   2.652   0.056   4.637
 6688TIP3   OH220006   2.576   3.837   0.038
 6688TIP3    H120007   2.524   3.767   0.077
 6688TIP3    H220008   2.641   3.858   0.106
 6689TIP3   OH220009   6.610   3.523   1.697
 6689TIP3    H120010   6.566   3.580   1.634
 6689TIP3    H220011   6.703   3.542   1.684
 6690TIP3   OH220012   2.319   1.382   2.129
 6690TIP3    H120013   2.233   1.355   2.160
 6690TIP3    H220014   2.357   1.430   2.203
 6691TIP3   OH220015   2.650   4.616   6.325
 6691TIP3    H120016   2.624   4.533   6.367
 6691TIP3    H220017   2.573   4.672   6.332
 6692TIP3   OH220018   5.837   4.017   2.734
 6692TIP3    H120019   5.804   3.941   2.783
 6692TIP3    H220020   5.896   4.060   2.796
 6693TIP3   OH220021   0.347   4.682   5.103
 6693TIP3    H120022   0.414   4.686   5.171
 6693TIP3    H220023   0.272   4.641   5.147
 6694TIP3   OH220024   0.634   0.253   2.959
 6694TIP3    H120025   0.633   0.348   2.973
 6694TIP3    H220026   0.673   0.242   2.873
 6695TIP3   OH220027   5.874   1.170   0.819
 6695TIP3    H120028   5.813   1.217   0.762
 6695TIP3    H220029   5.927   1.239   0.859
 6696TIP3   OH220030   6.651   1.013   4.929
 6696TIP3    H120031   6.604   1.003   4.845
 6696TIP3    H220032   6.743   0.999   4.907
 6697TIP3   OH220033   1.688   0.722   5.248
 6697TIP3    H120034   1.697   0.810   5.211
 6697TIP3    H220035   1.760   0.714   5.310
 6698TIP3   OH220036   4.373   3.389   0.499
 6698TIP3    H120037   4.317   3.448   0.550
 6698TIP3    H220038   4.410   3.329   0.563
 6699TIP3   OH220039   0.470   5.573   2.378
 6699TIP3    H120040   0.464   5.544   2.470
 6699TIP3    H220041   0.436   5.662   2.379
 6700TIP3   OH220042   7.601   6.155   1.422
 6700TIP3    H120043   7.666   6.188   1.359
 6700TIP3    H220044   7.637   6.072   1.452
 6701TIP3   OH220045   7.907   4.950   0.817
 6701TIP3    H120046   7.856   4.969   0.738
 6701TIP3    H220047   7.957   5.030   0.834
 6702TIP3   OH220048   8.136   4.385   5.740
 6702TIP3    H120049   8.198   4.340   5.798
 6702TIP3    H220050   8.121   4.470   5.782
 6703TIP3   OH220051   1.130   4.818   4.970
 6703TIP3    H120052   1.147   4.813   5.064
 6703TIP3    H220053   1.216   4.806   4.929
 6704TIP3   OH220054   7.793   3.753   5.563
 6704TIP3    H120055   7.783   3.828   5.505
 6704TIP3    H220056   7.733   3.769   5.636
 6705TIP3   OH220057   7.329   0.996   2.096
 6705TIP3    H120058   7.286   0.964   2.017
 6705TIP3    H220059   7.415   0.953   2.095
 6706TIP3   OH220060   4.062   2.340   6.536
 6706TIP3    H120061   4.148   2.376   6.560
 6706TIP3    H220062   4.049   2.268   6.598
 6707TIP3   OH220063   5.882   4.084   1.974
 6707TIP3    H120064   5.951   4.044   1.921
 6707TIP3    H220065   5.808   4.093   1.915
 6708TIP3   OH220066   2.715   1.658   2.973
 6708TIP3    H120067   2.633   1.609   2.975
 6708TIP3    H220068   2.782   1.592   2.953
 6709TIP3   OH220069   2.034   1.932   0.492
 6709TIP3    H120070   1.954   1.979   0.515
 6709TIP3    H220071   2.004   1.850   0.454
 6710TIP3   OH220072   1.208   5.694   1.081
 6710TIP3    H120073   1.160   5.640   1.144
 6710TIP3    H220074   1.247   5.764   1.134
 6711TIP3   OH220075   1.558   2.227   2.336
 6711TIP3    H120076   1.550   2.148   2.390
 6711TIP3    H220077   1.471   2.268   2.340
 6712TIP3   OH220078   1.707   1.224   5.634
 6712TIP3    H120079   1.642   1.175   5.684
 6712TIP3    H220080   1.727   1.169   5.558
 6713TIP3   OH220081   0.540   4.629   1.192
 6713TIP3    H120082   0.611   4.577   1.230
 6713TIP3    H220083   0.464   4.608   1.246
 6714TIP3   OH220084   2.269   6.968   6.046
 6714TIP3    H120085   2.312   7.048   6.077
 6714TIP3    H220086   2.254   6.983   5.953
 6715TIP3   OH220087   8.018   5.934   3.153
 6715TIP3    H120088   7.987   5.927   3.243
 6715TIP3    H220089   7.998   6.024   3.128
 6716TIP3   OH220090   2.138   7.214   1.731
 6716TIP3    H120091   2.186   7.291   1.701
 6716TIP3    H220092   2.121   7.165   1.651
 6717TIP3   OH220093   7.068   7.512   5.436
 6717TIP3    H120094   7.136   7.483   5.497
 6717TIP3    H220095   7.098   7.597   5.405
 6718TIP3   OH220096   7.571   4.529   4.889
 6718TIP3    H120097   7.559   4.465   4.820
 6718TIP3    H220098   7.483   4.539   4.928
 6719TIP3   OH220099   7.899   4.622   2.627
 6719TIP3    H120100   7.943   4.614   2.711
 6719TIP3    H220101   7.809   4.594   2.643
 6720TIP3   OH220102   3.353   0.613   1.632
 6720TIP3    H120103   3.368   0.694   1.681
 6720TIP3    H220104   3.258   0.600   1.635
 6721TIP3   OH220105   6.457   7.185   5.730
 6721TIP3    H120106   6.479   7.093   5.749
 6721TIP3    H220107   6.529   7.216   5.674
 6722TIP3   OH220108   5.621   4.636   3.586
 6722TIP3    H120109   5.585   4.657   3.500
 6722TIP3    H220110   5.716   4.636   3.573
 6723TIP3   OH220111   4.102   0.655   0.698
 6723TIP3    H120112   4.080   0.658   0.791
 6723TIP3    H220113   4.018   0.662   0.653
 6724TIP3   OH220114   7.508   3.997   6.557
 6724TIP3    H120115   7.542   3.918   6.600
 6724TIP3    H220116   7.442   4.030   6.618
 6725TIP3   OH220117   4.917   0.760   4.529
 6725TIP3    H120118   4.879   0.741   4.443
 6725TIP3    H220119   4.851   0.730   4.592
 6726TIP3   OH220120   2.393   4.516   6.539
 6726TIP3    H120121   2.341   4.549   6.612
 6726TIP3    H220122   2.332   4.462   6.489
 6727TIP3   OH220123   6.473   3.451   5.917
 6727TIP3    H120124   6.450   3.359   5.907
 6727TIP3    H220125   6.449   3.471   6.008
 6728TIP3   OH220126   2.283   1.752   4.181
 6728TIP3    H120127   2.334   1.805   4.242
 6728TIP3    H220128   2.346   1.692   4.142
 6729TIP3   OH220129   7.941   2.746   5.403
 6729TIP3    H120130   7.880   2.753   5.477
 6729TIP3    H220131   7.965   2.653   5.402
 6730TIP3   OH220132   0.148   1.612   0.838
 6730TIP3    H120133   0.138   1.707   0.841
 6730TIP3    H220134   0.058   1.579   0.832
 6731TIP3   OH220135   7.053   1.931   2.112
 6731TIP3    H120136   7.012   1.902   2.030
 6731TIP3    H220137   7.144   1.901   2.106
 6732TIP3   OH220138   2.216   0.750   3.914
 6732TIP3    H120139   2.276   0.794   3.854
 6732TIP3    H220140   2.186   0.673   3.867
 6733TIP3   OH220141   7.261   3.426   4.332
 6733TIP3    H120142   7.294   3.487   4.398
 6733TIP3    H220143   7.334   3.367   4.314
 6734TIP3   OH220144   0.868   0.656   2.805
 6734TIP3    H120145   0.874   0.561   2.791
 6734TIP3    H220146   0.959   0.684   2.812
 6735TIP3   OH220147   0.202   0.079   5.844
 6735TIP3    H120148   0.151   0.119   5.914
 6735TIP3    H220149   0.292   0.109   5.859
 6736TIP3   OH220150   3.683   4.403   6.037
 6736TIP3    H120151   3.588   4.397   6.026
 6736TIP3    H220152   3.715   4.316   6.014
 6737TIP3   OH220153   4.072   7.707   0.416
 6737TIP3    H120154   4.006   7.681   0.352
 6737TIP3    H220155   4.062   7.802   0.423
 6738TIP3   OH220156   4.093   6.401   3.029
 6738TIP3    H120157   4.064   6.357   2.950
 6738TIP3    H220158   4.036   6.477   3.037
 6739TIP3   OH220159   3.829   4.409   2.627
 6739TIP3    H120160   3.780   4.359   2.693
 6739TIP3    H220161   3.886   4.344   2.587
 6740TIP3   OH220162   2.103   5.370   0.778
 6740TIP3    H120163   2.091   5.464   0.764
 6740TIP3    H220164   2.119   5.361   0.872
 6741TIP3   OH220165   7.205   3.779   4.211
 6741TIP3    H120166   7.177   3.835   4.283
 6741TIP3    H220167   7.300   3.794   4.203
 6742TIP3   OH220168   3.253   4.914   1.153
 6742TIP3    H120169   3.185   4.857   1.190
 6742TIP3    H220170   3.214   4.950   1.074
 6743TIP3   OH220171   0.620   6.944   3.762
 6743TIP3    H120172   0.607   6.954   3.668
 6743TIP3    H220173   0.711   6.969   3.776
 6744TIP3   OH220174   7.060   2.528   3.691
 6744TIP3    H120175   7.011   2.600   3.730
 6744TIP3    H220176   7.079   2.557   3.602
 6745TIP3   OH220177   2.102   4.584   6.012
 6745TIP3    H120178   2.129   4.499   6.045
 6745TIP3    H220179   2.009   4.574   5.991
 6746TIP3   OH220180   6.653   0.834   3.788
 6746TIP3    H120181   6.601   0.765   3.747
 6746TIP3    H220182   6.743   0.801   3.787
 6747TIP3   OH220183   7.704   3.654   3.280
 6747TIP3    H120184   7.761   3.579   3.295
 6747TIP3    H220185   7.743   3.699   3.206
 6748TIP3   OH220186   3.885   0.619   3.956
 6748TIP3    H120187   3.928   0.536   3.932
 6748TIP3    H220188   3.932   0.649   4.033
 6749TIP3   OH220189   6.366   1.655   1.968
 6749TIP3    H120190   6.297   1.667   2.032
 6749TIP3    H220191   6.362   1.732   1.912
 6750TIP3   OH220192   4.027   0.129   2.965
 6750TIP3    H120193   3.944   0.154   2.924
 6750TIP3    H220194   4.092   0.186   2.925
 6751TIP3   OH220195   2.498   5.372   2.033
 6751TIP3    H120196   2.482   5.278   2.027
 6751TIP3    H220197   2.592   5.382   2.018
 6752TIP3   OH220198   5.637   6.243   0.375
 6752TIP3    H120199   5.727   6.254   0.344
 6752TIP3    H220200   5.609   6.330   0.402
 6753TIP3   OH220201   4.024   0.289   0.429
 6753TIP3    H120202   3.988   0.328   0.508
 6753TIP3    H220203   4.111   0.327   0.419
 6754TIP3   OH220204   4.901   5.473   5.487
 6754TIP3    H120205   4.988   5.456   5.523
 6754TIP3    H220206   4.901   5.566   5.466
 6755TIP3   OH220207   4.677   3.625   3.072
 6755TIP3    H120208   4.742   3.667   3.128
 6755TIP3    H220209   4.699   3.532   3.076
 6756TIP3   OH220210   2.006   4.711   4.283
 6756TIP3    H120211   2.061   4.733   4.207
 6756TIP3    H220212   2.053   4.747   4.358
 6757TIP3   OH220213   6.757   1.851   4.462
 6757TIP3    H120214   6.683   1.790   4.466
 6757TIP3    H220215   6.788   1.845   4.372
 6758TIP3   OH220216   4.710   0.510   6.161
 6758TIP3    H120217   4.750   0.539   6.243
 6758TIP3    H220218   4.777   0.455   6.120
 6759TIP3   OH220219   1.862   6.629   2.779
 6759TIP3    H120220   1.838   6.619   2.871
 6759TIP3    H220221   1.779   6.644   2.734
 6760TIP3   OH220222   8.110   4.822   1.747
 6760TIP3    H120223   8.131   4.751   1.808
 6760TIP3    H220224   8.134   4.788   1.661
 6761TIP3   OH220225   1.442   6.455   0.634
 6761TIP3    H120226   1.414   6.395   0.564
 6761TIP3    H220227   1.513   6.409   0.678
 6762TIP3   OH220228   2.355   5.276   5.230
 6762TIP3    H120229   2.386   5.216   5.162
 6762TIP3    H220230   2.435   5.312   5.268
 6763TIP3   OH220231   0.297   0.418   0.081
 6763TIP3    H120232   0.269   0.442  -0.008
 6763TIP3    H220233   0.391   0.439   0.083
 6764TIP3   OH220234   7.715   3.127   4.912
 6764TIP3    H120235   7.771   3.140   4.988
 6764TIP3    H220236   7.686   3.215   4.888
 6765TIP3   OH220237   0.684   4.203   2.807
 6765TIP3    H120238   0.777   4.227   2.804
 6765TIP3    H220239   0.639   4.281   2.839
 6766TIP3   OH220240   3.630   1.805   2.500
 6766TIP3    H120241   3.694   1.869   2.531
 6766TIP3    H220242   3.562   1.803   2.568
 6767TIP3   OH220243   6.762   7.046   5.096
 6767TIP3    H120244   6.761   6.953   5.118
 6767TIP3    H220245   6.714   7.088   5.167
 6768TIP3   OH220246   5.244   7.286   6.372
 6768TIP3    H120247   5.162   7.282   6.422
 6768TIP3    H220248   5.259   7.379   6.357
 6769TIP3   OH220249   3.748   1.386   6.303
 6769TIP3    H120250   3.758   1.421   6.391
 6769TIP3    H220251   3.658   1.353   6.301
 6770TIP3   OH220252   3.489   3.338   5.461
 6770TIP3    H120253   3.459   3.427   5.478
 6770TIP3    H220254   3.502   3.334   5.367
 6771TIP3   OH220255   5.563   5.446   3.116
 6771TIP3    H120256   5.550   5.480   3.205
 6771TIP3    H220257   5.648   5.479   3.090
 6772TIP3   OH220258   5.565   4.708   1.969
 6772TIP3    H120259   5.575   4.789   2.020
 6772TIP3    H220260   5.492   4.726   1.910
 6773TIP3   OH220261   3.694   3.377   2.513
 6773TIP3    H120262   3.759   3.324   2.559
 6773TIP3    H220263   3.739   3.461   2.496
 6774TIP3   OH220264   6.794   0.931   1.492
 6774TIP3    H120265   6.773   0.863   1.556
 6774TIP3    H220266   6.862   0.891   1.437
 6775TIP3   OH220267   4.441   1.111   3.536
 6775TIP3    H120268   4.461   1.106   3.630
 6775TIP3    H220269   4.396   1.195   3.526
 6776TIP3   OH220270   6.244   1.433   4.164
 6776TIP3    H120271   6.241   1.338   4.174
 6776TIP3    H220272   6.254   1.447   4.070
 6777TIP3   OH220273   0.648   5.874   3.836
 6777TIP3    H120274   0.700   5.838   3.909
 6777TIP3    H220275   0.682   5.962   3.823
 6778TIP3   OH220276   4.424   7.367   2.591
 6778TIP3    H120277   4.497   7.317   2.627
 6778TIP3    H220278   4.423   7.345   2.498
 6779TIP3   OH220279   7.594  -0.008   3.993
 6779TIP3    H120280   7.580   0.076   3.950
 6779TIP3    H220281   7.620   0.015   4.082
 6780TIP3   OH220282   4.351   6.677   4.847
 6780TIP3    H120283   4.377   6.616   4.778
 6780TIP3    H220284   4.255   6.673   4.846
 6781TIP3   OH220285   0.368   0.228   3.599
 6781TIP3    H120286   0.352   0.149   3.547
 6781TIP3    H220287   0.301   0.225   3.667
 6782TIP3   OH220288   2.893   0.894   2.549
 6782TIP3    H120289   2.939   0.830   2.495
 6782TIP3    H220290   2.904   0.977   2.504
 6783TIP3   OH220291   6.584   3.963   1.840
 6783TIP3    H120292   6.583   3.872   1.871
 6783TIP3    H220293   6.539   4.012   1.909
 6784TIP3   OH220294   7.326   5.025   5.589
 6784TIP3    H120295   7.328   5.110   5.546
 6784TIP3    H220296   7.289   4.965   5.524
 6785TIP3   OH220297   0.486   0.991   5.862
 6785TIP3    H120298   0.568   1.037   5.844
 6785TIP3    H220299   0.511   0.898   5.865
 6786TIP3   OH220300   1.848   7.123   4.000
 6786TIP3    H120301   1.809   7.210   4.006
 6786TIP3    H220302   1.914   7.121   4.069
 6787TIP3   OH220303   4.779   7.775   3.639
 6787TIP3    H120304   4.730   7.703   3.679
 6787TIP3    H220305   4.859   7.735   3.606
 6788TIP3   OH220306   0.851   7.426   4.694
 6788TIP3    H120307   0.833   7.346   4.644
 6788TIP3    H220308   0.860   7.494   4.627
 6789TIP3   OH220309   5.509   0.106   0.396
 6789TIP3    H120310   5.595   0.066   0.409
 6789TIP3    H220311   5.500   0.168   0.468
 6790TIP3   OH220312   1.273   2.715   2.332
 6790TIP3    H120313   1.338   2.767   2.379
 6790TIP3    H220314   1.323   2.665   2.269
 6791TIP3   OH220315   7.121   1.475   2.784
 6791TIP3    H120316   7.174   1.456   2.706
 6791TIP3    H220317   7.045   1.521   2.750
 6792TIP3   OH220318   6.609   4.559   5.829
 6792TIP3    H120319   6.547   4.618   5.787
 6792TIP3    H220320   6.688   4.613   5.841
 6793TIP3   OH220321   0.699   4.986   2.902
 6793TIP3    H120322   0.778   5.040   2.899
 6793TIP3    H220323   0.648   5.022   2.974
 6794TIP3   OH220324   6.086   2.722   0.776
 6794TIP3    H120325   6.146   2.790   0.749
 6794TIP3    H220326   6.038   2.699   0.696
 6795TIP3   OH220327   5.901   1.455   4.717
 6795TIP3    H120328   5.870   1.534   4.761
 6795TIP3    H220329   5.860   1.382   4.764
 6796TIP3   OH220330   1.291   3.162   2.202
 6796TIP3    H120331   1.363   3.203   2.154
 6796TIP3    H220332   1.226   3.232   2.211
 6797TIP3   OH220333   0.450   2.628   5.381
 6797TIP3    H120334   0.366   2.676   5.380
 6797TIP3    H220335   0.505   2.678   5.441
 6798TIP3   OH220336   7.064   4.307   5.397
 6798TIP3    H120337   7.061   4.394   5.437
 6798TIP3    H220338   6.972   4.281   5.391
 6799TIP3   OH220339   7.870   7.523   0.254
 6799TIP3    H120340   7.877   7.439   0.208
 6799TIP3    H220341   7.778   7.529   0.279
 6800TIP3   OH220342   3.145   0.319   5.243
 6800TIP3    H120343   3.184   0.278   5.166
 6800TIP3    H220344   3.213   0.378   5.276
 6801TIP3   OH220345   5.449   0.280   0.602
 6801TIP3    H120346   5.448   0.278   0.698
 6801TIP3    H220347   5.357   0.288   0.577
 6802TIP3   OH220348   4.546   2.101   1.008
 6802TIP3    H120349   4.547   2.195   0.994
 6802TIP3    H220350   4.526   2.090   1.101
 6803TIP3   OH220351   2.231   3.112   6.536
 6803TIP3    H120352   2.222   3.155   6.621
 6803TIP3    H220353   2.326   3.108   6.522
 6804TIP3   OH220354   1.814   4.151   4.140
 6804TIP3    H120355   1.761   4.088   4.189
 6804TIP3    H220356   1.905   4.128   4.161
 6805TIP3   OH220357   6.327   0.842   0.457
 6805TIP3    H120358   6.418   0.825   0.435
 6805TIP3    H220359   6.291   0.755   0.479
 6806TIP3   OH220360   4.655   6.222   3.841
 6806TIP3    H120361   4.730   6.221   3.782
 6806TIP3    H220362   4.692   6.244   3.927
 6807TIP3   OH220363   4.106   7.521   0.131
 6807TIP3    H120364   4.021   7.531   0.175
 6807TIP3    H220365   4.159   7.470   0.192
 6808TIP3   OH220366   5.692   6.971   4.438
 6808TIP3    H120367   5.674   6.882   4.409
 6808TIP3    H220368   5.620   6.992   4.497
 6809TIP3   OH220369   6.003   1.323   5.447
 6809TIP3    H120370   5.948   1.245   5.454
 6809TIP3    H220371   6.077   1.306   5.504
 6810TIP3   OH220372   2.315   6.677   4.600
 6810TIP3    H120373   2.289   6.587   4.581
 6810TIP3    H220374   2.232   6.723   4.615
 6811TIP3   OH220375   1.935   0.710   3.523
 6811TIP3    H120376   2.028   0.702   3.546
 6811TIP3    H220377   1.917   0.804   3.526
 6812TIP3   OH220378   6.481   1.721   5.217
 6812TIP3    H120379   6.442   1.807   5.235
 6812TIP3    H220380   6.543   1.707   5.288
 6813TIP3   OH220381   5.059   2.762   0.703
 6813TIP3    H120382   5.027   2.689   0.755
 6813TIP3    H220383   5.113   2.722   0.636
 6814TIP3   OH220384   2.502   1.180   2.071
 6814TIP3    H120385   2.577   1.185   2.131
 6814TIP3    H220386   2.448   1.256   2.094
 6815TIP3   OH220387   6.983   0.581   5.949
 6815TIP3    H120388   6.904   0.554   5.995
 6815TIP3    H220389   6.968   0.556   5.858
 6816TIP3   OH220390   7.057   0.950   0.134
 6816TIP3    H120391   7.003   1.014   0.087
 6816TIP3    H220392   7.138   0.946   0.085
 6817TIP3   OH220393   2.611   7.249   6.419
 6817TIP3    H120394   2.583   7.327   6.467
 6817TIP3    H220395   2.706   7.259   6.411
 6818TIP3   OH220396   1.275   0.196   2.256
 6818TIP3    H120397   1.222   0.215   2.333
 6818TIP3    H220398   1.347   0.258   2.261
 6819TIP3   OH220399   3.240   2.968   0.629
 6819TIP3    H120400   3.187   3.003   0.557
 6819TIP3    H220401   3.195   2.997   0.708
 6820TIP3   OH220402   3.820   0.289   5.564
 6820TIP3    H120403   3.730   0.306   5.537
 6820TIP3    H220404   3.824   0.194   5.577
 6821TIP3   OH220405   6.381   4.185   6.466
 6821TIP3    H120406   6.444   4.129   6.422
 6821TIP3    H220407   6.421   4.272   6.464
 6822TIP3   OH220408   3.971   7.468   5.090
 6822TIP3    H120409   3.964   7.434   5.179
 6822TIP3    H220410   4.037   7.537   5.096
 6823TIP3   OH220411   4.367   0.747   1.382
 6823TIP3    H120412   4.406   0.689   1.447
 6823TIP3    H220413   4.292   0.787   1.428
 6824TIP3   OH220414   7.821   2.441   5.047
 6824TIP3    H120415   7.906   2.463   5.010
 6824TIP3    H220416   7.840   2.415   5.137
 6825TIP3   OH220417   3.600   6.598   5.312
 6825TIP3    H120418   3.583   6.551   5.393
 6825TIP3    H220419   3.638   6.532   5.254
 6826TIP3   OH220420   3.347   3.198   6.069
 6826TIP3    H120421   3.321   3.275   6.118
 6826TIP3    H220422   3.443   3.198   6.073
 6827TIP3   OH220423   3.225   1.837   6.357
 6827TIP3    H120424   3.307   1.802   6.323
 6827TIP3    H220425   3.248   1.923   6.392
 6828TIP3   OH220426   7.254   1.859   3.387
 6828TIP3    H120427   7.180   1.912   3.417
 6828TIP3    H220428   7.241   1.852   3.292
 6829TIP3   OH220429   5.976   4.938   6.229
 6829TIP3    H120430   6.042   4.879   6.192
 6829TIP3    H220431   6.002   5.025   6.199
 6830TIP3   OH220432   0.962   5.475   3.570
 6830TIP3    H120433   1.014   5.443   3.644
 6830TIP3    H220434   1.012   5.550   3.537
 6831TIP3   OH220435   1.346   4.569   4.411
 6831TIP3    H120436   1.283   4.520   4.464
 6831TIP3    H220437   1.431   4.532   4.435
 6832TIP3   OH220438   0.601   1.767   0.490
 6832TIP3    H120439   0.629   1.825   0.561
 6832TIP3    H220440   0.681   1.726   0.458
 6833TIP3   OH220441   2.233   3.839   5.714
 6833TIP3    H120442   2.234   3.777   5.641
 6833TIP3    H220443   2.317   3.827   5.757
 6834TIP3   OH220444   2.098   1.141   5.284
 6834TIP3    H120445   2.092   1.106   5.373
 6834TIP3    H220446   2.190   1.134   5.262
 6835TIP3   OH220447   6.872   5.214   0.923
 6835TIP3    H120448   6.898   5.272   0.851
 6835TIP3    H220449   6.952   5.165   0.943
 6836TIP3   OH220450   7.415   2.301   2.285
 6836TIP3    H120451   7.445   2.378   2.333
 6836TIP3    H220452   7.366   2.249   2.349
 6837TIP3   OH220453   1.251   2.030   1.514
 6837TIP3    H120454   1.211   2.086   1.580
 6837TIP3    H220455   1.176   1.994   1.466
 6838TIP3   OH220456   2.075   5.172   4.628
 6838TIP3    H120457   2.001   5.114   4.611
 6838TIP3    H220458   2.036   5.258   4.641
 6839TIP3   OH220459   4.938   0.424   4.605
 6839TIP3    H120460   4.861   0.459   4.650
 6839TIP3    H220461   4.908   0.406   4.516
 6840TIP3   OH220462   5.690   2.877   1.077
 6840TIP3    H120463   5.654   2.847   0.993
 6840TIP3    H220464   5.764   2.932   1.053
 6841TIP3   OH220465   1.427   3.825   0.963
 6841TIP3    H120466   1.389   3.876   0.891
 6841TIP3    H220467   1.481   3.888   1.011
 6842TIP3   OH220468   6.142   3.492   2.443
 6842TIP3    H120469   6.183   3.577   2.461
 6842TIP3    H220470   6.124   3.494   2.349
 6843TIP3   OH220471   7.920   4.838   1.441
 6843TIP3    H120472   7.844   4.861   1.495
 6843TIP3    H220473   7.948   4.920   1.401
 6844TIP3   OH220474   4.258   6.751   1.417
 6844TIP3    H120475   4.293   6.704   1.342
 6844TIP3    H220476   4.325   6.816   1.438
 6845TIP3   OH220477   5.779   1.136   1.384
 6845TIP3    H120478   5.805   1.192   1.311
 6845TIP3    H220479   5.690   1.164   1.405
 6846TIP3   OH220480   5.455   6.558   3.987
 6846TIP3    H120481   5.435   6.600   3.904
 6846TIP3    H220482   5.385   6.586   4.046
 6847TIP3   OH220483   1.139   2.804   5.156
 6847TIP3    H120484   1.104   2.720   5.186
 6847TIP3    H220485   1.195   2.782   5.081
 6848TIP3   OH220486   3.699   1.125   4.961
 6848TIP3    H120487   3.616   1.089   4.930
 6848TIP3    H220488   3.745   1.150   4.880
 6849TIP3   OH220489   4.037   1.598   0.225
 6849TIP3    H120490   4.078   1.651   0.156
 6849TIP3    H220491   3.963   1.651   0.254
 6850TIP3   OH220492   4.682   4.113   5.614
 6850TIP3    H120493   4.634   4.119   5.697
 6850TIP3    H220494   4.623   4.153   5.550
 6851TIP3   OH220495   5.694   6.050   6.029
 6851TIP3    H120496   5.705   6.076   6.121
 6851TIP3    H220497   5.715   5.957   6.027
 6852TIP3   OH220498   3.192   2.393   1.648
 6852TIP3    H120499   3.181   2.474   1.697
 6852TIP3    H220500   3.203   2.420   1.557
 6853TIP3   OH220501   1.651   3.638   1.479
 6853TIP3    H120502   1.644   3.594   1.564
 6853TIP3    H220503   1.679   3.727   1.500
 6854TIP3   OH220504   1.065   5.054   2.650
 6854TIP3    H120505   1.000   5.008   2.597
 6854TIP3    H220506   1.122   4.985   2.683
 6855TIP3   OH220507   2.248   6.217   6.692
 6855TIP3    H120508   2.175   6.228   6.753
 6855TIP3    H220509   2.316   6.276   6.726
 6856TIP3   OH220510   3.320   7.299   2.004
 6856TIP3    H120511   3.321   7.339   2.091
 6856TIP3    H220512   3.239   7.247   2.003
 6857TIP3   OH220513   5.726   0.876   4.356
 6857TIP3    H120514   5.647   0.823   4.349
 6857TIP3    H220515   5.696   0.967   4.348
 6858TIP3   OH220516   3.341   7.026   2.535
 6858TIP3    H120517   3.272   7.041   2.600
 6858TIP3    H220518   3.419   7.066   2.573
 6859TIP3   OH220519   1.896   7.615   4.211
 6859TIP3    H120520   1.941   7.572   4.284
 6859TIP3    H220521   1.809   7.636   4.244
 6860TIP3   OH220522   6.926   4.742   0.633
 6860TIP3    H120523   6.937   4.745   0.728
 6860TIP3    H220524   6.966   4.659   0.607
 6861TIP3   OH220525   2.475   0.638   1.947
 6861TIP3    H120526   2.538   0.703   1.915
 6861TIP3    H220527   2.499   0.625   2.039
 6862TIP3   OH220528   2.103   1.273   2.459
 6862TIP3    H120529   2.167   1.216   2.416
 6862TIP3    H220530   2.027   1.216   2.473
 6863TIP3   OH220531   2.752   4.586   4.987
 6863TIP3    H120532   2.780   4.531   5.060
 6863TIP3    H220533   2.762   4.676   5.020
 6864TIP3   OH220534   3.332   0.659   0.538
 6864TIP3    H120535   3.283   0.699   0.465
 6864TIP3    H220536   3.324   0.565   0.522
 6865TIP3   OH220537   3.411   4.474   0.185
 6865TIP3    H120538   3.336   4.500   0.132
 6865TIP3    H220539   3.472   4.548   0.178
 6866TIP3   OH220540   6.950   5.301   6.533
 6866TIP3    H120541   6.859   5.332   6.534
 6866TIP3    H220542   6.942   5.206   6.540
 6867TIP3   OH220543   3.221   6.410   2.652
 6867TIP3    H120544   3.301   6.458   2.630
 6867TIP3    H220545   3.158   6.479   2.676
 6868TIP3   OH220546   0.757   3.324   2.692
 6868TIP3    H120547   0.688   3.328   2.625
 6868TIP3    H220548   0.767   3.415   2.721
 6869TIP3   OH220549   4.315   6.812   0.096
 6869TIP3    H120550   4.320   6.900   0.057
 6869TIP3    H220551   4.381   6.813   0.165
 6870TIP3   OH220552   6.982   6.955   4.611
 6870TIP3    H120553   7.073   6.963   4.640
 6870TIP3    H220554   6.930   6.968   4.690
 6871TIP3   OH220555   5.209   2.015   2.241
 6871TIP3    H120556   5.191   2.066   2.320
 6871TIP3    H220557   5.255   1.938   2.272
 6872TIP3   OH220558   1.182   7.118   5.212
 6872TIP3    H120559   1.263   7.169   5.207
 6872TIP3    H220560   1.185   7.061   5.135
 6873TIP3   OH220561   2.857   0.807   3.022
 6873TIP3    H120562   2.937   0.820   3.073
 6873TIP3    H220563   2.790   0.785   3.087
 6874TIP3   OH220564   0.566   3.011   2.443
 6874TIP3    H120565   0.633   2.983   2.506
 6874TIP3    H220566   0.511   2.933   2.432
 6875TIP3   OH220567   2.896   5.212   3.996
 6875TIP3    H120568   2.953   5.170   3.933
 6875TIP3    H220569   2.928   5.183   4.082
 6876TIP3   OH220570   7.442   2.217   4.151
 6876TIP3    H120571   7.396   2.144   4.193
 6876TIP3    H220572   7.422   2.293   4.205
 6877TIP3   OH220573   6.963   2.140   0.483
 6877TIP3    H120574   6.898   2.210   0.490
 6877TIP3    H220575   7.005   2.154   0.398
 6878TIP3   OH220576   7.994   4.251   6.019
 6878TIP3    H120577   8.032   4.340   6.019
 6878TIP3    H220578   8.070   4.193   6.019
 6879TIP3   OH220579   6.852   2.120   0.918
 6879TIP3    H120580   6.872   2.081   1.003
 6879TIP3    H220581   6.758   2.136   0.921
 6880TIP3   OH220582   4.036   3.894   5.378
 6880TIP3    H120583   4.061   3.855   5.462
 6880TIP3    H220584   4.089   3.973   5.372
 6881TIP3   OH220585   3.433   1.678   4.199
 6881TIP3    H120586   3.501   1.739   4.172
 6881TIP3    H220587   3.451   1.598   4.151
 6882TIP3   OH220588   4.788   3.812   2.170
 6882TIP3    H120589   4.841   3.876   2.218
 6882TIP3    H220590   4.844   3.783   2.098
 6883TIP3   OH220591   6.354   4.160   4.864
 6883TIP3    H120592   6.439   4.118   4.870
 6883TIP3    H220593   6.336   4.166   4.770
 6884TIP3   OH220594   7.135   4.981   4.652
 6884TIP3    H120595   7.223   4.990   4.615
 6884TIP3    H220596   7.150   4.947   4.741
 6885TIP3   OH220597   5.274   7.759   5.229
 6885TIP3    H120598   5.298   7.786   5.317
 6885TIP3    H220599   5.279   7.663   5.230
 6886TIP3   OH220600   5.571   1.191   1.929
 6886TIP3    H120601   5.490   1.186   1.979
 6886TIP3    H220602   5.591   1.284   1.926
 6887TIP3   OH220603   0.364   5.730   2.811
 6887TIP3    H120604   0.287   5.767   2.768
 6887TIP3    H220605   0.332   5.695   2.894
 6888TIP3   OH220606   6.771   1.300   1.218
 6888TIP3    H120607   6.681   1.330   1.209
 6888TIP3    H220608   6.776   1.265   1.308
 6889TIP3   OH220609   2.329   7.804   0.441
 6889TIP3    H120610   2.345   7.736   0.376
 6889TIP3    H220611   2.260   7.768   0.497
 6890TIP3   OH220612   1.296   3.868   5.722
 6890TIP3    H120613   1.378   3.845   5.678
 6890TIP3    H220614   1.251   3.926   5.660
 6891TIP3   OH220615   7.631   0.985   1.621
 6891TIP3    H120616   7.648   0.941   1.537
 6891TIP3    H220617   7.572   1.057   1.599
 6892TIP3   OH220618   1.538   1.975   3.783
 6892TIP3    H120619   1.525   1.902   3.722
 6892TIP3    H220620   1.632   1.992   3.781
 6893TIP3   OH220621   3.263   7.588   0.280
 6893TIP3    H120622   3.299   7.627   0.360
 6893TIP3    H220623   3.224   7.661   0.233
 6894TIP3   OH220624   1.036   4.733   0.306
 6894TIP3    H120625   1.010   4.811   0.355
 6894TIP3    H220626   1.101   4.764   0.244
 6895TIP3   OH220627   1.540   7.544   3.972
 6895TIP3    H120628   1.463   7.602   3.967
 6895TIP3    H220629   1.570   7.537   3.881
 6896TIP3   OH220630   4.166   3.187   0.418
 6896TIP3    H120631   4.114   3.266   0.402
 6896TIP3    H220632   4.246   3.201   0.367
 6897TIP3   OH220633   0.243   6.398   0.473
 6897TIP3    H120634   0.260   6.386   0.566
 6897TIP3    H220635   0.226   6.309   0.440
 6898TIP3   OH220636   1.304   3.953   6.612
 6898TIP3    H120637   1.331   3.882   6.670
 6898TIP3    H220638   1.213   3.932   6.589
 6899TIP3   OH220639   8.101   3.485   1.680
 6899TIP3    H120640   8.042   3.524   1.745
 6899TIP3    H220641   8.076   3.393   1.677
 6900TIP3   OH220642   0.617   6.910   2.473
 6900TIP3    H120643   0.659   6.989   2.442
 6900TIP3    H220644   0.523   6.928   2.467
 6901TIP3   OH220645   3.202   2.094   2.979
 6901TIP3    H120646   3.118   2.106   2.935
 6901TIP3    H220647   3.185   2.025   3.044
 6902TIP3   OH220648   6.068   1.928   3.056
 6902TIP3    H120649   6.021   1.934   3.139
 6902TIP3    H220650   6.012   1.874   3.000
 6903TIP3   OH220651   0.564   2.955   0.599
 6903TIP3    H120652   0.549   3.043   0.565
 6903TIP3    H220653   0.594   2.905   0.523
 6904TIP3   OH220654   7.072   4.986   4.224
 6904TIP3    H120655   7.018   4.917   4.186
 6904TIP3    H220656   7.152   4.987   4.172
 6905TIP3   OH220657   5.592   3.524   5.070
 6905TIP3    H120658   5.550   3.526   4.985
 6905TIP3    H220659   5.553   3.449   5.115
 6906TIP3   OH220660   2.286   4.187   3.024
 6906TIP3    H120661   2.317   4.255   2.965
 6906TIP3    H220662   2.333   4.108   2.996
 6907TIP3   OH220663   6.308   4.864   6.429
 6907TIP3    H120664   6.346   4.867   6.341
 6907TIP3    H220665   6.340   4.782   6.466
 6908TIP3   OH220666   7.118   2.955   0.297
 6908TIP3    H120667   7.099   2.971   0.205
 6908TIP3    H220668   7.047   2.998   0.344
 6909TIP3   OH220669   0.045   0.587   1.410
 6909TIP3    H120670   0.129   0.631   1.426
 6909TIP3    H220671   0.037   0.587   1.315
 6910TIP3   OH220672   1.719   2.746   5.812
 6910TIP3    H120673   1.707   2.684   5.740
 6910TIP3    H220674   1.631   2.771   5.838
 6911TIP3   OH220675   4.730   5.009   5.798
 6911TIP3    H120676   4.800   4.944   5.798
 6911TIP3    H220677   4.713   5.025   5.891
 6912TIP3   OH220678   5.680   4.906   5.699
 6912TIP3    H120679   5.768   4.916   5.663
 6912TIP3    H220680   5.648   4.996   5.709
 6913TIP3   OH220681   2.822   4.452   2.487
 6913TIP3    H120682   2.899   4.491   2.446
 6913TIP3    H220683   2.767   4.526   2.512
 6914TIP3   OH220684   5.237   2.363   1.865
 6914TIP3    H120685   5.173   2.306   1.908
 6914TIP3    H220686   5.298   2.387   1.935
 6915TIP3   OH220687   0.066   3.495   3.917
 6915TIP3    H120688   0.019   3.417   3.943
 6915TIP3    H220689   0.143   3.462   3.870
 6916TIP3   OH220690   0.217   5.376   3.724
 6916TIP3    H120691   0.284   5.317   3.690
 6916TIP3    H220692   0.240   5.388   3.817
 6917TIP3   OH220693   7.400   0.613   3.800
 6917TIP3    H120694   7.432   0.540   3.854
 6917TIP3    H220695   7.451   0.688   3.830
 6918TIP3   OH220696   7.863   6.548   2.265
 6918TIP3    H120697   7.846   6.586   2.179
 6918TIP3    H220698   7.796   6.480   2.275
 6919TIP3   OH220699   7.369   6.613   3.444
 6919TIP3    H120700   7.319   6.649   3.517
 6919TIP3    H220701   7.305   6.567   3.390
 6920TIP3   OH220702   5.200   6.876   1.744
 6920TIP3    H120703   5.211   6.818   1.669
 6920TIP3    H220704   5.259   6.949   1.727
 6921TIP3   OH220705   5.974   2.231   6.567
 6921TIP3    H120706   6.062   2.230   6.530
 6921TIP3    H220707   5.982   2.179   6.647
 6922TIP3   OH220708   7.956   6.623   0.014
 6922TIP3    H120709   7.954   6.659  -0.075
 6922TIP3    H220710   7.870   6.582   0.026
 6923TIP3   OH220711   3.416   7.241   3.601
 6923TIP3    H120712   3.480   7.273   3.665
 6923TIP3    H220713   3.396   7.152   3.630
 6924TIP3   OH220714   4.631   2.421   6.498
 6924TIP3    H120715   4.683   2.445   6.421
 6924TIP3    H220716   4.627   2.500   6.551
 6925TIP3   OH220717   0.515   6.489   3.875
 6925TIP3    H120718   0.486   6.406   3.836
 6925TIP3    H220719   0.575   6.526   3.811
 6926TIP3   OH220720   6.658   0.945   2.476
 6926TIP3    H120721   6.741   0.956   2.522
 6926TIP3    H220722   6.674   0.876   2.412
 6927TIP3   OH220723   6.629   6.672   6.356
 6927TIP3    H120724   6.601   6.669   6.265
 6927TIP3    H220725   6.724   6.660   6.352
 6928TIP3   OH220726   0.514   3.199   0.504
 6928TIP3    H120727   0.566   3.256   0.448
 6928TIP3    H220728   0.425   3.208   0.472
 6929TIP3   OH220729   3.189   5.993   1.586
 6929TIP3    H120730   3.157   5.990   1.496
 6929TIP3    H220731   3.140   6.064   1.627
 6930TIP3   OH220732   0.462   2.997   2.015
 6930TIP3    H120733   0.508   3.076   2.042
 6930TIP3    H220734   0.388   3.029   1.962
 6931TIP3   OH220735   2.866   7.314   6.172
 6931TIP3    H120736   2.782   7.321   6.126
 6931TIP3    H220737   2.871   7.223   6.201
 6932TIP3   OH220738   5.352   6.301   0.517
 6932TIP3    H120739   5.425   6.242   0.535
 6932TIP3    H220740   5.317   6.271   0.433
 6933TIP3   OH220741   7.226   1.097   1.232
 6933TIP3    H120742   7.290   1.054   1.175
 6933TIP3    H220743   7.151   1.113   1.175
 6934TIP3   OH220744   5.679   5.496   2.446
 6934TIP3    H120745   5.759   5.463   2.404
 6934TIP3    H220746   5.645   5.560   2.384
 6935TIP3   OH220747   1.987   0.262   3.815
 6935TIP3    H120748   1.920   0.294   3.754
 6935TIP3    H220749   1.991   0.329   3.883
 6936TIP3   OH220750   6.071   2.944   1.985
 6936TIP3    H120751   6.073   2.880   2.056
 6936TIP3    H220752   6.085   2.892   1.905
 6937TIP3   OH220753   1.614   1.230   1.295
 6937TIP3    H120754   1.651   1.188   1.217
 6937TIP3    H220755   1.521   1.240   1.276
 6938TIP3   OH220756   0.959   3.642   6.061
 6938TIP3    H120757   0.900   3.661   5.988
 6938TIP3    H220758   0.998   3.558   6.039
 6939TIP3   OH220759   7.351   7.247   5.082
 6939TIP3    H120760   7.286   7.290   5.137
 6939TIP3    H220761   7.388   7.318   5.029
 6940TIP3   OH220762   4.164   5.542   3.893
 6940TIP3    H120763   4.111   5.480   3.944
 6940TIP3    H220764   4.145   5.627   3.931
 6941TIP3   OH220765   1.362   6.249   5.789
 6941TIP3    H120766   1.334   6.334   5.822
 6941TIP3    H220767   1.453   6.240   5.817
 6942TIP3   OH220768   6.191   5.147   0.844
 6942TIP3    H120769   6.141   5.093   0.905
 6942TIP3    H220770   6.207   5.091   0.769
 6943TIP3   OH220771   7.810   0.620   0.538
 6943TIP3    H120772   7.835   0.528   0.540
 6943TIP3    H220773   7.725   0.623   0.581
 6944TIP3   OH220774   5.290   3.334   6.513
 6944TIP3    H120775   5.383   3.309   6.507
 6944TIP3    H220776   5.284   3.383   6.595
 6945TIP3   OH220777   2.345   6.536   5.805
 6945TIP3    H120778   2.431   6.573   5.785
 6945TIP3    H220779   2.357   6.442   5.798
 6946TIP3   OH220780   4.518   4.819   4.950
 6946TIP3    H120781   4.429   4.800   4.981
 6946TIP3    H220782   4.574   4.785   5.019
 6947TIP3   OH220783   7.959   5.774   1.381
 6947TIP3    H120784   7.966   5.860   1.420
 6947TIP3    H220785   7.865   5.759   1.371
 6948TIP3   OH220786   1.455   0.338   3.692
 6948TIP3    H120787   1.373   0.355   3.739
 6948TIP3    H220788   1.435   0.360   3.601
 6949TIP3   OH220789   0.865   3.353   0.398
 6949TIP3    H120790   0.841   3.264   0.374
 6949TIP3    H220791   0.801   3.408   0.354
 6950TIP3   OH220792   2.942   6.356   1.950
 6950TIP3    H120793   2.911   6.334   2.037
 6950TIP3    H220794   2.969   6.448   1.956
 6951TIP3   OH220795   6.705   1.877   0.794
 6951TIP3    H120796   6.735   1.968   0.797
 6951TIP3    H220797   6.612   1.882   0.816
 6952TIP3   OH220798   4.626   2.994   0.879
 6952TIP3    H120799   4.699   2.967   0.935
 6952TIP3    H220800   4.656   3.074   0.836
 6953TIP3   OH220801   4.147   4.905   6.529
 6953TIP3    H120802   4.175   4.918   6.619
 6953TIP3    H220803   4.149   4.993   6.491
 6954TIP3   OH220804   5.119   3.174   4.261
 6954TIP3    H120805   5.094   3.179   4.353
 6954TIP3    H220806   5.214   3.181   4.261
 6955TIP3   OH220807   6.186   6.219   5.294
 6955TIP3    H120808   6.221   6.222   5.383
 6955TIP3    H220809   6.258   6.250   5.239
 6956TIP3   OH220810   1.051   7.189   1.906
 6956TIP3    H120811   1.134   7.224   1.874
 6956TIP3    H220812   1.006   7.264   1.945
 6957TIP3   OH220813   1.751   1.455   5.205
 6957TIP3    H120814   1.667   1.492   5.231
 6957TIP3    H220815   1.793   1.429   5.287
 6958TIP3   OH220816   7.123   2.345   3.134
 6958TIP3    H120817   7.118   2.362   3.040
 6958TIP3    H220818   7.118   2.250   3.141
 6959TIP3   OH220819   3.009   2.729   4.943
 6959TIP3    H120820   3.027   2.647   4.898
 6959TIP3    H220821   3.090   2.751   4.987
 6960TIP3   OH220822   4.560   0.095   3.222
 6960TIP3    H120823   4.565   0.188   3.244
 6960TIP3    H220824   4.637   0.057   3.265
 6961TIP3   OH220825   5.608   5.523   1.726
 6961TIP3    H120826   5.620   5.574   1.806
 6961TIP3    H220827   5.695   5.521   1.686
 6962TIP3   OH220828   5.629   1.468   3.994
 6962TIP3    H120829   5.632   1.404   4.066
 6962TIP3    H220830   5.555   1.441   3.941
 6963TIP3   OH220831   1.272   0.013   5.122
 6963TIP3    H120832   1.240   0.030   5.210
 6963TIP3    H220833   1.351   0.067   5.114
 6964TIP3   OH220834   1.866   1.429   4.847
 6964TIP3    H120835   1.897   1.476   4.769
 6964TIP3    H220836   1.908   1.473   4.920
 6965TIP3   OH220837   6.164   1.351   5.650
 6965TIP3    H120838   6.258   1.339   5.643
 6965TIP3    H220839   6.151   1.445   5.635
 6966TIP3   OH220840   4.701   4.640   6.673
 6966TIP3    H120841   4.703   4.544   6.675
 6966TIP3    H220842   4.791   4.665   6.652
 6967TIP3   OH220843   6.831   0.602   0.264
 6967TIP3    H120844   6.872   0.591   0.350
 6967TIP3    H220845   6.902   0.634   0.208
 6968TIP3   OH220846   4.408   4.794   6.057
 6968TIP3    H120847   4.376   4.761   6.140
 6968TIP3    H220848   4.330   4.799   6.001
 6969TIP3   OH220849   0.761   2.471   2.968
 6969TIP3    H120850   0.675   2.432   2.958
 6969TIP3    H220851   0.808   2.409   3.025
 6970TIP3   OH220852   0.058   7.053   1.036
 6970TIP3    H120853  -0.035   7.054   1.058
 6970TIP3    H220854   0.087   7.143   1.051
 6971TIP3   OH220855   3.514   3.349   5.179
 6971TIP3    H120856   3.421   3.347   5.157
 6971TIP3    H220857   3.546   3.262   5.153
 6972TIP3   OH220858   6.124   4.548   0.557
 6972TIP3    H120859   6.209   4.592   0.554
 6972TIP3    H220860   6.103   4.531   0.465
 6973TIP3   OH220861   7.218   6.247   3.124
 6973TIP3    H120862   7.171   6.194   3.188
 6973TIP3    H220863   7.281   6.187   3.085
 6974TIP3   OH220864   2.679   7.070   5.243
 6974TIP3    H120865   2.631   7.074   5.326
 6974TIP3    H220866   2.617   7.031   5.181
 6975TIP3   OH220867   6.270   2.663   6.753
 6975TIP3    H120868   6.324   2.586   6.770
 6975TIP3    H220869   6.200   2.632   6.696
 6976TIP3   OH220870   2.490   6.711   5.537
 6976TIP3    H120871   2.435   6.776   5.580
 6976TIP3    H220872   2.557   6.690   5.603
 6977TIP3   OH220873   7.606   7.434   3.594
 6977TIP3    H120874   7.570   7.503   3.537
 6977TIP3    H220875   7.573   7.353   3.556
 6978TIP3   OH220876   2.877   1.442   1.459
 6978TIP3    H120877   2.937   1.398   1.519
 6978TIP3    H220878   2.799   1.460   1.512
 6979TIP3   OH220879   5.941   1.872   2.806
 6979TIP3    H120880   5.854   1.835   2.813
 6979TIP3    H220881   5.948   1.901   2.715
 6980TIP3   OH220882   1.231   2.698   1.454
 6980TIP3    H120883   1.239   2.741   1.539
 6980TIP3    H220884   1.138   2.676   1.447
 6981TIP3   OH220885   2.222   0.368   2.052
 6981TIP3    H120886   2.241   0.398   2.141
 6981TIP3    H220887   2.135   0.328   2.058
 6982TIP3   OH220888   4.827   6.167   5.134
 6982TIP3    H120889   4.795   6.250   5.169
 6982TIP3    H220890   4.919   6.182   5.113
 6983TIP3   OH220891   3.877   3.747   1.347
 6983TIP3    H120892   3.906   3.743   1.438
 6983TIP3    H220893   3.792   3.703   1.346
 6984TIP3   OH220894   4.526   6.502   0.809
 6984TIP3    H120895   4.497   6.537   0.725
 6984TIP3    H220896   4.450   6.456   0.844
 6985TIP3   OH220897   1.612   4.378   2.506
 6985TIP3    H120898   1.525   4.403   2.474
 6985TIP3    H220899   1.672   4.436   2.459
 6986TIP3   OH220900   8.128   0.825   1.159
 6986TIP3    H120901   8.099   0.745   1.203
 6986TIP3    H220902   8.135   0.890   1.229
 6987TIP3   OH220903   5.179   6.301   2.497
 6987TIP3    H120904   5.170   6.207   2.510
 6987TIP3    H220905   5.165   6.339   2.584
 6988TIP3   OH220906   4.671   2.397   2.217
 6988TIP3    H120907   4.584   2.375   2.251
 6988TIP3    H220908   4.726   2.403   2.295
 6989TIP3   OH220909   6.968   7.677   4.054
 6989TIP3    H120910   6.907   7.696   4.125
 6989TIP3    H220911   6.922   7.708   3.975
 6990TIP3   OH220912   6.600   7.315   4.305
 6990TIP3    H120913   6.535   7.381   4.332
 6990TIP3    H220914   6.554   7.231   4.314
 6991TIP3   OH220915   4.106   2.433   4.191
 6991TIP3    H120916   4.174   2.435   4.123
 6991TIP3    H220917   4.155   2.433   4.274
 6992TIP3   OH220918   3.651   6.874   5.344
 6992TIP3    H120919   3.650   6.779   5.338
 6992TIP3    H220920   3.735   6.900   5.305
 6993TIP3   OH220921   5.458   0.777   3.122
 6993TIP3    H120922   5.411   0.731   3.053
 6993TIP3    H220923   5.490   0.857   3.080
 6994TIP3   OH220924   4.991   0.838   4.033
 6994TIP3    H120925   5.047   0.914   4.018
 6994TIP3    H220926   4.907   0.874   4.060
 6995TIP3   OH220927   7.740   2.640   3.027
 6995TIP3    H120928   7.794   2.562   3.017
 6995TIP3    H220929   7.665   2.610   3.079
 6996TIP3   OH220930   7.917   6.316   0.737
 6996TIP3    H120931   7.967   6.329   0.656
 6996TIP3    H220932   7.979   6.336   0.807
 6997TIP3   OH220933   3.487   6.183   4.429
 6997TIP3    H120934   3.394   6.193   4.449
 6997TIP3    H220935   3.492   6.103   4.376
 6998TIP3   OH220936   2.296   1.715   5.851
 6998TIP3    H120937   2.387   1.727   5.880
 6998TIP3    H220938   2.264   1.640   5.901
 6999TIP3   OH220939   6.230   3.269   3.179
 6999TIP3    H120940   6.240   3.214   3.102
 6999TIP3    H220941   6.257   3.213   3.252
 7000TIP3   OH220942   3.606   3.763   4.521
 7000TIP3    H120943   3.592   3.779   4.428
 7000TIP3    H220944   3.701   3.755   4.530
 7001TIP3   OH220945   5.255   1.040   5.629
 7001TIP3    H120946   5.277   1.091   5.551
 7001TIP3    H220947   5.168   1.073   5.655
 7002TIP3   OH220948   7.991   6.893   3.545
 7002TIP3    H120949   7.950   6.957   3.604
 7002TIP3    H220950   7.934   6.893   3.467
 7003TIP3   OH220951   0.118   6.961   2.703
 7003TIP3    H120952   0.033   6.917   2.706
 7003TIP3    H220953   0.117   7.022   2.776
 7004TIP3   OH220954   7.638   4.663   1.597
 7004TIP3    H120955   7.615   4.603   1.526
 7004TIP3    H220956   7.647   4.748   1.554
 7005TIP3   OH220957   1.161   7.076   4.925
 7005TIP3    H120958   1.230   7.133   4.891
 7005TIP3    H220959   1.084   7.133   4.933
 7006TIP3   OH220960   2.315   3.711   5.494
 7006TIP3    H120961   2.405   3.708   5.461
 7006TIP3    H220962   2.261   3.700   5.415
 7007TIP3   OH220963   5.408   4.654   0.359
 7007TIP3    H120964   5.393   4.694   0.273
 7007TIP3    H220965   5.320   4.638   0.394
 7008TIP3   OH220966   2.939   4.063   1.157
 7008TIP3    H120967   2.877   3.993   1.135
 7008TIP3    H220968   2.969   4.042   1.245
 7009TIP3   OH220969   7.874   5.662   0.098
 7009TIP3    H120970   7.885   5.709   0.015
 7009TIP3    H220971   7.955   5.611   0.108
 7010TIP3   OH220972   2.782   2.148   1.897
 7010TIP3    H120973   2.873   2.140   1.868
 7010TIP3    H220974   2.739   2.068   1.865
 7011TIP3   OH220975   6.128   4.858   1.970
 7011TIP3    H120976   6.199   4.911   1.935
 7011TIP3    H220977   6.118   4.787   1.907
 7012TIP3   OH220978   2.788   4.860   5.856
 7012TIP3    H120979   2.880   4.884   5.842
 7012TIP3    H220980   2.761   4.818   5.775
 7013TIP3   OH220981   6.473   2.766   2.178
 7013TIP3    H120982   6.496   2.852   2.213
 7013TIP3    H220983   6.402   2.735   2.234
 7014TIP3   OH220984   2.057   7.687   4.463
 7014TIP3    H120985   1.973   7.731   4.448
 7014TIP3    H220986   2.041   7.630   4.538
 7015TIP3   OH220987   0.812   0.797   1.568
 7015TIP3    H120988   0.790   0.890   1.580
 7015TIP3    H220989   0.728   0.752   1.571
 7016TIP3   OH220990   4.038   0.810   3.723
 7016TIP3    H120991   3.970   0.772   3.779
 7016TIP3    H220992   4.031   0.904   3.738
 7017TIP3   OH220993   6.021   6.270   4.651
 7017TIP3    H120994   6.011   6.191   4.705
 7017TIP3    H220995   6.092   6.250   4.591
 7018TIP3   OH220996   3.493   7.492   0.168
 7018TIP3    H120997   3.400   7.490   0.188
 7018TIP3    H220998   3.525   7.573   0.209
 7019TIP3   OH220999   7.918   3.789   6.204
 7019TIP3    H121000   7.892   3.823   6.118
 7019TIP3    H221001   7.857   3.830   6.265
 7020TIP3   OH221002   5.145   4.658   0.232
 7020TIP3    H121003   5.208   4.714   0.187
 7020TIP3    H221004   5.065   4.666   0.180
 7021TIP3   OH221005   6.224   4.386   1.366
 7021TIP3    H121006   6.144   4.339   1.391
 7021TIP3    H221007   6.252   4.431   1.446
 7022TIP3   OH221008   6.586   0.200   5.685
 7022TIP3    H121009   6.555   0.280   5.644
 7022TIP3    H221010   6.530   0.131   5.649
 7023TIP3   OH221011   3.472   3.170   4.227
 7023TIP3    H121012   3.469   3.213   4.313
 7023TIP3    H221013   3.401   3.210   4.178
 7024TIP3   OH221014   8.217   4.779   6.538
 7024TIP3    H121015   8.169   4.718   6.593
 7024TIP3    H221016   8.168   4.861   6.545
 7025TIP3   OH221017   0.427   3.777   4.262
 7025TIP3    H121018   0.404   3.716   4.192
 7025TIP3    H221019   0.394   3.862   4.232
 7026TIP3   OH221020   7.990   0.519   2.268
 7026TIP3    H121021   7.926   0.448   2.260
 7026TIP3    H221022   7.996   0.557   2.181
 7027TIP3   OH221023   1.054   2.271   1.599
 7027TIP3    H121024   0.965   2.257   1.633
 7027TIP3    H221025   1.111   2.246   1.672
 7028TIP3   OH221026   3.394   4.625   6.237
 7028TIP3    H121027   3.382   4.532   6.215
 7028TIP3    H221028   3.490   4.636   6.238
 7029TIP3   OH221029   4.213   2.958   3.227
 7029TIP3    H121030   4.273   2.931   3.157
 7029TIP3    H221031   4.240   2.906   3.303
 7030TIP3   OH221032   0.976   3.245   0.958
 7030TIP3    H121033   1.070   3.228   0.951
 7030TIP3    H221034   0.945   3.249   0.868
 7031TIP3   OH221035   4.704   5.743   2.275
 7031TIP3    H121036   4.740   5.811   2.218
 7031TIP3    H221037   4.759   5.746   2.353
 7032TIP3   OH221038   1.573   7.800   3.011
 7032TIP3    H121039   1.532   7.721   3.048
 7032TIP3    H221040   1.538   7.872   3.063
 7033TIP3   OH221041   4.485   2.937   3.113
 7033TIP3    H121042   4.447   2.912   3.029
 7033TIP3    H221043   4.479   2.858   3.167
 7034TIP3   OH221044   5.092   2.874   0.018
 7034TIP3    H121045   5.014   2.821   0.000
 7034TIP3    H221046   5.093   2.939  -0.053
 7035TIP3   OH221047   2.748   6.594   2.036
 7035TIP3    H121048   2.762   6.563   1.946
 7035TIP3    H221049   2.671   6.545   2.066
 7036TIP3   OH221050   3.018   0.807   6.753
 7036TIP3    H121051   3.090   0.744   6.752
 7036TIP3    H221052   2.973   0.792   6.670
 7037TIP3   OH221053   8.199   1.604   3.983
 7037TIP3    H121054   8.113   1.596   4.023
 7037TIP3    H221055   8.208   1.698   3.964
 7038TIP3   OH221056   6.840   6.448   5.384
 7038TIP3    H121057   6.896   6.494   5.321
 7038TIP3    H221058   6.861   6.355   5.371
 7039TIP3   OH221059   1.898   5.698   4.709
 7039TIP3    H121060   1.828   5.751   4.747
 7039TIP3    H221061   1.924   5.745   4.630
 7040TIP3   OH221062   6.926   5.927   5.717
 7040TIP3    H121063   6.879   5.996   5.763
 7040TIP3    H221064   7.019   5.948   5.730
 7041TIP3   OH221065   3.995   5.947   2.100
 7041TIP3    H121066   4.041   5.968   2.018
 7041TIP3    H221067   4.063   5.915   2.159
 7042TIP3   OH221068   5.552   5.325   3.833
 7042TIP3    H121069   5.485   5.272   3.790
 7042TIP3    H221070   5.603   5.362   3.761
 7043TIP3   OH221071   0.132   1.366   5.757
 7043TIP3    H121072   0.186   1.385   5.680
 7043TIP3    H221073   0.048   1.340   5.720
 7044TIP3   OH221074   0.991   6.755   3.345
 7044TIP3    H121075   0.938   6.805   3.283
 7044TIP3    H221076   1.057   6.713   3.291
 7045TIP3   OH221077   7.608   6.786   5.078
 7045TIP3    H121078   7.576   6.875   5.091
 7045TIP3    H221079   7.667   6.771   5.152
 7046TIP3   OH221080   1.604   0.341   3.122
 7046TIP3    H121081   1.614   0.257   3.077
 7046TIP3    H221082   1.693   0.365   3.148
 7047TIP3   OH221083   0.212   4.845   5.338
 7047TIP3    H121084   0.195   4.785   5.266
 7047TIP3    H221085   0.125   4.873   5.367
 7048TIP3   OH221086   5.041   0.185   5.907
 7048TIP3    H121087   5.072   0.101   5.873
 7048TIP3    H221088   4.979   0.216   5.841
 7049TIP3   OH221089   7.627   0.337   3.062
 7049TIP3    H121090   7.688   0.355   2.991
 7049TIP3    H221091   7.552   0.394   3.045
 7050TIP3   OH221092   4.605   5.433   1.165
 7050TIP3    H121093   4.599   5.431   1.260
 7050TIP3    H221094   4.563   5.352   1.136
 7051TIP3   OH221095   1.081   7.187   1.591
 7051TIP3    H121096   1.086   7.094   1.612
 7051TIP3    H221097   1.170   7.210   1.563
 7052TIP3   OH221098   4.198   6.771   0.481
 7052TIP3    H121099   4.132   6.821   0.531
 7052TIP3    H221100   4.162   6.683   0.477
 7053TIP3   OH221101   0.185   5.980   1.902
 7053TIP3    H121102   0.157   6.011   1.988
 7053TIP3    H221103   0.110   5.931   1.869
 7054TIP3   OH221104   2.996   0.084   3.033
 7054TIP3    H121105   2.929   0.152   3.026
 7054TIP3    H221106   2.977   0.024   2.961
 7055TIP3   OH221107   3.459   3.577   0.715
 7055TIP3    H121108   3.489   3.648   0.771
 7055TIP3    H221109   3.484   3.497   0.762
 7056TIP3   OH221110   8.231   2.001   1.413
 7056TIP3    H121111   8.159   2.042   1.364
 7056TIP3    H221112   8.204   1.909   1.422
 7057TIP3   OH221113   2.463   3.890   3.971
 7057TIP3    H121114   2.393   3.942   4.010
 7057TIP3    H221115   2.538   3.949   3.969
 7058TIP3   OH221116   7.582   6.869   2.266
 7058TIP3    H121117   7.546   6.800   2.321
 7058TIP3    H221118   7.567   6.839   2.176
 7059TIP3   OH221119   0.324   5.563   4.947
 7059TIP3    H121120   0.253   5.605   4.996
 7059TIP3    H221121   0.357   5.631   4.889
 7060TIP3   OH221122   2.841   3.232   6.074
 7060TIP3    H121123   2.812   3.276   6.154
 7060TIP3    H221124   2.934   3.215   6.089
 7061TIP3   OH221125   6.770   1.944   0.397
 7061TIP3    H121126   6.717   1.994   0.335
 7061TIP3    H221127   6.825   2.010   0.440
 7062TIP3   OH221128   2.221   4.852   3.086
 7062TIP3    H121129   2.129   4.879   3.077
 7062TIP3    H221130   2.256   4.858   2.997
 7063TIP3   OH221131   4.763   6.809   4.371
 7063TIP3    H121132   4.737   6.896   4.341
 7063TIP3    H221133   4.859   6.812   4.372
 7064TIP3   OH221134   7.232   1.953   5.224
 7064TIP3    H121135   7.236   1.945   5.128
 7064TIP3    H221136   7.232   2.047   5.241
 7065TIP3   OH221137   4.608   1.895   2.398
 7065TIP3    H121138   4.645   1.809   2.384
 7065TIP3    H221139   4.521   1.878   2.434
 7066TIP3   OH221140   1.272   3.332   5.872
 7066TIP3    H121141   1.264   3.409   5.816
 7066TIP3    H221142   1.365   3.309   5.868
 7067TIP3   OH221143   3.340   0.359   5.026
 7067TIP3    H121144   3.416   0.345   5.084
 7067TIP3    H221145   3.352   0.296   4.955
 7068TIP3   OH221146   3.857   6.156   4.835
 7068TIP3    H121147   3.830   6.196   4.917
 7068TIP3    H221148   3.800   6.079   4.826
 7069TIP3   OH221149   6.414   5.577   5.887
 7069TIP3    H121150   6.451   5.522   5.818
 7069TIP3    H221151   6.345   5.525   5.926
 7070TIP3   OH221152   3.104   6.548   1.679
 7070TIP3    H121153   3.052   6.514   1.606
 7070TIP3    H221154   3.192   6.514   1.665
 7071TIP3   OH221155   0.325   2.911   1.276
 7071TIP3    H121156   0.378   2.970   1.330
 7071TIP3    H221157   0.280   2.855   1.339
 7072TIP3   OH221158   4.704   5.184   4.701
 7072TIP3    H121159   4.677   5.176   4.609
 7072TIP3    H221160   4.794   5.215   4.697
 7073TIP3   OH221161   7.192   4.460   5.890
 7073TIP3    H121162   7.149   4.402   5.827
 7073TIP3    H221163   7.264   4.408   5.925
 7074TIP3   OH221164   5.529   5.842   4.049
 7074TIP3    H121165   5.561   5.854   3.959
 7074TIP3    H221166   5.539   5.928   4.089
 7075TIP3   OH221167   3.786   7.365   4.620
 7075TIP3    H121168   3.795   7.272   4.603
 7075TIP3    H221169   3.692   7.378   4.632
 7076TIP3   OH221170   3.751   4.470   3.731
 7076TIP3    H121171   3.838   4.498   3.702
 7076TIP3    H221172   3.743   4.506   3.819
 7077TIP3   OH221173   1.088   4.028   0.728
 7077TIP3    H121174   1.091   3.998   0.638
 7077TIP3    H221175   1.060   4.120   0.722
 7078TIP3   OH221176   0.504   5.376   5.059
 7078TIP3    H121177   0.553   5.379   5.142
 7078TIP3    H221178   0.453   5.456   5.058
 7079TIP3   OH221179   6.644   7.109   4.638
 7079TIP3    H121180   6.613   7.178   4.697
 7079TIP3    H221181   6.718   7.149   4.592
 7080TIP3   OH221182   3.763   3.881   3.692
 7080TIP3    H121183   3.787   3.973   3.688
 7080TIP3    H221184   3.678   3.880   3.735
 7081TIP3   OH221185   1.180   1.838   2.537
 7081TIP3    H121186   1.140   1.914   2.580
 7081TIP3    H221187   1.244   1.806   2.600
 7082TIP3   OH221188   6.577   2.159   0.177
 7082TIP3    H121189   6.621   2.135   0.095
 7082TIP3    H221190   6.484   2.166   0.153
 7083TIP3   OH221191   3.697   4.103   5.724
 7083TIP3    H121192   3.677   4.045   5.797
 7083TIP3    H221193   3.735   4.046   5.657
 7084TIP3   OH221194   3.471   3.567   1.314
 7084TIP3    H121195   3.504   3.491   1.266
 7084TIP3    H221196   3.444   3.629   1.246
 7085TIP3   OH221197   0.307   6.059   3.925
 7085TIP3    H121198   0.263   6.036   3.843
 7085TIP3    H221199   0.359   6.137   3.903
 7086TIP3   OH221200   7.039   6.306   3.756
 7086TIP3    H121201   6.980   6.279   3.685
 7086TIP3    H221202   6.981   6.323   3.830
 7087TIP3   OH221203   0.840   2.156   3.301
 7087TIP3    H121204   0.825   2.209   3.222
 7087TIP3    H221205   0.917   2.195   3.342
 7088TIP3   OH221206   5.992   1.849   5.822
 7088TIP3    H121207   5.975   1.799   5.742
 7088TIP3    H221208   5.916   1.906   5.831
 7089TIP3   OH221209   0.665   7.418   4.334
 7089TIP3    H121210   0.752   7.402   4.371
 7089TIP3    H221211   0.629   7.331   4.319
 7090TIP3   OH221212   2.980   5.833   6.780
 7090TIP3    H121213   3.057   5.840   6.836
 7090TIP3    H221214   2.968   5.922   6.745
 7091TIP3   OH221215   2.543  -0.025   1.426
 7091TIP3    H121216   2.456  -0.026   1.385
 7091TIP3    H221217   2.527  -0.046   1.518
 7092TIP3   OH221218   1.465   1.176   4.985
 7092TIP3    H121219   1.516   1.231   4.925
 7092TIP3    H221220   1.476   1.217   5.071
 7093TIP3   OH221221   8.096   6.421   2.180
 7093TIP3    H121222   8.140   6.465   2.107
 7093TIP3    H221223   8.013   6.467   2.191
 7094TIP3   OH221224   0.333   7.330   6.716
 7094TIP3    H121225   0.269   7.363   6.652
 7094TIP3    H221226   0.291   7.345   6.801
 7095TIP3   OH221227   0.342   3.035   5.733
 7095TIP3    H121228   0.272   3.029   5.668
 7095TIP3    H221229   0.350   3.129   5.751
 7096TIP3   OH221230   0.879   7.591   2.483
 7096TIP3    H121231   0.862   7.574   2.390
 7096TIP3    H221232   0.902   7.684   2.487
 7097TIP3   OH221233   5.596   2.427   1.141
 7097TIP3    H121234   5.658   2.390   1.078
 7097TIP3    H221235   5.649   2.488   1.193
 7098TIP3   OH221236   4.648   1.258   4.294
 7098TIP3    H121237   4.667   1.202   4.218
 7098TIP3    H221238   4.726   1.249   4.349
 7099TIP3   OH221239   0.878   6.140   6.445
 7099TIP3    H121240   0.805   6.168   6.391
 7099TIP3    H221241   0.885   6.207   6.513
 7100TIP3   OH221242   0.818   0.731   1.255
 7100TIP3    H121243   0.886   0.780   1.300
 7100TIP3    H221244   0.861   0.651   1.224
 7101TIP3   OH221245   8.231   3.511   6.248
 7101TIP3    H121246   8.196   3.451   6.184
 7101TIP3    H221247   8.216   3.598   6.211
 7102TIP3   OH221248   7.180   3.816   1.527
 7102TIP3    H121249   7.141   3.764   1.457
 7102TIP3    H221250   7.239   3.876   1.482
 7103TIP3   OH221251   3.672   1.505   5.666
 7103TIP3    H121252   3.702   1.443   5.599
 7103TIP3    H221253   3.752   1.531   5.712
 7104TIP3   OH221254   4.239   6.835   5.315
 7104TIP3    H121255   4.145   6.845   5.324
 7104TIP3    H221256   4.276   6.895   5.380
 7105TIP3   OH221257   7.549   1.563   1.721
 7105TIP3    H121258   7.616   1.499   1.745
 7105TIP3    H221259   7.576   1.596   1.636
 7106TIP3   OH221260   7.039   2.543   1.465
 7106TIP3    H121261   6.953   2.583   1.460
 7106TIP3    H221262   7.022   2.451   1.482
 7107TIP3   OH221263   2.919   5.821   5.721
 7107TIP3    H121264   2.931   5.769   5.641
 7107TIP3    H221265   2.937   5.760   5.792
 7108TIP3   OH221266   2.865   3.830   3.807
 7108TIP3    H121267   2.816   3.748   3.813
 7108TIP3    H221268   2.862   3.853   3.715
 7109TIP3   OH221269   2.747   0.227   5.968
 7109TIP3    H121270   2.815   0.280   6.010
 7109TIP3    H221271   2.766   0.233   5.875
 7110TIP3   OH221272   0.484   4.958   6.458
 7110TIP3    H121273   0.438   4.962   6.541
 7110TIP3    H221274   0.542   4.883   6.466
 7111TIP3   OH221275   5.925   3.551   6.154
 7111TIP3    H121276   5.913   3.645   6.145
 7111TIP3    H221277   5.871   3.513   6.084
 7112TIP3   OH221278   3.643   0.452   3.997
 7112TIP3    H121279   3.649   0.439   3.902
 7112TIP3    H221280   3.729   0.484   4.022
 7113TIP3   OH221281   4.347   4.865   3.857
 7113TIP3    H121282   4.430   4.906   3.832
 7113TIP3    H221283   4.318   4.915   3.934
 7114TIP3   OH221284   3.247   0.747   1.315
 7114TIP3    H121285   3.227   0.782   1.228
 7114TIP3    H221286   3.292   0.819   1.359
 7115TIP3   OH221287   8.162   1.677   2.698
 7115TIP3    H121288   8.105   1.607   2.731
 7115TIP3    H221289   8.235   1.681   2.760
 7116TIP3   OH221290   0.246   5.915   5.751
 7116TIP3    H121291   0.238   5.859   5.673
 7116TIP3    H221292   0.304   5.866   5.810
 7117TIP3   OH221293   2.532   2.108   4.010
 7117TIP3    H121294   2.593   2.081   3.942
 7117TIP3    H221295   2.572   2.187   4.048
 7118TIP3   OH221296   7.299   1.071   3.318
 7118TIP3    H121297   7.342   1.152   3.288
 7118TIP3    H221298   7.328   1.004   3.256
 7119TIP3   OH221299   1.726   5.374   2.207
 7119TIP3    H121300   1.675   5.422   2.272
 7119TIP3    H221301   1.751   5.293   2.252
 7120TIP3   OH221302   1.027   4.973   4.635
 7120TIP3    H121303   1.037   4.977   4.730
 7120TIP3    H221304   1.036   4.880   4.614
 7121TIP3   OH221305   3.776   5.185   0.854
 7121TIP3    H121306   3.835   5.200   0.780
 7121TIP3    H221307   3.741   5.271   0.875
 7122TIP3   OH221308   5.389   6.703   4.429
 7122TIP3    H121309   5.348   6.640   4.369
 7122TIP3    H221310   5.472   6.662   4.453
 7123TIP3   OH221311   7.859   1.286   0.728
 7123TIP3    H121312   7.775   1.250   0.755
 7123TIP3    H221313   7.923   1.245   0.786
 7124TIP3   OH221314   6.118   1.394   2.689
 7124TIP3    H121315   6.026   1.421   2.693
 7124TIP3    H221316   6.126   1.325   2.755
 7125TIP3   OH221317   3.820   3.660   0.053
 7125TIP3    H121318   3.817   3.566   0.036
 7125TIP3    H221319   3.861   3.698  -0.025
 7126TIP3   OH221320   2.523   0.038   5.909
 7126TIP3    H121321   2.460   0.046   5.981
 7126TIP3    H221322   2.589   0.105   5.927
 7127TIP3   OH221323   4.037   3.576   4.468
 7127TIP3    H121324   4.030   3.624   4.551
 7127TIP3    H221325   4.124   3.599   4.434
 7128TIP3   OH221326   3.762   7.325   5.721
 7128TIP3    H121327   3.756   7.252   5.659
 7128TIP3    H221328   3.771   7.403   5.666
 7129TIP3   OH221329   5.341   1.964   1.522
 7129TIP3    H121330   5.305   2.045   1.557
 7129TIP3    H221331   5.285   1.942   1.448
 7130TIP3   OH221332   6.446   6.208   1.414
 7130TIP3    H121333   6.516   6.150   1.383
 7130TIP3    H221334   6.377   6.199   1.348
 7131TIP3   OH221335   2.987   5.561   2.342
 7131TIP3    H121336   3.048   5.621   2.384
 7131TIP3    H221337   2.947   5.614   2.272
 7132TIP3   OH221338   3.833   3.501   1.672
 7132TIP3    H121339   3.747   3.464   1.652
 7132TIP3    H221340   3.881   3.429   1.713
 7133TIP3   OH221341   7.609   3.650   2.634
 7133TIP3    H121342   7.525   3.661   2.678
 7133TIP3    H221343   7.598   3.693   2.550
 7134TIP3   OH221344   3.828   1.713   4.224
 7134TIP3    H121345   3.902   1.774   4.212
 7134TIP3    H221346   3.845   1.643   4.161
 7135TIP3   OH221347   3.994   4.336   1.743
 7135TIP3    H121348   4.057   4.407   1.758
 7135TIP3    H221349   3.951   4.359   1.661
 7136TIP3   OH221350   0.798   4.184   5.269
 7136TIP3    H121351   0.825   4.100   5.306
 7136TIP3    H221352   0.721   4.209   5.320
 7137TIP3   OH221353   7.641   4.159   4.226
 7137TIP3    H121354   7.585   4.092   4.186
 7137TIP3    H221355   7.608   4.242   4.191
 7138TIP3   OH221356   4.635   4.621   6.383
 7138TIP3    H121357   4.635   4.717   6.375
 7138TIP3    H221358   4.727   4.597   6.383
 7139TIP3   OH221359   1.091   4.433   4.790
 7139TIP3    H121360   1.005   4.448   4.830
 7139TIP3    H221361   1.111   4.342   4.812
 7140TIP3   OH221362   4.682   6.363   3.253
 7140TIP3    H121363   4.642   6.448   3.237
 7140TIP3    H221364   4.736   6.346   3.176
 7141TIP3   OH221365   4.166   4.151   6.312
 7141TIP3    H121366   4.204   4.224   6.361
 7141TIP3    H221367   4.082   4.134   6.355
 7142TIP3   OH221368   5.584   4.148   3.277
 7142TIP3    H121369   5.663   4.184   3.236
 7142TIP3    H221370   5.577   4.195   3.360
 7143TIP3   OH221371   2.141   1.205   4.590
 7143TIP3    H121372   2.159   1.219   4.683
 7143TIP3    H221373   2.225   1.221   4.547
 7144TIP3   OH221374   2.664   4.738   3.601
 7144TIP3    H121375   2.613   4.814   3.571
 7144TIP3    H221376   2.693   4.763   3.688
 7145TIP3   OH221377   6.269   4.772   4.632
 7145TIP3    H121378   6.206   4.767   4.704
 7145TIP3    H221379   6.275   4.865   4.612
 7146TIP3   OH221380   6.337   2.584   5.791
 7146TIP3    H121381   6.309   2.605   5.702
 7146TIP3    H221382   6.423   2.543   5.779
 7147TIP3   OH221383   3.021   3.470   4.013
 7147TIP3    H121384   3.062   3.388   3.986
 7147TIP3    H221385   2.952   3.485   3.948
 7148TIP3   OH221386   5.465   7.532   0.897
 7148TIP3    H121387   5.475   7.626   0.878
 7148TIP3    H221388   5.429   7.529   0.985
 7149TIP3   OH221389   6.813   5.974   3.182
 7149TIP3    H121390   6.840   6.053   3.135
 7149TIP3    H221391   6.868   5.905   3.145
 7150TIP3   OH221392   0.684   7.730   6.038
 7150TIP3    H121393   0.717   7.647   6.003
 7150TIP3    H221394   0.617   7.704   6.101
 7151TIP3   OH221395   3.391   5.819   0.697
 7151TIP3    H121396   3.317   5.804   0.756
 7151TIP3    H221397   3.385   5.911   0.673
 7152TIP3   OH221398   6.209   5.316   3.749
 7152TIP3    H121399   6.117   5.312   3.722
 7152TIP3    H221400   6.210   5.281   3.838
 7153TIP3   OH221401   6.208   6.673   5.600
 7153TIP3    H121402   6.153   6.708   5.670
 7153TIP3    H221403   6.254   6.749   5.566
 7154TIP3   OH221404   0.275   6.498   5.078
 7154TIP3    H121405   0.307   6.579   5.118
 7154TIP3    H221406   0.187   6.521   5.046
 7155TIP3   OH221407   2.816   4.662   3.288
 7155TIP3    H121408   2.724   4.689   3.295
 7155TIP3    H221409   2.813   4.566   3.288
 7156TIP3   OH221410   3.556   1.099   1.877
 7156TIP3    H121411   3.636   1.127   1.833
 7156TIP3    H221412   3.496   1.173   1.867
 7157TIP3   OH221413   2.040   6.734   0.907
 7157TIP3    H121414   2.068   6.820   0.937
 7157TIP3    H221415   2.122   6.688   0.888
 7158TIP3   OH221416   2.913   1.563   6.633
 7158TIP3    H121417   2.891   1.538   6.544
 7158TIP3    H221418   2.972   1.638   6.624
 7159TIP3   OH221419   5.112   4.587   4.098
 7159TIP3    H121420   5.094   4.519   4.034
 7159TIP3    H221421   5.174   4.547   4.159
 7160TIP3   OH221422   2.189   1.736   4.499
 7160TIP3    H121423   2.264   1.756   4.443
 7160TIP3    H221424   2.134   1.678   4.446
 7161TIP3   OH221425   6.558   1.082   3.745
 7161TIP3    H121426   6.594   1.144   3.809
 7161TIP3    H221427   6.585   0.996   3.777
 7162TIP3   OH221428   4.626   5.518   0.336
 7162TIP3    H121429   4.680   5.594   0.315
 7162TIP3    H221430   4.665   5.481   0.415
 7163TIP3   OH221431   2.757   1.895   0.642
 7163TIP3    H121432   2.849   1.887   0.619
 7163TIP3    H221433   2.756   1.902   0.738
 7164TIP3   OH221434   7.458   0.912   4.733
 7164TIP3    H121435   7.457   0.837   4.673
 7164TIP3    H221436   7.400   0.886   4.804
 7165TIP3   OH221437   2.679   0.075   3.177
 7165TIP3    H121438   2.669   0.100   3.269
 7165TIP3    H221439   2.702   0.157   3.132
 7166TIP3   OH221440   4.196   2.552   0.479
 7166TIP3    H121441   4.171   2.627   0.426
 7166TIP3    H221442   4.208   2.480   0.417
 7167TIP3   OH221443   6.974   3.191   2.197
 7167TIP3    H121444   6.899   3.217   2.250
 7167TIP3    H221445   6.953   3.221   2.108
 7168TIP3   OH221446   0.701   3.433   6.575
 7168TIP3    H121447   0.706   3.341   6.548
 7168TIP3    H221448   0.744   3.481   6.504
 7169TIP3   OH221449   4.853   4.987   6.756
 7169TIP3    H121450   4.936   4.940   6.768
 7169TIP3    H221451   4.787   4.930   6.795
 7170TIP3   OH221452   1.187   6.024   5.325
 7170TIP3    H121453   1.264   5.990   5.372
 7170TIP3    H221454   1.140   5.945   5.297
 7171TIP3   OH221455   3.204   3.310   3.174
 7171TIP3    H121456   3.190   3.358   3.255
 7171TIP3    H221457   3.237   3.225   3.201
 7172TIP3   OH221458   0.003   0.868   3.006
 7172TIP3    H121459   0.091   0.841   3.034
 7172TIP3    H221460  -0.024   0.932   3.072
 7173TIP3   OH221461   4.927   4.532   1.751
 7173TIP3    H121462   4.972   4.464   1.700
 7173TIP3    H221463   4.845   4.491   1.778
 7174TIP3   OH221464   4.115   0.591   3.039
 7174TIP3    H121465   4.135   0.683   3.021
 7174TIP3    H221466   4.118   0.584   3.134
 7175TIP3   OH221467   7.299   1.114   0.603
 7175TIP3    H121468   7.335   1.116   0.514
 7175TIP3    H221469   7.251   1.196   0.612
 7176TIP3   OH221470   5.313   5.081   6.031
 7176TIP3    H121471   5.369   5.022   5.979
 7176TIP3    H221472   5.305   5.037   6.116
 7177TIP3   OH221473   7.924   1.727   5.349
 7177TIP3    H121474   7.852   1.754   5.406
 7177TIP3    H221475   8.002   1.733   5.404
 7178TIP3   OH221476   0.865   7.447   0.168
 7178TIP3    H121477   0.860   7.455   0.263
 7178TIP3    H221478   0.943   7.497   0.143
 7179TIP3   OH221479   1.800   2.829   3.630
 7179TIP3    H121480   1.719   2.792   3.667
 7179TIP3    H221481   1.863   2.757   3.635
 7180TIP3   OH221482   2.449   5.366   1.005
 7180TIP3    H121483   2.483   5.318   1.080
 7180TIP3    H221484   2.511   5.349   0.935
 7181TIP3   OH221485   7.868   6.908   4.012
 7181TIP3    H121486   7.882   6.916   4.106
 7181TIP3    H221487   7.775   6.887   4.004
 7182TIP3   OH221488   7.262   0.556   5.812
 7182TIP3    H121489   7.261   0.498   5.736
 7182TIP3    H221490   7.189   0.526   5.867
 7183TIP3   OH221491   7.247   2.528   2.718
 7183TIP3    H121492   7.289   2.614   2.708
 7183TIP3    H221493   7.209   2.510   2.633
 7184TIP3   OH221494   5.818   2.617   1.174
 7184TIP3    H121495   5.902   2.647   1.209
 7184TIP3    H221496   5.772   2.697   1.151
 7185TIP3   OH221497   0.547   1.810   3.186
 7185TIP3    H121498   0.580   1.730   3.146
 7185TIP3    H221499   0.507   1.859   3.114
 7186TIP3   OH221500   7.433   1.949   3.733
 7186TIP3    H121501   7.436   1.858   3.703
 7186TIP3    H221502   7.432   1.943   3.828
 7187TIP3   OH221503   4.342   0.729   6.704
 7187TIP3    H121504   4.338   0.773   6.620
 7187TIP3    H221505   4.302   0.643   6.688
 7188TIP3   OH221506   5.273   4.050   1.575
 7188TIP3    H121507   5.320   4.056   1.658
 7188TIP3    H221508   5.208   4.120   1.579
 7189TIP3   OH221509   5.559   6.017   6.408
 7189TIP3    H121510   5.627   6.056   6.352
 7189TIP3    H221511   5.548   6.080   6.480
 7190TIP3   OH221512   0.724   7.478   3.367
 7190TIP3    H121513   0.667   7.408   3.400
 7190TIP3    H221514   0.732   7.460   3.274
 7191TIP3   OH221515   6.920   0.531   0.505
 7191TIP3    H121516   6.882   0.460   0.557
 7191TIP3    H221517   6.956   0.591   0.570
 7192TIP3   OH221518   1.851   2.206   4.525
 7192TIP3    H121519   1.932   2.157   4.508
 7192TIP3    H221520   1.853   2.225   4.618
 7193TIP3   OH221521   3.037   3.253   3.703
 7193TIP3    H121522   3.043   3.228   3.796
 7193TIP3    H221523   3.127   3.242   3.670
 7194TIP3   OH221524   1.075   3.748   5.533
 7194TIP3    H121525   1.123   3.826   5.507
 7194TIP3    H221526   1.036   3.715   5.451
 7195TIP3   OH221527   3.176   3.694   2.407
 7195TIP3    H121528   3.261   3.675   2.445
 7195TIP3    H221529   3.195   3.727   2.319
 7196TIP3   OH221530   2.352   1.278   6.792
 7196TIP3    H121531   2.362   1.335   6.716
 7196TIP3    H221532   2.258   1.257   6.794
 7197TIP3   OH221533   0.598   6.919   5.938
 7197TIP3    H121534   0.589   6.972   5.859
 7197TIP3    H221535   0.508   6.905   5.967
 7198TIP3   OH221536   1.737   1.981   2.121
 7198TIP3    H121537   1.797   1.997   2.194
 7198TIP3    H221538   1.728   2.067   2.078
 7199TIP3   OH221539   5.502   7.365   2.147
 7199TIP3    H121540   5.522   7.279   2.184
 7199TIP3    H221541   5.465   7.346   2.061
 7200TIP3   OH221542   4.821   5.085   1.705
 7200TIP3    H121543   4.844   5.150   1.771
 7200TIP3    H221544   4.788   5.010   1.756
 7201TIP3   OH221545   4.722   0.842   2.606
 7201TIP3    H121546   4.752   0.752   2.597
 7201TIP3    H221547   4.722   0.858   2.701
 7202TIP3   OH221548   7.134   0.351   1.478
 7202TIP3    H121549   7.226   0.336   1.499
 7202TIP3    H221550   7.112   0.283   1.415
 7203TIP3   OH221551   3.382   1.983   4.566
 7203TIP3    H121552   3.408   2.034   4.643
 7203TIP3    H221553   3.436   2.017   4.496
 7204TIP3   OH221554   4.180   5.232   1.788
 7204TIP3    H121555   4.206   5.209   1.878
 7204TIP3    H221556   4.118   5.164   1.763
 7205TIP3   OH221557   1.702   6.759   1.545
 7205TIP3    H121558   1.723   6.853   1.544
 7205TIP3    H221559   1.773   6.719   1.494
 7206TIP3   OH221560   0.386   4.289   4.642
 7206TIP3    H121561   0.426   4.209   4.679
 7206TIP3    H221562   0.374   4.269   4.550
 7207TIP3   OH221563   7.403   7.750   1.785
 7207TIP3    H121564   7.321   7.745   1.835
 7207TIP3    H221565   7.447   7.828   1.817
 7208TIP3   OH221566   7.678   6.489   5.968
 7208TIP3    H121567   7.594   6.498   5.923
 7208TIP3    H221568   7.714   6.407   5.935
 7209TIP3   OH221569   2.404   3.262   0.811
 7209TIP3    H121570   2.308   3.263   0.817
 7209TIP3    H221571   2.424   3.319   0.737
 7210TIP3   OH221572   4.245   1.032   2.296
 7210TIP3    H121573   4.263   1.115   2.341
 7210TIP3    H221574   4.149   1.026   2.295
 7211TIP3   OH221575   1.790   6.874   3.308
 7211TIP3    H121576   1.787   6.963   3.341
 7211TIP3    H221577   1.703   6.838   3.326
 7212TIP3   OH221578   5.342   7.623   3.001
 7212TIP3    H121579   5.387   7.658   3.078
 7212TIP3    H221580   5.370   7.532   2.996
 7213TIP3   OH221581   2.882   1.461   6.355
 7213TIP3    H121582   2.968   1.426   6.333
 7213TIP3    H221583   2.864   1.527   6.288
 7214TIP3   OH221584   6.705   2.132   4.121
 7214TIP3    H121585   6.668   2.180   4.047
 7214TIP3    H221586   6.747   2.200   4.174
 7215TIP3   OH221587   7.573   2.786   2.116
 7215TIP3    H121588   7.539   2.872   2.143
 7215TIP3    H221589   7.660   2.805   2.082
 7216TIP3   OH221590   3.377   1.455   4.029
 7216TIP3    H121591   3.316   1.527   4.013
 7216TIP3    H221592   3.328   1.376   4.007
 7217TIP3   OH221593   2.248   1.964   1.823
 7217TIP3    H121594   2.301   1.986   1.899
 7217TIP3    H221595   2.291   2.009   1.750
 7218TIP3   OH221596   7.756   4.976   0.342
 7218TIP3    H121597   7.832   5.017   0.301
 7218TIP3    H221598   7.758   4.885   0.312
 7219TIP3   OH221599   1.748   3.391   0.211
 7219TIP3    H121600   1.655   3.388   0.191
 7219TIP3    H221601   1.754   3.370   0.304
 7220TIP3   OH221602   2.943   5.800   5.437
 7220TIP3    H121603   2.947   5.772   5.346
 7220TIP3    H221604   2.953   5.895   5.434
 7221TIP3   OH221605   6.478   6.359   2.097
 7221TIP3    H121606   6.540   6.376   2.026
 7221TIP3    H221607   6.462   6.265   2.094
 7222TIP3   OH221608   1.182   3.065   5.891
 7222TIP3    H121609   1.093   3.098   5.876
 7222TIP3    H221610   1.238   3.140   5.877
 7223TIP3   OH221611   4.144   7.244   0.617
 7223TIP3    H121612   4.231   7.242   0.656
 7223TIP3    H221613   4.089   7.194   0.678
 7224TIP3   OH221614   1.649   6.994   5.146
 7224TIP3    H121615   1.601   7.077   5.148
 7224TIP3    H221616   1.591   6.933   5.101
 7225TIP3   OH221617   2.612   3.771   0.820
 7225TIP3    H121618   2.537   3.817   0.780
 7225TIP3    H221619   2.577   3.734   0.901
 7226TIP3   OH221620   7.909   5.158   3.441
 7226TIP3    H121621   7.912   5.232   3.381
 7226TIP3    H221622   7.823   5.119   3.427
 7227TIP3   OH221623   3.433   6.453   6.468
 7227TIP3    H121624   3.465   6.510   6.538
 7227TIP3    H221625   3.399   6.376   6.514
 7228TIP3   OH221626   6.090   6.814   4.721
 7228TIP3    H121627   6.066   6.768   4.800
 7228TIP3    H221628   6.007   6.830   4.676
 7229TIP3   OH221629   3.809   6.983   3.123
 7229TIP3    H121630   3.825   7.070   3.085
 7229TIP3    H221631   3.867   6.979   3.198
 7230TIP3   OH221632   3.516   3.907   3.238
 7230TIP3    H121633   3.459   3.886   3.163
 7230TIP3    H221634   3.544   3.997   3.221
 7231TIP3   OH221635   6.282   1.086   2.595
 7231TIP3    H121636   6.305   0.994   2.581
 7231TIP3    H221637   6.270   1.122   2.507
 7232TIP3   OH221638   5.851   5.924   2.811
 7232TIP3    H121639   5.908   5.875   2.751
 7232TIP3    H221640   5.905   5.937   2.889
 7233TIP3   OH221641   0.630   4.855   2.592
 7233TIP3    H121642   0.617   4.798   2.667
 7233TIP3    H221643   0.705   4.910   2.616
 7234TIP3   OH221644   5.799   4.161   6.425
 7234TIP3    H121645   5.740   4.236   6.428
 7234TIP3    H221646   5.886   4.197   6.439
 7235TIP3   OH221647   2.871   3.271   4.591
 7235TIP3    H121648   2.777   3.251   4.599
 7235TIP3    H221649   2.874   3.355   4.546
 7236TIP3   OH221650   5.919   4.790   2.622
 7236TIP3    H121651   5.880   4.789   2.535
 7236TIP3    H221652   5.961   4.704   2.630
 7237TIP3   OH221653   3.062   6.430   4.769
 7237TIP3    H121654   2.973   6.400   4.755
 7237TIP3    H221655   3.055   6.495   4.839
 7238TIP3   OH221656   4.344   2.520   6.483
 7238TIP3    H121657   4.430   2.490   6.452
 7238TIP3    H221658   4.363   2.562   6.567
 7239TIP3   OH221659   0.215   2.984   0.254
 7239TIP3    H121660   0.298   2.970   0.207
 7239TIP3    H221661   0.220   3.074   0.286
 7240TIP3   OH221662   5.317   5.494   2.894
 7240TIP3    H121663   5.348   5.404   2.881
 7240TIP3    H221664   5.301   5.500   2.988
 7241TIP3   OH221665   1.005   0.614   3.476
 7241TIP3    H121666   0.929   0.556   3.485
 7241TIP3    H221667   1.044   0.616   3.563
 7242TIP3   OH221668   0.207   5.687   1.519
 7242TIP3    H121669   0.270   5.684   1.591
 7242TIP3    H221670   0.256   5.722   1.445
 7243TIP3   OH221671   0.417   1.299   4.342
 7243TIP3    H121672   0.437   1.275   4.433
 7243TIP3    H221673   0.380   1.387   4.348
 7244TIP3   OH221674   1.160   7.195   2.766
 7244TIP3    H121675   1.246   7.196   2.724
 7244TIP3    H221676   1.108   7.257   2.715
 7245TIP3   OH221677   4.209   7.216   4.666
 7245TIP3    H121678   4.124   7.259   4.678
 7245TIP3    H221679   4.241   7.200   4.755
 7246TIP3   OH221680   8.007   0.496   3.812
 7246TIP3    H121681   8.028   0.493   3.718
 7246TIP3    H221682   7.915   0.520   3.815
 7247TIP3   OH221683   0.640   2.425   5.607
 7247TIP3    H121684   0.547   2.405   5.605
 7247TIP3    H221685   0.674   2.375   5.681
 7248TIP3   OH221686   1.487   5.617   5.204
 7248TIP3    H121687   1.416   5.610   5.141
 7248TIP3    H221688   1.549   5.679   5.164
 7249TIP3   OH221689   4.161   3.542   4.755
 7249TIP3    H121690   4.105   3.484   4.807
 7249TIP3    H221691   4.195   3.605   4.819
 7250TIP3   OH221692   5.343   6.368   3.025
 7250TIP3    H121693   5.412   6.397   3.085
 7250TIP3    H221694   5.368   6.278   3.003
 7251TIP3   OH221695   6.123   1.106   3.576
 7251TIP3    H121696   6.212   1.071   3.569
 7251TIP3    H221697   6.098   1.126   3.486
 7252TIP3   OH221698   7.963   7.424   5.057
 7252TIP3    H121699   7.886   7.380   5.022
 7252TIP3    H221700   7.942   7.438   5.150
 7253TIP3   OH221701   1.994   6.328   1.024
 7253TIP3    H121702   2.078   6.307   0.984
 7253TIP3    H221703   1.931   6.273   0.978
 7254TIP3   OH221704   1.136   0.877   4.594
 7254TIP3    H121705   1.089   0.842   4.518
 7254TIP3    H221706   1.155   0.801   4.648
 7255TIP3   OH221707   3.773   1.351   5.998
 7255TIP3    H121708   3.780   1.305   5.914
 7255TIP3    H221709   3.822   1.296   6.060
 7256TIP3   OH221710   4.056   3.729   3.186
 7256TIP3    H121711   4.144   3.736   3.223
 7256TIP3    H221712   4.069   3.686   3.102
 7257TIP3   OH221713   1.947   3.007   0.003
 7257TIP3    H121714   2.017   3.051   0.052
 7257TIP3    H221715   1.913   2.942   0.064
 7258TIP3   OH221716   5.270   4.650   4.461
 7258TIP3    H121717   5.275   4.579   4.397
 7258TIP3    H221718   5.210   4.617   4.528
 7259TIP3   OH221719   3.620   2.255   4.060
 7259TIP3    H121720   3.628   2.185   4.125
 7259TIP3    H221721   3.704   2.300   4.064
 7260TIP3   OH221722   2.357   7.481   3.245
 7260TIP3    H121723   2.388   7.409   3.300
 7260TIP3    H221724   2.267   7.457   3.222
 7261TIP3   OH221725   5.133   1.679   2.913
 7261TIP3    H121726   5.106   1.755   2.860
 7261TIP3    H221727   5.127   1.710   3.003
 7262TIP3   OH221728   3.110   4.924   3.034
 7262TIP3    H121729   3.120   5.015   3.006
 7262TIP3    H221730   3.041   4.926   3.100
 7263TIP3   OH221731   5.420   6.268   5.353
 7263TIP3    H121732   5.469   6.324   5.412
 7263TIP3    H221733   5.467   6.185   5.353
 7264TIP3   OH221734   2.403   4.645   4.441
 7264TIP3    H121735   2.422   4.712   4.376
 7264TIP3    H221736   2.470   4.658   4.509
 7265TIP3   OH221737   0.990   6.744   2.038
 7265TIP3    H121738   1.016   6.711   2.124
 7265TIP3    H221739   1.017   6.836   2.038
 7266TIP3   OH221740   2.678   0.685   6.134
 7266TIP3    H121741   2.755   0.739   6.149
 7266TIP3    H221742   2.678   0.668   6.040
 7267TIP3   OH221743   7.309   2.469   3.296
 7267TIP3    H121744   7.362   2.518   3.233
 7267TIP3    H221745   7.238   2.433   3.243
 7268TIP3   OH221746   6.065   0.739   0.865
 7268TIP3    H121747   6.088   0.646   0.865
 7268TIP3    H221748   6.147   0.784   0.882
 7269TIP3   OH221749   3.758   5.744   3.671
 7269TIP3    H121750   3.675   5.745   3.623
 7269TIP3    H221751   3.825   5.763   3.605
 7270TIP3   OH221752   0.714   1.159   5.855
 7270TIP3    H121753   0.734   1.246   5.821
 7270TIP3    H221754   0.797   1.125   5.887
 7271TIP3   OH221755   0.608   0.199   2.441
 7271TIP3    H121756   0.626   0.144   2.364
 7271TIP3    H221757   0.532   0.251   2.415
 7272TIP3   OH221758   3.788   3.574   0.535
 7272TIP3    H121759   3.809   3.593   0.444
 7272TIP3    H221760   3.745   3.488   0.533
 7273TIP3   OH221761   6.871   5.896   0.155
 7273TIP3    H121762   6.937   5.886   0.086
 7273TIP3    H221763   6.920   5.886   0.236
 7274TIP3   OH221764   2.961   4.129   6.532
 7274TIP3    H121765   2.871   4.138   6.500
 7274TIP3    H221766   2.982   4.213   6.572
 7275TIP3   OH221767   4.871   2.160   0.394
 7275TIP3    H121768   4.863   2.229   0.459
 7275TIP3    H221769   4.830   2.083   0.435
 7276TIP3   OH221770   3.743   2.619   4.818
 7276TIP3    H121771   3.788   2.632   4.901
 7276TIP3    H221772   3.699   2.535   4.826
 7277TIP3   OH221773   2.384   6.307   6.410
 7277TIP3    H121774   2.344   6.220   6.414
 7277TIP3    H221775   2.332   6.355   6.345
 7278TIP3   OH221776   1.308   0.944   2.424
 7278TIP3    H121777   1.296   1.034   2.391
 7278TIP3    H221778   1.363   0.955   2.502
 7279TIP3   OH221779   4.032   2.301   0.495
 7279TIP3    H121780   4.018   2.275   0.404
 7279TIP3    H221781   4.106   2.361   0.492
 7280TIP3   OH221782   5.642   2.179   6.004
 7280TIP3    H121783   5.624   2.131   6.084
 7280TIP3    H221784   5.560   2.223   5.982
 7281TIP3   OH221785   2.952   2.295   0.144
 7281TIP3    H121786   2.916   2.382   0.163
 7281TIP3    H221787   2.883   2.235   0.173
 7282TIP3   OH221788   0.689   3.385   3.821
 7282TIP3    H121789   0.778   3.420   3.825
 7282TIP3    H221790   0.700   3.292   3.799
 7283TIP3   OH221791   6.147   7.299   3.135
 7283TIP3    H121792   6.072   7.349   3.103
 7283TIP3    H221793   6.222   7.334   3.086
 7284TIP3   OH221794   1.491   5.700   6.225
 7284TIP3    H121795   1.517   5.763   6.158
 7284TIP3    H221796   1.547   5.720   6.300
 7285TIP3   OH221797   4.490   4.096   1.989
 7285TIP3    H121798   4.561   4.157   1.972
 7285TIP3    H221799   4.512   4.056   2.073
 7286TIP3   OH221800   6.130   1.848   5.325
 7286TIP3    H121801   6.144   1.755   5.341
 7286TIP3    H221802   6.199   1.872   5.264
 7287TIP3   OH221803   3.776   3.683   2.496
 7287TIP3    H121804   3.792   3.753   2.560
 7287TIP3    H221805   3.852   3.625   2.505
 7288TIP3   OH221806   3.970   6.858   2.940
 7288TIP3    H121807   3.913   6.906   2.999
 7288TIP3    H221808   3.959   6.901   2.855
 7289TIP3   OH221809   6.261   4.838   0.904
 7289TIP3    H121810   6.351   4.815   0.882
 7289TIP3    H221811   6.248   4.803   0.992
 7290TIP3   OH221812   2.635   7.729   5.536
 7290TIP3    H121813   2.543   7.709   5.524
 7290TIP3    H221814   2.641   7.764   5.625
 7291TIP3   OH221815   2.593   1.744   1.624
 7291TIP3    H121816   2.645   1.669   1.652
 7291TIP3    H221817   2.519   1.746   1.684
 7292TIP3   OH221818   7.761   4.825   1.840
 7292TIP3    H121819   7.694   4.757   1.844
 7292TIP3    H221820   7.805   4.810   1.757
 7293TIP3   OH221821   4.645   2.517   3.756
 7293TIP3    H121822   4.678   2.478   3.675
 7293TIP3    H221823   4.577   2.456   3.785
 7294TIP3   OH221824   5.134   6.260   1.476
 7294TIP3    H121825   5.088   6.247   1.558
 7294TIP3    H221826   5.199   6.190   1.473
 7295TIP3   OH221827   2.910   6.822   6.308
 7295TIP3    H121828   2.918   6.727   6.300
 7295TIP3    H221829   2.973   6.845   6.376
 7296TIP3   OH221830   6.154   1.967   5.564
 7296TIP3    H121831   6.125   1.917   5.488
 7296TIP3    H221832   6.075   1.977   5.617
 7297TIP3   OH221833   6.216   5.403   5.945
 7297TIP3    H121834   6.209   5.342   6.018
 7297TIP3    H221835   6.156   5.367   5.879
 7298TIP3   OH221836   6.853   7.129   0.280
 7298TIP3    H121837   6.809   7.209   0.308
 7298TIP3    H221838   6.898   7.097   0.359
 7299TIP3   OH221839  -0.004   7.316   4.005
 7299TIP3    H121840   0.017   7.342   3.915
 7299TIP3    H221841   0.068   7.259   4.031
 7300TIP3   OH221842   4.703   1.984   6.119
 7300TIP3    H121843   4.741   2.072   6.127
 7300TIP3    H221844   4.614   1.999   6.089
 7301TIP3   OH221845   1.804   0.950   4.490
 7301TIP3    H121846   1.741   0.997   4.436
 7301TIP3    H221847   1.813   1.003   4.569
 7302TIP3   OH221848   2.122   3.071   1.541
 7302TIP3    H121849   2.067   3.145   1.517
 7302TIP3    H221850   2.083   3.036   1.620
 7303TIP3   OH221851   6.682   5.248   6.664
 7303TIP3    H121852   6.664   5.195   6.587
 7303TIP3    H221853   6.666   5.338   6.636
 7304TIP3   OH221854   6.475   4.718   1.977
 7304TIP3    H121855   6.535   4.695   2.048
 7304TIP3    H221856   6.530   4.760   1.911
 7305TIP3   OH221857   4.385   7.689   1.048
 7305TIP3    H121858   4.305   7.738   1.028
 7305TIP3    H221859   4.384   7.616   0.986
 7306TIP3   OH221860   6.145   2.424   4.099
 7306TIP3    H121861   6.209   2.382   4.157
 7306TIP3    H221862   6.062   2.381   4.121
 7307TIP3   OH221863   5.604   6.040   2.884
 7307TIP3    H121864   5.656   6.015   2.961
 7307TIP3    H221865   5.668   6.067   2.819
 7308TIP3   OH221866   2.439   3.464   3.183
 7308TIP3    H121867   2.464   3.448   3.274
 7308TIP3    H221868   2.512   3.515   3.147
 7309TIP3   OH221869   4.708   4.901   5.261
 7309TIP3    H121870   4.737   4.871   5.346
 7309TIP3    H221871   4.615   4.920   5.272
 7310TIP3   OH221872   7.433   0.902   0.144
 7310TIP3    H121873   7.390   0.874   0.063
 7310TIP3    H221874   7.365   0.899   0.210
 7311TIP3   OH221875   2.499   2.962   1.579
 7311TIP3    H121876   2.534   3.013   1.652
 7311TIP3    H221877   2.445   3.024   1.530
 7312TIP3   OH221878   2.944   7.330   6.582
 7312TIP3    H121879   2.888   7.307   6.656
 7312TIP3    H221880   2.934   7.425   6.573
 7313TIP3   OH221881   6.751   1.550   2.083
 7313TIP3    H121882   6.782   1.501   2.160
 7313TIP3    H221883   6.797   1.511   2.009
 7314TIP3   OH221884   6.977   2.403   2.344
 7314TIP3    H121885   6.954   2.484   2.299
 7314TIP3    H221886   6.963   2.334   2.279
 7315TIP3   OH221887   7.706   4.357   4.703
 7315TIP3    H121888   7.705   4.319   4.615
 7315TIP3    H221889   7.699   4.282   4.762
 7316TIP3   OH221890   5.906   2.280   2.308
 7316TIP3    H121891   5.863   2.300   2.225
 7316TIP3    H221892   5.916   2.365   2.351
 7317TIP3   OH221893   2.496   5.853   1.606
 7317TIP3    H121894   2.440   5.855   1.683
 7317TIP3    H221895   2.436   5.852   1.532
 7318TIP3   OH221896   4.273   3.354   2.589
 7318TIP3    H121897   4.274   3.350   2.493
 7318TIP3    H221898   4.364   3.365   2.614
 7319TIP3   OH221899   2.748   7.508   5.414
 7319TIP3    H121900   2.841   7.529   5.407
 7319TIP3    H221901   2.706   7.593   5.431
 7320TIP3   OH221902   1.157   2.168   5.603
 7320TIP3    H121903   1.139   2.262   5.610
 7320TIP3    H221904   1.251   2.163   5.584
 7321TIP3   OH221905   7.353   5.363   2.845
 7321TIP3    H121906   7.282   5.300   2.832
 7321TIP3    H221907   7.406   5.357   2.766
 7322TIP3   OH221908   7.300   6.323   4.834
 7322TIP3    H121909   7.381   6.363   4.865
 7322TIP3    H221910   7.257   6.290   4.913
 7323TIP3   OH221911   0.905   1.896   4.916
 7323TIP3    H121912   0.908   1.801   4.905
 7323TIP3    H221913   0.892   1.930   4.827
 7324TIP3   OH221914  -0.017   3.901   1.604
 7324TIP3    H121915   0.061   3.940   1.566
 7324TIP3    H221916  -0.089   3.938   1.553
 7325TIP3   OH221917   0.629   7.002   6.352
 7325TIP3    H121918   0.631   7.094   6.324
 7325TIP3    H221919   0.552   6.995   6.408
 7326TIP3   OH221920   3.751   6.751   5.638
 7326TIP3    H121921   3.840   6.786   5.628
 7326TIP3    H221922   3.697   6.829   5.652
 7327TIP3   OH221923   0.398   3.383   6.207
 7327TIP3    H121924   0.460   3.312   6.221
 7327TIP3    H221925   0.313   3.345   6.229
 7328TIP3   OH221926   1.589   4.146   1.492
 7328TIP3    H121927   1.569   4.161   1.585
 7328TIP3    H221928   1.512   4.102   1.458
 7329TIP3   OH221929   7.407   4.030   0.937
 7329TIP3    H121930   7.407   4.125   0.923
 7329TIP3    H221931   7.361   4.018   1.020
 7330TIP3   OH221932   1.802   1.015   6.344
 7330TIP3    H121933   1.877   0.963   6.374
 7330TIP3    H221934   1.830   1.106   6.357
 7331TIP3   OH221935   1.916   2.980   2.376
 7331TIP3    H121936   1.938   2.894   2.410
 7331TIP3    H221937   1.911   2.969   2.281
 7332TIP3   OH221938   0.823   6.673   4.016
 7332TIP3    H121939   0.734   6.704   4.028
 7332TIP3    H221940   0.829   6.650   3.923
 7333TIP3   OH221941   4.863   2.474   2.483
 7333TIP3    H121942   4.943   2.485   2.431
 7333TIP3    H221943   4.859   2.381   2.502
 7334TIP3   OH221944   5.084   6.710   5.129
 7334TIP3    H121945   5.047   6.799   5.137
 7334TIP3    H221946   5.176   6.725   5.106
 7335TIP3   OH221947   2.158   4.307   5.474
 7335TIP3    H121948   2.153   4.346   5.561
 7335TIP3    H221949   2.159   4.213   5.490
 7336TIP3   OH221950   3.762   5.417   0.139
 7336TIP3    H121951   3.712   5.343   0.174
 7336TIP3    H221952   3.757   5.483   0.209
 7337TIP3   OH221953   2.533   2.741   2.411
 7337TIP3    H121954   2.456   2.734   2.468
 7337TIP3    H221955   2.506   2.800   2.341
 7338TIP3   OH221956   3.213   1.781   3.744
 7338TIP3    H121957   3.269   1.723   3.693
 7338TIP3    H221958   3.125   1.767   3.708
 7339TIP3   OH221959   7.970   7.313   1.193
 7339TIP3    H121960   7.890   7.339   1.148
 7339TIP3    H221961   8.040   7.331   1.130
 7340TIP3   OH221962   4.731   2.080   1.686
 7340TIP3    H121963   4.823   2.108   1.678
 7340TIP3    H221964   4.681   2.150   1.644
 7341TIP3   OH221965   4.146   4.816   1.689
 7341TIP3    H121966   4.113   4.751   1.750
 7341TIP3    H221967   4.095   4.802   1.609
 7342TIP3   OH221968   2.162   3.667   4.717
 7342TIP3    H121969   2.119   3.597   4.766
 7342TIP3    H221970   2.122   3.748   4.749
 7343TIP3   OH221971   2.479   5.741   4.572
 7343TIP3    H121972   2.517   5.753   4.485
 7343TIP3    H221973   2.544   5.777   4.632
 7344TIP3   OH221974   2.037   0.429   1.706
 7344TIP3    H121975   2.111   0.485   1.683
 7344TIP3    H221976   2.072   0.369   1.771
 7345TIP3   OH221977   5.874   4.792   0.405
 7345TIP3    H121978   5.870   4.704   0.366
 7345TIP3    H221979   5.850   4.850   0.333
 7346TIP3   OH221980   3.616   0.306   4.496
 7346TIP3    H121981   3.565   0.320   4.417
 7346TIP3    H221982   3.643   0.214   4.492
 7347TIP3   OH221983   2.303   5.841   5.941
 7347TIP3    H121984   2.318   5.908   6.007
 7347TIP3    H221985   2.363   5.770   5.965
 7348TIP3   OH221986   0.753   1.523   5.108
 7348TIP3    H121987   0.814   1.450   5.103
 7348TIP3    H221988   0.701   1.516   5.028
 7349TIP3   OH221989   5.063   0.989   4.401
 7349TIP3    H121990   5.069   1.071   4.451
 7349TIP3    H221991   5.022   0.928   4.461
 7350TIP3   OH221992   0.368   1.713   6.419
 7350TIP3    H121993   0.342   1.764   6.496
 7350TIP3    H221994   0.462   1.730   6.409
 7351TIP3   OH221995   7.864   4.223   3.358
 7351TIP3    H121996   7.873   4.214   3.453
 7351TIP3    H221997   7.894   4.312   3.339
 7352TIP3   OH221998   0.261   2.136   6.444
 7352TIP3    H121999   0.351   2.153   6.416
 7352TIP3    H222000   0.243   2.203   6.509
 7353TIP3   OH222001   1.639   5.464   1.017
 7353TIP3    H122002   1.578   5.429   1.082
 7353TIP3    H222003   1.719   5.412   1.031
 7354TIP3   OH222004   3.454   0.774   6.176
 7354TIP3    H122005   3.391   0.790   6.106
 7354TIP3    H222006   3.405   0.793   6.256
 7355TIP3   OH222007   3.327   1.665   2.553
 7355TIP3    H122008   3.418   1.674   2.581
 7355TIP3    H222009   3.286   1.613   2.622
 7356TIP3   OH222010  -0.002   5.288   0.908
 7356TIP3    H122011   0.028   5.218   0.966
 7356TIP3    H222012   0.057   5.284   0.832
 7357TIP3   OH222013   0.772   0.468   1.559
 7357TIP3    H122014   0.776   0.382   1.601
 7357TIP3    H222015   0.863   0.487   1.535
 7358TIP3   OH222016   3.341   5.742   1.315
 7358TIP3    H122017   3.279   5.668   1.318
 7358TIP3    H222018   3.343   5.768   1.223
 7359TIP3   OH222019   2.463   7.014   2.794
 7359TIP3    H122020   2.469   7.041   2.886
 7359TIP3    H222021   2.501   7.087   2.746
 7360TIP3   OH222022   7.606   2.691   6.155
 7360TIP3    H122023   7.694   2.718   6.181
 7360TIP3    H222024   7.603   2.704   6.060
 7361TIP3   OH222025   5.305   6.857   6.438
 7361TIP3    H122026   5.253   6.934   6.463
 7361TIP3    H222027   5.315   6.865   6.343
 7362TIP3   OH222028   4.107   1.483   2.292
 7362TIP3    H122029   4.081   1.573   2.311
 7362TIP3    H222030   4.062   1.431   2.359
 7363TIP3   OH222031   3.293   0.833   4.073
 7363TIP3    H122032   3.269   0.876   4.155
 7363TIP3    H222033   3.383   0.803   4.087
 7364TIP3   OH222034   0.797   3.721   2.969
 7364TIP3    H122035   0.795   3.812   2.999
 7364TIP3    H222036   0.766   3.670   3.044
 7365TIP3   OH222037   8.247   5.583   6.545
 7365TIP3    H122038   8.208   5.604   6.461
 7365TIP3    H222039   8.215   5.651   6.605
 7366TIP3   OH222040   7.651   3.918   0.368
 7366TIP3    H122041   7.580   3.926   0.304
 7366TIP3    H222042   7.667   3.824   0.376
 7367TIP3   OH222043   8.295   6.036   0.251
 7367TIP3    H122044   8.382   6.007   0.224
 7367TIP3    H222045   8.274   6.108   0.192
 7368TIP3   OH222046   4.382   7.433   3.544
 7368TIP3    H122047   4.299   7.468   3.513
 7368TIP3    H222048   4.359   7.352   3.589
 7369TIP3   OH222049   0.540   1.588   4.003
 7369TIP3    H122050   0.592   1.566   3.925
 7369TIP3    H222051   0.490   1.665   3.979
 7370TIP3   OH222052   7.330   4.780   3.809
 7370TIP3    H122053   7.393   4.736   3.866
 7370TIP3    H222054   7.374   4.861   3.782
 7371TIP3   OH222055   4.897   5.221   5.693
 7371TIP3    H122056   4.910   5.182   5.606
 7371TIP3    H222057   4.824   5.171   5.731
 7372TIP3   OH222058   2.038   2.985   1.815
 7372TIP3    H122059   2.112   3.041   1.834
 7372TIP3    H222060   1.975   3.003   1.885
 7373TIP3   OH222061   3.250   3.327   4.184
 7373TIP3    H122062   3.237   3.421   4.171
 7373TIP3    H222063   3.168   3.296   4.223
 7374TIP3   OH222064  -0.023   7.819   2.487
 7374TIP3    H122065   0.057   7.801   2.536
 7374TIP3    H222066  -0.005   7.786   2.399
 7375TIP3   OH222067   6.456   0.655   5.287
 7375TIP3    H122068   6.514   0.620   5.219
 7375TIP3    H222069   6.450   0.586   5.352
 7376TIP3   OH222070   7.426   5.778   1.820
 7376TIP3    H122071   7.407   5.784   1.914
 7376TIP3    H222072   7.495   5.711   1.814
 7377TIP3   OH222073   5.366   3.183   5.962
 7377TIP3    H122074   5.353   3.278   5.966
 7377TIP3    H222075   5.431   3.165   6.030
 7378TIP3   OH222076   1.417   3.393   2.085
 7378TIP3    H122077   1.369   3.470   2.113
 7378TIP3    H222078   1.509   3.415   2.099
 7379TIP3   OH222079   2.017   0.645   3.231
 7379TIP3    H122080   2.030   0.550   3.233
 7379TIP3    H222081   1.951   0.661   3.298
 7380TIP3   OH222082   4.370   2.396   4.020
 7380TIP3    H122083   4.459   2.388   4.056
 7380TIP3    H222084   4.382   2.383   3.925
 7381TIP3   OH222085   7.942   2.329   4.444
 7381TIP3    H122086   7.947   2.379   4.526
 7381TIP3    H222087   7.934   2.238   4.472
 7382TIP3   OH222088   3.535   3.197   2.406
 7382TIP3    H122089   3.597   3.135   2.445
 7382TIP3    H222090   3.564   3.282   2.439
 7383TIP3   OH222091   6.928   1.928   4.671
 7383TIP3    H122092   6.873   1.941   4.748
 7383TIP3    H222093   6.867   1.911   4.600
 7384TIP3   OH222094   1.755   7.352   2.626
 7384TIP3    H122095   1.838   7.311   2.651
 7384TIP3    H222096   1.759   7.440   2.663
 7385TIP3   OH222097   7.753   4.036   2.253
 7385TIP3    H122098   7.662   4.028   2.282
 7385TIP3    H222099   7.772   3.953   2.209
 7386TIP3   OH222100   4.249   6.014   6.610
 7386TIP3    H122101   4.314   5.987   6.544
 7386TIP3    H222102   4.167   5.974   6.580
 7387TIP3   OH222103   5.142   4.992   1.074
 7387TIP3    H122104   5.114   4.912   1.119
 7387TIP3    H222105   5.232   5.006   1.104
 7388TIP3   OH222106   6.983   4.977   1.524
 7388TIP3    H122107   6.998   4.974   1.618
 7388TIP3    H222108   6.920   4.907   1.508
 7389TIP3   OH222109   6.473   0.968   1.645
 7389TIP3    H122110   6.382   0.995   1.634
 7389TIP3    H222111   6.481   0.949   1.739
 7390TIP3   OH222112   2.457   4.760   2.618
 7390TIP3    H122113   2.548   4.765   2.590
 7390TIP3    H222114   2.453   4.814   2.697
 7391TIP3   OH222115   5.728   3.040   3.753
 7391TIP3    H122116   5.693   3.054   3.841
 7391TIP3    H222117   5.660   3.073   3.694
 7392TIP3   OH222118   0.147   1.815   6.279
 7392TIP3    H122119   0.200   1.764   6.342
 7392TIP3    H222120   0.128   1.897   6.324
 7393TIP3   OH222121   3.602   3.364   1.602
 7393TIP3    H122122   3.508   3.382   1.605
 7393TIP3    H222123   3.613   3.307   1.526
 7394TIP3   OH222124   8.270   2.653   1.052
 7394TIP3    H122125   8.207   2.624   0.986
 7394TIP3    H222126   8.222   2.716   1.106
 7395TIP3   OH222127   7.123   2.311   4.562
 7395TIP3    H122128   7.046   2.270   4.522
 7395TIP3    H222129   7.151   2.249   4.629
 7396TIP3   OH222130   2.002   7.711   2.609
 7396TIP3    H122131   1.927   7.679   2.661
 7396TIP3    H222132   2.052   7.765   2.670
 7397TIP3   OH222133   5.382   1.052   2.248
 7397TIP3    H122134   5.381   1.147   2.234
 7397TIP3    H222135   5.289   1.028   2.256
 7398TIP3   OH222136   0.007   0.483   4.579
 7398TIP3    H122137   0.062   0.511   4.506
 7398TIP3    H222138   0.030   0.391   4.593
 7399TIP3   OH222139   0.927   3.075   0.258
 7399TIP3    H122140   1.010   3.029   0.260
 7399TIP3    H222141   0.862   3.010   0.285
 7400TIP3   OH222142   0.256   4.461   4.864
 7400TIP3    H122143   0.282   4.432   4.777
 7400TIP3    H222144   0.337   4.465   4.914
 7401TIP3   OH222145   3.989   1.239   1.969
 7401TIP3    H122146   4.083   1.256   1.979
 7401TIP3    H222147   3.954   1.243   2.057
 7402TIP3   OH222148   4.324   5.806   5.352
 7402TIP3    H122149   4.232   5.782   5.364
 7402TIP3    H222150   4.370   5.722   5.344
 7403TIP3   OH222151   3.561   0.348   6.463
 7403TIP3    H122152   3.482   0.332   6.412
 7403TIP3    H222153   3.591   0.261   6.488
 7404TIP3   OH222154   1.299   3.721   2.987
 7404TIP3    H122155   1.351   3.685   2.915
 7404TIP3    H222156   1.240   3.649   3.011
 7405TIP3   OH222157   0.424   7.458   3.122
 7405TIP3    H122158   0.451   7.367   3.111
 7405TIP3    H222159   0.398   7.464   3.215
 7406TIP3   OH222160   5.476   4.181   4.867
 7406TIP3    H122161   5.549   4.119   4.876
 7406TIP3    H222162   5.490   4.222   4.781
 7407TIP3   OH222163   1.022   2.336   6.149
 7407TIP3    H122164   1.091   2.360   6.087
 7407TIP3    H222165   0.962   2.410   6.147
 7408TIP3   OH222166   7.900   0.289   0.877
 7408TIP3    H122167   7.911   0.369   0.928
 7408TIP3    H222168   7.909   0.218   0.941
 7409TIP3   OH222169   5.451   7.113   6.470
 7409TIP3    H122170   5.383   7.179   6.481
 7409TIP3    H222171   5.495   7.138   6.388
 7410TIP3   OH222172   0.733   0.519   5.178
 7410TIP3    H122173   0.788   0.597   5.175
 7410TIP3    H222174   0.645   0.552   5.198
 7411TIP3   OH222175   2.176   5.284   6.556
 7411TIP3    H122176   2.265   5.284   6.593
 7411TIP3    H222177   2.141   5.370   6.579
 7412TIP3   OH222178   8.254   4.225   3.300
 7412TIP3    H122179   8.201   4.232   3.221
 7412TIP3    H222180   8.341   4.202   3.268
 7413TIP3   OH222181   1.944   3.943   3.292
 7413TIP3    H122182   2.020   3.887   3.310
 7413TIP3    H222183   1.963   3.982   3.207
 7414TIP3   OH222184   6.343   5.235   5.554
 7414TIP3    H122185   6.296   5.318   5.558
 7414TIP3    H222186   6.324   5.202   5.466
 7415TIP3   OH222187   2.993   6.695   5.420
 7415TIP3    H122188   2.941   6.694   5.500
 7415TIP3    H222189   2.962   6.619   5.370
 7416TIP3   OH222190   7.520   6.668   4.316
 7416TIP3    H122191   7.525   6.588   4.264
 7416TIP3    H222192   7.539   6.640   4.405
 7417TIP3   OH222193   4.799   2.362   4.531
 7417TIP3    H122194   4.813   2.312   4.450
 7417TIP3    H222195   4.887   2.378   4.564
 7418TIP3   OH222196   7.549   2.849   5.931
 7418TIP3    H122197   7.524   2.823   5.842
 7418TIP3    H222198   7.569   2.942   5.924
 7419TIP3   OH222199   2.910   5.404   4.667
 7419TIP3    H122200   2.863   5.377   4.746
 7419TIP3    H222201   2.923   5.498   4.678
 7420TIP3   OH222202   1.351   6.548   3.421
 7420TIP3    H122203   1.394   6.553   3.507
 7420TIP3    H222204   1.419   6.513   3.363
 7421TIP3   OH222205   3.792   4.164   3.743
 7421TIP3    H122206   3.726   4.211   3.693
 7421TIP3    H222207   3.805   4.216   3.822
 7422TIP3   OH222208   5.302   0.843   5.193
 7422TIP3    H122209   5.331   0.813   5.279
 7422TIP3    H222210   5.218   0.887   5.209
 7423TIP3   OH222211   7.574   5.197   0.322
 7423TIP3    H122212   7.553   5.257   0.394
 7423TIP3    H222213   7.649   5.147   0.353
 7424TIP3   OH222214   1.617   5.969   5.562
 7424TIP3    H122215   1.706   5.946   5.588
 7424TIP3    H222216   1.626   6.052   5.514
 7425TIP3   OH222217   5.702   7.000   3.442
 7425TIP3    H122218   5.725   6.966   3.356
 7425TIP3    H222219   5.704   6.923   3.499
 7426TIP3   OH222220   7.385   1.265   5.714
 7426TIP3    H122221   7.415   1.278   5.624
 7426TIP3    H222222   7.418   1.178   5.738
 7427TIP3   OH222223   6.951   6.390   5.761
 7427TIP3    H122224   7.032   6.434   5.735
 7427TIP3    H222225   6.883   6.434   5.711
 7428TIP3   OH222226   3.067   5.248   1.247
 7428TIP3    H122227   3.143   5.190   1.256
 7428TIP3    H222228   3.081   5.317   1.312
 7429TIP3   OH222229   8.156   6.614   5.871
 7429TIP3    H122230   8.167   6.658   5.955
 7429TIP3    H222231   8.064   6.629   5.848
 7430TIP3   OH222232   6.091   3.676   3.906
 7430TIP3    H122233   6.127   3.626   3.979
 7430TIP3    H222234   6.025   3.617   3.867
 7431TIP3   OH222235   3.362   5.203   3.775
 7431TIP3    H122236   3.388   5.167   3.691
 7431TIP3    H222237   3.434   5.261   3.801
 7432TIP3   OH222238   4.027   7.088   3.287
 7432TIP3    H122239   4.068   7.166   3.249
 7432TIP3    H222240   4.100   7.031   3.310
 7433TIP3   OH222241   7.757   3.919   0.057
 7433TIP3    H122242   7.770   3.989  -0.007
 7433TIP3    H222243   7.779   3.960   0.141
 7434TIP3   OH222244   1.907   6.514   4.963
 7434TIP3    H122245   1.975   6.537   4.899
 7434TIP3    H222246   1.906   6.418   4.964
 7435TIP3   OH222247   7.695   0.068   4.912
 7435TIP3    H122248   7.737   0.092   4.995
 7435TIP3    H222249   7.665  -0.022   4.925
 7436TIP3   OH222250   5.003   2.413   2.840
 7436TIP3    H122251   5.087   2.425   2.884
 7436TIP3    H222252   5.011   2.328   2.796
 7437TIP3   OH222253   4.082   5.007   6.137
 7437TIP3    H122254   4.153   5.052   6.183
 7437TIP3    H222255   4.121   4.923   6.110
 7438TIP3   OH222256   5.488   4.973   3.923
 7438TIP3    H122257   5.470   4.881   3.906
 7438TIP3    H222258   5.421   4.999   3.986
 7439TIP3   OH222259   8.257   4.616   4.012
 7439TIP3    H122260   8.183   4.560   4.036
 7439TIP3    H222261   8.305   4.566   3.946
 7440TIP3   OH222262   0.153   5.495   6.259
 7440TIP3    H122263   0.128   5.504   6.351
 7440TIP3    H222264   0.246   5.517   6.256
 7441TIP3   OH222265   1.024   5.222   0.518
 7441TIP3    H122266   0.967   5.228   0.595
 7441TIP3    H222267   0.999   5.297   0.464
 7442TIP3   OH222268   1.546   1.608   1.887
 7442TIP3    H122269   1.552   1.634   1.979
 7442TIP3    H222270   1.554   1.691   1.838
 7443TIP3   OH222271   4.937   2.666   4.141
 7443TIP3    H122272   4.952   2.575   4.166
 7443TIP3    H222273   4.936   2.666   4.046
 7444TIP3   OH222274   6.665   4.071   2.305
 7444TIP3    H122275   6.630   4.151   2.344
 7444TIP3    H222276   6.610   4.001   2.340
 7445TIP3   OH222277   4.502   4.940   4.638
 7445TIP3    H122278   4.435   5.007   4.654
 7445TIP3    H222279   4.533   4.958   4.550
 7446TIP3   OH222280   0.224   2.394   4.115
 7446TIP3    H122281   0.151   2.381   4.055
 7446TIP3    H222282   0.193   2.360   4.199
 7447TIP3   OH222283   0.853   6.757   1.337
 7447TIP3    H122284   0.776   6.729   1.387
 7447TIP3    H222285   0.867   6.848   1.362
 7448TIP3   OH222286   6.306   6.108   2.303
 7448TIP3    H122287   6.387   6.067   2.332
 7448TIP3    H222288   6.295   6.079   2.212
 7449TIP3   OH222289   3.222   6.079   1.953
 7449TIP3    H122290   3.187   6.154   2.000
 7449TIP3    H222291   3.194   6.092   1.862
 7450TIP3   OH222292   6.007   5.821   6.007
 7450TIP3    H122293   5.973   5.798   5.921
 7450TIP3    H222294   5.932   5.809   6.066
 7451TIP3   OH222295   6.329   6.361   3.064
 7451TIP3    H122296   6.416   6.338   3.094
 7451TIP3    H222297   6.326   6.333   2.973
 7452TIP3   OH222298   1.002   0.518   5.475
 7452TIP3    H122299   1.013   0.436   5.427
 7452TIP3    H222300   1.040   0.585   5.418
 7453TIP3   OH222301   1.855   4.599   5.828
 7453TIP3    H122302   1.841   4.667   5.762
 7453TIP3    H222303   1.771   4.554   5.834
 7454TIP3   OH222304   0.167   3.462   2.319
 7454TIP3    H122305   0.182   3.552   2.349
 7454TIP3    H222306   0.254   3.429   2.297
 7455TIP3   OH222307   0.918   6.540   0.973
 7455TIP3    H122308   0.932   6.635   0.983
 7455TIP3    H222309   0.968   6.501   1.044
 7456TIP3   OH222310   2.370   0.701   0.834
 7456TIP3    H122311   2.459   0.736   0.836
 7456TIP3    H222312   2.315   0.779   0.846
 7457TIP3   OH222313   0.747   7.516   0.401
 7457TIP3    H122314   0.759   7.609   0.379
 7457TIP3    H222315   0.799   7.504   0.481
 7458TIP3   OH222316   6.870   3.396   6.308
 7458TIP3    H122317   6.879   3.341   6.230
 7458TIP3    H222318   6.948   3.377   6.360
 7459TIP3   OH222319   4.769   0.583   2.658
 7459TIP3    H122320   4.753   0.493   2.685
 7459TIP3    H222321   4.838   0.576   2.592
 7460TIP3   OH222322   1.050   2.297   1.323
 7460TIP3    H122323   1.045   2.313   1.417
 7460TIP3    H222324   0.967   2.328   1.288
 7461TIP3   OH222325   0.401   2.678   4.801
 7461TIP3    H122326   0.425   2.702   4.891
 7461TIP3    H222327   0.440   2.746   4.747
 7462TIP3   OH222328   4.632   1.276   2.500
 7462TIP3    H122329   4.649   1.319   2.416
 7462TIP3    H222330   4.680   1.193   2.494
 7463TIP3   OH222331   5.997   6.424   2.506
 7463TIP3    H122332   6.001   6.339   2.550
 7463TIP3    H222333   6.075   6.471   2.537
 7464TIP3   OH222334   7.571   7.298   4.430
 7464TIP3    H122335   7.581   7.243   4.507
 7464TIP3    H222336   7.484   7.275   4.396
 7465TIP3   OH222337   1.241   1.386   0.602
 7465TIP3    H122338   1.284   1.471   0.608
 7465TIP3    H222339   1.175   1.397   0.534
 7466TIP3   OH222340   6.335   4.077   6.137
 7466TIP3    H122341   6.271   4.047   6.201
 7466TIP3    H222342   6.286   4.132   6.076
 7467TIP3   OH222343   0.061   4.648   2.445
 7467TIP3    H122344   0.008   4.727   2.435
 7467TIP3    H222345   0.104   4.637   2.360
 7468TIP3   OH222346   3.296   2.189   1.222
 7468TIP3    H122347   3.355   2.257   1.192
 7468TIP3    H222348   3.210   2.214   1.188
 7469TIP3   OH222349   6.828   4.044   6.562
 7469TIP3    H122350   6.882   4.102   6.510
 7469TIP3    H222351   6.889   3.979   6.598
 7470TIP3   OH222352   0.143   2.490   2.756
 7470TIP3    H122353   0.170   2.465   2.845
 7470TIP3    H222354   0.083   2.420   2.730
 7471TIP3   OH222355   5.241   4.523   1.280
 7471TIP3    H122356   5.258   4.550   1.370
 7471TIP3    H222357   5.267   4.598   1.227
 7472TIP3   OH222358   1.378   4.703   2.967
 7472TIP3    H122359   1.423   4.678   2.886
 7472TIP3    H222360   1.294   4.657   2.963
 7473TIP3   OH222361   3.296   7.670   1.660
 7473TIP3    H122362   3.298   7.754   1.614
 7473TIP3    H222363   3.211   7.632   1.637
 7474TIP3   OH222364   4.749   0.357   1.555
 7474TIP3    H122365   4.695   0.373   1.478
 7474TIP3    H222366   4.816   0.425   1.553
 7475TIP3   OH222367   0.733   3.008   3.264
 7475TIP3    H122368   0.667   3.000   3.332
 7475TIP3    H222369   0.734   3.102   3.243
 7476TIP3   OH222370   1.672   5.320   3.548
 7476TIP3    H122371   1.759   5.304   3.583
 7476TIP3    H222372   1.634   5.233   3.537
 7477TIP3   OH222373   7.025   4.990   2.986
 7477TIP3    H122374   6.995   4.900   2.975
 7477TIP3    H222375   7.063   4.992   3.074
 7478TIP3   OH222376   1.761   1.928   1.279
 7478TIP3    H122377   1.849   1.963   1.295
 7478TIP3    H222378   1.727   1.980   1.207
 7479TIP3   OH222379   4.351   4.342   6.127
 7479TIP3    H122380   4.289   4.278   6.160
 7479TIP3    H222381   4.396   4.375   6.206
 7480TIP3   OH222382   4.280   5.722   1.850
 7480TIP3    H122383   4.231   5.640   1.841
 7480TIP3    H222384   4.307   5.723   1.942
 7481TIP3   OH222385   2.566   4.466   0.038
 7481TIP3    H122386   2.551   4.438   0.128
 7481TIP3    H222387   2.581   4.561   0.045
 7482TIP3   OH222388   4.676   3.075   5.019
 7482TIP3    H122389   4.677   3.037   4.931
 7482TIP3    H222390   4.586   3.061   5.050
 7483TIP3   OH222391   0.922   3.847   6.209
 7483TIP3    H122392   0.984   3.918   6.194
 7483TIP3    H222393   0.923   3.795   6.129
 7484TIP3   OH222394   3.623   2.420   6.078
 7484TIP3    H122395   3.576   2.376   6.008
 7484TIP3    H222396   3.556   2.467   6.127
 7485TIP3   OH222397   0.045   7.044   0.133
 7485TIP3    H122398   0.118   7.031   0.072
 7485TIP3    H222399   0.086   7.041   0.220
 7486TIP3   OH222400   3.483   4.328   6.412
 7486TIP3    H122401   3.427   4.331   6.334
 7486TIP3    H222402   3.477   4.416   6.449
 7487TIP3   OH222403   3.124   3.439   6.461
 7487TIP3    H122404   3.095   3.514   6.513
 7487TIP3    H222405   3.138   3.370   6.526
 7488TIP3   OH222406   2.886   6.694   4.947
 7488TIP3    H122407   2.817   6.655   4.892
 7488TIP3    H222408   2.879   6.648   5.030
 7489TIP3   OH222409   2.756   3.199   2.989
 7489TIP3    H122410   2.823   3.255   2.951
 7489TIP3    H222411   2.711   3.161   2.914
 7490TIP3   OH222412   2.577   0.427   2.677
 7490TIP3    H122413   2.546   0.481   2.750
 7490TIP3    H222414   2.556   0.337   2.704
 7491TIP3   OH222415   1.547   6.786   6.256
 7491TIP3    H122416   1.489   6.831   6.318
 7491TIP3    H222417   1.635   6.814   6.282
 7492TIP3   OH222418   2.183   0.438   3.252
 7492TIP3    H122419   2.209   0.357   3.295
 7492TIP3    H222420   2.188   0.419   3.158
 7493TIP3   OH222421   0.733   3.716   1.726
 7493TIP3    H122422   0.809   3.681   1.679
 7493TIP3    H222423   0.766   3.733   1.815
 7494TIP3   OH222424   1.013   1.520   0.157
 7494TIP3    H122425   1.008   1.458   0.084
 7494TIP3    H222426   0.924   1.555   0.164
 7495TIP3   OH222427   2.545   5.203   3.710
 7495TIP3    H122428   2.550   5.268   3.640
 7495TIP3    H222429   2.630   5.159   3.707
 7496TIP3   OH222430   4.016   2.395   1.836
 7496TIP3    H122431   4.080   2.325   1.845
 7496TIP3    H222432   3.966   2.393   1.918
 7497TIP3   OH222433   3.605   3.453   1.101
 7497TIP3    H122434   3.620   3.359   1.096
 7497TIP3    H222435   3.693   3.491   1.112
 7498TIP3   OH222436   1.216   4.773   6.660
 7498TIP3    H122437   1.258   4.689   6.640
 7498TIP3    H222438   1.150   4.784   6.592
 7499TIP3   OH222439   0.329   6.326   5.808
 7499TIP3    H122440   0.393   6.371   5.753
 7499TIP3    H222441   0.247   6.372   5.790
 7500TIP3   OH222442   5.316   7.416   5.501
 7500TIP3    H122443   5.393   7.385   5.454
 7500TIP3    H222444   5.335   7.397   5.593
 7501TIP3   OH222445   5.643   6.958   0.216
 7501TIP3    H122446   5.593   6.979   0.137
 7501TIP3    H222447   5.632   6.864   0.227
 7502TIP3   OH222448   6.004   2.630   2.066
 7502TIP3    H122449   5.998   2.698   2.134
 7502TIP3    H222450   6.027   2.550   2.114
 7503TIP3   OH222451   6.732   3.589   2.808
 7503TIP3    H122452   6.639   3.566   2.814
 7503TIP3    H222453   6.778   3.509   2.833
 7504TIP3   OH222454   0.066   6.347   2.609
 7504TIP3    H122455   0.141   6.290   2.595
 7504TIP3    H222456  -0.005   6.307   2.559
 7505TIP3   OH222457   7.485   5.240   5.843
 7505TIP3    H122458   7.519   5.163   5.889
 7505TIP3    H222459   7.557   5.268   5.787
 7506TIP3   OH222460   5.695   7.355   2.809
 7506TIP3    H122461   5.718   7.305   2.887
 7506TIP3    H222462   5.603   7.377   2.821
 7507TIP3   OH222463   7.591   2.427   6.027
 7507TIP3    H122464   7.555   2.469   6.105
 7507TIP3    H222465   7.571   2.334   6.038
 7508TIP3   OH222466   5.963   0.993   1.077
 7508TIP3    H122467   5.919   1.078   1.066
 7508TIP3    H222468   6.044   1.002   1.027
 7509TIP3   OH222469   7.341   4.200   6.472
 7509TIP3    H122470   7.356   4.105   6.474
 7509TIP3    H222471   7.377   4.232   6.555
 7510TIP3   OH222472   4.535   6.441   2.566
 7510TIP3    H122473   4.546   6.532   2.537
 7510TIP3    H222474   4.619   6.400   2.548
 7511TIP3   OH222475   1.989   3.052   2.931
 7511TIP3    H122476   1.907   3.033   2.885
 7511TIP3    H222477   1.976   3.018   3.019
 7512TIP3   OH222478   2.964   6.482   1.430
 7512TIP3    H122479   2.954   6.438   1.345
 7512TIP3    H222480   2.949   6.574   1.411
 7513TIP3   OH222481   0.367   0.419   5.480
 7513TIP3    H122482   0.307   0.371   5.423
 7513TIP3    H222483   0.321   0.425   5.564
 7514TIP3   OH222484   6.683   6.307   2.277
 7514TIP3    H122485   6.733   6.286   2.198
 7514TIP3    H222486   6.602   6.346   2.243
 7515TIP3   OH222487   2.955   3.075   2.236
 7515TIP3    H122488   2.987   3.130   2.164
 7515TIP3    H222489   2.860   3.074   2.225
 7516TIP3   OH222490   1.297   1.509   0.964
 7516TIP3    H122491   1.335   1.460   1.037
 7516TIP3    H222492   1.359   1.581   0.949
 7517TIP3   OH222493   0.061   3.123   4.881
 7517TIP3    H122494   0.069   3.056   4.949
 7517TIP3    H222495   0.114   3.090   4.808
 7518TIP3   OH222496   7.112   2.869   4.121
 7518TIP3    H122497   7.186   2.930   4.124
 7518TIP3    H222498   7.057   2.901   4.049
 7519TIP3   OH222499   4.150   0.885   2.648
 7519TIP3    H122500   4.141   0.975   2.617
 7519TIP3    H222501   4.237   0.857   2.619
 7520TIP3   OH222502   8.107   4.740   3.280
 7520TIP3    H122503   8.041   4.702   3.338
 7520TIP3    H222504   8.133   4.667   3.223
 7521TIP3   OH222505   7.353   5.504   6.542
 7521TIP3    H122506   7.421   5.438   6.530
 7521TIP3    H222507   7.369   5.540   6.629
 7522TIP3   OH222508   1.870   4.432   0.202
 7522TIP3    H122509   1.881   4.337   0.194
 7522TIP3    H222510   1.851   4.460   0.112
 7523TIP3   OH222511   4.251   5.064   4.596
 7523TIP3    H122512   4.265   5.138   4.654
 7523TIP3    H222513   4.178   5.016   4.635
 7524TIP3   OH222514   0.429   2.212   5.831
 7524TIP3    H122515   0.454   2.128   5.793
 7524TIP3    H222516   0.359   2.244   5.773
 7525TIP3   OH222517   6.755   3.222   3.439
 7525TIP3    H122518   6.823   3.230   3.372
 7525TIP3    H222519   6.734   3.312   3.464
 7526TIP3   OH222520   3.004   5.911   4.040
 7526TIP3    H122521   3.098   5.906   4.020
 7526TIP3    H222522   3.000   5.923   4.135
 7527TIP3   OH222523   5.229   3.299   4.874
 7527TIP3    H122524   5.178   3.226   4.909
 7527TIP3    H222525   5.223   3.289   4.779
 7528TIP3   OH222526   7.883   1.355   4.722
 7528TIP3    H122527   7.845   1.346   4.634
 7528TIP3    H222528   7.967   1.311   4.716
 7529TIP3   OH222529   6.830   7.048   4.827
 7529TIP3    H122530   6.804   7.045   4.919
 7529TIP3    H222531   6.748   7.050   4.778
 7530TIP3   OH222532   7.882   3.480   6.284
 7530TIP3    H122533   7.881   3.575   6.279
 7530TIP3    H222534   7.908   3.451   6.196
 7531TIP3   OH222535   6.702   3.745   0.266
 7531TIP3    H122536   6.645   3.821   0.267
 7531TIP3    H222537   6.646   3.673   0.236
 7532TIP3   OH222538   5.895   5.046   5.576
 7532TIP3    H122539   5.906   5.027   5.483
 7532TIP3    H222540   5.899   5.142   5.581
 7533TIP3   OH222541   3.076   3.896   2.586
 7533TIP3    H122542   3.111   3.854   2.507
 7533TIP3    H222543   3.115   3.984   2.585
 7534TIP3   OH222544   3.167   3.323   0.761
 7534TIP3    H122545   3.262   3.309   0.756
 7534TIP3    H222546   3.157   3.401   0.815
 7535TIP3   OH222547   2.036   6.264   4.658
 7535TIP3    H122548   2.017   6.314   4.579
 7535TIP3    H222549   2.007   6.175   4.638
 7536TIP3   OH222550   4.785   0.359   2.039
 7536TIP3    H122551   4.763   0.374   2.131
 7536TIP3    H222552   4.701   0.357   1.994
 7537TIP3   OH222553   4.100   7.156   1.161
 7537TIP3    H122554   4.011   7.171   1.131
 7537TIP3    H222555   4.102   7.064   1.186
 7538TIP3   OH222556   6.127   4.038   4.646
 7538TIP3    H122557   6.121   3.976   4.574
 7538TIP3    H222558   6.192   4.000   4.705
 7539TIP3   OH222559   2.751   2.125   0.253
 7539TIP3    H122560   2.689   2.073   0.202
 7539TIP3    H222561   2.697   2.187   0.302
 7540TIP3   OH222562   0.376   6.761   5.755
 7540TIP3    H122563   0.306   6.762   5.690
 7540TIP3    H222564   0.444   6.817   5.719
 7541TIP3   OH222565   1.694   7.377   4.983
 7541TIP3    H122566   1.708   7.361   5.077
 7541TIP3    H222567   1.674   7.470   4.977
 7542TIP3   OH222568   5.257   1.220   0.758
 7542TIP3    H122569   5.221   1.307   0.779
 7542TIP3    H222570   5.256   1.172   0.840
 7543TIP3   OH222571   1.811   7.058   6.197
 7543TIP3    H122572   1.755   7.067   6.275
 7543TIP3    H222573   1.900   7.073   6.229
 7544TIP3   OH222574   1.665   5.262   6.616
 7544TIP3    H122575   1.679   5.354   6.639
 7544TIP3    H222576   1.597   5.264   6.549
 7545TIP3   OH222577   7.677   7.356   1.368
 7545TIP3    H122578   7.588   7.359   1.331
 7545TIP3    H222579   7.732   7.331   1.294
 7546TIP3   OH222580   7.219   7.492   1.241
 7546TIP3    H122581   7.186   7.574   1.277
 7546TIP3    H222582   7.149   7.429   1.259
 7547TIP3   OH222583   4.359   6.052   5.874
 7547TIP3    H122584   4.413   5.975   5.861
 7547TIP3    H222585   4.332   6.078   5.785
 7548TIP3   OH222586   0.011   4.712   0.253
 7548TIP3    H122587   0.080   4.773   0.276
 7548TIP3    H222588  -0.010   4.667   0.335
 7549TIP3   OH222589   3.931   3.891   5.987
 7549TIP3    H122590   3.994   3.833   5.944
 7549TIP3    H222591   3.846   3.861   5.955
 7550TIP3   OH222592   0.018   2.791   6.591
 7550TIP3    H122593  -0.076   2.809   6.584
 7550TIP3    H222594   0.050   2.852   6.657
 7551TIP3   OH222595   5.751   2.499   5.608
 7551TIP3    H122596   5.717   2.434   5.669
 7551TIP3    H222597   5.823   2.454   5.563
 7552TIP3   OH222598   0.597   2.685   2.313
 7552TIP3    H122599   0.524   2.744   2.296
 7552TIP3    H222600   0.588   2.662   2.406
 7553TIP3   OH222601   5.533   7.229   3.381
 7553TIP3    H122602   5.564   7.149   3.339
 7553TIP3    H222603   5.611   7.264   3.425
 7554TIP3   OH222604   2.896   3.314   5.805
 7554TIP3    H122605   2.974   3.361   5.835
 7554TIP3    H222606   2.828   3.339   5.867
 7555TIP3   OH222607   1.675   2.556   3.884
 7555TIP3    H122608   1.634   2.641   3.868
 7555TIP3    H222609   1.646   2.532   3.972
 7556TIP3   OH222610   2.817   6.071   3.919
 7556TIP3    H122611   2.899   6.035   3.953
 7556TIP3    H222612   2.759   5.996   3.910
 7557TIP3   OH222613   6.459   0.733   1.495
 7557TIP3    H122614   6.396   0.766   1.430
 7557TIP3    H222615   6.488   0.811   1.542
 7558TIP3   OH222616   6.890   6.129   3.407
 7558TIP3    H122617   6.856   6.089   3.487
 7558TIP3    H222618   6.834   6.094   3.338
 7559TIP3   OH222619   3.960   5.397   0.746
 7559TIP3    H122620   4.029   5.375   0.809
 7559TIP3    H222621   4.007   5.434   0.671
 7560TIP3   OH222622   1.191   4.462   2.980
 7560TIP3    H122623   1.149   4.477   2.896
 7560TIP3    H222624   1.118   4.455   3.042
 7561TIP3   OH222625   3.757   6.050   1.844
 7561TIP3    H122626   3.826   6.101   1.886
 7561TIP3    H222627   3.675   6.085   1.880
 7562TIP3   OH222628   4.159   6.161   2.848
 7562TIP3    H122629   4.234   6.153   2.908
 7562TIP3    H222630   4.190   6.220   2.779
 7563TIP3   OH222631   0.240   0.901   3.845
 7563TIP3    H122632   0.148   0.930   3.845
 7563TIP3    H222633   0.252   0.862   3.932
 7564TIP3   OH222634   2.171   0.593   4.419
 7564TIP3    H122635   2.080   0.620   4.431
 7564TIP3    H222636   2.171   0.545   4.336
 7565TIP3   OH222637   1.172   2.258   4.796
 7565TIP3    H122638   1.135   2.248   4.709
 7565TIP3    H222639   1.201   2.170   4.820
 7566TIP3   OH222640   5.974   7.621   3.588
 7566TIP3    H122641   5.945   7.589   3.673
 7566TIP3    H222642   6.069   7.610   3.590
 7567TIP3   OH222643   5.860   5.679   0.783
 7567TIP3    H122644   5.955   5.669   0.786
 7567TIP3    H222645   5.846   5.773   0.769
 7568TIP3   OH222646  -0.008   1.664   2.308
 7568TIP3    H122647  -0.014   1.576   2.270
 7568TIP3    H222648   0.068   1.660   2.365
 7569TIP3   OH222649   4.261   5.334   0.241
 7569TIP3    H122650   4.258   5.249   0.283
 7569TIP3    H222651   4.351   5.344   0.211
 7570TIP3   OH222652   7.815   2.867   2.575
 7570TIP3    H122653   7.838   2.781   2.540
 7570TIP3    H222654   7.900   2.910   2.590
 7571TIP3   OH222655   1.386   0.465   3.442
 7571TIP3    H122656   1.342   0.505   3.367
 7571TIP3    H222657   1.400   0.538   3.503
 7572TIP3   OH222658   5.730   0.071   3.536
 7572TIP3    H122659   5.741   0.145   3.477
 7572TIP3    H222660   5.654   0.023   3.501
 7573TIP3   OH222661   8.230   7.761   0.470
 7573TIP3    H122662   8.314   7.741   0.429
 7573TIP3    H222663   8.165   7.747   0.401
 7574TIP3   OH222664   3.003   1.473   3.916
 7574TIP3    H122665   3.042   1.532   3.980
 7574TIP3    H222666   2.910   1.470   3.938
 7575TIP3   OH222667   3.569   6.217   6.169
 7575TIP3    H122668   3.619   6.158   6.113
 7575TIP3    H222669   3.477   6.195   6.151
 7576TIP3   OH222670   1.518   0.349   2.252
 7576TIP3    H122671   1.482   0.435   2.232
 7576TIP3    H222672   1.558   0.360   2.338
 7577TIP3   OH222673   2.174   5.574   3.989
 7577TIP3    H122674   2.159   5.627   3.911
 7577TIP3    H222675   2.253   5.611   4.028
 7578TIP3   OH222676   4.052   0.798   4.484
 7578TIP3    H122677   4.024   0.729   4.544
 7578TIP3    H222678   4.045   0.878   4.535
 7579TIP3   OH222679   6.547   4.872   5.856
 7579TIP3    H122680   6.548   4.871   5.760
 7579TIP3    H222681   6.485   4.942   5.878
 7580TIP3   OH222682   4.523   6.863   0.983
 7580TIP3    H122683   4.492   6.829   0.900
 7580TIP3    H222684   4.448   6.912   1.018
 7581TIP3   OH222685   1.019   7.709   4.649
 7581TIP3    H122686   0.924   7.706   4.635
 7581TIP3    H222687   1.030   7.706   4.744
 7582TIP3   OH222688   4.303   2.120   2.244
 7582TIP3    H122689   4.212   2.123   2.214
 7582TIP3    H222690   4.354   2.121   2.163
 7583TIP3   OH222691   7.041   5.937   0.446
 7583TIP3    H122692   7.131   5.948   0.479
 7583TIP3    H222693   7.015   5.851   0.479
 7584TIP3   OH222694   1.489   0.952   2.641
 7584TIP3    H122695   1.540   0.991   2.712
 7584TIP3    H222696   1.470   0.863   2.671
 7585TIP3   OH222697   3.637   5.558  -0.096
 7585TIP3    H122698   3.706   5.614  -0.060
 7585TIP3    H222699   3.597   5.517  -0.020
 7586TIP3   OH222700   4.597   2.309   2.576
 7586TIP3    H122701   4.617   2.388   2.628
 7586TIP3    H222702   4.644   2.239   2.621
 7587TIP3   OH222703   7.096   4.322   4.221
 7587TIP3    H122704   7.118   4.251   4.280
 7587TIP3    H222705   7.127   4.293   4.135
 7588TIP3   OH222706   0.258   0.052   1.369
 7588TIP3    H122707   0.168   0.020   1.361
 7588TIP3    H222708   0.269   0.070   1.462
 7589TIP3   OH222709   7.667   1.776   0.197
 7589TIP3    H122710   7.759   1.775   0.174
 7589TIP3    H222711   7.664   1.822   0.281
 7590TIP3   OH222712   3.841   4.818   3.583
 7590TIP3    H122713   3.922   4.817   3.634
 7590TIP3    H222714   3.791   4.892   3.618
 7591TIP3   OH222715   2.312   5.253   2.470
 7591TIP3    H122716   2.332   5.253   2.564
 7591TIP3    H222717   2.391   5.289   2.429
 7592TIP3   OH222718   1.681   6.764   0.559
 7592TIP3    H122719   1.682   6.690   0.620
 7592TIP3    H222720   1.596   6.758   0.515
 7593TIP3   OH222721   3.736   0.809   0.689
 7593TIP3    H122722   3.764   0.807   0.598
 7593TIP3    H222723   3.687   0.891   0.698
 7594TIP3   OH222724   1.145   0.682   5.284
 7594TIP3    H122725   1.132   0.762   5.233
 7594TIP3    H222726   1.211   0.706   5.349
 7595TIP3   OH222727   1.657   1.419   2.935
 7595TIP3    H122728   1.622   1.481   2.871
 7595TIP3    H222729   1.716   1.363   2.885
 7596TIP3   OH222730   5.734   0.709   1.806
 7596TIP3    H122731   5.737   0.796   1.847
 7596TIP3    H222732   5.659   0.666   1.847
 7597TIP3   OH222733   5.744   4.584   5.457
 7597TIP3    H122734   5.728   4.505   5.507
 7597TIP3    H222735   5.817   4.561   5.399
 7598TIP3   OH222736   6.998   6.826   1.911
 7598TIP3    H122737   7.009   6.916   1.940
 7598TIP3    H222738   6.903   6.813   1.910
 7599TIP3   OH222739   8.104   2.515   5.425
 7599TIP3    H122740   8.188   2.547   5.456
 7599TIP3    H222741   8.120   2.491   5.333
 7600TIP3   OH222742   2.125   0.382   3.535
 7600TIP3    H122743   2.207   0.431   3.526
 7600TIP3    H222744   2.075   0.403   3.457
 7601TIP3   OH222745   5.724   3.383   0.212
 7601TIP3    H122746   5.654   3.335   0.169
 7601TIP3    H222747   5.678   3.451   0.262
 7602TIP3   OH222748   3.324   1.590   3.569
 7602TIP3    H122749   3.309   1.609   3.476
 7602TIP3    H222750   3.247   1.542   3.597
 7603TIP3   OH222751   8.280   1.519   5.409
 7603TIP3    H122752   8.229   1.575   5.468
 7603TIP3    H222753   8.219   1.497   5.338
 7604TIP3   OH222754   4.573   2.333   4.675
 7604TIP3    H122755   4.652   2.345   4.623
 7604TIP3    H222756   4.604   2.298   4.758
 7605TIP3   OH222757   7.846   0.363   6.439
 7605TIP3    H122758   7.771   0.390   6.386
 7605TIP3    H222759   7.900   0.312   6.378
 7606TIP3   OH222760   3.345   3.924   6.471
 7606TIP3    H122761   3.291   3.916   6.549
 7606TIP3    H222762   3.365   3.834   6.445
 7607TIP3   OH222763   4.602   1.209   0.871
 7607TIP3    H122764   4.513   1.233   0.845
 7607TIP3    H222765   4.641   1.173   0.792
 7608TIP3   OH222766   6.462   1.163   0.541
 7608TIP3    H122767   6.478   1.073   0.570
 7608TIP3    H222768   6.544   1.209   0.557
 7609TIP3   OH222769   2.740   4.142   0.796
 7609TIP3    H122770   2.801   4.069   0.786
 7609TIP3    H222771   2.750   4.170   0.887
 7610TIP3   OH222772   3.533   4.183   4.680
 7610TIP3    H122773   3.451   4.211   4.638
 7610TIP3    H222774   3.506   4.147   4.764
 7611TIP3   OH222775   2.730   0.243   4.983
 7611TIP3    H122776   2.787   0.252   4.906
 7611TIP3    H222777   2.643   0.231   4.947
 7612TIP3   OH222778   2.937   5.012   0.409
 7612TIP3    H122779   2.880   5.008   0.486
 7612TIP3    H222780   3.006   4.948   0.427
 7613TIP3   OH222781   6.094   2.978   5.575
 7613TIP3    H122782   6.067   3.045   5.513
 7613TIP3    H222783   6.027   2.980   5.644
 7614TIP3   OH222784   2.367   3.139   1.401
 7614TIP3    H122785   2.331   3.220   1.364
 7614TIP3    H222786   2.293   3.099   1.447
 7615TIP3   OH222787   8.272   7.290   6.546
 7615TIP3    H122788   8.307   7.366   6.592
 7615TIP3    H222789   8.257   7.321   6.457
 7616TIP3   OH222790   6.603   7.336   6.294
 7616TIP3    H122791   6.571   7.260   6.246
 7616TIP3    H222792   6.537   7.404   6.279
 7617TIP3   OH222793   6.818   2.914   0.785
 7617TIP3    H122794   6.764   2.839   0.811
 7617TIP3    H222795   6.836   2.960   0.867
 7618TIP3   OH222796   2.770   3.924   0.207
 7618TIP3    H122797   2.831   3.935   0.134
 7618TIP3    H222798   2.731   4.011   0.218
 7619TIP3   OH222799   6.774   6.813   4.053
 7619TIP3    H122800   6.710   6.770   4.110
 7619TIP3    H222801   6.760   6.773   3.967
 7620TIP3   OH222802   1.341   0.090   2.569
 7620TIP3    H122803   1.398   0.118   2.641
 7620TIP3    H222804   1.257   0.134   2.586
 7621TIP3   OH222805   2.157   6.942   6.667
 7621TIP3    H122806   2.216   7.014   6.645
 7621TIP3    H222807   2.198   6.899   6.742
 7622TIP3   OH222808   4.786   0.989   1.827
 7622TIP3    H122809   4.801   0.899   1.853
 7622TIP3    H222810   4.772   0.985   1.733
 7623TIP3   OH222811   1.197   4.524   6.472
 7623TIP3    H122812   1.128   4.507   6.408
 7623TIP3    H222813   1.179   4.463   6.543
 7624TIP3   OH222814   7.425   6.899   0.828
 7624TIP3    H122815   7.378   6.829   0.873
 7624TIP3    H222816   7.357   6.953   0.790
 7625TIP3   OH222817   2.582   2.454   2.341
 7625TIP3    H122818   2.545   2.529   2.388
 7625TIP3    H222819   2.663   2.488   2.302
 7626TIP3   OH222820   0.453  -0.018  -0.008
 7626TIP3    H122821   0.394  -0.039  -0.081
 7626TIP3    H222822   0.400   0.037   0.050
 7627TIP3   OH222823   1.042   3.567   0.413
 7627TIP3    H122824   1.025   3.597   0.502
 7627TIP3    H222825   0.997   3.483   0.407
 7628TIP3   OH222826   2.657   6.057   1.854
 7628TIP3    H122827   2.653   5.965   1.829
 7628TIP3    H222828   2.688   6.056   1.945
 7629TIP3   OH222829   2.973   6.129   0.946
 7629TIP3    H122830   2.887   6.106   0.982
 7629TIP3    H222831   2.992   6.215   0.982
 7630TIP3   OH222832   1.545   2.803   3.729
 7630TIP3    H122833   1.514   2.741   3.663
 7630TIP3    H222834   1.485   2.877   3.723
 7631TIP3   OH222835   1.042   5.189   5.053
 7631TIP3    H122836   1.132   5.157   5.049
 7631TIP3    H222837   1.039   5.240   5.135
 7632TIP3   OH222838   7.863   7.633   5.592
 7632TIP3    H122839   7.880   7.540   5.577
 7632TIP3    H222840   7.880   7.675   5.508
 7633TIP3   OH222841   7.126   5.445   6.375
 7633TIP3    H122842   7.207   5.473   6.416
 7633TIP3    H222843   7.078   5.400   6.444
 7634TIP3   OH222844   8.053   5.056   4.075
 7634TIP3    H122845   8.063   5.128   4.138
 7634TIP3    H222846   7.976   5.007   4.107
 7635TIP3   OH222847   3.810   6.409   6.414
 7635TIP3    H122848   3.891   6.456   6.434
 7635TIP3    H222849   3.771   6.457   6.341
 7636TIP3   OH222850   7.236   5.281   4.477
 7636TIP3    H122851   7.307   5.222   4.455
 7636TIP3    H222852   7.250   5.304   4.569
 7637TIP3   OH222853   8.107   6.251   0.163
 7637TIP3    H122854   8.090   6.312   0.091
 7637TIP3    H222855   8.024   6.245   0.209
 7638TIP3   OH222856   4.625   1.531   4.343
 7638TIP3    H122857   4.715   1.523   4.375
 7638TIP3    H222858   4.608   1.447   4.300
 7639TIP3   OH222859   4.569   3.402   2.517
 7639TIP3    H122860   4.606   3.447   2.442
 7639TIP3    H222861   4.631   3.418   2.588
 7640TIP3   OH222862   3.786   0.152   0.495
 7640TIP3    H122863   3.867   0.185   0.455
 7640TIP3    H222864   3.807   0.146   0.588
 7641TIP3   OH222865   5.566   1.465   6.743
 7641TIP3    H122866   5.640   1.417   6.707
 7641TIP3    H222867   5.554   1.539   6.684
 7642TIP3   OH222868   5.506   3.901   2.974
 7642TIP3    H122869   5.448   3.966   3.014
 7642TIP3    H222870   5.594   3.931   2.995
 7643TIP3   OH222871   6.780   3.828  -0.028
 7643TIP3    H122872   6.766   3.883   0.049
 7643TIP3    H222873   6.875   3.818  -0.033
 7644TIP3   OH222874   0.620   3.046   4.321
 7644TIP3    H122875   0.555   3.116   4.313
 7644TIP3    H222876   0.650   3.031   4.231
 7645TIP3   OH222877   0.067   1.169   5.961
 7645TIP3    H122878   0.000   1.230   5.991
 7645TIP3    H222879   0.130   1.223   5.914
 7646TIP3   OH222880   5.845   0.666   5.583
 7646TIP3    H122881   5.787   0.742   5.594
 7646TIP3    H222882   5.814   0.624   5.502
 7647TIP3   OH222883   7.164   6.024   1.530
 7647TIP3    H122884   7.147   6.080   1.455
 7647TIP3    H222885   7.235   6.068   1.578
 7648TIP3   OH222886   5.340   5.996   2.113
 7648TIP3    H122887   5.384   6.016   2.030
 7648TIP3    H222888   5.307   6.081   2.143
 7649TIP3   OH222889   6.007   5.389   4.041
 7649TIP3    H122890   6.013   5.293   4.033
 7649TIP3    H222891   6.038   5.407   4.130
 7650TIP3   OH222892   5.415   2.395   6.547
 7650TIP3    H122893   5.444   2.419   6.459
 7650TIP3    H222894   5.377   2.307   6.536
 7651TIP3   OH222895   7.461   2.057   0.185
 7651TIP3    H122896   7.448   2.024   0.096
 7651TIP3    H222897   7.451   1.979   0.240
 7652TIP3   OH222898   1.857   1.954   5.541
 7652TIP3    H122899   1.849   1.892   5.468
 7652TIP3    H222900   1.914   1.909   5.603
 7653TIP3   OH222901   1.698   5.938   4.843
 7653TIP3    H122902   1.611   5.938   4.883
 7653TIP3    H222903   1.696   6.011   4.780
 7654TIP3   OH222904   6.664   3.110   3.104
 7654TIP3    H122905   6.614   3.065   3.172
 7654TIP3    H222906   6.606   3.181   3.075
 7655TIP3   OH222907   3.697   6.207   5.396
 7655TIP3    H122908   3.605   6.181   5.390
 7655TIP3    H222909   3.745   6.137   5.351
 7656TIP3   OH222910   0.798   2.806   0.753
 7656TIP3    H122911   0.759   2.770   0.674
 7656TIP3    H222912   0.746   2.884   0.773
 7657TIP3   OH222913   2.190   4.276   3.329
 7657TIP3    H122914   2.197   4.284   3.234
 7657TIP3    H222915   2.258   4.333   3.363
 7658TIP3   OH222916   2.559   3.247   4.065
 7658TIP3    H122917   2.493   3.284   4.006
 7658TIP3    H222918   2.635   3.231   4.009
 7659TIP3   OH222919   0.600   2.316   3.902
 7659TIP3    H122920   0.562   2.360   3.826
 7659TIP3    H222921   0.694   2.317   3.886
 7660TIP3   OH222922   4.825   1.387   3.090
 7660TIP3    H122923   4.919   1.385   3.111
 7660TIP3    H222924   4.788   1.317   3.144
 7661TIP3   OH222925   4.785   0.995   1.562
 7661TIP3    H122926   4.792   0.943   1.483
 7661TIP3    H222927   4.863   1.050   1.561
 7662TIP3   OH222928   0.842   6.695   4.415
 7662TIP3    H122929   0.747   6.688   4.404
 7662TIP3    H222930   0.854   6.771   4.473
 7663TIP3   OH222931   8.275   1.729   3.661
 7663TIP3    H122932   8.346   1.707   3.601
 7663TIP3    H222933   8.221   1.651   3.664
 7664TIP3   OH222934   7.516   4.356   2.603
 7664TIP3    H122935   7.542   4.358   2.695
 7664TIP3    H222936   7.420   4.354   2.605
 7665TIP3   OH222937   6.544   4.278   6.088
 7665TIP3    H122938   6.463   4.246   6.127
 7665TIP3    H222939   6.610   4.271   6.157
 7666TIP3   OH222940   8.113   1.706   1.114
 7666TIP3    H122941   8.164   1.784   1.135
 7666TIP3    H222942   8.083   1.721   1.024
 7667TIP3   OH222943   4.971   2.325   6.425
 7667TIP3    H122944   5.004   2.386   6.491
 7667TIP3    H222945   5.006   2.358   6.342
 7668TIP3   OH222946   5.176   1.850   1.319
 7668TIP3    H122947   5.090   1.818   1.346
 7668TIP3    H222948   5.168   1.864   1.225
 7669TIP3   OH222949   6.778   2.620   3.775
 7669TIP3    H122950   6.788   2.578   3.689
 7669TIP3    H222951   6.688   2.654   3.774
 7670TIP3   OH222952   7.856   4.825   5.766
 7670TIP3    H122953   7.860   4.906   5.816
 7670TIP3    H222954   7.763   4.812   5.749
 7671TIP3   OH222955   3.077   0.975   6.500
 7671TIP3    H122956   3.075   1.054   6.555
 7671TIP3    H222957   3.010   0.918   6.537
 7672TIP3   OH222958   4.110   7.323   3.173
 7672TIP3    H122959   4.089   7.414   3.193
 7672TIP3    H222960   4.206   7.322   3.169
 7673TIP3   OH222961   3.979   2.492   4.968
 7673TIP3    H122962   4.067   2.465   4.995
 7673TIP3    H222963   3.976   2.474   4.874
 7674TIP3   OH222964   3.419   7.265   4.009
 7674TIP3    H122965   3.397   7.177   4.039
 7674TIP3    H222966   3.433   7.315   4.089
 7675TIP3   OH222967   5.107   4.564   6.110
 7675TIP3    H122968   5.110   4.581   6.016
 7675TIP3    H222969   5.195   4.534   6.132
 7676TIP3   OH222970   7.364   6.147   1.701
 7676TIP3    H122971   7.372   6.120   1.792
 7676TIP3    H222972   7.429   6.216   1.690
 7677TIP3   OH222973   6.695   7.728   0.588
 7677TIP3    H122974   6.646   7.713   0.507
 7677TIP3    H222975   6.633   7.709   0.658
 7678TIP3   OH222976   0.081   7.068   2.146
 7678TIP3    H122977   0.045   7.024   2.069
 7678TIP3    H222978   0.068   7.007   2.218
 7679TIP3   OH222979   4.220   4.299   3.432
 7679TIP3    H122980   4.171   4.262   3.359
 7679TIP3    H222981   4.188   4.389   3.440
 7680TIP3   OH222982   2.602   6.092   6.078
 7680TIP3    H122983   2.680   6.054   6.038
 7680TIP3    H222984   2.620   6.089   6.172
 7681TIP3   OH222985   8.209   1.948   1.043
 7681TIP3    H122986   8.282   1.934   0.983
 7681TIP3    H222987   8.149   2.006   0.995
 7682TIP3   OH222988   0.410   2.551   1.416
 7682TIP3    H122989   0.318   2.528   1.428
 7682TIP3    H222990   0.431   2.604   1.493
 7683TIP3   OH222991   7.606   5.890   3.020
 7683TIP3    H122992   7.552   5.837   3.080
 7683TIP3    H222993   7.655   5.826   2.969
 7684TIP3   OH222994   2.904   6.462   4.213
 7684TIP3    H122995   2.918   6.554   4.193
 7684TIP3    H222996   2.832   6.461   4.276
 7685TIP3   OH222997   5.331   4.191   3.470
 7685TIP3    H122998   5.316   4.218   3.379
 7685TIP3    H222999   5.254   4.221   3.517
 7686TIP3   OH223000   1.417   2.745   0.350
 7686TIP3    H123001   1.335   2.774   0.312
 7686TIP3    H223002   1.469   2.824   0.360
 7687TIP3   OH223003   7.665  -0.057   0.567
 7687TIP3    H123004   7.587  -0.011   0.596
 7687TIP3    H223005   7.738   0.000   0.592
 7688TIP3   OH223006   3.252   3.028   6.311
 7688TIP3    H123007   3.298   3.110   6.296
 7688TIP3    H223008   3.233   2.994   6.223
 7689TIP3   OH223009   1.360   2.429   5.728
 7689TIP3    H123010   1.282   2.483   5.716
 7689TIP3    H223011   1.380   2.396   5.640
 7690TIP3   OH223012   2.147   1.381   6.188
 7690TIP3    H123013   2.191   1.297   6.180
 7690TIP3    H223014   2.176   1.416   6.273
 7691TIP3   OH223015   4.632   5.410   5.584
 7691TIP3    H123016   4.719   5.388   5.552
 7691TIP3    H223017   4.595   5.327   5.614
 7692TIP3   OH223018   1.543   5.073   3.398
 7692TIP3    H123019   1.497   4.989   3.409
 7692TIP3    H223020   1.499   5.115   3.325
 7693TIP3   OH223021   5.956   4.567   1.567
 7693TIP3    H123022   5.925   4.642   1.617
 7693TIP3    H223023   5.933   4.491   1.620
 7694TIP3   OH223024   1.954   6.577   4.218
 7694TIP3    H123025   1.916   6.507   4.165
 7694TIP3    H223026   1.883   6.641   4.227
 7695TIP3   OH223027   4.411   0.221   4.423
 7695TIP3    H123028   4.424   0.172   4.504
 7695TIP3    H223029   4.341   0.284   4.444
 7696TIP3   OH223030   8.138   0.070   3.734
 7696TIP3    H123031   8.102   0.065   3.646
 7696TIP3    H223032   8.063   0.058   3.792
 7697TIP3   OH223033   1.748   2.984   2.810
 7697TIP3    H123034   1.689   3.060   2.811
 7697TIP3    H223035   1.695   2.912   2.843
 7698TIP3   OH223036   2.383   4.577   2.806
 7698TIP3    H123037   2.465   4.527   2.797
 7698TIP3    H223038   2.378   4.629   2.726
 7699TIP3   OH223039   2.507   5.065   3.225
 7699TIP3    H123040   2.582   5.120   3.202
 7699TIP3    H223041   2.540   4.976   3.219
 7700TIP3   OH223042   0.327   2.257   2.444
 7700TIP3    H123043   0.325   2.341   2.490
 7700TIP3    H223044   0.279   2.198   2.502
 7701TIP3   OH223045   4.499   6.875   5.795
 7701TIP3    H123046   4.509   6.909   5.706
 7701TIP3    H223047   4.588   6.856   5.823
 7702TIP3   OH223048   7.562   0.109   1.209
 7702TIP3    H123049   7.577   0.099   1.115
 7702TIP3    H223050   7.548   0.203   1.221
 7703TIP3   OH223051   0.926   4.515   3.479
 7703TIP3    H123052   0.910   4.592   3.423
 7703TIP3    H223053   0.909   4.440   3.422
 7704TIP3   OH223054   1.633   5.429   1.645
 7704TIP3    H123055   1.693   5.449   1.717
 7704TIP3    H223056   1.596   5.514   1.621
 7705TIP3   OH223057   2.736   4.921   2.168
 7705TIP3    H123058   2.643   4.902   2.178
 7705TIP3    H223059   2.751   4.999   2.220
 7706TIP3   OH223060   6.943   3.906   6.252
 7706TIP3    H123061   6.993   3.916   6.171
 7706TIP3    H223062   6.906   3.993   6.269
 7707TIP3   OH223063   0.081   1.730   0.197
 7707TIP3    H123064   0.040   1.685   0.272
 7707TIP3    H223065   0.083   1.664   0.128
 7708TIP3   OH223066   1.960   1.027   1.372
 7708TIP3    H123067   1.985   1.058   1.459
 7708TIP3    H223068   2.025   0.960   1.351
 7709TIP3   OH223069   6.452   4.914   0.406
 7709TIP3    H123070   6.404   4.832   0.416
 7709TIP3    H223071   6.422   4.968   0.478
 7710TIP3   OH223072   5.123   0.311   3.114
 7710TIP3    H123073   5.118   0.407   3.111
 7710TIP3    H223074   5.205   0.293   3.160
 7711TIP3   OH223075   4.817   6.717   2.124
 7711TIP3    H123076   4.827   6.672   2.208
 7711TIP3    H223077   4.896   6.696   2.076
 7712TIP3   OH223078   6.366   5.156   6.397
 7712TIP3    H123079   6.457   5.142   6.424
 7712TIP3    H223080   6.324   5.071   6.407
 7713TIP3   OH223081   3.804   3.961   0.750
 7713TIP3    H123082   3.809   4.006   0.666
 7713TIP3    H223083   3.836   3.873   0.731
 7714TIP3   OH223084   3.840   5.469   2.477
 7714TIP3    H123085   3.785   5.476   2.555
 7714TIP3    H223086   3.794   5.407   2.420
 7715TIP3   OH223087   4.974   7.059   2.013
 7715TIP3    H123088   5.065   7.088   2.004
 7715TIP3    H223089   4.958   7.005   1.936
 7716TIP3   OH223090   3.355   1.501   6.114
 7716TIP3    H123091   3.335   1.594   6.124
 7716TIP3    H223092   3.432   1.499   6.058
 7717TIP3   OH223093   0.818   4.817   6.237
 7717TIP3    H123094   0.776   4.818   6.323
 7717TIP3    H223095   0.802   4.728   6.204
 7718TIP3   OH223096   0.924   3.279   0.083
 7718TIP3    H123097   1.003   3.267   0.030
 7718TIP3    H223098   0.928   3.208   0.147
 7719TIP3   OH223099   3.165   2.354   4.585
 7719TIP3    H123100   3.223   2.370   4.659
 7719TIP3    H223101   3.120   2.273   4.607
 7720TIP3   OH223102   6.742   0.790   5.944
 7720TIP3    H123103   6.732   0.698   5.920
 7720TIP3    H223104   6.772   0.833   5.864
 7721TIP3   OH223105   0.232   5.196   2.607
 7721TIP3    H123106   0.194   5.129   2.663
 7721TIP3    H223107   0.301   5.152   2.558
 7722TIP3   OH223108   4.256   2.616   5.284
 7722TIP3    H123109   4.247   2.526   5.315
 7722TIP3    H223110   4.167   2.649   5.281
 7723TIP3   OH223111   5.290   3.192   2.674
 7723TIP3    H123112   5.339   3.267   2.708
 7723TIP3    H223113   5.257   3.147   2.752
 7724TIP3   OH223114   5.937   3.196   0.593
 7724TIP3    H123115   5.854   3.214   0.638
 7724TIP3    H223116   5.994   3.161   0.660
 7725TIP3   OH223117   1.290   4.189   5.637
 7725TIP3    H123118   1.302   4.283   5.650
 7725TIP3    H223119   1.379   4.154   5.630
 7726TIP3   OH223120   5.244   5.324   5.332
 7726TIP3    H123121   5.219   5.400   5.384
 7726TIP3    H223122   5.335   5.307   5.358
 7727TIP3   OH223123   7.285   5.357   1.108
 7727TIP3    H123124   7.225   5.330   1.177
 7727TIP3    H223125   7.371   5.329   1.139
 7728TIP3   OH223126   2.906   2.147   2.574
 7728TIP3    H123127   2.970   2.091   2.617
 7728TIP3    H223128   2.856   2.186   2.646
 7729TIP3   OH223129   0.213   1.118   2.838
 7729TIP3    H123130   0.281   1.175   2.803
 7729TIP3    H223131   0.182   1.162   2.917
 7730TIP3   OH223132   3.666   4.026   4.316
 7730TIP3    H123133   3.662   4.082   4.238
 7730TIP3    H223134   3.670   4.088   4.389
 7731TIP3   OH223135   7.681   1.078   4.126
 7731TIP3    H123136   7.621   1.120   4.064
 7731TIP3    H223137   7.626   1.056   4.201
 7732TIP3   OH223138   5.020   2.066   3.846
 7732TIP3    H123139   5.094   2.126   3.859
 7732TIP3    H223140   5.000   2.033   3.934
 7733TIP3   OH223141   1.190   6.929   2.840
 7733TIP3    H123142   1.176   7.021   2.819
 7733TIP3    H223143   1.150   6.917   2.927
 7734TIP3   OH223144   5.318   1.255   4.382
 7734TIP3    H123145   5.314   1.187   4.315
 7734TIP3    H223146   5.239   1.307   4.367
 7735TIP3   OH223147   0.609   3.909   4.444
 7735TIP3    H123148   0.560   3.861   4.377
 7735TIP3    H223149   0.701   3.893   4.422
 7736TIP3   OH223150   7.893   6.328   2.700
 7736TIP3    H123151   7.940   6.394   2.648
 7736TIP3    H223152   7.937   6.246   2.680
 7737TIP3   OH223153   6.660   2.859   4.125
 7737TIP3    H123154   6.666   2.945   4.167
 7737TIP3    H223155   6.605   2.872   4.048
 7738TIP3   OH223156   7.436   5.004   3.268
 7738TIP3    H123157   7.442   5.048   3.183
 7738TIP3    H223158   7.527   4.991   3.294
 7739TIP3   OH223159   6.906   6.014   2.793
 7739TIP3    H123160   6.863   5.937   2.758
 7739TIP3    H223161   6.995   5.985   2.815
 7740TIP3   OH223162   2.189   4.833   1.710
 7740TIP3    H123163   2.139   4.755   1.691
 7740TIP3    H223164   2.267   4.802   1.756
 7741TIP3   OH223165   5.678   4.972   3.565
 7741TIP3    H123166   5.712   4.892   3.527
 7741TIP3    H223167   5.728   4.984   3.646
 7742TIP3   OH223168   6.874   4.620   6.622
 7742TIP3    H123169   6.967   4.641   6.622
 7742TIP3    H223170   6.850   4.619   6.715
 7743TIP3   OH223171   4.759   4.581   5.688
 7743TIP3    H123172   4.814   4.656   5.712
 7743TIP3    H223173   4.671   4.605   5.719
 7744TIP3   OH223174   5.304   7.513   5.012
 7744TIP3    H123175   5.240   7.498   5.082
 7744TIP3    H223176   5.296   7.436   4.956
 7745TIP3   OH223177   3.408   3.768   1.916
 7745TIP3    H123178   3.496   3.794   1.889
 7745TIP3    H223179   3.353   3.843   1.895
 7746TIP3   OH223180   4.866   4.489   2.553
 7746TIP3    H123181   4.797   4.431   2.588
 7746TIP3    H223182   4.935   4.487   2.619
 7747TIP3   OH223183   5.336   2.730   1.569
 7747TIP3    H123184   5.267   2.751   1.505
 7747TIP3    H223185   5.321   2.791   1.641
 7748TIP3   OH223186   5.439   1.962   3.159
 7748TIP3    H123187   5.449   1.871   3.187
 7748TIP3    H223188   5.449   2.013   3.239
 7749TIP3   OH223189   7.758   0.344   0.655
 7749TIP3    H123190   7.825   0.348   0.724
 7749TIP3    H223191   7.676   0.366   0.700
 7750TIP3   OH223192   5.301   5.048   4.123
 7750TIP3    H123193   5.325   5.089   4.206
 7750TIP3    H223194   5.312   4.954   4.138
 7751TIP3   OH223195   2.928   7.304   5.782
 7751TIP3    H123196   2.943   7.397   5.762
 7751TIP3    H223197   2.913   7.302   5.876
 7752TIP3   OH223198   2.856   3.071   1.253
 7752TIP3    H123199   2.837   3.141   1.192
 7752TIP3    H223200   2.777   3.017   1.253
 7753TIP3   OH223201   8.226   1.957   0.483
 7753TIP3    H123202   8.179   2.014   0.423
 7753TIP3    H223203   8.318   1.986   0.477
 7754TIP3   OH223204   3.052   1.578   0.665
 7754TIP3    H123205   3.120   1.516   0.642
 7754TIP3    H223206   2.976   1.524   0.687
 7755TIP3   OH223207   1.047   3.125   4.675
 7755TIP3    H123208   0.996   3.091   4.602
 7755TIP3    H223209   1.135   3.090   4.660
 7756TIP3   OH223210   0.782   5.007   6.620
 7756TIP3    H123211   0.725   4.978   6.549
 7756TIP3    H223212   0.867   4.967   6.602
 7757TIP3   OH223213   2.769   3.038   5.879
 7757TIP3    H123214   2.798   3.109   5.936
 7757TIP3    H223215   2.838   3.029   5.814
 7758TIP3   OH223216   1.845   5.063   3.852
 7758TIP3    H123217   1.822   5.155   3.865
 7758TIP3    H223218   1.787   5.033   3.782
 7759TIP3   OH223219   1.772   6.719   6.446
 7759TIP3    H123220   1.850   6.770   6.425
 7759TIP3    H223221   1.803   6.628   6.449
 7760TIP3   OH223222   7.591   4.534   2.410
 7760TIP3    H123223   7.649   4.464   2.379
 7760TIP3    H223224   7.543   4.496   2.483
 7761TIP3   OH223225   5.016   4.682   5.480
 7761TIP3    H123226   5.044   4.747   5.545
 7761TIP3    H223227   4.922   4.696   5.472
 7762TIP3   OH223228   2.850   6.868   4.713
 7762TIP3    H123229   2.883   6.850   4.801
 7762TIP3    H223230   2.787   6.938   4.724
 7763TIP3   OH223231   0.004   0.878   5.942
 7763TIP3    H123232  -0.011   0.969   5.919
 7763TIP3    H223233   0.094   0.875   5.974
 7764TIP3   OH223234   7.948   1.351   4.029
 7764TIP3    H123235   7.884   1.280   4.035
 7764TIP3    H223236   7.902   1.427   4.064
 7765TIP3   OH223237   0.187   3.070   2.362
 7765TIP3    H123238   0.156   3.042   2.449
 7765TIP3    H223239   0.246   3.143   2.381
 7766TIP3   OH223240   5.146   3.941   5.992
 7766TIP3    H123241   5.196   3.915   5.914
 7766TIP3    H223242   5.057   3.958   5.958
 7767TIP3   OH223243   0.321   6.245   6.529
 7767TIP3    H123244   0.404   6.198   6.524
 7767TIP3    H223245   0.259   6.190   6.481
 7768TIP3   OH223246   5.692   0.933   5.596
 7768TIP3    H123247   5.776   0.978   5.587
 7768TIP3    H223248   5.642   0.959   5.519
 7769TIP3   OH223249   3.941   7.182   2.975
 7769TIP3    H123250   4.009   7.225   3.027
 7769TIP3    H223251   3.903   7.253   2.923
 7770TIP3   OH223252   0.067   7.556   4.310
 7770TIP3    H123253   0.062   7.478   4.366
 7770TIP3    H223254  -0.004   7.545   4.248
 7771TIP3   OH223255   3.836   7.181   4.057
 7771TIP3    H123256   3.787   7.237   4.117
 7771TIP3    H223257   3.911   7.233   4.030
 7772TIP3   OH223258   4.511   5.126   4.928
 7772TIP3    H123259   4.435   5.182   4.910
 7772TIP3    H223260   4.525   5.135   5.022
 7773TIP3   OH223261   1.282   5.288   1.767
 7773TIP3    H123262   1.299   5.251   1.854
 7773TIP3    H223263   1.189   5.271   1.752
 7774TIP3   OH223264   6.393   6.355   5.155
 7774TIP3    H123265   6.424   6.370   5.065
 7774TIP3    H223266   6.471   6.367   5.209
 7775TIP3   OH223267   1.175   0.527   4.081
 7775TIP3    H123268   1.197   0.433   4.078
 7775TIP3    H223269   1.083   0.529   4.108
 7776TIP3   OH223270   1.114   7.568   3.397
 7776TIP3    H123271   1.131   7.487   3.350
 7776TIP3    H223272   1.198   7.614   3.397
 7777TIP3   OH223273   2.596   4.962   1.653
 7777TIP3    H123274   2.515   4.995   1.615
 7777TIP3    H223275   2.665   5.005   1.603
 7778TIP3   OH223276   5.283   2.145   3.895
 7778TIP3    H123277   5.321   2.099   3.970
 7778TIP3    H223278   5.337   2.119   3.821
 7779TIP3   OH223279   4.375   5.119   3.324
 7779TIP3    H123280   4.308   5.061   3.288
 7779TIP3    H223281   4.372   5.197   3.268
 7780TIP3   OH223282   2.124   1.399   4.115
 7780TIP3    H123283   2.138   1.311   4.150
 7780TIP3    H223284   2.040   1.393   4.070
 7781TIP3   OH223285   3.150   7.098   0.292
 7781TIP3    H123286   3.105   7.155   0.230
 7781TIP3    H223287   3.196   7.157   0.350
 7782TIP3   OH223288   4.630   5.872   5.868
 7782TIP3    H123289   4.583   5.804   5.916
 7782TIP3    H223290   4.664   5.828   5.791
 7783TIP3   OH223291   0.284   2.849   3.182
 7783TIP3    H123292   0.288   2.883   3.271
 7783TIP3    H223293   0.374   2.855   3.150
 7784TIP3   OH223294   2.345   5.941   0.722
 7784TIP3    H123295   2.410   5.974   0.661
 7784TIP3    H223296   2.263   5.944   0.674
 7785TIP3   OH223297   2.613   2.206   2.492
 7785TIP3    H123298   2.637   2.287   2.448
 7785TIP3    H223299   2.683   2.190   2.555
 7786TIP3   OH223300   7.703   4.221   1.853
 7786TIP3    H123301   7.736   4.304   1.888
 7786TIP3    H223302   7.779   4.164   1.847
 7787TIP3   OH223303   3.418   1.638   1.353
 7787TIP3    H123304   3.379   1.572   1.297
 7787TIP3    H223305   3.356   1.711   1.351
 7788TIP3   OH223306   5.232   6.285   5.967
 7788TIP3    H123307   5.209   6.225   5.895
 7788TIP3    H223308   5.155   6.340   5.978
 7789TIP3   OH223309   3.594   4.499   3.501
 7789TIP3    H123310   3.655   4.469   3.433
 7789TIP3    H223311   3.645   4.495   3.582
 7790TIP3   OH223312   3.879   4.767   5.747
 7790TIP3    H123313   3.815   4.830   5.716
 7790TIP3    H223314   3.890   4.787   5.840
 7791TIP3   OH223315   2.995   2.971   1.478
 7791TIP3    H123316   2.952   3.037   1.424
 7791TIP3    H223317   3.079   2.954   1.434
 7792TIP3   OH223318   5.564   2.213   2.859
 7792TIP3    H123319   5.572   2.162   2.939
 7792TIP3    H223320   5.596   2.300   2.883
 7793TIP3   OH223321   1.558   6.669   1.768
 7793TIP3    H123322   1.611   6.709   1.699
 7793TIP3    H223323   1.545   6.579   1.737
 7794TIP3   OH223324   2.460   2.137   3.146
 7794TIP3    H123325   2.376   2.123   3.190
 7794TIP3    H223326   2.493   2.049   3.127
 7795TIP3   OH223327   3.894   6.731   6.396
 7795TIP3    H123328   3.918   6.744   6.488
 7795TIP3    H223329   3.975   6.702   6.354
 7796TIP3   OH223330   0.588   4.149   2.192
 7796TIP3    H123331   0.599   4.055   2.199
 7796TIP3    H223332   0.676   4.185   2.197
 7797TIP3   OH223333   8.088   7.592   6.441
 7797TIP3    H123334   8.085   7.652   6.515
 7797TIP3    H223335   7.997   7.576   6.418
 7798TIP3   OH223336   2.847   1.171   1.113
 7798TIP3    H123337   2.762   1.135   1.087
 7798TIP3    H223338   2.843   1.263   1.087
 7799TIP3   OH223339   0.834   2.340   2.109
 7799TIP3    H123340   0.892   2.271   2.142
 7799TIP3    H223341   0.883   2.381   2.038
 7800TIP3   OH223342   5.584   4.057   4.010
 7800TIP3    H123343   5.645   4.102   3.951
 7800TIP3    H223344   5.630   4.054   4.094
 7801TIP3   OH223345   3.963   7.585   3.234
 7801TIP3    H123346   3.905   7.520   3.194
 7801TIP3    H223347   3.966   7.657   3.170
 7802TIP3   OH223348   2.029   6.786   6.474
 7802TIP3    H123349   2.078   6.825   6.402
 7802TIP3    H223350   2.074   6.817   6.553
 7803TIP3   OH223351   6.630   4.595   2.891
 7803TIP3    H123352   6.687   4.573   2.817
 7803TIP3    H223353   6.547   4.551   2.870
 7804TIP3   OH223354   5.408   7.491   3.813
 7804TIP3    H123355   5.443   7.524   3.731
 7804TIP3    H223356   5.332   7.547   3.831
 7805TIP3   OH223357   2.989   0.626   0.126
 7805TIP3    H123358   3.070   0.577   0.137
 7805TIP3    H223359   2.991   0.657   0.036
 7806TIP3   OH223360   2.718   2.864   3.281
 7806TIP3    H123361   2.751   2.859   3.191
 7806TIP3    H223362   2.688   2.954   3.291
 7807TIP3   OH223363   4.306   7.745   1.690
 7807TIP3    H123364   4.359   7.786   1.621
 7807TIP3    H223365   4.361   7.675   1.723
 7808TIP3   OH223366   1.612   6.633   3.579
 7808TIP3    H123367   1.665   6.687   3.638
 7808TIP3    H223368   1.573   6.566   3.636
 7809TIP3   OH223369   8.233   3.830   1.928
 7809TIP3    H123370   8.158   3.887   1.917
 7809TIP3    H223371   8.220   3.760   1.865
 7810TIP3   OH223372   2.722   4.383   0.680
 7810TIP3    H123373   2.770   4.347   0.605
 7810TIP3    H223374   2.684   4.306   0.723
 7811TIP3   OH223375   5.374   0.776   1.160
 7811TIP3    H123376   5.457   0.815   1.188
 7811TIP3    H223377   5.327   0.758   1.241
 7812TIP3   OH223378   8.046   5.627   0.527
 7812TIP3    H123379   8.060   5.696   0.462
 7812TIP3    H223380   8.114   5.642   0.593
 7813TIP3   OH223381   6.211   6.493   2.728
 7813TIP3    H123382   6.257   6.556   2.783
 7813TIP3    H223383   6.136   6.465   2.781
 7814TIP3   OH223384   0.148   0.643   4.778
 7814TIP3    H123385   0.141   0.738   4.784
 7814TIP3    H223386   0.085   0.618   4.711
 7815TIP3   OH223387   1.478   7.191   0.558
 7815TIP3    H123388   1.449   7.160   0.644
 7815TIP3    H223389   1.520   7.275   0.575
 7816TIP3   OH223390   7.914   1.795   6.517
 7816TIP3    H123391   7.988   1.739   6.542
 7816TIP3    H223392   7.901   1.778   6.424
 7817TIP3   OH223393   2.800   5.925   6.447
 7817TIP3    H123394   2.812   5.836   6.481
 7817TIP3    H223395   2.706   5.932   6.430
 7818TIP3   OH223396   5.198   3.267   4.599
 7818TIP3    H123397   5.146   3.187   4.597
 7818TIP3    H223398   5.150   3.329   4.543
 7819TIP3   OH223399   4.272   0.444   3.388
 7819TIP3    H123400   4.367   0.438   3.382
 7819TIP3    H223401   4.255   0.477   3.476
 7820TIP3   OH223402   2.083   3.554   4.475
 7820TIP3    H123403   2.127   3.578   4.557
 7820TIP3    H223404   2.096   3.631   4.418
 7821TIP3   OH223405   1.070   3.257   1.303
 7821TIP3    H123406   1.109   3.181   1.261
 7821TIP3    H223407   0.985   3.267   1.261
 7822TIP3   OH223408   2.935   6.073   6.651
 7822TIP3    H123409   2.894   6.023   6.580
 7822TIP3    H223410   2.896   6.160   6.645
 7823TIP3   OH223411   4.594   5.182   5.167
 7823TIP3    H123412   4.671   5.213   5.215
 7823TIP3    H223413   4.523   5.240   5.195
 7824TIP3   OH223414   4.555   2.811   4.230
 7824TIP3    H123415   4.477   2.776   4.187
 7824TIP3    H223416   4.614   2.736   4.238
 7825TIP3   OH223417   8.124   6.142   4.423
 7825TIP3    H123418   8.181   6.124   4.498
 7825TIP3    H223419   8.036   6.125   4.455
 7826TIP3   OH223420   1.457   5.341   5.394
 7826TIP3    H123421   1.525   5.277   5.409
 7826TIP3    H223422   1.483   5.386   5.313
 7827TIP3   OH223423   6.687   4.240   4.917
 7827TIP3    H123424   6.712   4.303   4.849
 7827TIP3    H223425   6.755   4.250   4.984
 7828TIP3   OH223426   2.746   3.624   6.303
 7828TIP3    H123427   2.667   3.635   6.250
 7828TIP3    H223428   2.784   3.712   6.307
 7829TIP3   OH223429   3.540   1.094   3.504
 7829TIP3    H123430   3.501   1.152   3.569
 7829TIP3    H223431   3.557   1.150   3.428
 7830TIP3   OH223432   6.640   3.238   3.951
 7830TIP3    H123433   6.710   3.280   3.902
 7830TIP3    H223434   6.570   3.303   3.956
 7831TIP3   OH223435   3.233   2.484   0.141
 7831TIP3    H123436   3.256   2.446   0.056
 7831TIP3    H223437   3.302   2.453   0.199
 7832TIP3   OH223438   3.214   4.294   2.868
 7832TIP3    H123439   3.202   4.276   2.774
 7832TIP3    H223440   3.148   4.361   2.887
 7833TIP3   OH223441   2.857   2.817   0.356
 7833TIP3    H123442   2.787   2.861   0.309
 7833TIP3    H223443   2.937   2.853   0.320
 7834TIP3   OH223444   4.686   2.930   6.100
 7834TIP3    H123445   4.728   2.996   6.155
 7834TIP3    H223446   4.634   2.877   6.162
 7835TIP3   OH223447   1.427   3.136   5.482
 7835TIP3    H123448   1.455   3.090   5.402
 7835TIP3    H223449   1.362   3.079   5.521
 7836TIP3   OH223450   8.213   7.455   0.343
 7836TIP3    H123451   8.299   7.457   0.385
 7836TIP3    H223452   8.152   7.433   0.414
 7837TIP3   OH223453   3.507   4.032   2.952
 7837TIP3    H123454   3.438   3.984   2.905
 7837TIP3    H223455   3.462   4.107   2.990
 7838TIP3   OH223456   8.212   4.653   1.525
 7838TIP3    H123457   8.285   4.597   1.500
 7838TIP3    H223458   8.134   4.600   1.510
 7839TIP3   OH223459   6.262   6.920   1.400
 7839TIP3    H123460   6.209   6.873   1.464
 7839TIP3    H223461   6.333   6.958   1.451
 7840TIP3   OH223462   2.415   7.550   1.981
 7840TIP3    H123463   2.413   7.597   2.064
 7840TIP3    H223464   2.492   7.493   1.989
 7841TIP3   OH223465   1.972   2.314   3.434
 7841TIP3    H123466   1.956   2.331   3.527
 7841TIP3    H223467   2.057   2.354   3.417
 7842TIP3   OH223468   0.077   4.192   6.434
 7842TIP3    H123469   0.027   4.221   6.510
 7842TIP3    H223470   0.126   4.269   6.407
 7843TIP3   OH223471   0.145   1.900   5.615
 7843TIP3    H123472   0.168   1.824   5.562
 7843TIP3    H223473   0.146   1.973   5.554
 7844TIP3   OH223474   6.491   1.230   2.740
 7844TIP3    H123475   6.491   1.225   2.645
 7844TIP3    H223476   6.402   1.205   2.765
 7845TIP3   OH223477   1.834   7.480   0.725
 7845TIP3    H123478   1.821   7.459   0.633
 7845TIP3    H223479   1.913   7.534   0.727
 7846TIP3   OH223480   4.027   7.227   2.577
 7846TIP3    H123481   4.027   7.309   2.628
 7846TIP3    H223482   4.057   7.161   2.640
 7847TIP3   OH223483   3.848   6.238   2.117
 7847TIP3    H123484   3.904   6.247   2.039
 7847TIP3    H223485   3.864   6.149   2.148
 7848TIP3   OH223486   7.865   6.392   6.551
 7848TIP3    H123487   7.775   6.392   6.518
 7848TIP3    H223488   7.862   6.446   6.630
 7849TIP3   OH223489   3.182   7.787   5.034
 7849TIP3    H123490   3.175   7.759   4.942
 7849TIP3    H223491   3.248   7.729   5.072
 7850TIP3   OH223492   1.991   4.227   0.815
 7850TIP3    H123493   1.919   4.283   0.845
 7850TIP3    H223494   1.978   4.218   0.721
 7851TIP3   OH223495   3.601   0.079   5.889
 7851TIP3    H123496   3.541   0.020   5.936
 7851TIP3    H223497   3.597   0.161   5.938
 7852TIP3   OH223498   2.054   5.144   6.087
 7852TIP3    H123499   2.047   5.053   6.058
 7852TIP3    H223500   2.138   5.149   6.133
 7853TIP3   OH223501   0.833   7.102   3.879
 7853TIP3    H123502   0.844   7.095   3.974
 7853TIP3    H223503   0.877   7.025   3.844
 7854TIP3   OH223504   8.115   6.137   6.167
 7854TIP3    H123505   8.046   6.194   6.201
 7854TIP3    H223506   8.174   6.196   6.120
 7855TIP3   OH223507   0.506   6.244   4.103
 7855TIP3    H123508   0.426   6.195   4.121
 7855TIP3    H223509   0.489   6.285   4.018
 7856TIP3   OH223510   5.157   4.298   3.233
 7856TIP3    H123511   5.069   4.294   3.270
 7856TIP3    H223512   5.152   4.366   3.165
 7857TIP3   OH223513   2.740   5.078   0.911
 7857TIP3    H123514   2.766   5.079   1.003
 7857TIP3    H223515   2.653   5.039   0.911
 7858TIP3   OH223516   0.324   5.081   4.408
 7858TIP3    H123517   0.279   5.156   4.446
 7858TIP3    H223518   0.412   5.084   4.446
 7859TIP3   OH223519   3.175   6.371   2.378
 7859TIP3    H123520   3.145   6.460   2.361
 7859TIP3    H223521   3.200   6.372   2.471
 7860TIP3   OH223522   1.207   5.221   6.170
 7860TIP3    H123523   1.250   5.209   6.085
 7860TIP3    H223524   1.136   5.157   6.170
 7861TIP3   OH223525   3.478   5.363   2.570
 7861TIP3    H123526   3.454   5.397   2.484
 7861TIP3    H223527   3.467   5.268   2.563
 7862TIP3   OH223528   0.240   2.293   1.936
 7862TIP3    H123529   0.302   2.356   1.973
 7862TIP3    H223530   0.200   2.251   2.012
 7863TIP3   OH223531   6.050   6.018   4.528
 7863TIP3    H123532   5.958   6.010   4.503
 7863TIP3    H223533   6.097   6.025   4.445
 7864TIP3   OH223534   6.123   5.671   1.171
 7864TIP3    H123535   6.075   5.747   1.202
 7864TIP3    H223536   6.116   5.676   1.075
 7865TIP3   OH223537   4.831   5.267   1.510
 7865TIP3    H123538   4.849   5.222   1.427
 7865TIP3    H223539   4.818   5.196   1.572
 7866TIP3   OH223540   3.463   5.598   0.178
 7866TIP3    H123541   3.438   5.651   0.254
 7866TIP3    H223542   3.379   5.577   0.136
 7867TIP3   OH223543   2.670   2.634   3.072
 7867TIP3    H123544   2.757   2.624   3.108
 7867TIP3    H223545   2.678   2.704   3.008
 7868TIP3   OH223546   4.024   2.535   4.662
 7868TIP3    H123547   4.027   2.616   4.611
 7868TIP3    H223548   4.116   2.512   4.677
 7869TIP3   OH223549   7.192   0.738   3.364
 7869TIP3    H123550   7.165   0.823   3.330
 7869TIP3    H223551   7.277   0.754   3.405
 7870TIP3   OH223552   2.186   3.932   4.087
 7870TIP3    H123553   2.212   3.962   4.175
 7870TIP3    H223554   2.189   4.011   4.034
 7871TIP3   OH223555   1.983   0.575   6.375
 7871TIP3    H123556   2.025   0.528   6.447
 7871TIP3    H223557   2.049   0.637   6.345
 7872TIP3   OH223558   4.096   0.258   4.603
 7872TIP3    H123559   4.104   0.189   4.537
 7872TIP3    H223560   4.019   0.234   4.654
 7873TIP3   OH223561   5.694   0.520   1.603
 7873TIP3    H123562   5.603   0.490   1.604
 7873TIP3    H223563   5.699   0.583   1.675
 7874TIP3   OH223564   6.844   7.322   1.491
 7874TIP3    H123565   6.771   7.293   1.544
 7874TIP3    H223566   6.858   7.413   1.517
 7875TIP3   OH223567   7.282   3.135   0.835
 7875TIP3    H123568   7.321   3.217   0.803
 7875TIP3    H223569   7.277   3.079   0.757
 7876TIP3   OH223570   2.945   4.305   5.039
 7876TIP3    H123571   3.036   4.276   5.031
 7876TIP3    H223572   2.912   4.303   4.949
 7877TIP3   OH223573   7.179   5.146   2.832
 7877TIP3    H123574   7.110   5.097   2.877
 7877TIP3    H223575   7.223   5.081   2.778
 7878TIP3   OH223576   1.148   6.913   0.850
 7878TIP3    H123577   1.200   6.865   0.914
 7878TIP3    H223578   1.058   6.903   0.881
 7879TIP3   OH223579   5.033   5.658   4.158
 7879TIP3    H123580   4.946   5.696   4.150
 7879TIP3    H223581   5.093   5.727   4.129
 7880TIP3   OH223582   1.518   5.223   1.989
 7880TIP3    H123583   1.503   5.316   1.971
 7880TIP3    H223584   1.465   5.206   2.067
 7881TIP3   OH223585   6.716   2.379   6.726
 7881TIP3    H123586   6.751   2.298   6.689
 7881TIP3    H223587   6.660   2.415   6.657
 7882TIP3   OH223588   6.888   6.802   0.654
 7882TIP3    H123589   6.907   6.874   0.715
 7882TIP3    H223590   6.826   6.838   0.592
 7883TIP3   OH223591   7.815   0.767   4.956
 7883TIP3    H123592   7.811   0.822   4.877
 7883TIP3    H223593   7.731   0.781   4.999
 7884TIP3   OH223594   6.226   6.209   4.879
 7884TIP3    H123595   6.154   6.271   4.886
 7884TIP3    H223596   6.303   6.259   4.907
 7885TIP3   OH223597   0.551   7.704   3.080
 7885TIP3    H123598   0.496   7.633   3.113
 7885TIP3    H223599   0.620   7.660   3.031
 7886TIP3   OH223600   3.909   6.416   2.378
 7886TIP3    H123601   3.862   6.349   2.329
 7886TIP3    H223602   4.001   6.399   2.359
 7887TIP3   OH223603   4.846   3.674   2.461
 7887TIP3    H123604   4.927   3.709   2.425
 7887TIP3    H223605   4.856   3.579   2.455
 7888TIP3   OH223606   8.022   3.632   4.403
 7888TIP3    H123607   8.055   3.590   4.324
 7888TIP3    H223608   7.927   3.621   4.398
 7889TIP3   OH223609   7.538   0.381   2.776
 7889TIP3    H123610   7.626   0.381   2.813
 7889TIP3    H223611   7.538   0.455   2.715
 7890TIP3   OH223612   7.399   1.630   5.173
 7890TIP3    H123613   7.427   1.584   5.094
 7890TIP3    H223614   7.310   1.597   5.189
 7891TIP3   OH223615   0.963   4.204   6.057
 7891TIP3    H123616   1.057   4.200   6.074
 7891TIP3    H223617   0.923   4.222   6.142
 7892TIP3   OH223618   2.590   5.553   2.775
 7892TIP3    H123619   2.670   5.570   2.824
 7892TIP3    H223620   2.531   5.511   2.839
 7893TIP3   OH223621   7.956   0.365   4.341
 7893TIP3    H123622   8.027   0.403   4.289
 7893TIP3    H223623   7.966   0.270   4.329
 7894TIP3   OH223624   0.896   6.272   0.783
 7894TIP3    H123625   0.984   6.310   0.789
 7894TIP3    H223626   0.907   6.181   0.810
 7895TIP3   OH223627   0.585   6.206   2.306
 7895TIP3    H123628   0.616   6.287   2.347
 7895TIP3    H223629   0.652   6.141   2.328
 7896TIP3   OH223630   1.251   0.668   3.708
 7896TIP3    H123631   1.221   0.577   3.708
 7896TIP3    H223632   1.197   0.711   3.775
 7897TIP3   OH223633   3.669   4.904   5.611
 7897TIP3    H123634   3.680   4.814   5.580
 7897TIP3    H223635   3.616   4.946   5.544
 7898TIP3   OH223636   8.205   1.865   2.931
 7898TIP3    H123637   8.240   1.954   2.935
 7898TIP3    H223638   8.111   1.876   2.924
 7899TIP3   OH223639   7.362   1.298   2.661
 7899TIP3    H123640   7.434   1.349   2.698
 7899TIP3    H223641   7.400   1.258   2.583
 7900TIP3   OH223642   3.329   2.739   4.105
 7900TIP3    H123643   3.321   2.647   4.131
 7900TIP3    H223644   3.266   2.749   4.033
 7901TIP3   OH223645   5.821   7.620   6.526
 7901TIP3    H123646   5.904   7.667   6.538
 7901TIP3    H223647   5.845   7.542   6.475
 7902TIP3   OH223648   7.346   2.910   1.499
 7902TIP3    H123649   7.398   2.978   1.543
 7902TIP3    H223650   7.386   2.828   1.528
 7903TIP3   OH223651   5.666   1.745   0.967
 7903TIP3    H123652   5.708   1.823   0.930
 7903TIP3    H223653   5.739   1.694   1.004
 7904TIP3   OH223654   5.708   4.295   0.623
 7904TIP3    H123655   5.676   4.366   0.568
 7904TIP3    H223656   5.783   4.333   0.670
 7905TIP3   OH223657   7.531   0.049   1.865
 7905TIP3    H123658   7.556  -0.037   1.899
 7905TIP3    H223659   7.436   0.050   1.872
 7906TIP3   OH223660   2.490   1.936   6.208
 7906TIP3    H123661   2.553   1.994   6.165
 7906TIP3    H223662   2.536   1.852   6.215
 7907TIP3   OH223663   0.680   6.558   4.897
 7907TIP3    H123664   0.589   6.533   4.879
 7907TIP3    H223665   0.728   6.532   4.819
 7908TIP3   OH223666   1.403   7.107   3.363
 7908TIP3    H123667   1.321   7.119   3.410
 7908TIP3    H223668   1.433   7.020   3.390
 7909TIP3   OH223669   0.453   0.370   4.249
 7909TIP3    H123670   0.447   0.438   4.182
 7909TIP3    H223671   0.378   0.385   4.306
 7910TIP3   OH223672   1.368   1.233   5.529
 7910TIP3    H123673   1.315   1.297   5.480
 7910TIP3    H223674   1.350   1.254   5.621
 7911TIP3   OH223675   5.001   0.827   1.182
 7911TIP3    H123676   5.061   0.788   1.245
 7911TIP3    H223677   5.037   0.914   1.165
 7912TIP3   OH223678   5.050   6.550   6.525
 7912TIP3    H123679   5.044   6.629   6.579
 7912TIP3    H223680   4.961   6.533   6.496
 7913TIP3   OH223681   2.926   2.707   2.561
 7913TIP3    H123682   2.939   2.754   2.479
 7913TIP3    H223683   2.991   2.637   2.558
 7914TIP3   OH223684   2.639   0.389   5.709
 7914TIP3    H123685   2.581   0.313   5.700
 7914TIP3    H223686   2.725   0.356   5.684
 7915TIP3   OH223687   8.230   7.403   6.281
 7915TIP3    H123688   8.319   7.437   6.294
 7915TIP3    H223689   8.174   7.465   6.328
 7916TIP3   OH223690   3.770   2.438   5.825
 7916TIP3    H123691   3.806   2.484   5.901
 7916TIP3    H223692   3.742   2.509   5.765
 7917TIP3   OH223693   2.671   3.452   4.208
 7917TIP3    H123694   2.602   3.390   4.234
 7917TIP3    H223695   2.692   3.428   4.118
 7918TIP3   OH223696   1.277   7.419   1.234
 7918TIP3    H123697   1.251   7.491   1.292
 7918TIP3    H223698   1.243   7.443   1.148
 7919TIP3   OH223699   6.234   4.637   3.141
 7919TIP3    H123700   6.213   4.701   3.072
 7919TIP3    H223701   6.293   4.575   3.099
 7920TIP3   OH223702   6.685   3.176   2.293
 7920TIP3    H123703   6.615   3.234   2.262
 7920TIP3    H223704   6.686   3.104   2.230
 7921TIP3   OH223705   7.343   7.083   4.697
 7921TIP3    H123706   7.325   6.996   4.662
 7921TIP3    H223707   7.438   7.091   4.693
 7922TIP3   OH223708   7.362   7.640   4.700
 7922TIP3    H123709   7.327   7.691   4.627
 7922TIP3    H223710   7.348   7.549   4.673
 7923TIP3   OH223711   3.782   0.090   0.222
 7923TIP3    H123712   3.818   0.167   0.178
 7923TIP3    H223713   3.786   0.112   0.315
 7924TIP3   OH223714   6.638   2.652   1.688
 7924TIP3    H123715   6.606   2.625   1.774
 7924TIP3    H223716   6.559   2.668   1.637
 7925TIP3   OH223717   1.759   1.700   4.996
 7925TIP3    H123718   1.849   1.678   5.019
 7925TIP3    H223719   1.706   1.646   5.055
 7926TIP3   OH223720   1.347   1.955   2.132
 7926TIP3    H123721   1.409   1.885   2.152
 7926TIP3    H223722   1.300   1.924   2.054
 7927TIP3   OH223723   3.690   4.568   5.620
 7927TIP3    H123724   3.749   4.553   5.547
 7927TIP3    H223725   3.747   4.584   5.695
 7928TIP3   OH223726   3.539   1.286   3.300
 7928TIP3    H123727   3.494   1.364   3.269
 7928TIP3    H223728   3.630   1.315   3.313
 7929TIP3   OH223729   5.167   4.600   0.915
 7929TIP3    H123730   5.102   4.531   0.903
 7929TIP3    H223731   5.159   4.626   1.007
 7930TIP3   OH223732   2.128   7.585   1.099
 7930TIP3    H123733   2.055   7.636   1.064
 7930TIP3    H223734   2.200   7.601   1.038
 7931TIP3   OH223735   1.546   7.634   4.647
 7931TIP3    H123736   1.506   7.666   4.728
 7931TIP3    H223737   1.508   7.547   4.635
 7932TIP3   OH223738   0.996   5.460   4.067
 7932TIP3    H123739   1.058   5.387   4.067
 7932TIP3    H223740   1.018   5.510   4.145
 7933TIP3   OH223741   2.629   6.513   4.572
 7933TIP3    H123742   2.704   6.571   4.584
 7933TIP3    H223743   2.630   6.490   4.479
 7934TIP3   OH223744   5.816   0.347   6.625
 7934TIP3    H123745   5.900   0.383   6.596
 7934TIP3    H223746   5.808   0.264   6.577
 7935TIP3   OH223747   8.128   5.093   2.841
 7935TIP3    H123748   8.129   5.113   2.935
 7935TIP3    H223749   8.166   5.006   2.835
 7936TIP3   OH223750   6.453   3.856   0.907
 7936TIP3    H123751   6.378   3.914   0.913
 7936TIP3    H223752   6.486   3.867   0.818
 7937TIP3   OH223753   3.637   1.786   0.715
 7937TIP3    H123754   3.731   1.799   0.713
 7937TIP3    H223755   3.614   1.791   0.808
 7938TIP3   OH223756   4.525   0.356   3.262
 7938TIP3    H123757   4.609   0.369   3.306
 7938TIP3    H223758   4.519   0.429   3.200
 7939TIP3   OH223759   2.238   5.531   5.557
 7939TIP3    H123760   2.330   5.534   5.529
 7939TIP3    H223761   2.243   5.527   5.653
 7940TIP3   OH223762   4.760   7.363   2.885
 7940TIP3    H123763   4.834   7.414   2.851
 7940TIP3    H223764   4.790   7.272   2.880
 7941TIP3   OH223765   1.814   5.890   2.208
 7941TIP3    H123766   1.797   5.798   2.187
 7941TIP3    H223767   1.734   5.920   2.251
 7942TIP3   OH223768   6.189   3.693   6.046
 7942TIP3    H123769   6.279   3.673   6.069
 7942TIP3    H223770   6.153   3.737   6.124
 7943TIP3   OH223771   1.910   1.529   6.252
 7943TIP3    H123772   1.944   1.549   6.339
 7943TIP3    H223773   1.975   1.469   6.214
 7944TIP3   OH223774   1.922   6.783   6.073
 7944TIP3    H123775   1.929   6.825   5.987
 7944TIP3    H223776   1.901   6.855   6.132
 7945TIP3   OH223777   4.666   0.693   0.976
 7945TIP3    H123778   4.739   0.641   1.010
 7945TIP3    H223779   4.651   0.759   1.043
 7946TIP3   OH223780   1.197   0.007   4.855
 7946TIP3    H123781   1.187   0.042   4.943
 7946TIP3    H223782   1.291   0.003   4.841
 7947TIP3   OH223783   2.580   6.207   6.615
 7947TIP3    H123784   2.492   6.244   6.607
 7947TIP3    H223785   2.565   6.114   6.634
 7948TIP3   OH223786   2.435   0.073   3.471
 7948TIP3    H123787   2.454   0.093   3.563
 7948TIP3    H223788   2.522   0.065   3.430
 7949TIP3   OH223789   8.161   1.803   4.595
 7949TIP3    H123790   8.084   1.815   4.540
 7949TIP3    H223791   8.126   1.773   4.679
 7950TIP3   OH223792   5.310   3.889   2.779
 7950TIP3    H123793   5.374   3.872   2.848
 7950TIP3    H223794   5.233   3.922   2.825
 7951TIP3   OH223795   3.107   1.667   5.083
 7951TIP3    H123796   3.132   1.589   5.134
 7951TIP3    H223797   3.127   1.644   4.993
 7952TIP3   OH223798   4.687   0.727   5.807
 7952TIP3    H123799   4.714   0.672   5.733
 7952TIP3    H223800   4.644   0.802   5.767
 7953TIP3   OH223801   1.619   2.144   0.634
 7953TIP3    H123802   1.633   2.056   0.599
 7953TIP3    H223803   1.683   2.151   0.705
 7954TIP3   OH223804   3.928   7.099   0.373
 7954TIP3    H123805   3.902   7.068   0.286
 7954TIP3    H223806   4.018   7.131   0.361
 7955TIP3   OH223807   0.424   4.110   5.307
 7955TIP3    H123808   0.408   4.197   5.345
 7955TIP3    H223809   0.423   4.124   5.213
 7956TIP3   OH223810   2.383   5.596   1.856
 7956TIP3    H123811   2.315   5.645   1.901
 7956TIP3    H223812   2.423   5.542   1.924
 7957TIP3   OH223813   6.537   2.178   4.792
 7957TIP3    H123814   6.528   2.251   4.731
 7957TIP3    H223815   6.454   2.131   4.787
 7958TIP3   OH223816   0.680   6.662   3.486
 7958TIP3    H123817   0.637   6.603   3.424
 7958TIP3    H223818   0.623   6.739   3.490
 7959TIP3   OH223819   4.292   0.858   1.653
 7959TIP3    H123820   4.376   0.903   1.645
 7959TIP3    H223821   4.227   0.928   1.650
 7960TIP3   OH223822   1.371   1.134   0.569
 7960TIP3    H123823   1.330   1.218   0.588
 7960TIP3    H223824   1.298   1.072   0.563
 7961TIP3   OH223825   4.389   5.238   0.641
 7961TIP3    H123826   4.445   5.179   0.693
 7961TIP3    H223827   4.300   5.206   0.656
 7962TIP3   OH223828   7.554   5.327   0.822
 7962TIP3    H123829   7.532   5.258   0.885
 7962TIP3    H223830   7.608   5.389   0.872
 7963TIP3   OH223831   4.424   7.142   3.986
 7963TIP3    H123832   4.441   7.106   4.073
 7963TIP3    H223833   4.488   7.100   3.929
 7964TIP3   OH223834   6.915   6.353   3.992
 7964TIP3    H123835   6.854   6.405   4.045
 7964TIP3    H223836   7.002   6.385   4.017
 7965TIP3   OH223837   7.919   4.141   5.144
 7965TIP3    H123838   7.985   4.210   5.144
 7965TIP3    H223839   7.968   4.060   5.159
 7966TIP3   OH223840   1.131   5.569   2.488
 7966TIP3    H123841   1.059   5.592   2.547
 7966TIP3    H223842   1.190   5.644   2.492
 7967TIP3   OH223843   3.499   0.778   2.540
 7967TIP3    H123844   3.585   0.737   2.547
 7967TIP3    H223845   3.491   0.802   2.448
 7968TIP3   OH223846   2.305   4.388   4.439
 7968TIP3    H123847   2.355   4.468   4.421
 7968TIP3    H223848   2.228   4.418   4.488
 7969TIP3   OH223849   5.053   6.939   3.130
 7969TIP3    H123850   5.029   6.854   3.166
 7969TIP3    H223851   5.145   6.950   3.152
 7970TIP3   OH223852   3.804   7.237   6.220
 7970TIP3    H123853   3.817   7.142   6.222
 7970TIP3    H223854   3.801   7.263   6.312
 7971TIP3   OH223855   6.948   7.044   3.881
 7971TIP3    H123856   6.874   7.040   3.942
 7971TIP3    H223857   6.940   7.130   3.841
 7972TIP3   OH223858   6.871   0.841   4.572
 7972TIP3    H123859   6.804   0.837   4.641
 7972TIP3    H223860   6.825   0.816   4.492
 7973TIP3   OH223861   1.897   6.536   1.192
 7973TIP3    H123862   1.861   6.477   1.258
 7973TIP3    H223863   1.949   6.480   1.135
 7974TIP3   OH223864   2.047   1.881   4.696
 7974TIP3    H123865   2.111   1.904   4.628
 7974TIP3    H223866   1.975   1.842   4.647
 7975TIP3   OH223867   5.093   3.257   5.915
 7975TIP3    H123868   5.059   3.173   5.883
 7975TIP3    H223869   5.186   3.242   5.928
 7976TIP3   OH223870   7.410   7.541   3.362
 7976TIP3    H123871   7.470   7.611   3.387
 7976TIP3    H223872   7.466   7.466   3.345
 7977TIP3   OH223873   7.309   4.606   4.977
 7977TIP3    H123874   7.270   4.527   5.016
 7977TIP3    H223875   7.236   4.665   4.961
 7978TIP3   OH223876   4.892   5.560   0.543
 7978TIP3    H123877   4.986   5.556   0.562
 7978TIP3    H223878   4.886   5.621   0.469
 7979TIP3   OH223879   3.187   2.148   6.032
 7979TIP3    H123880   3.094   2.126   6.037
 7979TIP3    H223881   3.196   2.229   6.082
 7980TIP3   OH223882   7.668   2.119   2.327
 7980TIP3    H123883   7.618   2.047   2.366
 7980TIP3    H223884   7.608   2.194   2.332
 7981TIP3   OH223885   0.196   5.031   0.755
 7981TIP3    H123886   0.195   4.985   0.839
 7981TIP3    H223887   0.164   4.967   0.692
 7982TIP3   OH223888   6.361   6.505   3.318
 7982TIP3    H123889   6.346   6.410   3.312
 7982TIP3    H223890   6.342   6.537   3.230
 7983TIP3   OH223891   4.285   6.200   2.070
 7983TIP3    H123892   4.253   6.160   1.989
 7983TIP3    H223893   4.329   6.280   2.041
 7984TIP3   OH223894   3.335   2.791   5.362
 7984TIP3    H123895   3.297   2.847   5.430
 7984TIP3    H223896   3.430   2.798   5.376
 7985TIP3   OH223897   1.638   1.212   0.581
 7985TIP3    H123898   1.688   1.132   0.569
 7985TIP3    H223899   1.547   1.184   0.582
 7986TIP3   OH223900   5.357   5.667   3.654
 7986TIP3    H123901   5.356   5.593   3.715
 7986TIP3    H223902   5.450   5.680   3.635
 7987TIP3   OH223903   4.404   5.375   2.813
 7987TIP3    H123904   4.471   5.307   2.800
 7987TIP3    H223905   4.450   5.447   2.855
 7988TIP3   OH223906   6.500   4.495   3.133
 7988TIP3    H123907   6.564   4.465   3.198
 7988TIP3    H223908   6.551   4.507   3.053
 7989TIP3   OH223909   1.001   4.962   0.867
 7989TIP3    H123910   0.957   4.911   0.935
 7989TIP3    H223911   1.043   5.033   0.914
 7990TIP3   OH223912   3.297   3.600   4.133
 7990TIP3    H123913   3.368   3.632   4.189
 7990TIP3    H223914   3.340   3.579   4.050
 7991TIP3   OH223915   6.650   4.579   1.044
 7991TIP3    H123916   6.613   4.492   1.031
 7991TIP3    H223917   6.734   4.564   1.088
 7992TIP3   OH223918   5.309   3.835   2.121
 7992TIP3    H123919   5.387   3.856   2.173
 7992TIP3    H223920   5.269   3.919   2.102
 7993TIP3   OH223921   5.697   4.645   6.653
 7993TIP3    H123922   5.610   4.680   6.636
 7993TIP3    H223923   5.745   4.659   6.571
 7994TIP3   OH223924   0.748   3.762   4.838
 7994TIP3    H123925   0.690   3.720   4.901
 7994TIP3    H223926   0.778   3.689   4.782
 7995TIP3   OH223927   4.272   0.857   0.624
 7995TIP3    H123928   4.344   0.859   0.687
 7995TIP3    H223929   4.233   0.770   0.635
 7996TIP3   OH223930   4.720   3.840   3.280
 7996TIP3    H123931   4.679   3.883   3.355
 7996TIP3    H223932   4.814   3.844   3.299
 7997TIP3   OH223933   2.415   6.872   1.132
 7997TIP3    H123934   2.345   6.812   1.156
 7997TIP3    H223935   2.373   6.940   1.079
 7998TIP3   OH223936   1.473   4.932   3.122
 7998TIP3    H123937   1.516   4.949   3.038
 7998TIP3    H223938   1.421   4.853   3.106
 7999TIP3   OH223939   6.220   2.271   6.159
 7999TIP3    H123940   6.144   2.242   6.209
 7999TIP3    H223941   6.200   2.362   6.136
 8000TIP3   OH223942   2.666   7.058   4.816
 8000TIP3    H123943   2.752   7.092   4.839
 8000TIP3    H223944   2.641   7.002   4.889
 8001TIP3   OH223945   0.288   1.533   2.179
 8001TIP3    H123946   0.264   1.499   2.265
 8001TIP3    H223947   0.321   1.456   2.132
 8002TIP3   OH223948   0.265   3.014   0.606
 8002TIP3    H123949   0.232   2.943   0.660
 8002TIP3    H223950   0.356   2.991   0.589
 8003TIP3   OH223951   5.082   4.295   3.983
 8003TIP3    H123952   5.049   4.347   3.910
 8003TIP3    H223953   5.057   4.205   3.962
 8004TIP3   OH223954   5.676   5.124   2.822
 8004TIP3    H123955   5.679   5.197   2.760
 8004TIP3    H223956   5.637   5.052   2.772
 8005TIP3   OH223957   4.876   5.906   4.650
 8005TIP3    H123958   4.929   5.963   4.706
 8005TIP3    H223959   4.888   5.942   4.562
 8006TIP3   OH223960   0.542   0.574   2.987
 8006TIP3    H123961   0.513   0.514   3.056
 8006TIP3    H223962   0.524   0.661   3.021
 8007TIP3   OH223963   0.337   5.729   4.727
 8007TIP3    H123964   0.359   5.696   4.639
 8007TIP3    H223965   0.292   5.812   4.711
 8008TIP3   OH223966   4.338   2.830   0.631
 8008TIP3    H123967   4.433   2.836   0.615
 8008TIP3    H223968   4.319   2.908   0.684
 8009TIP3   OH223969   4.413   5.691   1.141
 8009TIP3    H123970   4.463   5.609   1.136
 8009TIP3    H223971   4.392   5.711   1.049
 8010TIP3   OH223972   6.808   0.456   3.478
 8010TIP3    H123973   6.870   0.406   3.530
 8010TIP3    H223974   6.858   0.485   3.402
 8011TIP3   OH223975   5.493   5.022   1.250
 8011TIP3    H123976   5.541   5.071   1.316
 8011TIP3    H223977   5.485   5.083   1.176
 8012TIP3   OH223978   6.229   4.132   5.864
 8012TIP3    H123979   6.313   4.139   5.819
 8012TIP3    H223980   6.167   4.178   5.807
 8013TIP3   OH223981   7.288   4.419   0.168
 8013TIP3    H123982   7.282   4.515   0.162
 8013TIP3    H223983   7.229   4.387   0.100
 8014TIP3   OH223984   7.781   3.282   5.137
 8014TIP3    H123985   7.775   3.375   5.161
 8014TIP3    H223986   7.703   3.242   5.175
 8015TIP3   OH223987   4.258   7.663   2.432
 8015TIP3    H123988   4.354   7.667   2.436
 8015TIP3    H223989   4.228   7.729   2.495
 8016TIP3   OH223990   3.289   0.985   0.243
 8016TIP3    H123991   3.232   0.966   0.169
 8016TIP3    H223992   3.293   0.902   0.292
 8017TIP3   OH223993   1.042   1.454   0.415
 8017TIP3    H123994   1.058   1.484   0.326
 8017TIP3    H223995   1.012   1.532   0.462
 8018TIP3   OH223996   7.293   2.517   5.379
 8018TIP3    H123997   7.332   2.492   5.463
 8018TIP3    H223998   7.351   2.585   5.345
 8019TIP3   OH223999   6.124   1.054   5.257
 8019TIP3    H124000   6.126   0.975   5.312
 8019TIP3    H224001   6.155   1.024   5.172
 8020TIP3   OH224002   6.649   4.263   4.158
 8020TIP3    H124003   6.739   4.233   4.150
 8020TIP3    H224004   6.597   4.194   4.116
 8021TIP3   OH224005   0.655   5.440   1.218
 8021TIP3    H124006   0.609   5.411   1.296
 8021TIP3    H224007   0.588   5.485   1.166
 8022TIP3   OH224008   7.958   2.586   0.480
 8022TIP3    H124009   7.968   2.491   0.479
 8022TIP3    H224010   8.047   2.620   0.486
 8023TIP3   OH224011   2.369   7.437   1.706
 8023TIP3    H124012   2.376   7.517   1.757
 8023TIP3    H224013   2.440   7.443   1.641
 8024TIP3   OH224014   2.599   5.958   0.493
 8024TIP3    H124015   2.640   5.930   0.575
 8024TIP3    H224016   2.565   5.877   0.454
 8025TIP3   OH224017   4.317   2.896   4.916
 8025TIP3    H124018   4.344   2.908   5.007
 8025TIP3    H224019   4.354   2.811   4.892
 8026TIP3   OH224020   2.553   3.667   4.480
 8026TIP3    H124021   2.573   3.758   4.505
 8026TIP3    H224022   2.500   3.676   4.401
 8027TIP3   OH224023   2.820   3.540   4.561
 8027TIP3    H124024   2.751   3.604   4.542
 8027TIP3    H224025   2.889   3.590   4.603
 8028TIP3   OH224026   1.827   0.987   6.071
 8028TIP3    H124027   1.788   1.006   6.156
 8028TIP3    H224028   1.839   1.073   6.030
 8029TIP3   OH224029   2.443   6.876   4.440
 8029TIP3    H124030   2.533   6.860   4.410
 8029TIP3    H224031   2.426   6.807   4.504
 8030TIP3   OH224032   5.190   6.871   2.328
 8030TIP3    H124033   5.285   6.865   2.316
 8030TIP3    H224034   5.168   6.960   2.302
 8031TIP3   OH224035   7.003   7.584   4.884
 8031TIP3    H124036   6.982   7.591   4.977
 8031TIP3    H224037   6.968   7.499   4.858
 8032TIP3   OH224038   1.922   5.593   5.795
 8032TIP3    H124039   1.978   5.670   5.805
 8032TIP3    H224040   1.927   5.548   5.879
 8033TIP3   OH224041   0.651   5.449   5.799
 8033TIP3    H124042   0.611   5.378   5.849
 8033TIP3    H224043   0.590   5.465   5.727
 8034TIP3   OH224044   7.014   3.849   6.668
 8034TIP3    H124045   6.953   3.787   6.708
 8034TIP3    H224046   7.044   3.904   6.740
 8035TIP3   OH224047   5.302   2.104   0.136
 8035TIP3    H124048   5.384   2.057   0.119
 8035TIP3    H224049   5.324   2.196   0.121
 8036TIP3   OH224050   6.580   6.938   5.316
 8036TIP3    H124051   6.659   6.902   5.358
 8036TIP3    H224052   6.555   6.871   5.252
 8037TIP3   OH224053   2.464   0.418   6.710
 8037TIP3    H124054   2.423   0.496   6.675
 8037TIP3    H224055   2.458   0.354   6.639
 8038TIP3   OH224056   5.931   0.682   6.049
 8038TIP3    H124057   5.848   0.635   6.046
 8038TIP3    H224058   5.966   0.675   5.961
 8039TIP3   OH224059   3.662   4.159   1.314
 8039TIP3    H124060   3.599   4.225   1.284
 8039TIP3    H224061   3.745   4.184   1.273
 8040TIP3   OH224062   5.466   4.755   2.987
 8040TIP3    H124063   5.449   4.701   2.910
 8040TIP3    H224064   5.456   4.695   3.061
 8041TIP3   OH224065   5.897   6.941   3.068
 8041TIP3    H124066   5.859   6.864   3.110
 8041TIP3    H224067   5.938   6.908   2.988
 8042TIP3   OH224068   6.830   4.325   2.261
 8042TIP3    H124069   6.880   4.406   2.276
 8042TIP3    H224070   6.846   4.272   2.339
 8043TIP3   OH224071   3.387   4.876   4.706
 8043TIP3    H124072   3.452   4.921   4.761
 8043TIP3    H224073   3.392   4.920   4.621
 8044TIP3   OH224074   2.818   0.085   1.538
 8044TIP3    H124075   2.793   0.003   1.497
 8044TIP3    H224076   2.755   0.097   1.609
 8045TIP3   OH224077   3.865   6.364   1.114
 8045TIP3    H124078   3.890   6.393   1.026
 8045TIP3    H224079   3.851   6.445   1.163
 8046TIP3   OH224080   6.811   6.389   0.407
 8046TIP3    H124081   6.871   6.316   0.393
 8046TIP3    H224082   6.857   6.445   0.470
 8047TIP3   OH224083   5.522   6.706   6.105
 8047TIP3    H124084   5.443   6.743   6.142
 8047TIP3    H224085   5.497   6.618   6.077
 8048TIP3   OH224086   7.906   3.660   2.681
 8048TIP3    H124087   7.813   3.683   2.682
 8048TIP3    H224088   7.949   3.736   2.720
 8049TIP3   OH224089   3.243   1.798   5.628
 8049TIP3    H124090   3.265   1.707   5.606
 8049TIP3    H224091   3.263   1.806   5.721
 8050TIP3   OH224092   3.943   6.843   0.673
 8050TIP3    H124093   3.938   6.806   0.761
 8050TIP3    H224094   3.852   6.845   0.643
 8051TIP3   OH224095   3.888   2.222   3.509
 8051TIP3    H124096   3.937   2.242   3.428
 8051TIP3    H224097   3.880   2.127   3.509
 8052TIP3   OH224098   1.030   3.856   6.563
 8052TIP3    H124099   0.998   3.867   6.653
 8052TIP3    H224100   0.957   3.813   6.518
 8053TIP3   OH224101   7.417   4.346   4.400
 8053TIP3    H124102   7.375   4.405   4.338
 8053TIP3    H224103   7.501   4.388   4.420
 8054TIP3   OH224104   1.108   1.772   1.586
 8054TIP3    H124105   1.189   1.722   1.594
 8054TIP3    H224106   1.093   1.778   1.491
 8055TIP3   OH224107   6.599   6.576   2.906
 8055TIP3    H124108   6.560   6.500   2.862
 8055TIP3    H224109   6.693   6.565   2.895
 8056TIP3   OH224110   6.068   0.661   3.112
 8056TIP3    H124111   6.123   0.659   3.190
 8056TIP3    H224112   6.129   0.646   3.040
 8057TIP3   OH224113   0.475   4.864   4.653
 8057TIP3    H124114   0.522   4.934   4.698
 8057TIP3    H224115   0.535   4.834   4.585
 8058TIP3   OH224116   4.461   0.178   0.516
 8058TIP3    H124117   4.537   0.173   0.458
 8058TIP3    H224118   4.490   0.137   0.597
 8059TIP3   OH224119   4.251   6.044   1.607
 8059TIP3    H124120   4.318   6.017   1.670
 8059TIP3    H224121   4.233   5.966   1.556
 8060TIP3   OH224122   7.055   4.321   1.435
 8060TIP3    H124123   7.086   4.399   1.389
 8060TIP3    H224124   7.133   4.287   1.480
 8061TIP3   OH224125   0.996   7.699   6.318
 8061TIP3    H124126   0.920   7.656   6.278
 8061TIP3    H224127   1.033   7.632   6.375
 8062TIP3   OH224128   0.295   3.239   0.012
 8062TIP3    H124129   0.354   3.218   0.084
 8062TIP3    H224130   0.290   3.335   0.012
 8063TIP3   OH224131   7.519   6.333   2.884
 8063TIP3    H124132   7.423   6.334   2.883
 8063TIP3    H224133   7.542   6.246   2.849
 8064TIP3   OH224134   2.493   5.201   0.355
 8064TIP3    H124135   2.521   5.248   0.277
 8064TIP3    H224136   2.430   5.259   0.397
 8065TIP3   OH224137   0.085   3.142   3.074
 8065TIP3    H124138   0.027   3.094   3.015
 8065TIP3    H224139   0.169   3.097   3.067
 8066TIP3   OH224140   4.424   5.181   2.521
 8066TIP3    H124141   4.430   5.129   2.441
 8066TIP3    H224142   4.355   5.137   2.572
 8067TIP3   OH224143   4.611   2.828   0.624
 8067TIP3    H124144   4.670   2.817   0.699
 8067TIP3    H224145   4.638   2.910   0.584
 8068TIP3   OH224146   4.896   5.920   6.531
 8068TIP3    H124147   4.804   5.941   6.545
 8068TIP3    H224148   4.899   5.824   6.530
 8069TIP3   OH224149   6.680   7.309   3.283
 8069TIP3    H124150   6.727   7.254   3.220
 8069TIP3    H224151   6.612   7.353   3.232
 8070TIP3   OH224152   3.552   2.059   6.021
 8070TIP3    H124153   3.627   2.100   5.977
 8070TIP3    H224154   3.573   2.063   6.114
 8071TIP3   OH224155   4.926   7.702   3.072
 8071TIP3    H124156   4.972   7.631   3.026
 8071TIP3    H224157   4.919   7.672   3.162
 8072TIP3   OH224158   6.284   4.292   2.315
 8072TIP3    H124159   6.266   4.381   2.285
 8072TIP3    H224160   6.216   4.238   2.274
 8073TIP3   OH224161   1.723   1.555   4.552
 8073TIP3    H124162   1.758   1.644   4.556
 8073TIP3    H224163   1.676   1.544   4.635
 8074TIP3   OH224164   2.737   7.713   3.510
 8074TIP3    H124165   2.688   7.790   3.537
 8074TIP3    H224166   2.684   7.673   3.441
 8075TIP3   OH224167   1.102   2.218   0.174
 8075TIP3    H124168   1.190   2.221   0.136
 8075TIP3    H224169   1.111   2.264   0.258
 8076TIP3   OH224170   3.279   4.232   2.088
 8076TIP3    H124171   3.201   4.247   2.034
 8076TIP3    H224172   3.338   4.181   2.032
 8077TIP3   OH224173   3.707   4.240   4.491
 8077TIP3    H124174   3.656   4.201   4.562
 8077TIP3    H224175   3.797   4.239   4.523
 8078TIP3   OH224176   1.684   6.365   0.744
 8078TIP3    H124177   1.737   6.299   0.790
 8078TIP3    H224178   1.723   6.449   0.770
 8079TIP3   OH224179   2.813   1.444   1.046
 8079TIP3    H124180   2.883   1.509   1.034
 8079TIP3    H224181   2.748   1.467   0.980
 8080TIP3   OH224182   3.649   5.140   1.164
 8080TIP3    H124183   3.701   5.218   1.145
 8080TIP3    H224184   3.606   5.119   1.081
 8081TIP3   OH224185   6.929   2.729   4.960
 8081TIP3    H124186   6.860   2.711   5.024
 8081TIP3    H224187   7.000   2.670   4.986
 8082TIP3   OH224188   8.230   5.549   3.444
 8082TIP3    H124189   8.271   5.599   3.515
 8082TIP3    H224190   8.303   5.522   3.389
 8083TIP3   OH224191   1.647   5.064   0.839
 8083TIP3    H124192   1.615   4.996   0.779
 8083TIP3    H224193   1.717   5.022   0.889
 8084TIP3   OH224194   7.345   2.806   5.338
 8084TIP3    H124195   7.352   2.901   5.346
 8084TIP3    H224196   7.317   2.791   5.247
 8085TIP3   OH224197   2.463   0.299   5.337
 8085TIP3    H124198   2.423   0.304   5.251
 8085TIP3    H224199   2.557   0.304   5.321
 8086TIP3   OH224200   2.835   0.990   4.745
 8086TIP3    H124201   2.877   1.056   4.691
 8086TIP3    H224202   2.870   1.004   4.833
 8087TIP3   OH224203   2.717   4.920   6.215
 8087TIP3    H124204   2.748   5.003   6.180
 8087TIP3    H224205   2.628   4.911   6.180
 8088TIP3   OH224206   0.483   7.001   1.754
 8088TIP3    H124207   0.540   7.063   1.799
 8088TIP3    H224208   0.394   7.029   1.775
 8089TIP3   OH224209   6.683   5.361   1.616
 8089TIP3    H124210   6.736   5.288   1.582
 8089TIP3    H224211   6.600   5.321   1.639
 8090TIP3   OH224212   2.814   5.565   0.468
 8090TIP3    H124213   2.769   5.481   0.476
 8090TIP3    H224214   2.880   5.563   0.537
 8091TIP3   OH224215   6.250   5.435   1.315
 8091TIP3    H124216   6.226   5.506   1.256
 8091TIP3    H224217   6.310   5.475   1.378
 8092TIP3   OH224218   2.195   4.336   2.519
 8092TIP3    H124219   2.171   4.425   2.547
 8092TIP3    H224220   2.255   4.350   2.446
 8093TIP3   OH224221   6.593   2.640   0.340
 8093TIP3    H124222   6.655   2.576   0.304
 8093TIP3    H224223   6.521   2.587   0.375
 8094TIP3   OH224224   3.754   0.865   0.388
 8094TIP3    H124225   3.716   0.944   0.348
 8094TIP3    H224226   3.733   0.795   0.327
 8095TIP3   OH224227   1.060   6.285   5.284
 8095TIP3    H124228   1.089   6.194   5.296
 8095TIP3    H224229   1.142   6.335   5.281
 8096TIP3   OH224230   1.645   5.772   1.359
 8096TIP3    H124231   1.729   5.813   1.378
 8096TIP3    H224232   1.652   5.744   1.268
 8097TIP3   OH224233   1.402   0.423   5.106
 8097TIP3    H124234   1.443   0.346   5.068
 8097TIP3    H224235   1.308   0.409   5.096
 8098TIP3   OH224236   6.466   2.927   0.420
 8098TIP3    H124237   6.475   3.011   0.375
 8098TIP3    H224238   6.555   2.893   0.426
 8099TIP3   OH224239   0.403   1.138   0.745
 8099TIP3    H124240   0.388   1.233   0.749
 8099TIP3    H224241   0.463   1.126   0.672
 8100TIP3   OH224242   7.903   2.851   3.147
 8100TIP3    H124243   7.880   2.836   3.238
 8100TIP3    H224244   7.845   2.793   3.097
 8101TIP3   OH224245   3.543   7.455   0.841
 8101TIP3    H124246   3.471   7.397   0.817
 8101TIP3    H224247   3.622   7.402   0.830
 8102TIP3   OH224248   1.312   2.454   4.467
 8102TIP3    H124249   1.347   2.366   4.478
 8102TIP3    H224250   1.228   2.453   4.512
 8103TIP3   OH224251   6.105   3.308  -0.020
 8103TIP3    H124252   6.017   3.331  -0.051
 8103TIP3    H224253   6.126   3.376   0.044
 8104TIP3   OH224254   6.458   5.543   5.539
 8104TIP3    H124255   6.402   5.572   5.466
 8104TIP3    H224256   6.543   5.583   5.520
 8105TIP3   OH224257   3.517   3.797   2.478
 8105TIP3    H124258   3.604   3.769   2.451
 8105TIP3    H224259   3.525   3.892   2.491
 8106TIP3   OH224260   6.172   6.663   3.843
 8106TIP3    H124261   6.143   6.686   3.931
 8106TIP3    H224262   6.260   6.701   3.837
 8107TIP3   OH224263   5.296   6.459   1.344
 8107TIP3    H124264   5.240   6.394   1.387
 8107TIP3    H224265   5.378   6.456   1.394
 8108TIP3   OH224266   2.385   2.933   2.291
 8108TIP3    H124267   2.415   2.903   2.205
 8108TIP3    H224268   2.399   3.027   2.290
 8109TIP3   OH224269   1.639   0.622   4.984
 8109TIP3    H124270   1.555   0.581   5.005
 8109TIP3    H224271   1.671   0.656   5.067
 8110TIP3   OH224272   4.533   1.153   1.338
 8110TIP3    H124273   4.510   1.132   1.248
 8110TIP3    H224274   4.520   1.248   1.344
 8111TIP3   OH224275   7.090   1.753   4.381
 8111TIP3    H124276   7.144   1.749   4.461
 8111TIP3    H224277   7.092   1.663   4.347
 8112TIP3   OH224278   7.038   0.635   5.197
 8112TIP3    H124279   7.033   0.542   5.221
 8112TIP3    H224280   6.950   0.669   5.215
 8113TIP3   OH224281   6.740   2.539   2.191
 8113TIP3    H124282   6.774   2.622   2.222
 8113TIP3    H224283   6.779   2.527   2.105
 8114TIP3   OH224284   6.314   4.582   2.381
 8114TIP3    H124285   6.364   4.595   2.462
 8114TIP3    H224286   6.281   4.669   2.359
 8115TIP3   OH224287   1.955   2.003   3.237
 8115TIP3    H124288   1.904   1.936   3.281
 8115TIP3    H224289   1.891   2.064   3.202
 8116TIP3   OH224290   5.271   7.168   5.021
 8116TIP3    H124291   5.367   7.176   5.020
 8116TIP3    H224292   5.242   7.223   4.948
 8117TIP3   OH224293   7.711   4.514   1.335
 8117TIP3    H124294   7.755   4.597   1.314
 8117TIP3    H224295   7.744   4.452   1.271
 8118TIP3   OH224296   4.077   7.318   4.009
 8118TIP3    H124297   4.038   7.405   3.998
 8118TIP3    H224298   4.172   7.334   4.010
 8119TIP3   OH224299   5.749   5.282   4.861
 8119TIP3    H124300   5.701   5.217   4.912
 8119TIP3    H224301   5.725   5.264   4.770
 8120TIP3   OH224302   1.754   2.128   6.228
 8120TIP3    H124303   1.795   2.042   6.227
 8120TIP3    H224304   1.768   2.163   6.141
 8121TIP3   OH224305   1.038   4.606   1.030
 8121TIP3    H124306   1.075   4.521   1.004
 8121TIP3    H224307   0.952   4.608   0.988
 8122TIP3   OH224308   0.592   1.882   2.066
 8122TIP3    H124309   0.535   1.948   2.026
 8122TIP3    H224310   0.665   1.932   2.101
 8123TIP3   OH224311   0.651   4.447   3.345
 8123TIP3    H124312   0.585   4.515   3.336
 8123TIP3    H224313   0.679   4.453   3.437
 8124TIP3   OH224314   4.096   5.975   6.318
 8124TIP3    H124315   4.012   5.988   6.362
 8124TIP3    H224316   4.098   5.882   6.296
 8125TIP3   OH224317   3.467   5.924   5.174
 8125TIP3    H124318   3.407   5.975   5.120
 8125TIP3    H224319   3.449   5.833   5.149
 8126TIP3   OH224320   3.018   1.060   3.173
 8126TIP3    H124321   3.075   0.987   3.149
 8126TIP3    H224322   2.959   1.025   3.239
 8127TIP3   OH224323   2.314   0.370   1.399
 8127TIP3    H124324   2.399   0.327   1.387
 8127TIP3    H224325   2.255   0.300   1.426
 8128TIP3   OH224326   1.154   0.472   4.485
 8128TIP3    H124327   1.157   0.380   4.458
 8128TIP3    H224328   1.079   0.478   4.543
 8129TIP3   OH224329   7.445   5.921   3.803
 8129TIP3    H124330   7.358   5.960   3.798
 8129TIP3    H224331   7.447   5.855   3.734
 8130TIP3   OH224332   4.893   6.439   5.467
 8130TIP3    H124333   4.845   6.356   5.461
 8130TIP3    H224334   4.896   6.472   5.377
 8131TIP3   OH224335   7.378   2.448   1.132
 8131TIP3    H124336   7.321   2.415   1.062
 8131TIP3    H224337   7.328   2.521   1.170
 8132TIP3   OH224338   2.307   3.104   2.052
 8132TIP3    H124339   2.305   3.124   1.959
 8132TIP3    H224340   2.376   3.159   2.088
 8133TIP3   OH224341   2.065   5.390   2.592
 8133TIP3    H124342   2.094   5.413   2.504
 8133TIP3    H224343   2.145   5.365   2.638
 8134TIP3   OH224344   5.057   4.381   0.430
 8134TIP3    H124345   5.008   4.382   0.513
 8134TIP3    H224346   5.020   4.307   0.382
 8135TIP3   OH224347   6.895   2.645   0.403
 8135TIP3    H124348   6.930   2.615   0.319
 8135TIP3    H224349   6.840   2.572   0.433
 8136TIP3   OH224350   5.907   1.236   5.189
 8136TIP3    H124351   5.967   1.175   5.232
 8136TIP3    H224352   5.930   1.230   5.096
 8137TIP3   OH224353   5.303   3.521   2.564
 8137TIP3    H124354   5.350   3.504   2.646
 8137TIP3    H224355   5.232   3.456   2.563
 8138TIP3   OH224356   2.424   3.433   4.544
 8138TIP3    H124357   2.464   3.372   4.482
 8138TIP3    H224358   2.485   3.507   4.548
 8139TIP3   OH224359   7.521   1.416   4.583
 8139TIP3    H124360   7.490   1.329   4.607
 8139TIP3    H224361   7.591   1.400   4.519
 8140TIP3   OH224362   0.780   6.113   3.873
 8140TIP3    H124363   0.755   6.173   3.803
 8140TIP3    H224364   0.824   6.169   3.937
 8141TIP3   OH224365   0.896   2.671   1.048
 8141TIP3    H124366   0.885   2.762   1.075
 8141TIP3    H224367   0.988   2.652   1.066
 8142TIP3   OH224368   3.817   2.422   4.149
 8142TIP3    H124369   3.767   2.454   4.224
 8142TIP3    H224370   3.909   2.433   4.175
 8143TIP3   OH224371   2.937   2.271   3.590
 8143TIP3    H124372   2.881   2.305   3.520
 8143TIP3    H224373   2.950   2.346   3.648
 8144TIP3   OH224374   5.830   5.943   5.027
 8144TIP3    H124375   5.896   6.004   5.058
 8144TIP3    H224376   5.870   5.901   4.951
 8145TIP3   OH224377   6.274   3.682   1.970
 8145TIP3    H124378   6.257   3.591   1.991
 8145TIP3    H224379   6.365   3.697   1.996
 8146TIP3   OH224380   2.887   7.651   6.112
 8146TIP3    H124381   2.880   7.697   6.196
 8146TIP3    H224382   2.819   7.583   6.117
 8147TIP3   OH224383   5.113   6.858   2.870
 8147TIP3    H124384   5.069   6.878   2.952
 8147TIP3    H224385   5.161   6.777   2.887
 8148TIP3   OH224386   8.122   5.702   2.576
 8148TIP3    H124387   8.106   5.621   2.624
 8148TIP3    H224388   8.216   5.702   2.559
 8149TIP3   OH224389   1.813   3.856   1.542
 8149TIP3    H124390   1.878   3.793   1.512
 8149TIP3    H224391   1.795   3.830   1.633
 8150TIP3   OH224392   2.576   3.371   6.072
 8150TIP3    H124393   2.629   3.450   6.069
 8150TIP3    H224394   2.602   3.322   5.993
 8151TIP3   OH224395   4.893   1.630   1.353
 8151TIP3    H124396   4.841   1.707   1.371
 8151TIP3    H224397   4.908   1.590   1.439
 8152TIP3   OH224398   2.638   7.598   5.823
 8152TIP3    H124399   2.639   7.576   5.917
 8152TIP3    H224400   2.603   7.520   5.781
 8153TIP3   OH224401   7.750   5.513   4.916
 8153TIP3    H124402   7.663   5.502   4.877
 8153TIP3    H224403   7.808   5.534   4.843
 8154TIP3   OH224404   6.112   7.582   6.678
 8154TIP3    H124405   6.042   7.571   6.743
 8154TIP3    H224406   6.192   7.590   6.730
 8155TIP3   OH224407   4.770   1.746   5.002
 8155TIP3    H124408   4.710   1.821   5.003
 8155TIP3    H224409   4.834   1.767   4.935
 8156TIP3   OH224410   3.213   6.718   2.108
 8156TIP3    H124411   3.166   6.774   2.170
 8156TIP3    H224412   3.305   6.726   2.134
 8157TIP3   OH224413   1.596   0.258   0.148
 8157TIP3    H124414   1.652   0.183   0.125
 8157TIP3    H224415   1.650   0.335   0.132
 8158TIP3   OH224416   2.761   2.959   0.149
 8158TIP3    H124417   2.841   3.009   0.130
 8158TIP3    H224418   2.737   2.920   0.065
 8159TIP3   OH224419   1.212   5.314   4.098
 8159TIP3    H124420   1.211   5.241   4.037
 8159TIP3    H224421   1.233   5.275   4.183
 8160TIP3   OH224422   3.467   5.782   2.344
 8160TIP3    H124423   3.435   5.863   2.305
 8160TIP3    H224424   3.522   5.742   2.276
 8161TIP3   OH224425   5.055   2.193   5.708
 8161TIP3    H124426   5.055   2.192   5.804
 8161TIP3    H224427   5.146   2.209   5.683
 8162TIP3   OH224428   5.172   1.520   1.659
 8162TIP3    H124429   5.135   1.600   1.696
 8162TIP3    H224430   5.100   1.482   1.609
 8163TIP3   OH224431   4.053   7.190   3.584
 8163TIP3    H124432   4.081   7.162   3.672
 8163TIP3    H224433   4.133   7.221   3.542
 8164TIP3   OH224434   5.612   2.732   6.134
 8164TIP3    H124435   5.607   2.826   6.113
 8164TIP3    H224436   5.555   2.721   6.210
 8165TIP3   OH224437   7.073   7.040   3.573
 8165TIP3    H124438   7.032   7.102   3.513
 8165TIP3    H224439   7.012   7.034   3.647
 8166TIP3   OH224440   5.119   3.650   5.115
 8166TIP3    H124441   5.045   3.710   5.107
 8166TIP3    H224442   5.189   3.692   5.065
 8167TIP3   OH224443   7.086   0.407   6.192
 8167TIP3    H124444   7.051   0.476   6.135
 8167TIP3    H224445   7.178   0.431   6.205
 8168TIP3   OH224446   5.992   0.459   2.463
 8168TIP3    H124447   6.009   0.429   2.374
 8168TIP3    H224448   5.900   0.484   2.463
 8169TIP3   OH224449   0.904   3.845   5.746
 8169TIP3    H124450   0.845   3.781   5.786
 8169TIP3    H224451   0.929   3.806   5.662
 8170TIP3   OH224452   7.193   6.486   3.268
 8170TIP3    H124453   7.127   6.463   3.333
 8170TIP3    H224454   7.223   6.402   3.232
 8171TIP3   OH224455   0.162   2.809   0.743
 8171TIP3    H124456   0.180   2.721   0.711
 8171TIP3    H224457   0.207   2.815   0.827
 8172TIP3   OH224458   6.981   3.840   5.980
 8172TIP3    H124459   7.063   3.823   5.934
 8172TIP3    H224460   6.934   3.900   5.921
 8173TIP3   OH224461   2.846   7.123   3.341
 8173TIP3    H124462   2.844   7.031   3.314
 8173TIP3    H224463   2.871   7.120   3.433
 8174TIP3   OH224464   6.482   6.332   4.894
 8174TIP3    H124465   6.564   6.307   4.938
 8174TIP3    H224466   6.508   6.352   4.804
 8175TIP3   OH224467   7.577   3.867   5.266
 8175TIP3    H124468   7.487   3.837   5.280
 8175TIP3    H224469   7.593   3.930   5.336
 8176TIP3   OH224470   7.071   4.253   5.734
 8176TIP3    H124471   7.031   4.205   5.807
 8176TIP3    H224472   6.999   4.301   5.695
 8177TIP3   OH224473   0.800   7.043   4.805
 8177TIP3    H124474   0.878   7.096   4.824
 8177TIP3    H224475   0.727   7.103   4.819
 8178TIP3   OH224476   0.145   0.362   2.800
 8178TIP3    H124477   0.084   0.304   2.846
 8178TIP3    H224478   0.228   0.351   2.847
 8179TIP3   OH224479   6.006   4.570   4.693
 8179TIP3    H124480   6.014   4.639   4.759
 8179TIP3    H224481   5.953   4.609   4.624
 8180TIP3   OH224482   0.276   5.852   0.404
 8180TIP3    H124483   0.284   5.823   0.495
 8180TIP3    H224484   0.212   5.792   0.366
 8181TIP3   OH224485   4.292   3.989   1.423
 8181TIP3    H124486   4.285   4.063   1.484
 8181TIP3    H224487   4.352   3.928   1.465
 8182TIP3   OH224488   4.315   3.992   5.928
 8182TIP3    H124489   4.255   4.045   5.981
 8182TIP3    H224490   4.302   4.023   5.839
 8183TIP3   OH224491   3.136   1.112   0.591
 8183TIP3    H124492   3.177   1.187   0.634
 8183TIP3    H224493   3.208   1.067   0.548
 8184TIP3   OH224494   3.311   5.208   5.985
 8184TIP3    H124495   3.326   5.295   6.023
 8184TIP3    H224496   3.398   5.179   5.957
 8185TIP3   OH224497   4.639   2.175   6.649
 8185TIP3    H124498   4.637   2.260   6.604
 8185TIP3    H224499   4.629   2.111   6.578
 8186TIP3   OH224500   1.889   5.184   2.399
 8186TIP3    H124501   1.933   5.102   2.419
 8186TIP3    H224502   1.960   5.245   2.377
 8187TIP3   OH224503   1.223   7.424   5.518
 8187TIP3    H124504   1.216   7.506   5.568
 8187TIP3    H224505   1.133   7.395   5.505
 8188TIP3   OH224506   2.912   6.729   4.095
 8188TIP3    H124507   2.966   6.800   4.131
 8188TIP3    H224508   2.823   6.766   4.092
 8189TIP3   OH224509   0.410   4.650   1.460
 8189TIP3    H124510   0.329   4.692   1.431
 8189TIP3    H224511   0.381   4.575   1.513
 8190TIP3   OH224512   7.832   4.456   6.732
 8190TIP3    H124513   7.766   4.411   6.680
 8190TIP3    H224514   7.896   4.488   6.667
 8191TIP3   OH224515   1.982   7.311   5.837
 8191TIP3    H124516   1.934   7.240   5.878
 8191TIP3    H224517   1.956   7.389   5.886
 8192TIP3   OH224518   5.384   0.275   3.889
 8192TIP3    H124519   5.432   0.209   3.938
 8192TIP3    H224520   5.370   0.347   3.951
 8193TIP3   OH224521   0.072   2.417   3.332
 8193TIP3    H124522  -0.008   2.468   3.322
 8193TIP3    H224523   0.107   2.444   3.417
 8194TIP3   OH224524   7.990   4.677   4.177
 8194TIP3    H124525   7.927   4.606   4.167
 8194TIP3    H224526   7.938   4.757   4.167
 8195TIP3   OH224527   3.020   2.727   0.639
 8195TIP3    H124528   3.083   2.768   0.698
 8195TIP3    H224529   3.072   2.665   0.588
 8196TIP3   OH224530   0.656   1.620   4.387
 8196TIP3    H124531   0.661   1.524   4.384
 8196TIP3    H224532   0.701   1.643   4.468
 8197TIP3   OH224533   4.490   1.342   4.926
 8197TIP3    H124534   4.535   1.275   4.875
 8197TIP3    H224535   4.516   1.425   4.885
 8198TIP3   OH224536   0.442   6.334   3.301
 8198TIP3    H124537   0.359   6.286   3.302
 8198TIP3    H224538   0.424   6.414   3.352
 8199TIP3   OH224539   3.664   3.566   3.360
 8199TIP3    H124540   3.716   3.605   3.289
 8199TIP3    H224541   3.585   3.534   3.317
 8200TIP3   OH224542   5.993   0.135   2.799
 8200TIP3    H124543   6.061   0.109   2.861
 8200TIP3    H224544   6.034   0.127   2.713
 8201TIP3   OH224545   2.742   5.147   0.183
 8201TIP3    H124546   2.837   5.158   0.184
 8201TIP3    H224547   2.715   5.170   0.272
 8202TIP3   OH224548   6.696   0.779   4.369
 8202TIP3    H124549   6.714   0.698   4.320
 8202TIP3    H224550   6.608   0.767   4.403
 8203TIP3   OH224551   7.971   3.751   4.086
 8203TIP3    H124552   7.910   3.809   4.041
 8203TIP3    H224553   8.015   3.806   4.151
 8204TIP3   OH224554   4.878   5.930   3.997
 8204TIP3    H124555   4.903   6.022   3.991
 8204TIP3    H224556   4.900   5.893   3.911
 8205TIP3   OH224557   1.604   3.290   3.411
 8205TIP3    H124558   1.615   3.278   3.317
 8205TIP3    H224559   1.595   3.384   3.423
 8206TIP3   OH224560   3.784   6.179   2.936
 8206TIP3    H124561   3.749   6.090   2.941
 8206TIP3    H224562   3.815   6.197   3.025
 8207TIP3   OH224563   8.294   2.121   4.500
 8207TIP3    H124564   8.333   2.062   4.565
 8207TIP3    H224565   8.249   2.063   4.439
 8208TIP3   OH224566   1.970   5.436   1.378
 8208TIP3    H124567   1.937   5.406   1.462
 8208TIP3    H224568   2.025   5.364   1.347
 8209TIP3   OH224569   2.110   6.544   6.553
 8209TIP3    H124570   2.103   6.639   6.547
 8209TIP3    H224571   2.156   6.518   6.473
 8210TIP3   OH224572   2.643   1.654   0.596
 8210TIP3    H124573   2.694   1.734   0.610
 8210TIP3    H224574   2.677   1.592   0.661
 8211TIP3   OH224575   3.390   7.584   5.113
 8211TIP3    H124576   3.477   7.612   5.086
 8211TIP3    H224577   3.385   7.493   5.084
 8212TIP3   OH224578   3.345   1.206   5.975
 8212TIP3    H124579   3.366   1.285   6.025
 8212TIP3    H224580   3.427   1.155   5.975
 8213TIP3   OH224581   5.527   5.644   5.183
 8213TIP3    H124582   5.605   5.594   5.159
 8213TIP3    H224583   5.553   5.736   5.171
 8214TIP3   OH224584   6.260   2.807   3.860
 8214TIP3    H124585   6.296   2.754   3.931
 8214TIP3    H224586   6.282   2.898   3.884
 8215TIP3   OH224587   1.882   5.923   1.817
 8215TIP3    H124588   1.796   5.945   1.854
 8215TIP3    H224589   1.945   5.962   1.878
 8216TIP3   OH224590   2.473   1.342   1.653
 8216TIP3    H124591   2.436   1.332   1.565
 8216TIP3    H224592   2.397   1.341   1.711
 8217TIP3   OH224593   1.936   7.770   1.700
 8217TIP3    H124594   2.022   7.733   1.719
 8217TIP3    H224595   1.953   7.861   1.678
 8218TIP3   OH224596   2.633   4.431   5.512
 8218TIP3    H124597   2.586   4.349   5.529
 8218TIP3    H224598   2.606   4.490   5.582
 8219TIP3   OH224599   5.531   1.400   1.482
 8219TIP3    H124600   5.464   1.462   1.452
 8219TIP3    H224601   5.612   1.452   1.484
 8220TIP3   OH224602   3.318   5.400   1.976
 8220TIP3    H124603   3.378   5.474   1.976
 8220TIP3    H224604   3.250   5.425   2.039
 8221TIP3   OH224605   6.251   0.581   2.460
 8221TIP3    H124606   6.164   0.541   2.453
 8221TIP3    H224607   6.307   0.509   2.489
 8222TIP3   OH224608   1.108   0.423   2.000
 8222TIP3    H124609   1.029   0.472   1.976
 8222TIP3    H224610   1.159   0.419   1.919
 8223TIP3   OH224611   3.637   2.514   0.048
 8223TIP3    H124612   3.722   2.477   0.023
 8223TIP3    H224613   3.574   2.466  -0.006
 8224TIP3   OH224614   6.277   7.451   0.581
 8224TIP3    H124615   6.238   7.396   0.649
 8224TIP3    H224616   6.267   7.540   0.614
 8225TIP3   OH224617   2.710   2.944   4.779
 8225TIP3    H124618   2.729   2.932   4.872
 8225TIP3    H224619   2.791   2.916   4.734
 8226TIP3   OH224620   2.492   2.611   1.154
 8226TIP3    H124621   2.538   2.673   1.210
 8226TIP3    H224622   2.553   2.595   1.081
 8227TIP3   OH224623   7.353   5.574   2.565
 8227TIP3    H124624   7.390   5.497   2.522
 8227TIP3    H224625   7.405   5.647   2.531
 8228TIP3   OH224626   2.241   4.286   0.143
 8228TIP3    H124627   2.320   4.250   0.104
 8228TIP3    H224628   2.173   4.221   0.125
 8229TIP3   OH224629   3.201   2.567   5.614
 8229TIP3    H124630   3.163   2.479   5.622
 8229TIP3    H224631   3.259   2.575   5.690
 8230TIP3   OH224632   5.387   7.500   6.568
 8230TIP3    H124633   5.424   7.485   6.655
 8230TIP3    H224634   5.441   7.568   6.529
 8231TIP3   OH224635   2.770   0.196   2.008
 8231TIP3    H124636   2.815   0.200   1.923
 8231TIP3    H224637   2.682   0.230   1.990
 8232TIP3   OH224638   1.230   6.901   4.001
 8232TIP3    H124639   1.166   6.896   4.072
 8232TIP3    H224640   1.181   6.938   3.927
 8233TIP3   OH224641   5.785   0.405   0.208
 8233TIP3    H124642   5.698   0.391   0.245
 8233TIP3    H224643   5.831   0.457   0.273
 8234TIP3   OH224644   4.985   4.072   1.797
 8234TIP3    H124645   5.022   3.990   1.765
 8234TIP3    H224646   4.994   4.133   1.724
 8235TIP3   OH224647   6.089   0.358   6.560
 8235TIP3    H124648   6.146   0.432   6.538
 8235TIP3    H224649   6.127   0.283   6.513
 8236TIP3   OH224650   5.098   1.422   4.338
 8236TIP3    H124651   5.053   1.496   4.378
 8236TIP3    H224652   5.029   1.377   4.288
 8237TIP3   OH224653   5.905   5.534   2.040
 8237TIP3    H124654   5.976   5.480   2.073
 8237TIP3    H224655   5.879   5.492   1.958
 8238TIP3   OH224656   6.497   3.282   1.613
 8238TIP3    H124657   6.439   3.227   1.665
 8238TIP3    H224658   6.534   3.345   1.675
 8239TIP3   OH224659   3.737   6.350   4.691
 8239TIP3    H124660   3.766   6.264   4.719
 8239TIP3    H224661   3.654   6.334   4.646
 8240TIP3   OH224662   5.439   1.404   6.418
 8240TIP3    H124663   5.428   1.378   6.327
 8240TIP3    H224664   5.479   1.328   6.460
 8241TIP3   OH224665   1.820   1.710   0.847
 8241TIP3    H124666   1.855   1.708   0.937
 8241TIP3    H224667   1.742   1.654   0.851
 8242TIP3   OH224668   2.975   1.587   2.726
 8242TIP3    H124669   2.915   1.622   2.661
 8242TIP3    H224670   2.920   1.534   2.783
 8243TIP3   OH224671   4.911   6.590   2.700
 8243TIP3    H124672   4.948   6.578   2.787
 8243TIP3    H224673   4.986   6.608   2.644
 8244TIP3   OH224674   2.707   7.085   3.610
 8244TIP3    H124675   2.664   7.050   3.531
 8244TIP3    H224676   2.679   7.026   3.680
 8245TIP3   OH224677   1.198   7.620   1.430
 8245TIP3    H124678   1.145   7.592   1.504
 8245TIP3    H224679   1.273   7.665   1.469
 8246TIP3   OH224680   3.557   5.018   4.903
 8246TIP3    H124681   3.496   5.063   4.962
 8246TIP3    H224682   3.621   4.977   4.962
 8247TIP3   OH224683   0.829   3.268   1.169
 8247TIP3    H124684   0.776   3.340   1.134
 8247TIP3    H224685   0.889   3.246   1.098
 8248TIP3   OH224686   6.598   3.606   1.025
 8248TIP3    H124687   6.507   3.579   1.037
 8248TIP3    H224688   6.594   3.681   0.966
 8249TIP3   OH224689   0.315   2.593   5.880
 8249TIP3    H124690   0.322   2.562   5.970
 8249TIP3    H224691   0.228   2.566   5.851
 8250TIP3   OH224692   0.686   3.297   4.654
 8250TIP3    H124693   0.740   3.222   4.626
 8250TIP3    H224694   0.686   3.292   4.749
 8251TIP3   OH224695   3.417   3.527   4.644
 8251TIP3    H124696   3.338   3.541   4.697
 8251TIP3    H224697   3.395   3.564   4.559
 8252TIP3   OH224698   2.594   3.456   0.291
 8252TIP3    H124699   2.658   3.470   0.361
 8252TIP3    H224700   2.512   3.438   0.336
 8253TIP3   OH224701   1.143   5.917   5.006
 8253TIP3    H124702   1.068   5.902   5.065
 8253TIP3    H224703   1.106   5.967   4.933
 8254TIP3   OH224704   7.736   7.804   1.683
 8254TIP3    H124705   7.757   7.716   1.652
 8254TIP3    H224706   7.687   7.789   1.764
 8255TIP3   OH224707   1.738   2.447   0.170
 8255TIP3    H124708   1.642   2.448   0.163
 8255TIP3    H224709   1.763   2.540   0.170
 8256TIP3   OH224710   2.986   0.467   1.936
 8256TIP3    H124711   3.075   0.443   1.963
 8256TIP3    H224712   2.942   0.384   1.921
 8257TIP3   OH224713   4.215   3.375   0.121
 8257TIP3    H124714   4.135   3.397   0.169
 8257TIP3    H224715   4.281   3.435   0.155
 8258TIP3   OH224716   0.344   3.950   5.982
 8258TIP3    H124717   0.372   3.866   6.020
 8258TIP3    H224718   0.279   3.926   5.916
 8259TIP3   OH224719   6.212   7.097   2.753
 8259TIP3    H124720   6.303   7.068   2.743
 8259TIP3    H224721   6.160   7.017   2.745
 8260TIP3   OH224722   1.483   4.021   1.719
 8260TIP3    H124723   1.557   3.964   1.738
 8260TIP3    H224724   1.412   3.987   1.774
 8261TIP3   OH224725   2.834   7.076   1.892
 8261TIP3    H124726   2.862   7.008   1.955
 8261TIP3    H224727   2.754   7.112   1.930
 8262TIP3   OH224728   6.294   6.637   1.776
 8262TIP3    H124729   6.337   6.640   1.690
 8262TIP3    H224730   6.214   6.587   1.761
 8263TIP3   OH224731   3.274   7.366   5.335
 8263TIP3    H124732   3.306   7.430   5.271
 8263TIP3    H224733   3.256   7.287   5.283
 8264TIP3   OH224734   6.526   2.971   3.911
 8264TIP3    H124735   6.435   2.998   3.904
 8264TIP3    H224736   6.574   3.053   3.925
 8265TIP3   OH224737   4.031   2.080   4.998
 8265TIP3    H124738   3.963   2.147   4.992
 8265TIP3    H224739   4.093   2.103   4.929
 8266TIP3   OH224740   7.892   0.365   1.450
 8266TIP3    H124741   7.934   0.293   1.402
 8266TIP3    H224742   7.804   0.332   1.470
 8267TIP3   OH224743   6.548   1.676   1.150
 8267TIP3    H124744   6.541   1.734   1.226
 8267TIP3    H224745   6.563   1.735   1.076
 8268TIP3   OH224746   4.971   6.217   1.684
 8268TIP3    H124747   4.978   6.170   1.768
 8268TIP3    H224748   4.886   6.192   1.649
 8269TIP3   OH224749   0.295   7.684   0.089
 8269TIP3    H124750   0.257   7.704   0.004
 8269TIP3    H224751   0.260   7.598   0.111
 8270TIP3   OH224752   5.549   6.750   2.902
 8270TIP3    H124753   5.537   6.789   2.988
 8270TIP3    H224754   5.475   6.691   2.891
 8271TIP3   OH224755   0.989   6.951   5.829
 8271TIP3    H124756   0.946   6.866   5.840
 8271TIP3    H224757   1.081   6.934   5.849
 8272TIP3   OH224758   1.471   6.409   2.634
 8272TIP3    H124759   1.412   6.473   2.674
 8272TIP3    H224760   1.413   6.340   2.601
 8273TIP3   OH224761   1.128   0.508   3.233
 8273TIP3    H124762   1.100   0.539   3.319
 8273TIP3    H224763   1.164   0.586   3.191
 8274TIP3   OH224764   6.447   5.802   6.681
 8274TIP3    H124765   6.371   5.769   6.729
 8274TIP3    H224766   6.447   5.753   6.599
 8275TIP3   OH224767   3.315   1.552   5.765
 8275TIP3    H124768   3.390   1.500   5.793
 8275TIP3    H224769   3.239   1.506   5.801
 8276TIP3   OH224770   0.198   3.726   6.377
 8276TIP3    H124771   0.110   3.727   6.416
 8276TIP3    H224772   0.252   3.682   6.442
 8277TIP3   OH224773   7.846   7.782   4.104
 8277TIP3    H124774   7.826   7.775   4.197
 8277TIP3    H224775   7.780   7.729   4.060
 8278TIP3   OH224776   1.938   4.871   3.063
 8278TIP3    H124777   1.912   4.840   3.150
 8278TIP3    H224778   1.905   4.961   3.059
 8279TIP3   OH224779   2.706   3.556   0.046
 8279TIP3    H124780   2.762   3.592   0.114
 8279TIP3    H224781   2.653   3.490   0.090
 8280TIP3   OH224782   4.154   5.962   1.879
 8280TIP3    H124783   4.229   5.903   1.876
 8280TIP3    H224784   4.151   6.003   1.793
 8281TIP3   OH224785   7.338   1.346   1.369
 8281TIP3    H124786   7.312   1.273   1.312
 8281TIP3    H224787   7.384   1.305   1.442
 8282TIP3   OH224788   4.639   1.217   0.344
 8282TIP3    H124789   4.664   1.293   0.291
 8282TIP3    H224790   4.714   1.158   0.339
 8283TIP3   OH224791   5.676   4.789   5.292
 8283TIP3    H124792   5.682   4.709   5.344
 8283TIP3    H224793   5.674   4.758   5.201
 8284TIP3   OH224794   6.286   1.917   1.261
 8284TIP3    H124795   6.249   1.915   1.349
 8284TIP3    H224796   6.262   2.002   1.226
 8285TIP3   OH224797   1.249   7.632   0.593
 8285TIP3    H124798   1.278   7.549   0.630
 8285TIP3    H224799   1.154   7.632   0.605
 8286TIP3   OH224800   2.448   1.112   0.605
 8286TIP3    H124801   2.381   1.087   0.541
 8286TIP3    H224802   2.516   1.044   0.596
 8287TIP3   OH224803   2.036   3.111   5.487
 8287TIP3    H124804   2.001   3.028   5.521
 8287TIP3    H224805   2.109   3.132   5.545
 8288TIP3   OH224806   7.872   5.571   1.205
 8288TIP3    H124807   7.820   5.551   1.283
 8288TIP3    H224808   7.892   5.665   1.213
 8289TIP3   OH224809   2.013   4.737   2.840
 8289TIP3    H124810   2.003   4.818   2.790
 8289TIP3    H224811   2.015   4.765   2.931
 8290TIP3   OH224812   5.553   2.389   2.453
 8290TIP3    H124813   5.527   2.472   2.492
 8290TIP3    H224814   5.584   2.412   2.366
 8291TIP3   OH224815   0.266   7.405   5.931
 8291TIP3    H124816   0.314   7.429   6.010
 8291TIP3    H224817   0.259   7.310   5.936
 8292TIP3   OH224818   4.746   1.792   1.771
 8292TIP3    H124819   4.793   1.766   1.692
 8292TIP3    H224820   4.742   1.888   1.765
 8293TIP3   OH224821   5.605   4.157   1.872
 8293TIP3    H124822   5.599   4.250   1.891
 8293TIP3    H224823   5.517   4.133   1.842
 8294TIP3   OH224824   1.990   2.715   2.382
 8294TIP3    H124825   2.071   2.746   2.422
 8294TIP3    H224826   2.007   2.622   2.365
 8295TIP3   OH224827   7.738   2.028   3.416
 8295TIP3    H124828   7.825   2.032   3.377
 8295TIP3    H224829   7.712   1.937   3.407
 8296TIP3   OH224830   3.340   2.119   6.278
 8296TIP3    H124831   3.350   2.079   6.192
 8296TIP3    H224832   3.428   2.143   6.305
 8297TIP3   OH224833   3.155   1.961   4.386
 8297TIP3    H124834   3.200   1.993   4.308
 8297TIP3    H224835   3.214   1.982   4.458
 8298TIP3   OH224836   4.623   6.228   2.247
 8298TIP3    H124837   4.657   6.316   2.266
 8298TIP3    H224838   4.694   6.169   2.270
 8299TIP3   OH224839   5.856   4.237   6.742
 8299TIP3    H124840   5.775   4.284   6.721
 8299TIP3    H224841   5.838   4.197   6.827
 8300TIP3   OH224842   4.050   0.289   3.242
 8300TIP3    H124843   4.112   0.246   3.183
 8300TIP3    H224844   4.102   0.354   3.289
 8301TIP3   OH224845   4.605   3.656   5.783
 8301TIP3    H124846   4.701   3.653   5.780
 8301TIP3    H224847   4.581   3.716   5.712
 8302TIP3   OH224848   7.718   7.222   0.372
 8302TIP3    H124849   7.671   7.297   0.407
 8302TIP3    H224850   7.780   7.197   0.442
 8303TIP3   OH224851   0.835   4.249   0.539
 8303TIP3    H124852   0.868   4.318   0.482
 8303TIP3    H224853   0.749   4.227   0.503
 8304TIP3   OH224854   4.814   5.294   0.578
 8304TIP3    H124855   4.733   5.302   0.629
 8304TIP3    H224856   4.839   5.384   0.558
 8305TIP3   OH224857   3.493   7.419   2.819
 8305TIP3    H124858   3.524   7.497   2.773
 8305TIP3    H224859   3.404   7.441   2.846
 8306TIP3   OH224860   7.754   7.075   4.890
 8306TIP3    H124861   7.800   7.088   4.973
 8306TIP3    H224862   7.805   7.007   4.846
 8307TIP3   OH224863   7.928   4.449   3.211
 8307TIP3    H124864   7.990   4.498   3.157
 8307TIP3    H224865   7.891   4.384   3.151
 8308TIP3   OH224866   1.703   6.679   6.721
 8308TIP3    H124867   1.661   6.758   6.754
 8308TIP3    H224868   1.734   6.703   6.633
 8309TIP3   OH224869   6.116   3.383   1.801
 8309TIP3    H124870   6.024   3.407   1.807
 8309TIP3    H224871   6.150   3.391   1.890
 8310TIP3   OH224872   2.922   3.776   1.811
 8310TIP3    H124873   2.968   3.854   1.841
 8310TIP3    H224874   2.890   3.799   1.723
 8311TIP3   OH224875   4.493   7.085   0.468
 8311TIP3    H124876   4.458   7.087   0.557
 8311TIP3    H224877   4.586   7.105   0.478
 8312TIP3   OH224878   4.757   0.894   2.875
 8312TIP3    H124879   4.781   0.983   2.849
 8312TIP3    H224880   4.696   0.906   2.948
 8313TIP3   OH224881   2.304   7.599   4.368
 8313TIP3    H124882   2.228   7.648   4.399
 8313TIP3    H224883   2.341   7.560   4.447
 8314TIP3   OH224884   2.394   7.748   3.054
 8314TIP3    H124885   2.398   7.660   3.092
 8314TIP3    H224886   2.303   7.775   3.067
 8315TIP3   OH224887   2.529   1.749   3.967
 8315TIP3    H124888   2.506   1.665   4.007
 8315TIP3    H224889   2.618   1.736   3.934
 8316TIP3   OH224890   6.277   7.417   0.147
 8316TIP3    H124891   6.215   7.488   0.165
 8316TIP3    H224892   6.226   7.352   0.098
 8317TIP3   OH224893   1.441   1.867   2.469
 8317TIP3    H124894   1.425   1.892   2.560
 8317TIP3    H224895   1.354   1.855   2.431
 8318TIP3   OH224896   4.002   3.164   0.723
 8318TIP3    H124897   4.007   3.212   0.640
 8318TIP3    H224898   4.089   3.127   0.735
 8319TIP3   OH224899   2.675   1.514   5.653
 8319TIP3    H124900   2.646   1.455   5.584
 8319TIP3    H224901   2.740   1.571   5.612
 8320TIP3   OH224902   2.460   0.702   1.640
 8320TIP3    H124903   2.451   0.733   1.730
 8320TIP3    H224904   2.526   0.759   1.602
 8321TIP3   OH224905   5.411   1.611   4.642
 8321TIP3    H124906   5.434   1.644   4.729
 8321TIP3    H224907   5.319   1.585   4.649
 8322TIP3   OH224908   5.946   3.250   3.229
 8322TIP3    H124909   5.885   3.324   3.240
 8322TIP3    H224910   6.028   3.281   3.267
 8323TIP3   OH224911   7.763   1.412   1.821
 8323TIP3    H124912   7.829   1.420   1.753
 8323TIP3    H224913   7.786   1.480   1.885
 8324TIP3   OH224914   4.625   4.657   1.073
 8324TIP3    H124915   4.715   4.674   1.103
 8324TIP3    H224916   4.569   4.687   1.144
 8325TIP3   OH224917   7.879   4.461   1.687
 8325TIP3    H124918   7.823   4.498   1.755
 8325TIP3    H224919   7.939   4.403   1.734
 8326TIP3   OH224920   4.602   1.005   5.678
 8326TIP3    H124921   4.529   1.016   5.616
 8326TIP3    H224922   4.592   1.078   5.739
 8327TIP3   OH224923   2.947   2.443   3.801
 8327TIP3    H124924   2.904   2.503   3.861
 8327TIP3    H224925   3.006   2.392   3.857
 8328TIP3   OH224926   4.838   3.349   2.577
 8328TIP3    H124927   4.828   3.405   2.655
 8328TIP3    H224928   4.932   3.341   2.565
 8329TIP3   OH224929   6.071   2.847   2.238
 8329TIP3    H124930   6.148   2.819   2.288
 8329TIP3    H224931   6.043   2.927   2.282
 8330TIP3   OH224932   0.962   6.933   5.503
 8330TIP3    H124933   1.023   6.901   5.436
 8330TIP3    H224934   1.018   6.956   5.577
 8331TIP3   OH224935   4.197   4.230   1.291
 8331TIP3    H124936   4.212   4.205   1.200
 8331TIP3    H224937   4.213   4.149   1.341
 8332TIP3   OH224938   0.180   1.462   2.933
 8332TIP3    H124939   0.098   1.511   2.943
 8332TIP3    H224940   0.230   1.481   3.012
 8333TIP3   OH224941   2.305  -0.041   6.089
 8333TIP3    H124942   2.297  -0.012   6.180
 8333TIP3    H224943   2.234   0.005   6.043
 8334TIP3   OH224944   3.464   5.522   2.959
 8334TIP3    H124945   3.412   5.601   2.942
 8334TIP3    H224946   3.555   5.550   2.945
 8335TIP3   OH224947   7.433   3.996   4.140
 8335TIP3    H124948   7.375   3.938   4.090
 8335TIP3    H224949   7.374   4.047   4.195
 8336TIP3   OH224950   2.623   7.074   0.892
 8336TIP3    H124951   2.691   7.109   0.834
 8336TIP3    H224952   2.542   7.088   0.843
 8337TIP3   OH224953   7.147   0.492   3.851
 8337TIP3    H124954   7.162   0.535   3.767
 8337TIP3    H224955   7.235   0.480   3.887
 8338TIP3   OH224956   3.444   4.995   3.105
 8338TIP3    H124957   3.447   4.995   3.009
 8338TIP3    H224958   3.475   5.082   3.130
 8339TIP3   OH224959   5.815   3.667   0.465
 8339TIP3    H124960   5.842   3.577   0.447
 8339TIP3    H224961   5.720   3.667   0.451
 8340TIP3   OH224962   6.143   0.834   4.353
 8340TIP3    H124963   6.097   0.896   4.410
 8340TIP3    H224964   6.087   0.827   4.276
 8341TIP3   OH224965   3.082   2.864   2.053
 8341TIP3    H124966   3.062   2.957   2.064
 8341TIP3    H224967   3.170   2.862   2.016
 8342TIP3   OH224968   3.970   7.076   5.003
 8342TIP3    H124969   3.901   7.055   5.066
 8342TIP3    H224970   4.036   7.122   5.055
 8343TIP3   OH224971   0.285   6.452   3.708
 8343TIP3    H124972   0.244   6.477   3.626
 8343TIP3    H224973   0.213   6.423   3.764
 8344TIP3   OH224974   6.415   0.307   0.769
 8344TIP3    H124975   6.376   0.339   0.688
 8344TIP3    H224976   6.378   0.363   0.837
 8345TIP3   OH224977   3.438   7.050   1.679
 8345TIP3    H124978   3.492   7.010   1.747
 8345TIP3    H224979   3.466   7.141   1.677
 8346TIP3   OH224980   7.898   5.224   2.404
 8346TIP3    H124981   7.874   5.148   2.351
 8346TIP3    H224982   7.978   5.257   2.362
 8347TIP3   OH224983   2.131   5.672   2.824
 8347TIP3    H124984   2.052   5.668   2.772
 8347TIP3    H224985   2.198   5.629   2.770
 8348TIP3   OH224986   4.584   3.100   4.096
 8348TIP3    H124987   4.645   3.029   4.112
 8348TIP3    H224988   4.596   3.123   4.004
 8349TIP3   OH224989   7.501   3.485   3.596
 8349TIP3    H124990   7.433   3.439   3.645
 8349TIP3    H224991   7.575   3.489   3.657
 8350TIP3   OH224992   1.528   4.839   1.451
 8350TIP3    H124993   1.588   4.873   1.518
 8350TIP3    H224994   1.511   4.914   1.394
 8351TIP3   OH224995   0.303   7.168   0.695
 8351TIP3    H124996   0.325   7.112   0.769
 8351TIP3    H224997   0.237   7.119   0.646
 8352TIP3   OH224998   5.997   3.422   4.975
 8352TIP3    H124999   5.968   3.510   5.000
 8352TIP3    H225000   6.091   3.430   4.962
 8353TIP3   OH225001   7.056   5.723   2.687
 8353TIP3    H125002   7.134   5.672   2.709
 8353TIP3    H225003   6.989   5.657   2.666
 8354TIP3   OH225004   6.557   1.196   5.917
 8354TIP3    H125005   6.524   1.276   5.875
 8354TIP3    H225006   6.651   1.196   5.899
 8355TIP3   OH225007   4.721   5.762   6.253
 8355TIP3    H125008   4.761   5.841   6.217
 8355TIP3    H225009   4.698   5.786   6.343
 8356TIP3   OH225010   0.977   5.706   3.421
 8356TIP3    H125011   1.057   5.752   3.394
 8356TIP3    H225012   0.943   5.759   3.494
 8357TIP3   OH225013   1.332   3.630   5.382
 8357TIP3    H125014   1.248   3.673   5.396
 8357TIP3    H225015   1.318   3.540   5.410
 8358TIP3   OH225016   2.949   6.930   4.453
 8358TIP3    H125017   2.924   6.916   4.545
 8358TIP3    H225018   3.044   6.944   4.456
 8359TIP3   OH225019   6.879   3.656   6.405
 8359TIP3    H125020   6.911   3.616   6.324
 8359TIP3    H225021   6.910   3.746   6.402
 8360TIP3   OH225022   7.209   4.823   0.605
 8360TIP3    H125023   7.230   4.732   0.586
 8360TIP3    H225024   7.291   4.860   0.638
 8361TIP3   OH225025   5.816   5.963   4.411
 8361TIP3    H125026   5.775   5.891   4.460
 8361TIP3    H225027   5.759   6.038   4.427
 8362TIP3   OH225028   0.276   1.470   0.498
 8362TIP3    H125029   0.336   1.427   0.437
 8362TIP3    H225030   0.305   1.442   0.585
 8363TIP3   OH225031   6.342   2.555   6.425
 8363TIP3    H125032   6.416   2.585   6.478
 8363TIP3    H225033   6.360   2.463   6.408
 8364TIP3   OH225034   7.204   0.045   3.819
 8364TIP3    H125035   7.204  -0.025   3.754
 8364TIP3    H225036   7.228   0.002   3.901
 8365TIP3   OH225037   6.886   4.297   4.652
 8365TIP3    H125038   6.932   4.355   4.591
 8365TIP3    H225039   6.857   4.356   4.722
 8366TIP3   OH225040   0.557   6.537   5.779
 8366TIP3    H125041   0.482   6.596   5.786
 8366TIP3    H225042   0.628   6.592   5.745
 8367TIP3   OH225043   5.522   6.742   3.417
 8367TIP3    H125044   5.434   6.770   3.444
 8367TIP3    H225045   5.574   6.747   3.497
 8368TIP3   OH225046   7.167   6.958   1.510
 8368TIP3    H125047   7.132   7.024   1.570
 8368TIP3    H225048   7.261   6.974   1.510
 8369TIP3   OH225049   7.730   3.438   0.064
 8369TIP3    H125050   7.758   3.359   0.111
 8369TIP3    H225051   7.646   3.461   0.104
 8370TIP3   OH225052   8.208   3.287   4.621
 8370TIP3    H125053   8.231   3.321   4.534
 8370TIP3    H225054   8.283   3.309   4.676
 8371TIP3   OH225055   5.807   4.908   0.163
 8371TIP3    H125056   5.771   4.831   0.118
 8371TIP3    H225057   5.882   4.934   0.109
 8372TIP3   OH225058   6.516   2.419   3.647
 8372TIP3    H125059   6.455   2.346   3.642
 8372TIP3    H225060   6.557   2.423   3.561
 8373TIP3   OH225061   1.334   6.520   6.483
 8373TIP3    H125062   1.400   6.451   6.476
 8373TIP3    H225063   1.351   6.562   6.567
 8374TIP3   OH225064   3.776   6.611   4.766
 8374TIP3    H125065   3.733   6.529   4.741
 8374TIP3    H225066   3.752   6.673   4.697
 8375TIP3   OH225067   6.115   3.226   1.315
 8375TIP3    H125068   6.035   3.184   1.346
 8375TIP3    H225069   6.159   3.257   1.395
 8376TIP3   OH225070   5.323   7.351   4.557
 8376TIP3    H125071   5.401   7.361   4.611
 8376TIP3    H225072   5.290   7.440   4.546
 8377TIP3   OH225073   2.110   6.278   4.055
 8377TIP3    H125074   2.063   6.207   4.011
 8377TIP3    H225075   2.055   6.300   4.130
 8378TIP3   OH225076   0.989   1.084   2.500
 8378TIP3    H125077   1.063   1.057   2.554
 8378TIP3    H225078   0.917   1.097   2.562
 8379TIP3   OH225079   3.933   5.575   1.411
 8379TIP3    H125080   4.019   5.566   1.370
 8379TIP3    H225081   3.900   5.659   1.380
 8380TIP3   OH225082   4.704   2.024   2.143
 8380TIP3    H125083   4.632   1.979   2.188
 8380TIP3    H225084   4.782   1.999   2.192
 8381TIP3   OH225085   0.900   7.091   6.245
 8381TIP3    H125086   0.845   7.117   6.171
 8381TIP3    H225087   0.884   6.997   6.256
 8382TIP3   OH225088   6.418   0.551   4.546
 8382TIP3    H125089   6.451   0.590   4.628
 8382TIP3    H225090   6.418   0.623   4.484
 8383TIP3   OH225091   1.358   1.047   3.561
 8383TIP3    H125092   1.421   0.977   3.543
 8383TIP3    H225093   1.356   1.053   3.657
 8384TIP3   OH225094   2.713   6.921   5.509
 8384TIP3    H125095   2.693   6.831   5.481
 8384TIP3    H225096   2.730   6.913   5.603
 8385TIP3   OH225097   2.317   4.168   0.812
 8385TIP3    H125098   2.313   4.258   0.781
 8385TIP3    H225099   2.239   4.127   0.777
 8386TIP3   OH225100   4.407   4.444   6.369
 8386TIP3    H125101   4.355   4.488   6.436
 8386TIP3    H225102   4.485   4.499   6.360
 8387TIP3   OH225103   2.556   1.955   1.882
 8387TIP3    H125104   2.520   2.011   1.950
 8387TIP3    H225105   2.558   1.868   1.920
 8388TIP3   OH225106   1.845   1.644   2.960
 8388TIP3    H125107   1.865   1.736   2.980
 8388TIP3    H225108   1.754   1.645   2.930
 8389TIP3   OH225109   2.832   3.724   5.334
 8389TIP3    H125110   2.823   3.682   5.248
 8389TIP3    H225111   2.862   3.813   5.314
 8390TIP3   OH225112   3.470   3.185   4.529
 8390TIP3    H125113   3.527   3.262   4.530
 8390TIP3    H225114   3.502   3.131   4.601
 8391TIP3   OH225115   0.927   0.025   4.317
 8391TIP3    H125116   0.879  -0.005   4.239
 8391TIP3    H225117   0.882  -0.018   4.390
 8392TIP3   OH225118   2.788   2.689   3.658
 8392TIP3    H125119   2.706   2.661   3.698
 8392TIP3    H225120   2.841   2.609   3.656
 8393TIP3   OH225121   0.197   1.774   1.906
 8393TIP3    H125122   0.125   1.776   1.843
 8393TIP3    H225123   0.166   1.715   1.975
 8394TIP3   OH225124   0.945   1.529   1.617
 8394TIP3    H125125   0.974   1.610   1.660
 8394TIP3    H225126   0.852   1.543   1.600
 8395TIP3   OH225127   6.222   3.422   0.248
 8395TIP3    H125128   6.138   3.425   0.295
 8395TIP3    H225129   6.287   3.409   0.318
 8396TIP3   OH225130   6.183   2.171   4.273
 8396TIP3    H125131   6.268   2.127   4.260
 8396TIP3    H225132   6.207   2.258   4.305
 8397TIP3   OH225133   0.224   3.655   5.587
 8397TIP3    H125134   0.132   3.679   5.595
 8397TIP3    H225135   0.261   3.672   5.674
 8398TIP3   OH225136   5.510   1.764   3.822
 8398TIP3    H125137   5.530   1.826   3.752
 8398TIP3    H225138   5.590   1.714   3.834
 8399TIP3   OH225139   7.345   3.442   4.889
 8399TIP3    H125140   7.361   3.365   4.835
 8399TIP3    H225141   7.251   3.442   4.904
 8400TIP3   OH225142   0.558   7.000   1.084
 8400TIP3    H125143   0.621   7.035   1.147
 8400TIP3    H225144   0.506   6.937   1.134
 8401TIP3   OH225145   2.215   0.401   5.510
 8401TIP3    H125146   2.138   0.417   5.456
 8401TIP3    H225147   2.282   0.373   5.447
 8402TIP3   OH225148   0.624   5.169   6.325
 8402TIP3    H125149   0.642   5.128   6.240
 8402TIP3    H225150   0.571   5.104   6.372
 8403TIP3   OH225151   0.772   4.997   0.231
 8403TIP3    H125152   0.822   4.976   0.310
 8403TIP3    H225153   0.816   5.073   0.194
 8404TIP3   OH225154   5.490   0.025   1.172
 8404TIP3    H125155   5.541   0.077   1.110
 8404TIP3    H225156   5.555  -0.032   1.214
 8405TIP3   OH225157   3.527   4.742   5.998
 8405TIP3    H125158   3.509   4.716   5.907
 8405TIP3    H225159   3.509   4.836   6.000
 8406TIP3   OH225160   3.651   7.225   1.217
 8406TIP3    H125161   3.576   7.200   1.163
 8406TIP3    H225162   3.721   7.244   1.154
 8407TIP3   OH225163   7.600   5.704   2.464
 8407TIP3    H125164   7.661   5.750   2.522
 8407TIP3    H225165   7.640   5.711   2.377
 8408TIP3   OH225166   4.497   6.139   6.442
 8408TIP3    H125167   4.526   6.197   6.512
 8408TIP3    H225168   4.562   6.069   6.440
 8409TIP3   OH225169   0.652   5.966   0.552
 8409TIP3    H125170   0.611   5.955   0.638
 8409TIP3    H225171   0.587   6.014   0.501
 8410TIP3   OH225172   2.870   1.685   5.541
 8410TIP3    H125173   2.881   1.723   5.628
 8410TIP3    H225174   2.917   1.745   5.482
 8411TIP3   OH225175   3.491   7.164   6.179
 8411TIP3    H125176   3.409   7.206   6.152
 8411TIP3    H225177   3.556   7.196   6.117
 8412TIP3   OH225178   6.843   5.049   3.754
 8412TIP3    H125179   6.756   5.083   3.733
 8412TIP3    H225180   6.891   5.054   3.671
 8413TIP3   OH225181   7.782   1.940   0.811
 8413TIP3    H125182   7.832   1.860   0.793
 8413TIP3    H225183   7.750   1.929   0.900
 8414TIP3   OH225184   3.382   0.893   3.824
 8414TIP3    H125185   3.335   0.849   3.895
 8414TIP3    H225186   3.325   0.884   3.748
 8415TIP3   OH225187   2.995   2.375   2.393
 8415TIP3    H125188   2.960   2.330   2.316
 8415TIP3    H225189   2.964   2.324   2.467
 8416TIP3   OH225190   0.035   1.180   1.876
 8416TIP3    H125191   0.029   1.130   1.958
 8416TIP3    H225192  -0.056   1.205   1.858
 8417TIP3   OH225193   1.693   4.309   3.490
 8417TIP3    H125194   1.630   4.280   3.423
 8417TIP3    H225195   1.778   4.282   3.455
 8418TIP3   OH225196   8.003   5.809   4.732
 8418TIP3    H125197   8.094   5.782   4.742
 8418TIP3    H225198   7.988   5.811   4.637
 8419TIP3   OH225199   3.673   7.774   4.178
 8419TIP3    H125200   3.650   7.846   4.237
 8419TIP3    H225201   3.762   7.750   4.203
 8420TIP3   OH225202   6.024   6.606   2.281
 8420TIP3    H125203   5.969   6.552   2.223
 8420TIP3    H225204   6.043   6.550   2.355
 8421TIP3   OH225205   5.515   6.398   3.455
 8421TIP3    H125206   5.543   6.309   3.435
 8421TIP3    H225207   5.557   6.418   3.539
 8422TIP3   OH225208   4.927   4.129   4.438
 8422TIP3    H125209   4.939   4.040   4.403
 8422TIP3    H225210   4.884   4.177   4.368
 8423TIP3   OH225211   2.765   0.975   2.117
 8423TIP3    H125212   2.806   1.038   2.058
 8423TIP3    H225213   2.806   0.892   2.095
 8424TIP3   OH225214   6.348   1.368   1.864
 8424TIP3    H125215   6.388   1.455   1.857
 8424TIP3    H225216   6.295   1.373   1.944
 8425TIP3   OH225217   2.978   7.517   4.870
 8425TIP3    H125218   3.055   7.467   4.847
 8425TIP3    H225219   2.926   7.520   4.790
 8426TIP3   OH225220   7.914   2.178   0.157
 8426TIP3    H125221   7.821   2.199   0.158
 8426TIP3    H225222   7.955   2.248   0.108
 8427TIP3   OH225223   0.634   1.814   6.554
 8427TIP3    H125224   0.719   1.771   6.559
 8427TIP3    H225225   0.652   1.899   6.512
 8428TIP3   OH225226   6.485   6.778   0.741
 8428TIP3    H125227   6.449   6.724   0.811
 8428TIP3    H225228   6.409   6.806   0.691
 8429TIP3   OH225229   3.427   1.244   1.549
 8429TIP3    H125230   3.385   1.286   1.624
 8429TIP3    H225231   3.377   1.163   1.536
 8430TIP3   OH225232   0.327   5.364   1.881
 8430TIP3    H125233   0.290   5.449   1.903
 8430TIP3    H225234   0.256   5.302   1.897
 8431TIP3   OH225235   5.940   0.399   4.525
 8431TIP3    H125236   6.019   0.422   4.477
 8431TIP3    H225237   5.872   0.453   4.485
 8432TIP3   OH225238   6.281   5.033   4.638
 8432TIP3    H125239   6.220   5.090   4.684
 8432TIP3    H225240   6.344   5.092   4.599
 8433TIP3   OH225241   0.182   4.916   6.816
 8433TIP3    H125242   0.091   4.942   6.808
 8433TIP3    H225243   0.206   4.885   6.728
 8434TIP3   OH225244   5.948   1.719   1.683
 8434TIP3    H125245   6.006   1.649   1.652
 8434TIP3    H225246   6.007   1.781   1.727
 8435TIP3   OH225247   2.653   6.436   4.308
 8435TIP3    H125248   2.673   6.379   4.233
 8435TIP3    H225249   2.564   6.467   4.292
 8436TIP3   OH225250   7.058   4.989   2.538
 8436TIP3    H125251   7.017   5.062   2.584
 8436TIP3    H225252   7.102   5.029   2.463
 8437TIP3   OH225253   3.916   5.353   3.654
 8437TIP3    H125254   3.972   5.332   3.729
 8437TIP3    H225255   3.974   5.395   3.591
 8438TIP3   OH225256   8.017   4.912   3.839
 8438TIP3    H125257   8.033   4.963   3.759
 8438TIP3    H225258   8.039   4.971   3.910
 8439TIP3   OH225259   4.880   3.223   0.052
 8439TIP3    H125260   4.958   3.274   0.075
 8439TIP3    H225261   4.907   3.173  -0.025
 8440TIP3   OH225262   5.960   4.147   0.949
 8440TIP3    H125263   6.029   4.096   0.907
 8440TIP3    H225264   5.920   4.087   1.012
 8441TIP3   OH225265   2.768   7.509   2.572
 8441TIP3    H125266   2.812   7.442   2.624
 8441TIP3    H225267   2.837   7.546   2.517
 8442TIP3   OH225268   1.371   4.042   2.981
 8442TIP3    H125269   1.452   4.088   2.963
 8442TIP3    H225270   1.302   4.103   2.956
 8443TIP3   OH225271   7.676   4.725   0.818
 8443TIP3    H125272   7.604   4.780   0.850
 8443TIP3    H225273   7.720   4.779   0.752
 8444TIP3   OH225274   4.382   3.023   1.473
 8444TIP3    H125275   4.431   3.095   1.433
 8444TIP3    H225276   4.291   3.038   1.447
 8445TIP3   OH225277   6.499   6.386   0.735
 8445TIP3    H125278   6.519   6.468   0.779
 8445TIP3    H225279   6.515   6.404   0.643
 8446TIP3   OH225280   6.902   2.443   1.983
 8446TIP3    H125281   6.892   2.484   1.897
 8446TIP3    H225282   6.944   2.359   1.964
 8447TIP3   OH225283   0.849   0.995   4.437
 8447TIP3    H125284   0.936   1.029   4.458
 8447TIP3    H225285   0.864   0.903   4.414
 8448TIP3   OH225286   2.944   5.674   6.542
 8448TIP3    H125287   2.885   5.613   6.587
 8448TIP3    H225288   2.974   5.733   6.611
 8449TIP3   OH225289   1.791   6.160   2.134
 8449TIP3    H125290   1.725   6.113   2.083
 8449TIP3    H225291   1.858   6.094   2.153
 8450TIP3   OH225292   0.930   2.560   3.758
 8450TIP3    H125293   0.943   2.470   3.787
 8450TIP3    H225294   0.934   2.555   3.663
 8451TIP3   OH225295   4.353   5.786   6.404
 8451TIP3    H125296   4.359   5.855   6.337
 8451TIP3    H225297   4.370   5.705   6.356
 8452TIP3   OH225298   4.575   1.625   6.655
 8452TIP3    H125299   4.651   1.633   6.712
 8452TIP3    H225300   4.516   1.565   6.701
 8453TIP3   OH225301   0.876   4.782   1.904
 8453TIP3    H125302   0.946   4.724   1.934
 8453TIP3    H225303   0.912   4.870   1.914
 8454TIP3   OH225304   1.449   0.615   5.298
 8454TIP3    H125305   1.522   0.658   5.254
 8454TIP3    H225306   1.421   0.547   5.237
 8455TIP3   OH225307   2.427   0.496   0.402
 8455TIP3    H125308   2.427   0.402   0.389
 8455TIP3    H225309   2.392   0.508   0.490
 8456TIP3   OH225310   0.372   2.871   2.272
 8456TIP3    H125311   0.363   2.904   2.183
 8456TIP3    H225312   0.293   2.901   2.317
 8457TIP3   OH225313   3.431   7.085   5.277
 8457TIP3    H125314   3.504   7.023   5.285
 8457TIP3    H225315   3.358   7.042   5.320
 8458TIP3   OH225316   1.939   4.213   3.418
 8458TIP3    H125317   2.030   4.241   3.413
 8458TIP3    H225318   1.938   4.124   3.382
 8459TIP3   OH225319   2.074   1.505   4.411
 8459TIP3    H125320   2.148   1.461   4.454
 8459TIP3    H225321   2.065   1.460   4.327
 8460TIP3   OH225322   6.127   1.432   4.537
 8460TIP3    H125323   6.056   1.481   4.579
 8460TIP3    H225324   6.082   1.368   4.482
 8461TIP3   OH225325   6.095   6.857   2.817
 8461TIP3    H125326   6.013   6.808   2.809
 8461TIP3    H225327   6.159   6.792   2.848
 8462TIP3   OH225328   4.154   4.419   2.743
 8462TIP3    H125329   4.239   4.459   2.725
 8462TIP3    H225330   4.143   4.354   2.674
 8463TIP3   OH225331   0.840   2.294   0.473
 8463TIP3    H125332   0.934   2.289   0.488
 8463TIP3    H225333   0.827   2.380   0.431
 8464TIP3   OH225334   6.708   0.516   5.807
 8464TIP3    H125335   6.637   0.508   5.744
 8464TIP3    H225336   6.718   0.428   5.844
 8465TIP3   OH225337   3.233   2.216   4.855
 8465TIP3    H125338   3.326   2.199   4.840
 8465TIP3    H225339   3.223   2.216   4.950
 8466TIP3   OH225340   5.648   6.399   2.524
 8466TIP3    H125341   5.589   6.360   2.459
 8466TIP3    H225342   5.683   6.324   2.573
 8467TIP3   OH225343   5.344   1.295   2.090
 8467TIP3    H125344   5.385   1.381   2.079
 8467TIP3    H225345   5.260   1.303   2.045
 8468TIP3   OH225346   1.923   5.653   4.334
 8468TIP3    H125347   1.857   5.640   4.266
 8468TIP3    H225348   1.960   5.565   4.348
 8469TIP3   OH225349   4.095   0.757   6.458
 8469TIP3    H125350   4.132   0.712   6.534
 8469TIP3    H225351   4.146   0.724   6.384
 8470TIP3   OH225352   3.974   5.836   1.318
 8470TIP3    H125353   3.903   5.866   1.260
 8470TIP3    H225354   4.049   5.891   1.294
 8471TIP3   OH225355   1.081   5.188   3.290
 8471TIP3    H125356   1.111   5.098   3.282
 8471TIP3    H225357   1.025   5.188   3.368
 8472TIP3   OH225358   7.451   1.163   0.367
 8472TIP3    H125359   7.498   1.165   0.284
 8472TIP3    H225360   7.485   1.238   0.416
 8473TIP3   OH225361   7.548   4.484   0.774
 8473TIP3    H125362   7.475   4.519   0.723
 8473TIP3    H225363   7.588   4.561   0.814
 8474TIP3   OH225364   4.214   5.711   0.161
 8474TIP3    H125365   4.154   5.778   0.194
 8474TIP3    H225366   4.157   5.639   0.133
 8475TIP3   OH225367   7.273   0.393   2.879
 8475TIP3    H125368   7.361   0.390   2.843
 8475TIP3    H225369   7.281   0.349   2.964
 8476TIP3   OH225370   7.815   0.665   6.234
 8476TIP3    H125371   7.904   0.657   6.269
 8476TIP3    H225372   7.811   0.601   6.163
 8477TIP3   OH225373   1.239   4.432   0.010
 8477TIP3    H125374   1.272   4.500   0.068
 8477TIP3    H225375   1.184   4.377   0.066
 8478TIP3   OH225376   6.494   1.982   6.328
 8478TIP3    H125377   6.429   1.984   6.258
 8478TIP3    H225378   6.561   1.921   6.298
 8479TIP3   OH225379   6.942   6.128   6.036
 8479TIP3    H125380   6.959   6.222   6.043
 8479TIP3    H225381   7.016   6.093   5.987
 8480TIP3   OH225382   0.054   6.089   5.602
 8480TIP3    H125383   0.095   6.138   5.530
 8480TIP3    H225384   0.128   6.054   5.652
 8481TIP3   OH225385   0.823   6.411   3.186
 8481TIP3    H125386   0.883   6.429   3.258
 8481TIP3    H225387   0.810   6.497   3.145
 8482TIP3   OH225388   6.207   1.196   2.824
 8482TIP3    H125389   6.231   1.143   2.748
 8482TIP3    H225390   6.191   1.132   2.893
 8483TIP3   OH225391   0.999   6.059   6.134
 8483TIP3    H125392   0.956   6.128   6.183
 8483TIP3    H225393   1.085   6.095   6.112
 8484TIP3   OH225394   2.437   6.417   3.603
 8484TIP3    H125395   2.385   6.429   3.683
 8484TIP3    H225396   2.526   6.445   3.628
 8485TIP3   OH225397   3.572   4.069   2.456
 8485TIP3    H125398   3.596   4.034   2.370
 8485TIP3    H225399   3.585   4.163   2.449
 8486TIP3   OH225400   6.628   0.917   2.978
 8486TIP3    H125401   6.579   0.886   2.901
 8486TIP3    H225402   6.667   0.838   3.016
 8487TIP3   OH225403   8.208   2.790   6.208
 8487TIP3    H125404   8.172   2.879   6.201
 8487TIP3    H225405   8.149   2.746   6.270
 8488TIP3   OH225406   2.923   5.332   6.237
 8488TIP3    H125407   2.952   5.423   6.228
 8488TIP3    H225408   2.946   5.308   6.327
 8489TIP3   OH225409   6.082   1.547   3.011
 8489TIP3    H125410   6.145   1.583   2.948
 8489TIP3    H225411   6.125   1.557   3.096
 8490TIP3   OH225412   6.476   6.953   3.457
 8490TIP3    H125413   6.516   6.872   3.426
 8490TIP3    H225414   6.550   7.013   3.468
 8491TIP3   OH225415   0.988   2.550   6.620
 8491TIP3    H125416   1.011   2.477   6.677
 8491TIP3    H225417   0.955   2.617   6.680
 8492TIP3   OH225418   0.374   4.882   5.546
 8492TIP3    H125419   0.327   4.860   5.465
 8492TIP3    H225420   0.446   4.819   5.549
 8493TIP3   OH225421   6.565   1.646   4.484
 8493TIP3    H125422   6.486   1.657   4.536
 8493TIP3    H225423   6.546   1.575   4.424
 8494TIP3   OH225424   2.082   5.352   2.288
 8494TIP3    H125425   2.131   5.429   2.260
 8494TIP3    H225426   2.149   5.288   2.312
 8495TIP3   OH225427   0.339   3.811   5.067
 8495TIP3    H125428   0.309   3.863   5.141
 8495TIP3    H225429   0.329   3.720   5.096
 8496TIP3   OH225430   5.103   4.775   1.315
 8496TIP3    H125431   5.065   4.757   1.402
 8496TIP3    H225432   5.028   4.803   1.262
 8497TIP3   OH225433   6.148   1.753   3.640
 8497TIP3    H125434   6.182   1.746   3.550
 8497TIP3    H225435   6.074   1.693   3.642
 8498TIP3   OH225436   3.282   3.394   2.343
 8498TIP3    H125437   3.336   3.411   2.266
 8498TIP3    H225438   3.253   3.303   2.332
 8499TIP3   OH225439   3.996   6.275   1.876
 8499TIP3    H125440   4.031   6.356   1.914
 8499TIP3    H225441   4.039   6.268   1.791
 8500TIP3   OH225442   5.340   6.096   2.914
 8500TIP3    H125443   5.432   6.070   2.907
 8500TIP3    H225444   5.295   6.041   2.851
 8501TIP3   OH225445   5.528   3.099   6.192
 8501TIP3    H125446   5.565   3.188   6.198
 8501TIP3    H225447   5.600   3.046   6.158
 8502TIP3   OH225448   3.335   4.569   2.021
 8502TIP3    H125449   3.267   4.545   1.957
 8502TIP3    H225450   3.297   4.642   2.069
 8503TIP3   OH225451   7.992   5.800   5.025
 8503TIP3    H125452   8.046   5.721   5.027
 8503TIP3    H225453   7.954   5.801   4.937
 8504TIP3   OH225454   7.844   3.766   2.115
 8504TIP3    H125455   7.849   3.767   2.019
 8504TIP3    H225456   7.906   3.698   2.140
 8505TIP3   OH225457   6.565   6.706   1.079
 8505TIP3    H125458   6.648   6.722   1.034
 8505TIP3    H225459   6.577   6.742   1.167
 8506TIP3   OH225460   4.589   0.154   0.762
 8506TIP3    H125461   4.657   0.199   0.812
 8506TIP3    H225462   4.535   0.112   0.828
 8507TIP3   OH225463   1.146   0.958   3.382
 8507TIP3    H125464   1.231   0.966   3.425
 8507TIP3    H225465   1.092   0.909   3.444
 8508TIP3   OH225466   4.439   4.922   2.966
 8508TIP3    H125467   4.384   4.986   2.921
 8508TIP3    H225468   4.493   4.974   3.025
 8509TIP3   OH225469   0.307   1.975   3.129
 8509TIP3    H125470   0.301   2.041   3.060
 8509TIP3    H225471   0.300   1.891   3.082
 8510TIP3   OH225472   4.879   4.922   6.070
 8510TIP3    H125473   4.791   4.960   6.076
 8510TIP3    H225474   4.864   4.829   6.055
 8511TIP3   OH225475   6.501   2.309   6.302
 8511TIP3    H125476   6.488   2.305   6.207
 8511TIP3    H225477   6.563   2.380   6.315
 8512TIP3   OH225478   8.133   6.736   2.222
 8512TIP3    H125479   8.173   6.658   2.262
 8512TIP3    H225480   8.157   6.807   2.282
 8513TIP3   OH225481   0.215   5.861   4.997
 8513TIP3    H125482   0.140   5.847   5.055
 8513TIP3    H225483   0.290   5.868   5.057
 8514TIP3   OH225484   0.267   1.186   2.471
 8514TIP3    H125485   0.179   1.183   2.510
 8514TIP3    H225486   0.308   1.263   2.510
 8515TIP3   OH225487   7.377   5.643   1.171
 8515TIP3    H125488   7.334   5.557   1.165
 8515TIP3    H225489   7.305   5.703   1.191
 8516TIP3   OH225490   1.702   7.092   2.531
 8516TIP3    H125491   1.705   7.187   2.543
 8516TIP3    H225492   1.729   7.056   2.616
 8517TIP3   OH225493   0.121   4.591   5.571
 8517TIP3    H125494   0.033   4.629   5.564
 8517TIP3    H225495   0.141   4.559   5.484
 8518TIP3   OH225496   4.521   0.979   1.575
 8518TIP3    H125497   4.612   0.954   1.587
 8518TIP3    H225498   4.523   1.047   1.508
 8519TIP3   OH225499   2.432   2.971   4.691
 8519TIP3    H125500   2.368   2.941   4.755
 8519TIP3    H225501   2.516   2.969   4.738
 8520TIP3   OH225502   5.202   4.707   6.511
 8520TIP3    H125503   5.151   4.776   6.468
 8520TIP3    H225504   5.288   4.713   6.470
 8521TIP3   OH225505   0.269   0.354   1.455
 8521TIP3    H125506   0.298   0.312   1.536
 8521TIP3    H225507   0.270   0.448   1.476
 8522TIP3   OH225508   6.609   4.208   6.327
 8522TIP3    H125509   6.630   4.260   6.404
 8522TIP3    H225510   6.686   4.151   6.315
 8523TIP3   OH225511   6.094   3.674   6.631
 8523TIP3    H125512   6.101   3.579   6.623
 8523TIP3    H225513   6.124   3.707   6.547
 8524TIP3   OH225514   6.730   0.519   0.949
 8524TIP3    H125515   6.689   0.577   1.013
 8524TIP3    H225516   6.743   0.574   0.872
 8525TIP3   OH225517   5.588   5.279   4.350
 8525TIP3    H125518   5.523   5.208   4.350
 8525TIP3    H225519   5.583   5.314   4.261
 8526TIP3   OH225520   4.114   6.305   4.179
 8526TIP3    H125521   4.135   6.218   4.147
 8526TIP3    H225522   4.091   6.292   4.271
 8527TIP3   OH225523   4.365   2.674   4.081
 8527TIP3    H125524   4.363   2.583   4.050
 8527TIP3    H225525   4.275   2.691   4.109
 8528TIP3   OH225526   8.227   7.273   2.240
 8528TIP3    H125527   8.260   7.232   2.160
 8528TIP3    H225528   8.158   7.215   2.270
 8529TIP3   OH225529   6.647   1.498   0.809
 8529TIP3    H125530   6.584   1.425   0.810
 8529TIP3    H225531   6.641   1.533   0.720
 8530TIP3   OH225532   8.275   5.185   3.328
 8530TIP3    H125533   8.287   5.090   3.319
 8530TIP3    H225534   8.285   5.202   3.421
 8531TIP3   OH225535   2.593   2.687   4.779
 8531TIP3    H125536   2.667   2.643   4.736
 8531TIP3    H225537   2.616   2.780   4.779
 8532TIP3   OH225538   4.023   0.770   0.144
 8532TIP3    H125539   4.050   0.837   0.206
 8532TIP3    H225540   3.928   0.762   0.157
 8533TIP3   OH225541   6.517   1.951   3.030
 8533TIP3    H125542   6.593   1.951   3.089
 8533TIP3    H225543   6.552   1.983   2.947
 8534TIP3   OH225544   0.748   0.089   3.874
 8534TIP3    H125545   0.705   0.170   3.846
 8534TIP3    H225546   0.692   0.055   3.943
 8535TIP3   OH225547   0.965   2.370   4.242
 8535TIP3    H125548   1.007   2.447   4.206
 8535TIP3    H225549   0.997   2.365   4.332
 8536TIP3   OH225550   3.329   1.937   5.888
 8536TIP3    H125551   3.421   1.923   5.911
 8536TIP3    H225552   3.302   2.012   5.940
 8537TIP3   OH225553   1.945   5.440   5.506
 8537TIP3    H125554   2.019   5.498   5.528
 8537TIP3    H225555   1.888   5.494   5.451
 8538TIP3   OH225556   2.948   6.987   1.123
 8538TIP3    H125557   2.860   6.997   1.158
 8538TIP3    H225558   2.938   6.996   1.028
 8539TIP3   OH225559   6.273   2.658   2.323
 8539TIP3    H125560   6.250   2.594   2.390
 8539TIP3    H225561   6.287   2.606   2.244
 8540TIP3   OH225562   7.550   2.427   5.158
 8540TIP3    H125563   7.593   2.488   5.218
 8540TIP3    H225564   7.536   2.348   5.209
 8541TIP3   OH225565   1.495   2.627   6.091
 8541TIP3    H125566   1.562   2.690   6.118
 8541TIP3    H225567   1.474   2.578   6.171
 8542TIP3   OH225568   4.558   3.873   1.524
 8542TIP3    H125569   4.615   3.927   1.469
 8542TIP3    H225570   4.604   3.789   1.530
 8543TIP3   OH225571   7.350   3.346   6.008
 8543TIP3    H125572   7.307   3.415   6.059
 8543TIP3    H225573   7.354   3.272   6.068
 8544TIP3   OH225574   2.924   5.904   1.802
 8544TIP3    H125575   2.886   5.973   1.857
 8544TIP3    H225576   2.937   5.946   1.717
 8545TIP3   OH225577   3.075   3.962   5.045
 8545TIP3    H125578   3.091   3.911   4.966
 8545TIP3    H225579   3.136   4.036   5.038
 8546TIP3   OH225580   0.329   1.278   3.418
 8546TIP3    H125581   0.396   1.340   3.390
 8546TIP3    H225582   0.248   1.329   3.420
 8547TIP3   OH225583   2.443   7.198   5.795
 8547TIP3    H125584   2.437   7.282   5.839
 8547TIP3    H225585   2.353   7.164   5.796
 8548TIP3   OH225586   4.452   4.396   4.355
 8548TIP3    H125587   4.360   4.420   4.342
 8548TIP3    H225588   4.450   4.331   4.426
 8549TIP3   OH225589   1.297   6.584   0.211
 8549TIP3    H125590   1.313   6.604   0.118
 8549TIP3    H225591   1.359   6.639   0.258
 8550TIP3   OH225592   8.116   7.168   6.173
 8550TIP3    H125593   8.061   7.131   6.242
 8550TIP3    H225594   8.133   7.258   6.202
 8551TIP3   OH225595   1.847   5.012   4.590
 8551TIP3    H125596   1.859   4.988   4.682
 8551TIP3    H225597   1.774   4.957   4.561
 8552TIP3   OH225598   3.829   5.014   3.950
 8552TIP3    H125599   3.813   5.097   3.905
 8552TIP3    H225600   3.883   4.964   3.888
 8553TIP3   OH225601   1.523   5.870   2.120
 8553TIP3    H125602   1.589   5.889   2.054
 8553TIP3    H225603   1.462   5.944   2.116
 8554TIP3   OH225604   1.636   6.680   2.655
 8554TIP3    H125605   1.612   6.588   2.644
 8554TIP3    H225606   1.594   6.725   2.582
 8555TIP3   OH225607   1.759   5.972   5.886
 8555TIP3    H125608   1.802   5.970   5.800
 8555TIP3    H225609   1.830   5.956   5.948
 8556TIP3   OH225610   1.427   3.224   0.462
 8556TIP3    H125611   1.416   3.320   0.463
 8556TIP3    H225612   1.344   3.191   0.426
 8557TIP3   OH225613   3.730   5.808   1.182
 8557TIP3    H125614   3.675   5.873   1.138
 8557TIP3    H225615   3.668   5.743   1.216
 8558TIP3   OH225616   3.496   1.466   5.176
 8558TIP3    H125617   3.560   1.429   5.115
 8558TIP3    H225618   3.495   1.559   5.155
 8559TIP3   OH225619   8.095   4.348   0.364
 8559TIP3    H125620   8.009   4.327   0.328
 8559TIP3    H225621   8.076   4.384   0.451
 8560TIP3   OH225622   4.920   2.661   1.088
 8560TIP3    H125623   4.949   2.573   1.066
 8560TIP3    H225624   4.863   2.650   1.164
 8561TIP3   OH225625   4.863   1.079   0.318
 8561TIP3    H125626   4.842   0.995   0.358
 8561TIP3    H225627   4.958   1.088   0.329
 8562TIP3   OH225628   0.311   0.519   3.416
 8562TIP3    H125629   0.339   0.605   3.449
 8562TIP3    H225630   0.238   0.495   3.473
 8563TIP3   OH225631   7.706   3.476   4.375
 8563TIP3    H125632   7.745   3.398   4.337
 8563TIP3    H225633   7.666   3.522   4.301
 8564TIP3   OH225634   0.580   7.241   1.516
 8564TIP3    H125635   0.669   7.272   1.534
 8564TIP3    H225636   0.532   7.259   1.596
 8565TIP3   OH225637   2.619   1.709   0.104
 8565TIP3    H125638   2.662   1.707   0.190
 8565TIP3    H225639   2.579   1.622   0.096
 8566TIP3   OH225640   1.420   4.054   4.949
 8566TIP3    H125641   1.428   4.104   5.030
 8566TIP3    H225642   1.379   3.972   4.975
 8567TIP3   OH225643   3.623   0.843   0.959
 8567TIP3    H125644   3.676   0.836   0.880
 8567TIP3    H225645   3.533   0.847   0.928
 8568TIP3   OH225646   7.732   0.762   0.959
 8568TIP3    H125647   7.804   0.774   0.896
 8568TIP3    H225648   7.727   0.845   1.006
 8569TIP3   OH225649   1.310   0.925   5.810
 8569TIP3    H125650   1.224   0.961   5.787
 8569TIP3    H225651   1.290   0.841   5.851
 8570TIP3   OH225652   1.934   4.535   0.713
 8570TIP3    H125653   1.998   4.605   0.701
 8570TIP3    H225654   1.875   4.543   0.639
 8571TIP3   OH225655   5.579   1.477   1.923
 8571TIP3    H125656   5.645   1.544   1.941
 8571TIP3    H225657   5.496   1.525   1.922
 8572TIP3   OH225658   4.273   5.045   3.569
 8572TIP3    H125659   4.332   4.977   3.602
 8572TIP3    H225660   4.308   5.067   3.483
 8573TIP3   OH225661   4.098   3.697   5.901
 8573TIP3    H125662   4.187   3.708   5.935
 8573TIP3    H225663   4.095   3.606   5.871
 8574TIP3   OH225664   2.475   1.287   2.765
 8574TIP3    H125665   2.405   1.250   2.712
 8574TIP3    H225666   2.431   1.323   2.842
 8575TIP3   OH225667   6.613   5.216   2.115
 8575TIP3    H125668   6.627   5.268   2.194
 8575TIP3    H225669   6.694   5.167   2.104
 8576TIP3   OH225670   3.425   5.608   5.908
 8576TIP3    H125671   3.447   5.580   5.997
 8576TIP3    H225672   3.494   5.671   5.885
 8577TIP3   OH225673   0.448   3.516   5.601
 8577TIP3    H125674   0.358   3.538   5.579
 8577TIP3    H225675   0.494   3.600   5.602
 8578TIP3   OH225676   1.292   2.359   2.340
 8578TIP3    H125677   1.204   2.334   2.366
 8578TIP3    H225678   1.280   2.402   2.255
 8579TIP3   OH225679   4.054   6.119   5.510
 8579TIP3    H125680   3.985   6.052   5.510
 8579TIP3    H225681   4.053   6.155   5.599
 8580TIP3   OH225682   2.878   3.493   5.523
 8580TIP3    H125683   2.901   3.544   5.445
 8580TIP3    H225684   2.905   3.548   5.596
 8581TIP3   OH225685   7.578   4.377   0.120
 8581TIP3    H125686   7.530   4.456   0.096
 8581TIP3    H225687   7.516   4.306   0.107
 8582TIP3   OH225688   8.148   5.686   5.671
 8582TIP3    H125689   8.115   5.614   5.723
 8582TIP3    H225690   8.073   5.745   5.659
 8583TIP3   OH225691   2.979   1.668   0.971
 8583TIP3    H125692   2.978   1.654   0.876
 8583TIP3    H225693   2.962   1.762   0.981
 8584TIP3   OH225694   5.871   0.988   3.520
 8584TIP3    H125695   5.828   0.923   3.575
 8584TIP3    H225696   5.942   1.023   3.574
 8585TIP3   OH225697   1.311   7.270   4.823
 8585TIP3    H125698   1.305   7.311   4.737
 8585TIP3    H225699   1.343   7.341   4.880
 8586TIP3   OH225700   1.544   0.868   6.710
 8586TIP3    H125701   1.478   0.912   6.656
 8586TIP3    H225702   1.627   0.909   6.684
 8587TIP3   OH225703   3.645   1.917   4.717
 8587TIP3    H125704   3.655   1.863   4.639
 8587TIP3    H225705   3.703   1.877   4.782
 8588TIP3   OH225706   5.842   7.301   2.569
 8588TIP3    H125707   5.805   7.361   2.634
 8588TIP3    H225708   5.933   7.290   2.595
 8589TIP3   OH225709   4.393   7.469   4.380
 8589TIP3    H125710   4.345   7.423   4.311
 8589TIP3    H225711   4.423   7.400   4.439
 8590TIP3   OH225712   3.576   0.657   5.349
 8590TIP3    H125713   3.659   0.699   5.371
 8590TIP3    H225714   3.589   0.622   5.261
 8591TIP3   OH225715   6.771   0.686   0.707
 8591TIP3    H125716   6.733   0.693   0.619
 8591TIP3    H225717   6.748   0.769   0.750
 8592TIP3   OH225718   3.016   5.591   5.836
 8592TIP3    H125719   3.031   5.561   5.926
 8592TIP3    H225720   3.025   5.512   5.782
 8593TIP3   OH225721   6.172   5.583   3.614
 8593TIP3    H125722   6.228   5.542   3.548
 8593TIP3    H225723   6.134   5.510   3.662
 8594TIP3   OH225724   7.419   4.710   6.399
 8594TIP3    H125725   7.431   4.667   6.314
 8594TIP3    H225726   7.408   4.802   6.378
 8595TIP3   OH225727   6.531   4.027   3.068
 8595TIP3    H125728   6.545   4.119   3.047
 8595TIP3    H225729   6.612   3.984   3.041
 8596TIP3   OH225730   1.120   6.457   6.709
 8596TIP3    H125731   1.215   6.457   6.698
 8596TIP3    H225732   1.086   6.471   6.621
 8597TIP3   OH225733   4.088   5.626   2.460
 8597TIP3    H125734   3.997   5.598   2.463
 8597TIP3    H225735   4.133   5.557   2.412
 8598TIP3   OH225736   7.391   1.792   6.000
 8598TIP3    H125737   7.374   1.719   6.060
 8598TIP3    H225738   7.376   1.755   5.913
 8599TIP3   OH225739   5.927   0.465   6.287
 8599TIP3    H125740   5.972   0.462   6.203
 8599TIP3    H225741   5.978   0.406   6.343
 8600TIP3   OH225742   8.129   5.325   6.549
 8600TIP3    H125743   8.118   5.403   6.496
 8600TIP3    H225744   8.191   5.351   6.617
 8601TIP3   OH225745   7.509   5.888   4.061
 8601TIP3    H125746   7.425   5.917   4.095
 8601TIP3    H225747   7.499   5.891   3.966
 8602TIP3   OH225748   3.770   1.070   6.356
 8602TIP3    H125749   3.685   1.094   6.321
 8602TIP3    H225750   3.770   0.974   6.355
 8603TIP3   OH225751   4.621   7.374   3.345
 8603TIP3    H125752   4.672   7.329   3.412
 8603TIP3    H225753   4.640   7.467   3.358
 8604TIP3   OH225754   0.722   3.069   0.795
 8604TIP3    H125755   0.638   3.036   0.765
 8604TIP3    H225756   0.708   3.163   0.809
 8605TIP3   OH225757   2.267   5.187   3.052
 8605TIP3    H125758   2.225   5.247   3.114
 8605TIP3    H225759   2.305   5.118   3.107
 8606TIP3   OH225760   0.779   6.359   5.805
 8606TIP3    H125761   0.836   6.337   5.732
 8606TIP3    H225762   0.708   6.409   5.766
 8607TIP3   OH225763   1.782   3.893   1.258
 8607TIP3    H125764   1.798   3.883   1.352
 8607TIP3    H225765   1.863   3.931   1.223
 8608TIP3   OH225766   6.429   3.168   2.500
 8608TIP3    H125767   6.480   3.099   2.542
 8608TIP3    H225768   6.493   3.217   2.448
 8609TIP3   OH225769   3.356   7.669   1.053
 8609TIP3    H125770   3.293   7.596   1.045
 8609TIP3    H225771   3.332   7.711   1.136
 8610TIP3   OH225772   2.294   0.716   3.190
 8610TIP3    H125773   2.214   0.665   3.174
 8610TIP3    H225774   2.272   0.804   3.158
 8611TIP3   OH225775   1.955   1.715   1.095
 8611TIP3    H125776   1.953   1.630   1.139
 8611TIP3    H225777   2.028   1.762   1.135
 8612TIP3   OH225778   2.786   5.031   2.630
 8612TIP3    H125779   2.830   5.106   2.670
 8612TIP3    H225780   2.857   4.979   2.592
 8613TIP3   OH225781   6.798   4.182   3.496
 8613TIP3    H125782   6.851   4.112   3.458
 8613TIP3    H225783   6.852   4.217   3.567
 8614TIP3   OH225784   2.442   4.173   1.071
 8614TIP3    H125785   2.404   4.170   0.983
 8614TIP3    H225786   2.426   4.086   1.106
 8615TIP3   OH225787   2.409   1.475   6.600
 8615TIP3    H125788   2.345   1.501   6.534
 8615TIP3    H225789   2.490   1.517   6.572
 8616TIP3   OH225790   0.983   6.081   0.115
 8616TIP3    H125791   0.919   6.011   0.102
 8616TIP3    H225792   1.066   6.044   0.084
 8617TIP3   OH225793   0.653   5.502   6.113
 8617TIP3    H125794   0.626   5.589   6.082
 8617TIP3    H225795   0.676   5.454   6.034
 8618TIP3   OH225796   3.955   2.215   5.281
 8618TIP3    H125797   3.918   2.241   5.196
 8618TIP3    H225798   3.881   2.176   5.328
 8619TIP3   OH225799   6.042   7.195   4.578
 8619TIP3    H125800   6.059   7.289   4.581
 8619TIP3    H225801   6.126   7.155   4.602
 8620TIP3   OH225802   8.197   3.646   5.886
 8620TIP3    H125803   8.197   3.686   5.973
 8620TIP3    H225804   8.264   3.578   5.891
 8621TIP3   OH225805   0.655   4.645   0.900
 8621TIP3    H125806   0.619   4.569   0.945
 8621TIP3    H225807   0.665   4.617   0.809
 8622TIP3   OH225808   6.710  -0.039   3.051
 8622TIP3    H125809   6.748  -0.072   2.970
 8622TIP3    H225810   6.770   0.031   3.080
 8623TIP3   OH225811   5.468   2.988   2.849
 8623TIP3    H125812   5.487   2.958   2.938
 8623TIP3    H225813   5.530   2.940   2.794
 8624TIP3   OH225814   2.263   6.445   1.715
 8624TIP3    H125815   2.313   6.387   1.658
 8624TIP3    H225816   2.224   6.387   1.780
 8625TIP3   OH225817   5.654   0.415   5.570
 8625TIP3    H125818   5.579   0.468   5.544
 8625TIP3    H225819   5.715   0.477   5.610
 8626TIP3   OH225820   1.441   1.683   3.359
 8626TIP3    H125821   1.463   1.636   3.279
 8626TIP3    H225822   1.522   1.684   3.409
 8627TIP3   OH225823   6.089   0.349   6.088
 8627TIP3    H125824   6.033   0.294   6.033
 8627TIP3    H225825   6.139   0.402   6.026
 8628TIP3   OH225826   2.470   2.372   0.693
 8628TIP3    H125827   2.528   2.301   0.664
 8628TIP3    H225828   2.436   2.342   0.778
 8629TIP3   OH225829   1.941   3.750   0.243
 8629TIP3    H125830   1.990   3.828   0.268
 8629TIP3    H225831   1.897   3.722   0.324
 8630TIP3   OH225832   3.261   3.483   4.884
 8630TIP3    H125833   3.294   3.522   4.965
 8630TIP3    H225834   3.217   3.403   4.912
 8631TIP3   OH225835   3.261   6.278   3.461
 8631TIP3    H125836   3.343   6.322   3.440
 8631TIP3    H225837   3.278   6.232   3.543
 8632TIP3   OH225838   3.289   5.637   4.055
 8632TIP3    H125839   3.319   5.722   4.088
 8632TIP3    H225840   3.287   5.649   3.960
 8633TIP3   OH225841   2.455   1.138   6.499
 8633TIP3    H125842   2.542   1.097   6.496
 8633TIP3    H225843   2.472   1.232   6.492
 8634TIP3   OH225844   2.222   1.165   5.604
 8634TIP3    H125845   2.158   1.095   5.593
 8634TIP3    H225846   2.169   1.243   5.623
 8635TIP3   OH225847   6.307   2.134   1.549
 8635TIP3    H125848   6.386   2.083   1.568
 8635TIP3    H225849   6.295   2.189   1.626
 8636TIP3   OH225850   8.151   5.838   0.405
 8636TIP3    H125851   8.106   5.901   0.460
 8636TIP3    H225852   8.188   5.890   0.334
 8637TIP3   OH225853   4.698   0.382   2.284
 8637TIP3    H125854   4.691   0.314   2.351
 8637TIP3    H225855   4.618   0.433   2.293
 8638TIP3   OH225856   5.155   1.556   2.295
 8638TIP3    H125857   5.127   1.470   2.327
 8638TIP3    H225858   5.234   1.538   2.244
 8639TIP3   OH225859   0.456   2.381   3.217
 8639TIP3    H125860   0.479   2.451   3.278
 8639TIP3    H225861   0.535   2.328   3.211
 8640TIP3   OH225862   5.317   7.015   6.697
 8640TIP3    H125863   5.381   7.037   6.630
 8640TIP3    H225864   5.232   7.024   6.653
 8641TIP3   OH225865   7.109   4.654   2.711
 8641TIP3    H125866   7.119   4.737   2.665
 8641TIP3    H225867   7.058   4.676   2.789
 8642TIP3   OH225868   5.040   5.781   1.356
 8642TIP3    H125869   5.117   5.808   1.406
 8642TIP3    H225870   4.976   5.850   1.372
 8643TIP3   OH225871   3.278   6.375   1.354
 8643TIP3    H125872   3.356   6.363   1.299
 8643TIP3    H225873   3.264   6.469   1.356
 8644TIP3   OH225874   7.316   5.483   0.763
 8644TIP3    H125875   7.388   5.424   0.785
 8644TIP3    H225876   7.251   5.426   0.722
 8645TIP3   OH225877   6.048   1.988   4.718
 8645TIP3    H125878   6.106   1.995   4.643
 8645TIP3    H225879   5.991   1.913   4.697
 8646TIP3   OH225880   6.179   5.619   5.192
 8646TIP3    H125881   6.133   5.545   5.230
 8646TIP3    H225882   6.183   5.684   5.263
 8647TIP3   OH225883   8.264   7.206   1.867
 8647TIP3    H125884   8.248   7.294   1.902
 8647TIP3    H225885   8.183   7.182   1.823
 8648TIP3   OH225886   2.352   7.666   0.155
 8648TIP3    H125887   2.294   7.618   0.095
 8648TIP3    H225888   2.390   7.598   0.210
 8649TIP3   OH225889   7.115   3.543   4.118
 8649TIP3    H125890   7.180   3.477   4.144
 8649TIP3    H225891   7.145   3.624   4.160
 8650TIP3   OH225892   7.037   1.955   0.106
 8650TIP3    H125893   6.998   2.041   0.122
 8650TIP3    H225894   6.976   1.894   0.148
 8651TIP3   OH225895   5.108   1.428   3.138
 8651TIP3    H125896   5.188   1.451   3.091
 8651TIP3    H225897   5.126   1.449   3.229
 8652TIP3   OH225898   7.589   4.035   4.762
 8652TIP3    H125899   7.611   3.942   4.754
 8652TIP3    H225900   7.658   4.071   4.818
 8653TIP3   OH225901   7.762   0.300   3.671
 8653TIP3    H125902   7.728   0.389   3.665
 8653TIP3    H225903   7.831   0.296   3.606
 8654TIP3   OH225904   8.152   6.297   1.363
 8654TIP3    H125905   8.211   6.333   1.296
 8654TIP3    H225906   8.066   6.330   1.339
 8655TIP3   OH225907   6.034   0.429   0.960
 8655TIP3    H125908   6.022   0.469   1.046
 8655TIP3    H225909   5.952   0.446   0.913
 8656TIP3   OH225910   3.322   0.176   6.009
 8656TIP3    H125911   3.343   0.211   5.922
 8656TIP3    H225912   3.280   0.092   5.991
 8657TIP3   OH225913   1.225   4.881   1.800
 8657TIP3    H125914   1.318   4.904   1.798
 8657TIP3    H225915   1.199   4.879   1.708
 8658TIP3   OH225916   0.230  -0.014   2.771
 8658TIP3    H125917   0.196  -0.070   2.701
 8658TIP3    H225918   0.314   0.017   2.738
 8659TIP3   OH225919   6.455   3.359   5.528
 8659TIP3    H125920   6.501   3.438   5.501
 8659TIP3    H225921   6.377   3.392   5.574
 8660TIP3   OH225922   0.161   0.364   6.407
 8660TIP3    H125923   0.198   0.362   6.495
 8660TIP3    H225924   0.169   0.456   6.380
 8661TIP3   OH225925   5.839   2.800   3.141
 8661TIP3    H125926   5.925   2.761   3.156
 8661TIP3    H225927   5.858   2.891   3.116
 8662TIP3   OH225928   0.221   6.896   4.942
 8662TIP3    H125929   0.161   6.966   4.967
 8662TIP3    H225930   0.308   6.929   4.966
 8663TIP3   OH225931   2.763   3.153   6.746
 8663TIP3    H125932   2.696   3.215   6.719
 8663TIP3    H225933   2.817   3.140   6.669
 8664TIP3   OH225934   4.597   1.710   3.237
 8664TIP3    H125935   4.664   1.650   3.269
 8664TIP3    H225936   4.534   1.717   3.309
 8665TIP3   OH225937   3.519   2.456   5.644
 8665TIP3    H125938   3.508   2.435   5.736
 8665TIP3    H225939   3.471   2.388   5.598
 8666TIP3   OH225940   6.513   2.975   3.285
 8666TIP3    H125941   6.499   2.902   3.344
 8666TIP3    H225942   6.459   3.046   3.321
 8667TIP3   OH225943   4.315   1.015   4.494
 8667TIP3    H125944   4.335   0.922   4.485
 8667TIP3    H225945   4.296   1.027   4.587
 8668TIP3   OH225946   1.025   1.124   5.385
 8668TIP3    H125947   1.086   1.175   5.331
 8668TIP3    H225948   0.947   1.178   5.392
 8669TIP3   OH225949   4.721   6.648   0.943
 8669TIP3    H125950   4.660   6.590   0.896
 8669TIP3    H225951   4.693   6.736   0.920
 8670TIP3   OH225952  -0.001   5.278   3.884
 8670TIP3    H125953   0.051   5.349   3.845
 8670TIP3    H225954  -0.084   5.320   3.908
 8671TIP3   OH225955   4.340   7.593   2.756
 8671TIP3    H125956   4.363   7.686   2.745
 8671TIP3    H225957   4.393   7.548   2.691
 8672TIP3   OH225958   4.384   0.909   6.358
 8672TIP3    H125959   4.359   0.824   6.322
 8672TIP3    H225960   4.339   0.972   6.302
 8673TIP3   OH225961   0.746   2.447   2.351
 8673TIP3    H125962   0.684   2.513   2.320
 8673TIP3    H225963   0.768   2.396   2.274
 8674TIP3   OH225964   1.567   3.067   5.064
 8674TIP3    H125965   1.604   2.993   5.017
 8674TIP3    H225966   1.506   3.027   5.127
 8675TIP3   OH225967   8.103   0.675   4.475
 8675TIP3    H125968   8.103   0.668   4.571
 8675TIP3    H225969   8.116   0.585   4.445
 8676TIP3   OH225970   2.574   2.548   2.723
 8676TIP3    H125971   2.505   2.526   2.662
 8676TIP3    H225972   2.530   2.597   2.793
 8677TIP3   OH225973   1.671   0.597   6.123
 8677TIP3    H125974   1.676   0.679   6.073
 8677TIP3    H225975   1.711   0.532   6.066
 8678TIP3   OH225976   5.615   3.480   3.809
 8678TIP3    H125977   5.593   3.460   3.900
 8678TIP3    H225978   5.548   3.436   3.757
 8679TIP3   OH225979   6.715   7.396   0.387
 8679TIP3    H125980   6.741   7.464   0.326
 8679TIP3    H225981   6.643   7.350   0.343
 8680TIP3   OH225982   0.629   6.201   5.448
 8680TIP3    H125983   0.538   6.228   5.464
 8680TIP3    H225984   0.642   6.125   5.504
 8681TIP3   OH225985   4.784   2.822   2.039
 8681TIP3    H125986   4.848   2.761   2.004
 8681TIP3    H225987   4.817   2.844   2.126
 8682TIP3   OH225988   0.865   3.539   0.907
 8682TIP3    H125989   0.785   3.591   0.913
 8682TIP3    H225990   0.834   3.451   0.882
 8683TIP3   OH225991   4.410   7.480   1.792
 8683TIP3    H125992   4.419   7.394   1.831
 8683TIP3    H225993   4.437   7.468   1.701
 8684TIP3   OH225994   7.614   7.150   3.931
 8684TIP3    H125995   7.539   7.188   3.885
 8684TIP3    H225996   7.576   7.110   4.009
 8685TIP3   OH225997   6.853   4.324   3.140
 8685TIP3    H125998   6.828   4.297   3.052
 8685TIP3    H225999   6.780   4.296   3.195
 8686TIP3   OH226000   3.708   5.659   4.018
 8686TIP3    H126001   3.672   5.608   3.946
 8686TIP3    H226002   3.797   5.625   4.029
 8687TIP3   OH226003   1.469   2.547   0.132
 8687TIP3    H126004   1.445   2.595   0.211
 8687TIP3    H226005   1.509   2.612   0.075
 8688TIP3   OH226006   3.631   7.656   1.021
 8688TIP3    H126007   3.613   7.567   0.990
 8688TIP3    H226008   3.545   7.689   1.048
 8689TIP3   OH226009   5.702   4.362   5.598
 8689TIP3    H126010   5.757   4.287   5.621
 8689TIP3    H226011   5.613   4.327   5.597
 8690TIP3   OH226012   2.835   3.727   2.608
 8690TIP3    H126013   2.862   3.642   2.573
 8690TIP3    H226014   2.917   3.769   2.634
 8691TIP3   OH226015   5.080   0.179   4.392
 8691TIP3    H126016   5.168   0.143   4.390
 8691TIP3    H226017   5.092   0.273   4.404
 8692TIP3   OH226018   2.800   5.053   4.775
 8692TIP3    H126019   2.711   5.029   4.751
 8692TIP3    H226020   2.790   5.133   4.828
 8693TIP3   OH226021   6.555   7.133   6.123
 8693TIP3    H126022   6.605   7.052   6.113
 8693TIP3    H226023   6.531   7.156   6.033
 8694TIP3   OH226024   2.237   0.776   5.454
 8694TIP3    H126025   2.227   0.757   5.361
 8694TIP3    H226026   2.148   0.796   5.484
 8695TIP3   OH226027   7.970   5.762   1.855
 8695TIP3    H126028   7.988   5.715   1.937
 8695TIP3    H226029   7.938   5.694   1.795
 8696TIP3   OH226030   5.499   0.224   5.979
 8696TIP3    H126031   5.486   0.319   5.979
 8696TIP3    H226032   5.536   0.205   5.893
 8697TIP3   OH226033   4.570   5.702   3.699
 8697TIP3    H126034   4.655   5.689   3.742
 8697TIP3    H226035   4.544   5.791   3.724
 8698TIP3   OH226036   4.940   2.623   4.608
 8698TIP3    H126037   4.883   2.699   4.610
 8698TIP3    H226038   4.983   2.626   4.523
 8699TIP3   OH226039   6.109   1.961   1.494
 8699TIP3    H126040   6.192   2.008   1.501
 8699TIP3    H226041   6.049   2.012   1.549
 8700TIP3   OH226042   2.768   2.617   2.188
 8700TIP3    H126043   2.813   2.681   2.242
 8700TIP3    H226044   2.781   2.649   2.098
 8701TIP3   OH226045   6.511   5.928   6.345
 8701TIP3    H126046   6.492   5.992   6.414
 8701TIP3    H226047   6.601   5.947   6.319
 8702TIP3   OH226048   1.258   4.363   2.527
 8702TIP3    H126049   1.315   4.286   2.528
 8702TIP3    H226050   1.211   4.358   2.444
 8703TIP3   OH226051   1.427   4.998   0.241
 8703TIP3    H126052   1.486   5.020   0.313
 8703TIP3    H226053   1.350   5.052   0.257
 8704TIP3   OH226054   5.825   6.024   3.708
 8704TIP3    H126055   5.887   6.077   3.758
 8704TIP3    H226056   5.878   5.981   3.642
 8705TIP3   OH226057   2.177   6.924   0.631
 8705TIP3    H126058   2.142   6.851   0.580
 8705TIP3    H226059   2.118   6.997   0.613
 8706TIP3   OH226060   3.131   5.562   3.261
 8706TIP3    H126061   3.216   5.518   3.254
 8706TIP3    H226062   3.149   5.653   3.238
 8707TIP3   OH226063   5.633   5.856   0.427
 8707TIP3    H126064   5.627   5.762   0.414
 8707TIP3    H226065   5.722   5.871   0.459
 8708TIP3   OH226066   6.478   7.795   2.576
 8708TIP3    H126067   6.504   7.725   2.517
 8708TIP3    H226068   6.451   7.751   2.657
 8709TIP3   OH226069   2.070   3.869   1.805
 8709TIP3    H126070   2.008   3.924   1.853
 8709TIP3    H226071   2.082   3.793   1.863
 8710TIP3   OH226072   5.438   4.239   5.620
 8710TIP3    H126073   5.374   4.232   5.549
 8710TIP3    H226074   5.451   4.148   5.649
 8711TIP3   OH226075   2.002   6.813   3.956
 8711TIP3    H126076   2.066   6.872   3.917
 8711TIP3    H226077   1.923   6.867   3.967
 8712TIP3   OH226078   0.903   1.460   5.433
 8712TIP3    H126079   0.883   1.518   5.506
 8712TIP3    H226080   0.855   1.380   5.452
 8713TIP3   OH226081   3.101   5.585   4.439
 8713TIP3    H126082   3.025   5.633   4.404
 8713TIP3    H226083   3.084   5.578   4.533
 8714TIP3   OH226084   1.315   0.762   3.460
 8714TIP3    H126085   1.269   0.734   3.540
 8714TIP3    H226086   1.390   0.811   3.493
 8715TIP3   OH226087   5.515   2.681   5.790
 8715TIP3    H126088   5.586   2.725   5.743
 8715TIP3    H226089   5.556   2.602   5.826
 8716TIP3   OH226090   0.657   4.752   5.051
 8716TIP3    H126091   0.662   4.714   5.138
 8716TIP3    H226092   0.563   4.760   5.033
 8717TIP3   OH226093   3.937   7.710   1.340
 8717TIP3    H126094   4.000   7.745   1.404
 8717TIP3    H226095   3.935   7.776   1.271
 8718TIP3   OH226096   8.121   0.504   1.587
 8718TIP3    H126097   8.186   0.527   1.520
 8718TIP3    H226098   8.086   0.420   1.559
 8719TIP3   OH226099   4.374   2.962   3.820
 8719TIP3    H126100   4.414   3.046   3.798
 8719TIP3    H226101   4.412   2.900   3.759
 8720TIP3   OH226102   0.122   7.642   5.983
 8720TIP3    H126103   0.053   7.650   5.917
 8720TIP3    H226104   0.162   7.557   5.966
 8721TIP3   OH226105   7.471   5.148   3.020
 8721TIP3    H126106   7.474   5.194   2.936
 8721TIP3    H226107   7.552   5.173   3.063
 8722TIP3   OH226108   0.151   4.120   0.148
 8722TIP3    H126109   0.088   4.085   0.212
 8722TIP3    H226110   0.098   4.147   0.074
 8723TIP3   OH226111   5.342   0.690   2.877
 8723TIP3    H126112   5.256   0.650   2.876
 8723TIP3    H226113   5.395   0.635   2.820
 8724TIP3   OH226114   0.969   5.333   5.294
 8724TIP3    H126115   1.040   5.331   5.359
 8724TIP3    H226116   0.889   5.337   5.346
 8725TIP3   OH226117   3.135   2.279   6.388
 8725TIP3    H126118   3.113   2.260   6.479
 8725TIP3    H226119   3.200   2.213   6.364
 8726TIP3   OH226120   0.717   2.764   3.622
 8726TIP3    H126121   0.773   2.731   3.692
 8726TIP3    H226122   0.691   2.851   3.651
 8727TIP3   OH226123   5.736   5.257   5.203
 8727TIP3    H126124   5.812   5.226   5.252
 8727TIP3    H226125   5.705   5.180   5.156
 8728TIP3   OH226126   7.193   5.702   4.560
 8728TIP3    H126127   7.133   5.695   4.485
 8728TIP3    H226128   7.180   5.791   4.592
 8729TIP3   OH226129   4.271   7.672  -0.040
 8729TIP3    H126130   4.208   7.640   0.024
 8729TIP3    H226131   4.356   7.666   0.005
 8730TIP3   OH226132   2.693   3.047   2.044
 8730TIP3    H126133   2.616   2.990   2.038
 8730TIP3    H226134   2.761   3.001   1.996
 8731TIP3   OH226135   2.670   3.179   3.534
 8731TIP3    H126136   2.677   3.131   3.616
 8731TIP3    H226137   2.715   3.123   3.470
 8732TIP3   OH226138   6.211   5.829   5.367
 8732TIP3    H126139   6.298   5.829   5.408
 8732TIP3    H226140   6.196   5.921   5.345
 8733TIP3   OH226141   7.930   1.534   1.606
 8733TIP3    H126142   7.878   1.605   1.568
 8733TIP3    H226143   8.018   1.570   1.616
 8734TIP3   OH226144   5.122   5.991   1.106
 8734TIP3    H126145   5.115   5.920   1.041
 8734TIP3    H226146   5.031   6.013   1.127
 8735TIP3   OH226147   3.680   0.939   3.304
 8735TIP3    H126148   3.608   0.981   3.352
 8735TIP3    H226149   3.696   0.857   3.351
 8736TIP3   OH226150   6.756   3.134   6.500
 8736TIP3    H126151   6.693   3.067   6.524
 8736TIP3    H226152   6.759   3.132   6.404
 8737TIP3   OH226153   7.474   5.994   4.509
 8737TIP3    H126154   7.517   6.017   4.592
 8737TIP3    H226155   7.385   6.028   4.518
 8738TIP3   OH226156   5.860   1.962   1.012
 8738TIP3    H126157   5.826   2.028   1.071
 8738TIP3    H226158   5.884   1.889   1.069
 8739TIP3   OH226159   7.210   2.162   4.009
 8739TIP3    H126160   7.190   2.227   3.941
 8739TIP3    H226161   7.305   2.167   4.018
 8740TIP3   OH226162   7.725   3.416   2.564
 8740TIP3    H126163   7.815   3.432   2.534
 8740TIP3    H226164   7.695   3.501   2.597
 8741TIP3   OH226165   0.396   0.803   6.382
 8741TIP3    H126166   0.484   0.779   6.409
 8741TIP3    H226167   0.387   0.768   6.293
 8742TIP3   OH226168   8.346   6.657   3.347
 8742TIP3    H126169   8.293   6.657   3.267
 8742TIP3    H226170   8.285   6.680   3.417
 8743TIP3   OH226171   3.814   6.118   3.766
 8743TIP3    H126172   3.877   6.176   3.809
 8743TIP3    H226173   3.869   6.055   3.719
 8744TIP3   OH226174   2.425   5.545   1.597
 8744TIP3    H126175   2.371   5.544   1.675
 8744TIP3    H226176   2.510   5.577   1.627
 8745TIP3   OH226177   0.277   0.973   6.003
 8745TIP3    H126178   0.236   1.057   6.026
 8745TIP3    H226179   0.337   0.994   5.932
 8746TIP3   OH226180   4.900   0.434   4.324
 8746TIP3    H126181   4.907   0.375   4.249
 8746TIP3    H226182   4.971   0.497   4.312
 8747TIP3   OH226183   3.963   1.430   4.466
 8747TIP3    H126184   4.012   1.373   4.526
 8747TIP3    H226185   3.871   1.405   4.481
 8748TIP3   OH226186   4.826   7.689   6.425
 8748TIP3    H126187   4.835   7.595   6.440
 8748TIP3    H226188   4.754   7.716   6.481
 8749TIP3   OH226189   3.901   3.006   6.636
 8749TIP3    H126190   3.816   2.979   6.599
 8749TIP3    H226191   3.948   2.924   6.650
 8750TIP3   OH226192   4.222   2.399   0.257
 8750TIP3    H126193   4.250   2.307   0.251
 8750TIP3    H226194   4.249   2.437   0.173
 8751TIP3   OH226195   2.649   1.355   4.355
 8751TIP3    H126196   2.661   1.315   4.269
 8751TIP3    H226197   2.640   1.448   4.338
 8752TIP3   OH226198   5.528   3.285   0.069
 8752TIP3    H126199   5.537   3.228  -0.008
 8752TIP3    H226200   5.439   3.269   0.100
 8753TIP3   OH226201   2.500   0.230   0.402
 8753TIP3    H126202   2.526   0.159   0.344
 8753TIP3    H226203   2.512   0.195   0.490
 8754TIP3   OH226204   2.927   0.983   0.762
 8754TIP3    H126205   2.969   0.898   0.750
 8754TIP3    H226206   2.970   1.040   0.698
 8755TIP3   OH226207   6.147   3.786   2.411
 8755TIP3    H126208   6.062   3.764   2.374
 8755TIP3    H226209   6.133   3.867   2.459
 8756TIP3   OH226210   3.255   0.985   3.341
 8756TIP3    H126211   3.172   0.992   3.293
 8756TIP3    H226212   3.297   0.907   3.303
 8757TIP3   OH226213   2.061   2.701   1.990
 8757TIP3    H126214   1.999   2.766   2.022
 8757TIP3    H226215   2.114   2.748   1.926
 8758TIP3   OH226216   1.951   3.811   5.207
 8758TIP3    H126217   2.028   3.755   5.211
 8758TIP3    H226218   1.895   3.769   5.142
 8759TIP3   OH226219   6.223   3.378   1.549
 8759TIP3    H126220   6.315   3.357   1.567
 8759TIP3    H226221   6.180   3.375   1.634
 8760TIP3   OH226222   3.220   0.324   3.375
 8760TIP3    H126223   3.286   0.291   3.436
 8760TIP3    H226224   3.193   0.246   3.325
 8761TIP3   OH226225   2.691   0.783   3.613
 8761TIP3    H126226   2.661   0.758   3.526
 8761TIP3    H226227   2.787   0.782   3.607
 8762TIP3   OH226228   7.742   1.019   5.777
 8762TIP3    H126229   7.766   1.061   5.694
 8762TIP3    H226230   7.817   0.965   5.800
 8763TIP3   OH226231   5.274   0.821   5.796
 8763TIP3    H126232   5.297   0.902   5.750
 8763TIP3    H226233   5.179   0.825   5.805
 8764TIP3   OH226234   7.162   5.957   2.876
 8764TIP3    H126235   7.188   6.047   2.894
 8764TIP3    H226236   7.241   5.916   2.840
 8765TIP3   OH226237   5.536   0.107   4.049
 8765TIP3    H126238   5.505   0.055   4.124
 8765TIP3    H226239   5.557   0.042   3.982
 8766TIP3   OH226240   1.605   0.102   5.978
 8766TIP3    H126241   1.535   0.049   5.941
 8766TIP3    H226242   1.593   0.096   6.072
 8767TIP3   OH226243   3.204   7.074   1.147
 8767TIP3    H126244   3.124   7.024   1.164
 8767TIP3    H226245   3.230   7.107   1.233
 8768TIP3   OH226246   1.450   7.218   5.124
 8768TIP3    H126247   1.450   7.294   5.182
 8768TIP3    H226248   1.474   7.253   5.039
 8769TIP3   OH226249   6.627   6.600   4.657
 8769TIP3    H126250   6.596   6.680   4.616
 8769TIP3    H226251   6.647   6.626   4.747
 8770TIP3   OH226252   7.987   7.262   3.666
 8770TIP3    H126253   8.005   7.177   3.704
 8770TIP3    H226254   7.925   7.304   3.726
 8771TIP3   OH226255   1.746   2.551   2.825
 8771TIP3    H126256   1.777   2.467   2.790
 8771TIP3    H226257   1.822   2.609   2.820
 8772TIP3   OH226258   5.262   6.058   1.669
 8772TIP3    H126259   5.282   6.005   1.591
 8772TIP3    H226260   5.179   6.023   1.701
 8773TIP3   OH226261   0.345   0.882   4.378
 8773TIP3    H126262   0.395   0.925   4.447
 8773TIP3    H226263   0.405   0.816   4.342
 8774TIP3   OH226264   3.731   7.512   4.940
 8774TIP3    H126265   3.793   7.484   5.007
 8774TIP3    H226266   3.663   7.445   4.940
 8775TIP3   OH226267   6.461   6.263   6.433
 8775TIP3    H126268   6.461   6.190   6.494
 8775TIP3    H226269   6.454   6.341   6.487
 8776TIP3   OH226270   7.779   1.037   3.246
 8776TIP3    H126271   7.856   1.094   3.255
 8776TIP3    H226272   7.813   0.949   3.262
 8777TIP3   OH226273   2.163   5.482   5.152
 8777TIP3    H126274   2.129   5.448   5.070
 8777TIP3    H226275   2.214   5.410   5.189
 8778TIP3   OH226276   2.164   6.284   0.188
 8778TIP3    H126277   2.237   6.255   0.134
 8778TIP3    H226278   2.160   6.220   0.259
 8779TIP3   OH226279   4.551   5.791   3.418
 8779TIP3    H126280   4.573   5.747   3.500
 8779TIP3    H226281   4.632   5.835   3.392
 8780TIP3   OH226282   5.888   5.600   3.402
 8780TIP3    H126283   5.913   5.527   3.459
 8780TIP3    H226284   5.833   5.656   3.457
 8781TIP3   OH226285   2.418   6.215   2.814
 8781TIP3    H126286   2.328   6.196   2.839
 8781TIP3    H226287   2.411   6.282   2.746
 8782TIP3   OH226288   4.163   7.305   6.552
 8782TIP3    H126289   4.251   7.333   6.580
 8782TIP3    H226290   4.178   7.227   6.500
 8783TIP3   OH226291   0.846   0.349   2.797
 8783TIP3    H126292   0.925   0.348   2.850
 8783TIP3    H226293   0.874   0.318   2.711
 8784TIP3   OH226294   0.372   6.056   2.436
 8784TIP3    H126295   0.285   6.090   2.415
 8784TIP3    H226296   0.427   6.134   2.442
 8785TIP3   OH226297   4.068   4.528   5.680
 8785TIP3    H126298   4.006   4.456   5.693
 8785TIP3    H226299   4.027   4.602   5.725
 8786TIP3   OH226300   5.130   3.961   6.293
 8786TIP3    H126301   5.165   3.988   6.208
 8786TIP3    H226302   5.038   3.941   6.276
 8787TIP3   OH226303   5.535   2.720   0.892
 8787TIP3    H126304   5.489   2.677   0.820
 8787TIP3    H226305   5.465   2.750   0.950
 8788TIP3   OH226306   5.240   7.776   3.958
 8788TIP3    H126307   5.197   7.832   4.023
 8788TIP3    H226308   5.271   7.701   4.008
 8789TIP3   OH226309   3.849   6.126   6.321
 8789TIP3    H126310   3.863   6.205   6.373
 8789TIP3    H226311   3.754   6.123   6.308
 8790TIP3   OH226312   2.894   2.732   6.100
 8790TIP3    H126313   2.935   2.650   6.129
 8790TIP3    H226314   2.899   2.729   6.004
 8791TIP3   OH226315   3.576   6.000   6.393
 8791TIP3    H126316   3.505   5.985   6.456
 8791TIP3    H226317   3.542   5.965   6.310
 8792TIP3   OH226318   6.614   3.731   2.005
 8792TIP3    H126319   6.620   3.697   2.094
 8792TIP3    H226320   6.629   3.655   1.948
 8793TIP3   OH226321   1.693   3.516   1.707
 8793TIP3    H126322   1.735   3.433   1.732
 8793TIP3    H226323   1.601   3.493   1.696
 8794TIP3   OH226324   0.360   7.484   0.347
 8794TIP3    H126325   0.437   7.474   0.291
 8794TIP3    H226326   0.357   7.403   0.398
 8795TIP3   OH226327   5.091   2.722   5.652
 8795TIP3    H126328   5.035   2.644   5.647
 8795TIP3    H226329   5.175   2.693   5.615
 8796TIP3   OH226330   2.573   2.815   6.374
 8796TIP3    H126331   2.517   2.745   6.341
 8796TIP3    H226332   2.640   2.827   6.306
 8797TIP3   OH226333   3.717   5.105   2.815
 8797TIP3    H126334   3.723   5.013   2.842
 8797TIP3    H226335   3.718   5.102   2.719
 8798TIP3   OH226336   7.991   1.252   3.558
 8798TIP3    H126337   7.921   1.248   3.623
 8798TIP3    H226338   8.049   1.179   3.580
 8799TIP3   OH226339   3.777   7.702   6.448
 8799TIP3    H126340   3.723   7.629   6.477
 8799TIP3    H226341   3.742   7.778   6.496
 8800TIP3   OH226342   2.390   3.920   0.511
 8800TIP3    H126343   2.310   3.951   0.467
 8800TIP3    H226344   2.361   3.898   0.600
 8801TIP3   OH226345   1.418   4.447   2.277
 8801TIP3    H126346   1.324   4.431   2.275
 8801TIP3    H226347   1.453   4.391   2.208
 8802TIP3   OH226348   0.662   2.358   5.903
 8802TIP3    H126349   0.590   2.308   5.866
 8802TIP3    H226350   0.642   2.361   5.997
 8803TIP3   OH226351   2.318   1.646   2.867
 8803TIP3    H126352   2.365   1.586   2.926
 8803TIP3    H226353   2.363   1.636   2.783
 8804TIP3   OH226354   8.251   4.683  -0.005
 8804TIP3    H126355   8.265   4.695   0.089
 8804TIP3    H226356   8.198   4.603  -0.012
 8805TIP3   OH226357   5.272   3.787   4.928
 8805TIP3    H126358   5.231   3.789   4.842
 8805TIP3    H226359   5.264   3.876   4.961
 8806TIP3   OH226360   4.054   7.686   2.824
 8806TIP3    H126361   4.146   7.681   2.797
 8806TIP3    H226362   4.016   7.751   2.766
 8807TIP3   OH226363   5.875   1.309   1.223
 8807TIP3    H126364   5.908   1.374   1.286
 8807TIP3    H226365   5.930   1.320   1.145
 8808TIP3   OH226366   4.936   1.795   0.070
 8808TIP3    H126367   5.008   1.855   0.086
 8808TIP3    H226368   4.864   1.851   0.040
 8809TIP3   OH226369   1.891   1.132   4.889
 8809TIP3    H126370   1.796   1.125   4.886
 8809TIP3    H226371   1.909   1.226   4.890
 8810TIP3   OH226372   7.108   7.346   5.171
 8810TIP3    H126373   7.060   7.290   5.231
 8810TIP3    H226374   7.067   7.432   5.179
 8811TIP3   OH226375   1.302   4.681   1.115
 8811TIP3    H126376   1.344   4.754   1.069
 8811TIP3    H226377   1.213   4.679   1.080
 8812TIP3   OH226378   1.358   7.248   6.097
 8812TIP3    H126379   1.328   7.307   6.166
 8812TIP3    H226380   1.331   7.291   6.015
 8813TIP3   OH226381   2.579   3.671   3.733
 8813TIP3    H126382   2.507   3.701   3.788
 8813TIP3    H226383   2.568   3.718   3.650
 8814TIP3   OH226384   8.121   4.313   5.204
 8814TIP3    H126385   8.171   4.392   5.187
 8814TIP3    H226386   8.161   4.275   5.282
 8815TIP3   OH226387   6.461   5.374   3.846
 8815TIP3    H126388   6.385   5.358   3.790
 8815TIP3    H226389   6.425   5.417   3.923
 8816TIP3   OH226390   2.458   7.119   6.192
 8816TIP3    H126391   2.477   7.106   6.285
 8816TIP3    H226392   2.530   7.175   6.161
 8817TIP3   OH226393   4.285   6.245   3.798
 8817TIP3    H126394   4.247   6.163   3.765
 8817TIP3    H226395   4.373   6.248   3.762
 8818TIP3   OH226396   4.176   0.511   6.601
 8818TIP3    H126397   4.227   0.467   6.533
 8818TIP3    H226398   4.110   0.446   6.626
 8819TIP3   OH226399   5.028   1.585   6.002
 8819TIP3    H126400   4.995   1.510   5.953
 8819TIP3    H226401   4.980   1.660   5.966
 8820TIP3   OH226402   3.794   0.185   0.760
 8820TIP3    H126403   3.720   0.245   0.754
 8820TIP3    H226404   3.769   0.122   0.828
 8821TIP3   OH226405   6.458   6.475   6.079
 8821TIP3    H126406   6.526   6.537   6.053
 8821TIP3    H226407   6.415   6.517   6.154
 8822TIP3   OH226408   3.283   3.129   2.355
 8822TIP3    H126409   3.372   3.156   2.378
 8822TIP3    H226410   3.295   3.052   2.299
 8823TIP3   OH226411   7.101   0.914   2.321
 8823TIP3    H126412   7.115   0.820   2.308
 8823TIP3    H226413   7.143   0.956   2.246
 8824TIP3   OH226414   2.224   4.106   6.330
 8824TIP3    H126415   2.156   4.121   6.395
 8824TIP3    H226416   2.306   4.120   6.377
 8825TIP3   OH226417   7.274   2.411   0.619
 8825TIP3    H126418   7.292   2.451   0.533
 8825TIP3    H226419   7.295   2.318   0.607
 8826TIP3   OH226420   4.539   2.099   4.487
 8826TIP3    H126421   4.517   2.192   4.481
 8826TIP3    H226422   4.549   2.071   4.396
 8827TIP3   OH226423   4.711   1.235   3.290
 8827TIP3    H126424   4.618   1.239   3.269
 8827TIP3    H226425   4.732   1.142   3.289
 8828TIP3   OH226426   1.715   5.020   6.752
 8828TIP3    H126427   1.675   5.081   6.691
 8828TIP3    H226428   1.747   4.949   6.696
 8829TIP3   OH226429   6.128   4.656   1.787
 8829TIP3    H126430   6.144   4.730   1.730
 8829TIP3    H226431   6.188   4.588   1.756
 8830TIP3   OH226432   1.203   6.847   5.132
 8830TIP3    H126433   1.144   6.775   5.113
 8830TIP3    H226434   1.196   6.860   5.227
 8831TIP3   OH226435   6.954   2.290   3.601
 8831TIP3    H126436   7.030   2.243   3.636
 8831TIP3    H226437   6.973   2.382   3.620
 8832TIP3   OH226438   6.734   6.291   5.032
 8832TIP3    H126439   6.767   6.372   5.070
 8832TIP3    H226440   6.802   6.226   5.050
 8833TIP3   OH226441   7.736   4.914   3.887
 8833TIP3    H126442   7.736   4.920   3.983
 8833TIP3    H226443   7.828   4.926   3.863
 8834TIP3   OH226444   7.072   1.648   3.116
 8834TIP3    H126445   7.110   1.726   3.076
 8834TIP3    H226446   7.024   1.681   3.192
 8835TIP3   OH226447   0.367   1.864   3.378
 8835TIP3    H126448   0.320   1.941   3.346
 8835TIP3    H226449   0.433   1.847   3.311
 8836TIP3   OH226450   3.927   6.645   3.662
 8836TIP3    H126451   3.833   6.634   3.653
 8836TIP3    H226452   3.964   6.559   3.642
 8837TIP3   OH226453   2.378   2.918   1.062
 8837TIP3    H126454   2.316   2.935   1.133
 8837TIP3    H226455   2.331   2.861   1.001
 8838TIP3   OH226456   2.978   5.284   6.501
 8838TIP3    H126457   3.024   5.205   6.526
 8838TIP3    H226458   3.029   5.355   6.540
 8839TIP3   OH226459   5.468   2.295   3.600
 8839TIP3    H126460   5.459   2.338   3.685
 8839TIP3    H226461   5.542   2.340   3.559
 8840TIP3   OH226462   2.427   3.226   0.158
 8840TIP3    H126463   2.477   3.179   0.092
 8840TIP3    H226464   2.479   3.218   0.238
 8841TIP3   OH226465   5.061   2.479   6.632
 8841TIP3    H126466   5.069   2.403   6.690
 8841TIP3    H226467   4.988   2.530   6.669
 8842TIP3   OH226468   6.410   1.001   5.667
 8842TIP3    H126469   6.471   1.025   5.597
 8842TIP3    H226470   6.420   1.070   5.732
 8843TIP3   OH226471   7.213   1.358   3.885
 8843TIP3    H126472   7.208   1.380   3.978
 8843TIP3    H226473   7.224   1.442   3.841
 8844TIP3   OH226474   7.863   1.596   4.896
 8844TIP3    H126475   7.894   1.520   4.847
 8844TIP3    H226476   7.824   1.653   4.830
 8845TIP3   OH226477   3.580   2.291   6.314
 8845TIP3    H126478   3.639   2.340   6.258
 8845TIP3    H226479   3.630   2.213   6.340
 8846TIP3   OH226480   4.354   3.789   6.734
 8846TIP3    H126481   4.363   3.849   6.660
 8846TIP3    H226482   4.391   3.837   6.808
 8847TIP3   OH226483   7.517   2.095   6.402
 8847TIP3    H126484   7.457   2.137   6.464
 8847TIP3    H226485   7.544   2.015   6.447
 8848TIP3   OH226486   5.011   1.719   4.736
 8848TIP3    H126487   4.934   1.736   4.681
 8848TIP3    H226488   5.028   1.625   4.724
 8849TIP3   OH226489   2.111   1.174   1.915
 8849TIP3    H126490   2.199   1.159   1.950
 8849TIP3    H226491   2.060   1.205   1.990
 8850TIP3   OH226492   1.177   3.744   1.091
 8850TIP3    H126493   1.263   3.784   1.078
 8850TIP3    H226494   1.197   3.654   1.118
 8851TIP3   OH226495   5.503   1.342   0.645
 8851TIP3    H126496   5.436   1.314   0.708
 8851TIP3    H226497   5.543   1.418   0.685
 8852TIP3   OH226498   4.925   3.146   5.065
 8852TIP3    H126499   4.834   3.143   5.036
 8852TIP3    H226500   4.934   3.232   5.107
 8853TIP3   OH226501   6.253   1.517   6.401
 8853TIP3    H126502   6.271   1.536   6.309
 8853TIP3    H226503   6.179   1.456   6.399
 8854TIP3   OH226504   3.729   1.704   3.367
 8854TIP3    H126505   3.758   1.758   3.294
 8854TIP3    H226506   3.794   1.634   3.373
 8855TIP3   OH226507   2.587   7.627   1.020
 8855TIP3    H126508   2.628   7.691   1.078
 8855TIP3    H226509   2.658   7.598   0.962
 8856TIP3   OH226510   3.198   4.544   4.246
 8856TIP3    H126511   3.224   4.599   4.173
 8856TIP3    H226512   3.153   4.602   4.306
 8857TIP3   OH226513   3.654   2.700   1.051
 8857TIP3    H126514   3.641   2.786   1.011
 8857TIP3    H226515   3.664   2.640   0.978
 8858TIP3   OH226516   6.284   3.898   1.441
 8858TIP3    H126517   6.236   3.822   1.473
 8858TIP3    H226518   6.329   3.932   1.518
 8859TIP3   OH226519   0.793   3.422   5.767
 8859TIP3    H126520   0.793   3.499   5.825
 8859TIP3    H226521   0.702   3.412   5.740
 8860TIP3   OH226522   4.280   4.527   5.933
 8860TIP3    H126523   4.282   4.466   6.006
 8860TIP3    H226524   4.219   4.489   5.870
 8861TIP3   OH226525   4.900   3.827   4.186
 8861TIP3    H126526   4.890   3.794   4.275
 8861TIP3    H226527   4.812   3.825   4.149
 8862TIP3   OH226528   4.691   0.828   3.564
 8862TIP3    H126529   4.667   0.845   3.655
 8862TIP3    H226530   4.785   0.812   3.566
 8863TIP3   OH226531   2.090   0.052   5.362
 8863TIP3    H126532   2.077   0.124   5.300
 8863TIP3    H226533   2.185   0.044   5.370
 8864TIP3   OH226534   4.913   4.487   0.634
 8864TIP3    H126535   4.853   4.556   0.606
 8864TIP3    H226536   4.866   4.440   0.702
 8865TIP3   OH226537   1.610   5.924   5.173
 8865TIP3    H126538   1.555   5.910   5.250
 8865TIP3    H226539   1.614   6.019   5.163
 8866TIP3   OH226540   8.212   6.132   3.036
 8866TIP3    H126541   8.159   6.165   3.108
 8866TIP3    H226542   8.278   6.200   3.022
 8867TIP3   OH226543   2.483   2.235   5.397
 8867TIP3    H126544   2.474   2.288   5.477
 8867TIP3    H226545   2.576   2.212   5.395
 8868TIP3   OH226546   0.173   5.201   1.172
 8868TIP3    H126547   0.169   5.168   1.262
 8868TIP3    H226548   0.265   5.189   1.147
 8869TIP3   OH226549   2.174   3.850   4.409
 8869TIP3    H126550   2.253   3.827   4.360
 8869TIP3    H226551   2.203   3.863   4.499
 8870TIP3   OH226552   0.011   7.767   6.437
 8870TIP3    H126553  -0.052   7.696   6.446
 8870TIP3    H226554   0.027   7.774   6.343
 8871TIP3   OH226555   5.256   1.759   6.052
 8871TIP3    H126556   5.257   1.828   5.986
 8871TIP3    H226557   5.165   1.732   6.059
 8872TIP3   OH226558   6.880   4.492   1.130
 8872TIP3    H126559   6.907   4.458   1.044
 8872TIP3    H226560   6.847   4.415   1.176
 8873TIP3   OH226561   4.124   3.885   1.226
 8873TIP3    H126562   4.051   3.859   1.281
 8873TIP3    H226563   4.184   3.931   1.286
 8874TIP3   OH226564   1.715   2.325   5.660
 8874TIP3    H126565   1.808   2.331   5.635
 8874TIP3    H226566   1.686   2.416   5.667
 8875TIP3   OH226567   6.204   5.086   2.745
 8875TIP3    H126568   6.143   5.141   2.697
 8875TIP3    H226569   6.230   5.018   2.683
 8876TIP3   OH226570   5.314   6.877   0.578
 8876TIP3    H126571   5.252   6.842   0.514
 8876TIP3    H226572   5.308   6.972   0.567
 8877TIP3   OH226573   1.320   3.928   3.703
 8877TIP3    H126574   1.316   4.023   3.704
 8877TIP3    H226575   1.403   3.907   3.746
 8878TIP3   OH226576   5.758   2.133   1.826
 8878TIP3    H126577   5.684   2.178   1.867
 8878TIP3    H226578   5.721   2.052   1.791
 8879TIP3   OH226579   4.556   7.577   4.930
 8879TIP3    H126580   4.553   7.496   4.981
 8879TIP3    H226581   4.636   7.621   4.959
 8880TIP3   OH226582   0.360   1.785   0.345
 8880TIP3    H126583   0.276   1.747   0.320
 8880TIP3    H226584   0.369   1.765   0.438
 8881TIP3   OH226585   4.115   7.503   3.455
 8881TIP3    H126586   4.033   7.484   3.501
 8881TIP3    H226587   4.088   7.546   3.374
 8882TIP3   OH226588   3.522   0.367   2.979
 8882TIP3    H126589   3.514   0.447   2.928
 8882TIP3    H226590   3.436   0.327   2.975
 8883TIP3   OH226591   1.312   4.697   1.389
 8883TIP3    H126592   1.320   4.682   1.295
 8883TIP3    H226593   1.398   4.729   1.416
 8884TIP3   OH226594   4.147   0.794   5.188
 8884TIP3    H126595   4.077   0.859   5.179
 8884TIP3    H226596   4.148   0.749   5.104
 8885TIP3   OH226597   8.279   2.482   0.162
 8885TIP3    H126598   8.214   2.495   0.093
 8885TIP3    H226599   8.361   2.511   0.125
 8886TIP3   OH226600   4.594   5.275   2.195
 8886TIP3    H126601   4.656   5.267   2.123
 8886TIP3    H226602   4.563   5.365   2.191
 8887TIP3   OH226603   3.028   0.135   3.755
 8887TIP3    H126604   2.937   0.129   3.728
 8887TIP3    H226605   3.025   0.151   3.849
 8888TIP3   OH226606   1.701   0.286   1.337
 8888TIP3    H126607   1.732   0.271   1.426
 8888TIP3    H226608   1.725   0.206   1.290
 8889TIP3   OH226609   1.646   0.478   0.354
 8889TIP3    H126610   1.721   0.418   0.357
 8889TIP3    H226611   1.586   0.443   0.420
 8890TIP3   OH226612   8.216   3.417   5.592
 8890TIP3    H126613   8.146   3.366   5.634
 8890TIP3    H226614   8.234   3.370   5.510
 8891TIP3   OH226615   2.432   0.374   2.443
 8891TIP3    H126616   2.493   0.303   2.421
 8891TIP3    H226617   2.479   0.428   2.506
 8892TIP3   OH226618   3.823   7.319   3.545
 8892TIP3    H126619   3.883   7.249   3.573
 8892TIP3    H226620   3.777   7.283   3.470
 8893TIP3   OH226621   3.290   5.281   0.647
 8893TIP3    H126622   3.302   5.194   0.610
 8893TIP3    H226623   3.375   5.324   0.635
 8894TIP3   OH226624   4.709   7.051   4.133
 8894TIP3    H126625   4.659   6.983   4.087
 8894TIP3    H226626   4.654   7.074   4.209
 8895TIP3   OH226627   3.909   4.198   0.575
 8895TIP3    H126628   3.819   4.225   0.559
 8895TIP3    H226629   3.962   4.271   0.544
 8896TIP3   OH226630   7.645   1.870   3.094
 8896TIP3    H126631   7.621   1.832   3.179
 8896TIP3    H226632   7.659   1.963   3.112
 8897TIP3   OH226633   6.682   2.681   4.660
 8897TIP3    H126634   6.702   2.770   4.631
 8897TIP3    H226635   6.592   2.685   4.691
 8898TIP3   OH226636   4.496   0.894   0.070
 8898TIP3    H126637   4.467   0.981   0.099
 8898TIP3    H226638   4.563   0.912   0.004
 8899TIP3   OH226639   3.967   3.958   2.468
 8899TIP3    H126640   3.897   3.937   2.407
 8899TIP3    H226641   4.047   3.945   2.418
 8900TIP3   OH226642   2.404   4.913   6.141
 8900TIP3    H126643   2.392   4.867   6.224
 8900TIP3    H226644   2.367   4.853   6.076
 8901TIP3   OH226645   1.230   6.703   4.312
 8901TIP3    H126646   1.285   6.774   4.343
 8901TIP3    H226647   1.154   6.747   4.274
 8902TIP3   OH226648   2.266   2.015   4.102
 8902TIP3    H126649   2.347   2.061   4.077
 8902TIP3    H226650   2.282   1.924   4.077
 8903TIP3   OH226651   1.980   1.977   5.158
 8903TIP3    H126652   2.067   1.949   5.188
 8903TIP3    H226653   1.919   1.926   5.210
 8904TIP3   OH226654   1.083   7.614   2.091
 8904TIP3    H126655   1.065   7.683   2.027
 8904TIP3    H226656   1.176   7.594   2.079
 8905TIP3   OH226657   3.716   6.897   1.234
 8905TIP3    H126658   3.722   6.939   1.319
 8905TIP3    H226659   3.626   6.866   1.228
 8906TIP3   OH226660   2.842   5.098   0.654
 8906TIP3    H126661   2.915   5.146   0.691
 8906TIP3    H226662   2.789   5.071   0.729
 8907TIP3   OH226663   2.572   1.677   6.211
 8907TIP3    H126664   2.507   1.637   6.153
 8907TIP3    H226665   2.540   1.657   6.299
 8908TIP3   OH226666   0.623   5.187   0.693
 8908TIP3    H126667   0.583   5.101   0.711
 8908TIP3    H226668   0.634   5.189   0.598
 8909TIP3   OH226669   6.387   2.469   0.445
 8909TIP3    H126670   6.389   2.448   0.538
 8909TIP3    H226671   6.336   2.397   0.406
 8910TIP3   OH226672   3.459   5.674   6.266
 8910TIP3    H126673   3.486   5.761   6.239
 8910TIP3    H226674   3.512   5.656   6.344
 8911TIP3   OH226675   7.989   4.451   3.944
 8911TIP3    H126676   7.949   4.531   3.912
 8911TIP3    H226677   7.959   4.442   4.034
 8912TIP3   OH226678   4.588   7.679   4.058
 8912TIP3    H126679   4.576   7.589   4.028
 8912TIP3    H226680   4.673   7.705   4.023
 8913TIP3   OH226681   7.052   2.546   4.737
 8913TIP3    H126682   7.139   2.513   4.716
 8913TIP3    H226683   7.015   2.481   4.797
 8914TIP3   OH226684   0.676   6.196   3.247
 8914TIP3    H126685   0.738   6.260   3.213
 8914TIP3    H226686   0.599   6.247   3.271
 8915TIP3   OH226687   3.348   3.303   2.603
 8915TIP3    H126688   3.309   3.340   2.524
 8915TIP3    H226689   3.400   3.229   2.572
 8916TIP3   OH226690   0.195   7.425   6.401
 8916TIP3    H126691   0.239   7.490   6.456
 8916TIP3    H226692   0.265   7.364   6.375
 8917TIP3   OH226693   7.014   6.711   6.071
 8917TIP3    H126694   6.969   6.709   5.987
 8917TIP3    H226695   7.106   6.695   6.050
 8918TIP3   OH226696   2.367   1.263   1.395
 8918TIP3    H126697   2.281   1.292   1.365
 8918TIP3    H226698   2.410   1.228   1.317
 8919TIP3   OH226699   0.791   6.145   1.044
 8919TIP3    H126700   0.848   6.178   1.115
 8919TIP3    H226701   0.739   6.221   1.018
 8920TIP3   OH226702   0.325   1.649   5.544
 8920TIP3    H126703   0.277   1.571   5.517
 8920TIP3    H226704   0.355   1.689   5.463
 8921TIP3   OH226705   5.986   4.031   4.872
 8921TIP3    H126706   6.012   4.037   4.780
 8921TIP3    H226707   6.035   3.956   4.906
 8922TIP3   OH226708   0.451   0.074   4.816
 8922TIP3    H126709   0.445   0.084   4.721
 8922TIP3    H226710   0.360   0.063   4.844
 8923TIP3   OH226711   0.867   6.842   0.829
 8923TIP3    H126712   0.885   6.817   0.738
 8923TIP3    H226713   0.774   6.820   0.842
 8924TIP3   OH226714   2.818   6.147   2.671
 8924TIP3    H126715   2.785   6.080   2.730
 8924TIP3    H226716   2.832   6.224   2.727
 8925TIP3   OH226717   2.110   2.085   3.695
 8925TIP3    H126718   2.046   2.147   3.729
 8925TIP3    H226719   2.159   2.057   3.773
 8926TIP3   OH226720   7.261   6.285   0.521
 8926TIP3    H126721   7.215   6.216   0.569
 8926TIP3    H226722   7.346   6.245   0.498
 8927TIP3   OH226723   4.441   6.185   0.646
 8927TIP3    H126724   4.517   6.236   0.616
 8927TIP3    H226725   4.412   6.137   0.569
 8928TIP3   OH226726   4.877   3.200   0.375
 8928TIP3    H126727   4.871   3.190   0.280
 8928TIP3    H226728   4.956   3.152   0.400
 8929TIP3   OH226729   3.477   2.108   0.756
 8929TIP3    H126730   3.409   2.127   0.692
 8929TIP3    H226731   3.550   2.073   0.703
 8930TIP3   OH226732   1.640   7.186   1.064
 8930TIP3    H126733   1.708   7.134   1.106
 8930TIP3    H226734   1.604   7.240   1.134
 8931TIP3   OH226735   4.774   3.929   2.532
 8931TIP3    H126736   4.864   3.916   2.505
 8931TIP3    H226737   4.727   3.851   2.501
 8932TIP3   OH226738   4.375   1.002   2.066
 8932TIP3    H126739   4.353   1.015   2.159
 8932TIP3    H226740   4.443   1.067   2.049
 8933TIP3   OH226741   6.622   4.715   1.287
 8933TIP3    H126742   6.544   4.698   1.339
 8933TIP3    H226743   6.602   4.676   1.202
 8934TIP3   OH226744   1.234   3.730   2.298
 8934TIP3    H126745   1.322   3.748   2.265
 8934TIP3    H226746   1.241   3.740   2.393
 8935TIP3   OH226747   0.235   5.019   2.838
 8935TIP3    H126748   0.275   5.000   2.922
 8935TIP3    H226749   0.220   4.933   2.799
 8936TIP3   OH226750   8.161   4.061   0.845
 8936TIP3    H126751   8.141   3.971   0.819
 8936TIP3    H226752   8.255   4.070   0.833
 8937TIP3   OH226753   7.846   5.584   5.335
 8937TIP3    H126754   7.924   5.630   5.366
 8937TIP3    H226755   7.879   5.522   5.270
 8938TIP3   OH226756   6.811   0.312   6.335
 8938TIP3    H126757   6.782   0.296   6.245
 8938TIP3    H226758   6.741   0.365   6.374
 8939TIP3   OH226759   7.617   3.454   1.423
 8939TIP3    H126760   7.669   3.374   1.433
 8939TIP3    H226761   7.546   3.429   1.364
 8940TIP3   OH226762   8.061   4.351   4.473
 8940TIP3    H126763   8.061   4.309   4.559
 8940TIP3    H226764   7.972   4.387   4.464
 8941TIP3   OH226765   3.654   0.088   6.482
 8941TIP3    H126766   3.685   0.015   6.428
 8941TIP3    H226767   3.734   0.124   6.521
 8942TIP3   OH226768   3.344   0.124   2.914
 8942TIP3    H126769   3.299   0.059   2.968
 8942TIP3    H226770   3.357   0.080   2.830
 8943TIP3   OH226771   6.435   2.056   0.419
 8943TIP3    H126772   6.393   1.979   0.381
 8943TIP3    H226773   6.500   2.082   0.355
 8944TIP3   OH226774   1.470   2.889   0.595
 8944TIP3    H126775   1.495   2.865   0.684
 8944TIP3    H226776   1.411   2.819   0.567
 8945TIP3   OH226777   0.255   7.133   5.919
 8945TIP3    H126778   0.230   7.085   5.840
 8945TIP3    H226779   0.295   7.068   5.975
 8946TIP3   OH226780   1.257   3.300   1.510
 8946TIP3    H126781   1.176   3.314   1.460
 8946TIP3    H226782   1.243   3.215   1.553
 8947TIP3   OH226783   6.532   3.388   1.951
 8947TIP3    H126784   6.607   3.330   1.969
 8947TIP3    H226785   6.562   3.444   1.880
 8948TIP3   OH226786   2.797   2.089   5.565
 8948TIP3    H126787   2.886   2.056   5.549
 8948TIP3    H226788   2.741   2.012   5.558
 8949TIP3   OH226789   4.917   1.629   2.162
 8949TIP3    H126790   4.999   1.581   2.177
 8949TIP3    H226791   4.880   1.589   2.083
 8950TIP3   OH226792   0.160   1.588   4.148
 8950TIP3    H126793   0.107   1.569   4.225
 8950TIP3    H226794   0.099   1.577   4.074
 8951TIP3   OH226795   0.328   1.740   2.960
 8951TIP3    H126796   0.423   1.754   2.958
 8951TIP3    H226797   0.315   1.680   3.033
 8952TIP3   OH226798   0.377   6.281   5.457
 8952TIP3    H126799   0.330   6.364   5.464
 8952TIP3    H226800   0.312   6.220   5.422
 8953TIP3   OH226801   0.289   2.163   3.328
 8953TIP3    H126802   0.309   2.098   3.259
 8953TIP3    H226803   0.310   2.247   3.288
 8954TIP3   OH226804   1.251   6.366   1.393
 8954TIP3    H126805   1.342   6.351   1.418
 8954TIP3    H226806   1.253   6.444   1.337
 8955TIP3   OH226807   3.305   3.904   2.810
 8955TIP3    H126808   3.325   3.969   2.743
 8955TIP3    H226809   3.300   3.821   2.763
 8956TIP3   OH226810   3.387   6.950   3.882
 8956TIP3    H126811   3.479   6.970   3.869
 8956TIP3    H226812   3.350   6.949   3.794
 8957TIP3   OH226813   2.433   6.005   5.757
 8957TIP3    H126814   2.525   5.978   5.759
 8957TIP3    H226815   2.386   5.937   5.805
 8958TIP3   OH226816   6.052   1.495   5.163
 8958TIP3    H126817   6.041   1.402   5.182
 8958TIP3    H226818   6.129   1.521   5.214
 8959TIP3   OH226819   6.127   3.721   0.644
 8959TIP3    H126820   6.139   3.630   0.616
 8959TIP3    H226821   6.039   3.743   0.612
 8960TIP3   OH226822   6.722   6.896   0.443
 8960TIP3    H126823   6.647   6.837   0.453
 8960TIP3    H226824   6.685   6.977   0.408
 8961TIP3   OH226825   3.154   6.104   1.330
 8961TIP3    H126826   3.193   6.062   1.253
 8961TIP3    H226827   3.185   6.194   1.328
 8962TIP3   OH226828   5.924   6.867   6.485
 8962TIP3    H126829   5.874   6.943   6.455
 8962TIP3    H226830   5.974   6.839   6.408
 8963TIP3   OH226831   6.097   2.579   4.725
 8963TIP3    H126832   6.129   2.607   4.639
 8963TIP3    H226833   6.091   2.660   4.776
 8964TIP3   OH226834   1.754   7.560   1.964
 8964TIP3    H126835   1.843   7.535   1.989
 8964TIP3    H226836   1.767   7.621   1.891
 8965TIP3   OH226837   7.885   7.583   1.768
 8965TIP3    H126838   7.795   7.577   1.799
 8965TIP3    H226839   7.882   7.555   1.677
 8966TIP3   OH226840   1.384   6.127   2.105
 8966TIP3    H126841   1.436   6.205   2.124
 8966TIP3    H226842   1.312   6.159   2.050
 8967TIP3   OH226843   7.263   1.855   1.624
 8967TIP3    H126844   7.275   1.838   1.531
 8967TIP3    H226845   7.333   1.917   1.647
 8968TIP3   OH226846   2.350   0.253   6.290
 8968TIP3    H126847   2.434   0.274   6.249
 8968TIP3    H226848   2.285   0.273   6.223
 8969TIP3   OH226849   7.994   3.807   4.955
 8969TIP3    H126850   7.910   3.787   4.998
 8969TIP3    H226851   8.058   3.752   5.000
 8970TIP3   OH226852   7.149   6.599   2.479
 8970TIP3    H126853   7.118   6.528   2.422
 8970TIP3    H226854   7.223   6.562   2.527
 8971TIP3   OH226855   4.264   7.050   3.431
 8971TIP3    H126856   4.289   7.091   3.514
 8971TIP3    H226857   4.317   7.096   3.366
 8972TIP3   OH226858   2.589   0.261   4.148
 8972TIP3    H126859   2.641   0.183   4.167
 8972TIP3    H226860   2.639   0.308   4.082
 8973TIP3   OH226861   7.335   3.258   5.120
 8973TIP3    H126862   7.242   3.267   5.138
 8973TIP3    H226863   7.366   3.349   5.108
 8974TIP3   OH226864   5.775   3.734   3.947
 8974TIP3    H126865   5.746   3.652   3.907
 8974TIP3    H226866   5.704   3.757   4.008
 8975TIP3   OH226867   6.509   2.491   1.176
 8975TIP3    H126868   6.534   2.409   1.217
 8975TIP3    H226869   6.525   2.557   1.243
 8976TIP3   OH226870   2.586   2.954   1.262
 8976TIP3    H126871   2.511   2.967   1.204
 8976TIP3    H226872   2.562   2.999   1.343
 8977TIP3   OH226873   2.153   3.427   3.605
 8977TIP3    H126874   2.226   3.456   3.550
 8977TIP3    H226875   2.153   3.332   3.597
 8978TIP3   OH226876   7.061   3.586   1.337
 8978TIP3    H126877   6.984   3.595   1.281
 8978TIP3    H226878   7.094   3.498   1.319
 8979TIP3   OH226879   5.941   0.777   4.175
 8979TIP3    H126880   5.860   0.820   4.203
 8979TIP3    H226881   5.921   0.683   4.181
 8980TIP3   OH226882   0.903   4.312   0.801
 8980TIP3    H126883   0.899   4.273   0.713
 8980TIP3    H226884   0.882   4.404   0.787
 8981TIP3   OH226885   4.544   3.274   0.132
 8981TIP3    H126886   4.632   3.240   0.116
 8981TIP3    H226887   4.558   3.351   0.187
 8982TIP3   OH226888   4.041   3.426   6.546
 8982TIP3    H126889   4.048   3.420   6.642
 8982TIP3    H226890   4.108   3.489   6.521
 8983TIP3   OH226891   6.316   5.781   2.920
 8983TIP3    H126892   6.227   5.759   2.947
 8983TIP3    H226893   6.347   5.840   2.989
 8984TIP3   OH226894   1.169   3.517   2.144
 8984TIP3    H126895   1.115   3.442   2.169
 8984TIP3    H226896   1.173   3.571   2.223
 8985TIP3   OH226897   0.096   6.283   3.807
 8985TIP3    H126898   0.125   6.206   3.757
 8985TIP3    H226899   0.108   6.258   3.898
 8986TIP3   OH226900   3.787   0.574   0.813
 8986TIP3    H126901   3.752   0.656   0.778
 8986TIP3    H226902   3.818   0.527   0.736
 8987TIP3   OH226903   3.140   5.227   5.238
 8987TIP3    H126904   3.059   5.277   5.248
 8987TIP3    H226905   3.117   5.156   5.178
 8988TIP3   OH226906   1.015   3.574   5.319
 8988TIP3    H126907   0.957   3.531   5.382
 8988TIP3    H226908   0.980   3.549   5.233
 8989TIP3   OH226909   5.110   7.542   1.744
 8989TIP3    H126910   5.158   7.610   1.790
 8989TIP3    H226911   5.079   7.584   1.664
 8990TIP3   OH226912   4.055   2.142   6.324
 8990TIP3    H126913   4.086   2.207   6.387
 8990TIP3    H226914   4.131   2.086   6.308
 8991TIP3   OH226915   6.588   4.400   2.145
 8991TIP3    H126916   6.560   4.326   2.091
 8991TIP3    H226917   6.652   4.364   2.206
 8992TIP3   OH226918   2.596   5.039   6.431
 8992TIP3    H126919   2.647   4.991   6.365
 8992TIP3    H226920   2.650   5.115   6.452
 8993TIP3   OH226921   2.604   1.213   5.728
 8993TIP3    H126922   2.629   1.145   5.790
 8993TIP3    H226923   2.673   1.212   5.662
 8994TIP3   OH226924   0.657   6.881   2.033
 8994TIP3    H126925   0.742   6.887   1.990
 8994TIP3    H226926   0.653   6.959   2.089
 8995TIP3   OH226927   6.589   6.084   4.443
 8995TIP3    H126928   6.545   6.165   4.418
 8995TIP3    H226929   6.545   6.056   4.523
 8996TIP3   OH226930   2.614   2.698   6.633
 8996TIP3    H126931   2.620   2.736   6.545
 8996TIP3    H226932   2.520   2.684   6.646
 8997TIP3   OH226933   2.979   2.436   1.313
 8997TIP3    H126934   3.034   2.475   1.381
 8997TIP3    H226935   3.041   2.396   1.252
 8998TIP3   OH226936   1.354   1.443   5.070
 8998TIP3    H126937   1.348   1.510   5.003
 8998TIP3    H226938   1.344   1.360   5.023
 8999TIP3   OH226939   0.356   3.144   2.954
 8999TIP3    H126940   0.415   3.213   2.982
 8999TIP3    H226941   0.403   3.063   2.972
 9000TIP3   OH226942   5.185   3.135   5.262
 9000TIP3    H126943   5.113   3.117   5.323
 9000TIP3    H226944   5.175   3.228   5.240
 9001TIP3   OH226945   5.311   0.905   3.737
 9001TIP3    H126946   5.237   0.962   3.758
 9001TIP3    H226947   5.378   0.964   3.702
 9002TIP3   OH226948   1.601   1.139   1.738
 9002TIP3    H126949   1.679   1.178   1.700
 9002TIP3    H226950   1.585   1.190   1.818
 9003TIP3   OH226951   0.027   6.962   6.139
 9003TIP3    H126952  -0.040   6.894   6.132
 9003TIP3    H226953  -0.021   7.044   6.150
 9004TIP3   OH226954   3.433   0.981   1.392
 9004TIP3    H126955   3.446   1.036   1.315
 9004TIP3    H226956   3.517   0.982   1.437
 9005TIP3   OH226957   8.203   1.196   0.622
 9005TIP3    H126958   8.166   1.196   0.534
 9005TIP3    H226959   8.258   1.118   0.625
 9006TIP3   OH226960   5.562   6.519   5.831
 9006TIP3    H126961   5.611   6.437   5.818
 9006TIP3    H226962   5.498   6.498   5.898
 9007TIP3   OH226963   5.602   6.122   0.953
 9007TIP3    H126964   5.545   6.053   0.918
 9007TIP3    H226965   5.575   6.201   0.908
 9008TIP3   OH226966   2.385   5.613   0.257
 9008TIP3    H126967   2.472   5.586   0.287
 9008TIP3    H226968   2.363   5.550   0.189
 9009TIP3   OH226969   5.916   3.081   1.481
 9009TIP3    H126970   5.840   3.097   1.425
 9009TIP3    H226971   5.903   3.138   1.557
 9010TIP3   OH226972   6.530   1.331   2.220
 9010TIP3    H126973   6.527   1.424   2.241
 9010TIP3    H226974   6.552   1.288   2.303
 9011TIP3   OH226975   5.506   5.602   6.535
 9011TIP3    H126976   5.582   5.648   6.501
 9011TIP3    H226977   5.440   5.670   6.548
 9012TIP3   OH226978   5.662   6.795   3.630
 9012TIP3    H126979   5.746   6.817   3.672
 9012TIP3    H226980   5.599   6.856   3.669
 9013TIP3   OH226981   4.294   6.345   0.932
 9013TIP3    H126982   4.297   6.250   0.943
 9013TIP3    H226983   4.204   6.364   0.905
 9014TIP3   OH226984   7.166   2.053   4.667
 9014TIP3    H126985   7.097   1.988   4.675
 9014TIP3    H226986   7.234   2.022   4.727
 9015TIP3   OH226987   6.772   0.110   6.632
 9015TIP3    H126988   6.737   0.138   6.548
 9015TIP3    H226989   6.843   0.171   6.650
 9016TIP3   OH226990   0.501   4.047   4.701
 9016TIP3    H126991   0.423   4.005   4.737
 9016TIP3    H226992   0.514   4.004   4.616
 9017TIP3   OH226993   6.619   6.136   3.608
 9017TIP3    H126994   6.637   6.204   3.544
 9017TIP3    H226995   6.570   6.070   3.559
 9018TIP3   OH226996   5.070   3.461   5.735
 9018TIP3    H126997   5.064   3.384   5.791
 9018TIP3    H226998   4.979   3.491   5.726
 9019TIP3   OH226999   0.612   0.601   6.031
 9019TIP3    H127000   0.568   0.674   6.075
 9019TIP3    H227001   0.651   0.640   5.953
 9020TIP3   OH227002   3.817   3.056   0.201
 9020TIP3    H127003   3.893   3.055   0.259
 9020TIP3    H227004   3.819   2.971   0.157
 9021TIP3   OH227005   7.071   5.146   3.244
 9021TIP3    H127006   7.108   5.096   3.317
 9021TIP3    H227007   7.000   5.197   3.283
 9022TIP3   OH227008   6.510   7.270   0.264
 9022TIP3    H127009   6.429   7.320   0.261
 9022TIP3    H227010   6.505   7.211   0.189
 9023TIP3   OH227011   6.023   1.344   1.523
 9023TIP3    H127012   6.061   1.381   1.603
 9023TIP3    H227013   5.933   1.323   1.547
 9024TIP3   OH227014   5.813   5.989   1.511
 9024TIP3    H127015   5.893   6.032   1.542
 9024TIP3    H227016   5.750   6.003   1.581
 9025TIP3   OH227017   2.341   4.070   6.083
 9025TIP3    H127018   2.413   4.133   6.082
 9025TIP3    H227019   2.296   4.088   6.166
 9026TIP3   OH227020   6.923   1.728   3.334
 9026TIP3    H127021   6.887   1.661   3.392
 9026TIP3    H227022   6.924   1.808   3.387
 9027TIP3   OH227023   5.764   3.113   6.690
 9027TIP3    H127024   5.859   3.119   6.699
 9027TIP3    H227025   5.750   3.037   6.634
 9028TIP3   OH227026   5.605   4.247   4.583
 9028TIP3    H127027   5.548   4.315   4.546
 9028TIP3    H227028   5.682   4.294   4.614
 9029TIP3   OH227029   1.502   2.292   0.336
 9029TIP3    H127030   1.491   2.230   0.263
 9029TIP3    H227031   1.505   2.237   0.414
 9030TIP3   OH227032   8.202   4.206   5.440
 9030TIP3    H127033   8.122   4.229   5.488
 9030TIP3    H227034   8.198   4.111   5.431
 9031TIP3   OH227035   3.095   5.015   6.500
 9031TIP3    H127036   3.155   4.941   6.491
 9031TIP3    H227037   3.029   4.985   6.564
 9032TIP3   OH227038   4.810   3.617   5.341
 9032TIP3    H127039   4.767   3.693   5.381
 9032TIP3    H227040   4.879   3.656   5.286
 9033TIP3   OH227041   8.273   3.779   6.552
 9033TIP3    H127042   8.300   3.749   6.639
 9033TIP3    H227043   8.191   3.734   6.535
 9034TIP3   OH227044   5.510   0.610   2.668
 9034TIP3    H127045   5.557   0.618   2.585
 9034TIP3    H227046   5.558   0.665   2.729
 9035TIP3   OH227047   0.814   0.739   4.938
 9035TIP3    H127048   0.828   0.748   5.032
 9035TIP3    H227049   0.901   0.722   4.902
 9036TIP3   OH227050   0.742   6.808   4.994
 9036TIP3    H127051   0.809   6.842   4.935
 9036TIP3    H227052   0.719   6.722   4.958
 9037TIP3   OH227053   0.728   1.318   3.949
 9037TIP3    H127054   0.752   1.383   4.015
 9037TIP3    H227055   0.715   1.369   3.869
 9038TIP3   OH227056   6.446   6.686   1.397
 9038TIP3    H127057   6.538   6.712   1.389
 9038TIP3    H227058   6.397   6.759   1.361
 9039TIP3   OH227059   5.018   2.325   3.310
 9039TIP3    H127060   4.971   2.351   3.389
 9039TIP3    H227061   5.110   2.344   3.328
 9040TIP3   OH227062   3.690   4.673   6.210
 9040TIP3    H127063   3.646   4.691   6.126
 9040TIP3    H227064   3.778   4.644   6.185
 9041TIP3   OH227065   0.799   6.977   1.539
 9041TIP3    H127066   0.707   6.989   1.560
 9041TIP3    H227067   0.842   6.966   1.623
 9042TIP3   OH227068   5.127   1.750   3.192
 9042TIP3    H127069   5.108   1.839   3.223
 9042TIP3    H227070   5.222   1.741   3.202
 9043TIP3   OH227071   6.778   3.559   4.250
 9043TIP3    H127072   6.793   3.587   4.341
 9043TIP3    H227073   6.684   3.572   4.237
 9044TIP3   OH227074   1.109   4.384   1.352
 9044TIP3    H127075   1.082   4.297   1.380
 9044TIP3    H227076   1.095   4.439   1.429
 9045TIP3   OH227077   1.442   6.051   2.733
 9045TIP3    H127078   1.461   6.112   2.804
 9045TIP3    H227079   1.385   5.984   2.772
 9046TIP3   OH227080   6.736   2.140   5.492
 9046TIP3    H127081   6.747   2.131   5.587
 9046TIP3    H227082   6.823   2.163   5.461
 9047TIP3   OH227083   2.442   3.977   2.582
 9047TIP3    H127084   2.489   3.995   2.502
 9047TIP3    H227085   2.503   3.926   2.636
 9048TIP3   OH227086   4.968   2.159   5.968
 9048TIP3    H127087   4.942   2.196   6.052
 9048TIP3    H227088   4.885   2.146   5.921
 9049TIP3   OH227089   5.866   0.904   0.770
 9049TIP3    H127090   5.867   0.998   0.789
 9049TIP3    H227091   5.942   0.869   0.817
 9050TIP3   OH227092   7.364   4.824   5.904
 9050TIP3    H127093   7.420   4.902   5.909
 9050TIP3    H227094   7.313   4.827   5.985
 9051TIP3   OH227095   2.642   5.600   6.409
 9051TIP3    H127096   2.646   5.596   6.314
 9051TIP3    H227097   2.549   5.597   6.430
 9052TIP3   OH227098   4.290   7.534   6.195
 9052TIP3    H127099   4.345   7.456   6.196
 9052TIP3    H227100   4.201   7.501   6.184
 9053TIP3   OH227101   4.404   3.973   0.865
 9053TIP3    H127102   4.346   3.907   0.828
 9053TIP3    H227103   4.345   4.030   0.915
 9054TIP3   OH227104   7.849   7.345   3.271
 9054TIP3    H127105   7.905   7.343   3.349
 9054TIP3    H227106   7.896   7.293   3.206
 9055TIP3   OH227107   0.265   5.914   6.555
 9055TIP3    H127108   0.299   5.908   6.466
 9055TIP3    H227109   0.243   5.824   6.578
 9056TIP3   OH227110   4.584   4.407   5.992
 9056TIP3    H127111   4.504   4.385   6.040
 9056TIP3    H227112   4.561   4.486   5.943
 9057TIP3   OH227113   3.882   2.394   0.036
 9057TIP3    H127114   3.814   2.327   0.028
 9057TIP3    H227115   3.933   2.368   0.113
 9058TIP3   OH227116   6.594   5.761   3.987
 9058TIP3    H127117   6.584   5.836   4.046
 9058TIP3    H227118   6.511   5.714   3.994
 9059TIP3   OH227119   1.621   4.101   0.864
 9059TIP3    H127120   1.585   4.190   0.868
 9059TIP3    H227121   1.690   4.100   0.930
 9060TIP3   OH227122   7.307   4.977   4.051
 9060TIP3    H127123   7.223   4.947   4.018
 9060TIP3    H227124   7.342   5.032   3.980
 9061TIP3   OH227125   3.323   4.601   0.923
 9061TIP3    H127126   3.238   4.644   0.921
 9061TIP3    H227127   3.322   4.541   0.848
 9062TIP3   OH227128   3.874   4.192   1.951
 9062TIP3    H127129   3.905   4.241   1.875
 9062TIP3    H227130   3.852   4.258   2.016
 9063TIP3   OH227131   3.672   2.537   4.349
 9063TIP3    H127132   3.699   2.550   4.440
 9063TIP3    H227133   3.584   2.574   4.345
 9064TIP3   OH227134   6.991   4.495   2.453
 9064TIP3    H127135   7.040   4.572   2.422
 9064TIP3    H227136   7.057   4.428   2.467
 9065TIP3   OH227137   6.200   0.901   2.098
 9065TIP3    H127138   6.239   0.989   2.102
 9065TIP3    H227139   6.260   0.847   2.150
 9066TIP3   OH227140   0.599   4.852   0.555
 9066TIP3    H127141   0.680   4.885   0.594
 9066TIP3    H227142   0.531   4.878   0.617
 9067TIP3   OH227143   3.218   3.795   5.200
 9067TIP3    H127144   3.160   3.864   5.171
 9067TIP3    H227145   3.306   3.825   5.176
 9068TIP3   OH227146   4.606   6.536   4.738
 9068TIP3    H127147   4.539   6.475   4.770
 9068TIP3    H227148   4.622   6.508   4.648
 9069TIP3   OH227149   4.331   4.078   3.193
 9069TIP3    H127150   4.285   4.158   3.220
 9069TIP3    H227151   4.335   4.024   3.271
 9070TIP3   OH227152   2.816   7.173   0.714
 9070TIP3    H127153   2.858   7.087   0.711
 9070TIP3    H227154   2.769   7.179   0.631
 9071TIP3   OH227155   6.761   2.030   2.848
 9071TIP3    H127156   6.743   2.095   2.780
 9071TIP3    H227157   6.851   2.048   2.875
 9072TIP3   OH227158   1.322   4.237   3.750
 9072TIP3    H127159   1.396   4.208   3.803
 9072TIP3    H227160   1.352   4.320   3.712
 9073TIP3   OH227161   6.334   1.305   1.576
 9073TIP3    H127162   6.343   1.303   1.672
 9073TIP3    H227163   6.386   1.380   1.549
 9074TIP3   OH227164   5.667   0.389   6.268
 9074TIP3    H127165   5.658   0.299   6.237
 9074TIP3    H227166   5.762   0.403   6.276
 9075TIP3   OH227167   8.148   1.086   2.844
 9075TIP3    H127168   8.199   1.032   2.904
 9075TIP3    H227169   8.155   1.175   2.879
 9076TIP3   OH227170   0.272   0.551   5.919
 9076TIP3    H127171   0.343   0.521   5.977
 9076TIP3    H227172   0.250   0.475   5.866
 9077TIP3   OH227173   4.419   2.986   6.179
 9077TIP3    H127174   4.420   2.937   6.097
 9077TIP3    H227175   4.442   2.922   6.246
 9078TIP3   OH227176   6.788   4.638   3.285
 9078TIP3    H127177   6.766   4.556   3.241
 9078TIP3    H227178   6.811   4.611   3.374
 9079TIP3   OH227179   0.298   7.270   4.285
 9079TIP3    H127180   0.341   7.316   4.357
 9079TIP3    H227181   0.347   7.297   4.207
 9080TIP3   OH227182   1.113   5.806   0.310
 9080TIP3    H127183   1.156   5.832   0.392
 9080TIP3    H227184   1.036   5.863   0.304
 9081TIP3   OH227185   8.196   6.325   4.680
 9081TIP3    H127186   8.207   6.268   4.757
 9081TIP3    H227187   8.101   6.337   4.673
 9082TIP3   OH227188   0.796   4.005   3.149
 9082TIP3    H127189   0.730   4.072   3.166
 9082TIP3    H227190   0.850   4.042   3.079
 9083TIP3   OH227191   6.596   5.365   2.723
 9083TIP3    H127192   6.508   5.357   2.688
 9083TIP3    H227193   6.590   5.434   2.789
 9084TIP3   OH227194   0.563   2.766   5.860
 9084TIP3    H127195   0.489   2.707   5.847
 9084TIP3    H227196   0.549   2.803   5.947
 9085TIP3   OH227197   3.433   1.038   4.898
 9085TIP3    H127198   3.425   1.063   4.806
 9085TIP3    H227199   3.385   1.105   4.946
 9086TIP3   OH227200   1.736   4.949   1.686
 9086TIP3    H127201   1.782   4.965   1.604
 9086TIP3    H227202   1.746   5.030   1.736
 9087TIP3   OH227203   0.877   6.905   4.581
 9087TIP3    H127204   0.969   6.932   4.576
 9087TIP3    H227205   0.853   6.919   4.672
 9088TIP3   OH227206   5.722   1.627   1.393
 9088TIP3    H127207   5.797   1.685   1.378
 9088TIP3    H227208   5.646   1.679   1.365
 9089TIP3   OH227209   4.615   6.373   6.253
 9089TIP3    H127210   4.589   6.315   6.181
 9089TIP3    H227211   4.701   6.340   6.280
 9090TIP3   OH227212   4.783   7.628   4.612
 9090TIP3    H127213   4.852   7.690   4.636
 9090TIP3    H227214   4.731   7.674   4.546
 9091TIP3   OH227215   1.176   6.005   3.619
 9091TIP3    H127216   1.269   6.026   3.614
 9091TIP3    H227217   1.136   6.080   3.663
 9092TIP3   OH227218   2.745   3.898   2.902
 9092TIP3    H127219   2.790   3.870   2.823
 9092TIP3    H227220   2.814   3.915   2.965
 9093TIP3   OH227221   1.213   4.524   5.131
 9093TIP3    H127222   1.185   4.605   5.175
 9093TIP3    H227223   1.131   4.484   5.101
 9094TIP3   OH227224   8.228   1.415   6.722
 9094TIP3    H127225   8.257   1.358   6.651
 9094TIP3    H227226   8.242   1.364   6.802
 9095TIP3   OH227227   5.913   5.368   2.365
 9095TIP3    H127228   5.994   5.359   2.314
 9095TIP3    H227229   5.845   5.329   2.310
 9096TIP3   OH227230   2.990   2.457   6.157
 9096TIP3    H127231   2.994   2.428   6.248
 9096TIP3    H227232   2.902   2.434   6.128
 9097TIP3   OH227233   7.742   2.442   2.140
 9097TIP3    H127234   7.755   2.366   2.083
 9097TIP3    H227235   7.775   2.516   2.089
 9098TIP3   OH227236   1.677   1.121   3.763
 9098TIP3    H127237   1.615   1.190   3.738
 9098TIP3    H227238   1.673   1.120   3.859
 9099TIP3   OH227239   1.522   0.570   6.672
 9099TIP3    H127240   1.518   0.663   6.691
 9099TIP3    H227241   1.533   0.565   6.577
 9100TIP3   OH227242   4.495   4.390   3.732
 9100TIP3    H127243   4.424   4.372   3.795
 9100TIP3    H227244   4.533   4.472   3.763
 9101TIP3   OH227245   1.640   2.396   1.054
 9101TIP3    H127246   1.604   2.386   1.142
 9101TIP3    H227247   1.593   2.332   1.001
 9102TIP3   OH227248   3.911   0.288   0.051
 9102TIP3    H127249   4.000   0.300   0.082
 9102TIP3    H227250   3.916   0.215  -0.011
 9103TIP3   OH227251   7.893   7.145   0.079
 9103TIP3    H127252   7.971   7.192   0.109
 9103TIP3    H227253   7.927   7.065   0.038
 9104TIP3   OH227254   7.839   5.902   2.761
 9104TIP3    H127255   7.896   5.883   2.835
 9104TIP3    H227256   7.787   5.823   2.750
 9105TIP3   OH227257   6.331   7.373   4.910
 9105TIP3    H127258   6.252   7.323   4.889
 9105TIP3    H227259   6.324   7.392   5.003
 9106TIP3   OH227260   0.585   2.449   4.750
 9106TIP3    H127261   0.641   2.500   4.808
 9106TIP3    H227262   0.526   2.513   4.711
 9107TIP3   OH227263   3.813   3.267   2.998
 9107TIP3    H127264   3.729   3.223   2.987
 9107TIP3    H227265   3.801   3.353   2.958
 9108TIP3   OH227266   2.419   4.674   5.176
 9108TIP3    H127267   2.375   4.756   5.154
 9108TIP3    H227268   2.348   4.609   5.180
 9109TIP3   OH227269   6.730   7.421   2.992
 9109TIP3    H127270   6.795   7.486   2.967
 9109TIP3    H227271   6.727   7.361   2.917
 9110TIP3   OH227272   7.949   6.606   2.527
 9110TIP3    H127273   7.889   6.633   2.597
 9110TIP3    H227274   7.896   6.609   2.447
 9111TIP3   OH227275   2.072   7.041   6.244
 9111TIP3    H127276   2.114   7.018   6.161
 9111TIP3    H227277   2.126   7.111   6.279
 9112TIP3   OH227278   1.613   1.971   4.055
 9112TIP3    H127279   1.664   2.051   4.050
 9112TIP3    H227280   1.572   1.963   3.969
 9113TIP3   OH227281   1.663   5.926   0.164
 9113TIP3    H127282   1.646   5.860   0.097
 9113TIP3    H227283   1.590   5.918   0.225
 9114TIP3   OH227284   3.886   7.651   2.283
 9114TIP3    H127285   3.915   7.734   2.320
 9114TIP3    H227286   3.966   7.599   2.275
 9115TIP3   OH227287   4.369   0.714   4.495
 9115TIP3    H127288   4.294   0.711   4.435
 9115TIP3    H227289   4.407   0.626   4.491
 9116TIP3   OH227290   0.115   0.136   4.452
 9116TIP3    H127291   0.187   0.098   4.502
 9116TIP3    H227292   0.043   0.073   4.462
 9117TIP3   OH227293   5.828   1.445   1.742
 9117TIP3    H127294   5.868   1.527   1.768
 9117TIP3    H227295   5.743   1.444   1.786
 9118TIP3   OH227296   1.134   2.598   1.781
 9118TIP3    H127297   1.204   2.662   1.769
 9118TIP3    H227298   1.142   2.539   1.706
 9119TIP3   OH227299   3.080   1.792   6.583
 9119TIP3    H127300   3.138   1.798   6.659
 9119TIP3    H227301   3.139   1.781   6.509
 9120TIP3   OH227302   7.894   4.511   5.659
 9120TIP3    H127303   7.959   4.538   5.723
 9120TIP3    H227304   7.865   4.592   5.618
 9121TIP3   OH227305   5.285   4.240   4.153
 9121TIP3    H127306   5.207   4.275   4.110
 9121TIP3    H227307   5.257   4.220   4.242
 9122TIP3   OH227308   5.780   2.998   6.063
 9122TIP3    H127309   5.866   3.010   6.103
 9122TIP3    H227310   5.797   2.996   5.969
 9123TIP3   OH227311   0.379   2.703   0.477
 9123TIP3    H127312   0.296   2.750   0.466
 9123TIP3    H227313   0.363   2.617   0.439
 9124TIP3   OH227314   7.810   7.581   6.387
 9124TIP3    H127315   7.788   7.598   6.479
 9124TIP3    H227316   7.783   7.660   6.341
 9125TIP3   OH227317   8.141   4.627   5.442
 9125TIP3    H127318   8.107   4.558   5.500
 9125TIP3    H227319   8.212   4.584   5.394
 9126TIP3   OH227320   3.881   1.973   0.074
 9126TIP3    H127321   3.953   1.922   0.037
 9126TIP3    H227322   3.803   1.940   0.030
 9127TIP3   OH227323   2.938   0.575   5.005
 9127TIP3    H127324   3.014   0.594   4.951
 9127TIP3    H227325   2.969   0.509   5.067
 9128TIP3   OH227326   1.226   2.211   1.838
 9128TIP3    H127327   1.317   2.201   1.866
 9128TIP3    H227328   1.190   2.123   1.839
 9129TIP3   OH227329   7.187   4.334   3.546
 9129TIP3    H127330   7.242   4.408   3.519
 9129TIP3    H227331   7.243   4.257   3.534
 9130TIP3   OH227332   6.848   3.253   2.928
 9130TIP3    H127333   6.778   3.231   2.989
 9130TIP3    H227334   6.890   3.331   2.965
 9131TIP3   OH227335   5.138   7.663   5.493
 9131TIP3    H127336   5.184   7.579   5.492
 9131TIP3    H227337   5.045   7.640   5.497
 9132TIP3   OH227338   5.369   5.907   1.224
 9132TIP3    H127339   5.425   5.872   1.154
 9132TIP3    H227340   5.291   5.939   1.178
 9133TIP3   OH227341   5.512   5.937   0.202
 9133TIP3    H127342   5.572   6.011   0.205
 9133TIP3    H227343   5.533   5.885   0.280
 9134TIP3   OH227344   8.113   5.500   4.002
 9134TIP3    H127345   8.160   5.574   4.041
 9134TIP3    H227346   8.021   5.526   4.004
 9135TIP3   OH227347   3.037   3.808   5.917
 9135TIP3    H127348   2.970   3.873   5.941
 9135TIP3    H227349   3.056   3.762   5.999
 9136TIP3   OH227350   1.150   6.090   2.710
 9136TIP3    H127351   1.176   6.144   2.784
 9136TIP3    H227352   1.065   6.054   2.735
 9137TIP3   OH227353   5.088   5.105   2.355
 9137TIP3    H127354   5.010   5.062   2.389
 9137TIP3    H227355   5.127   5.149   2.431
 9138TIP3   OH227356   2.816   2.915   5.023
 9138TIP3    H127357   2.890   2.859   4.998
 9138TIP3    H227358   2.762   2.859   5.079
 9139TIP3   OH227359   2.374   7.131   4.554
 9139TIP3    H127360   2.305   7.133   4.621
 9139TIP3    H227361   2.375   7.040   4.524
 9140TIP3   OH227362   0.085   6.509   1.811
 9140TIP3    H127363  -0.004   6.539   1.830
 9140TIP3    H227364   0.100   6.437   1.873
 9141TIP3   OH227365   0.140   4.452   0.067
 9141TIP3    H127366   0.216   4.407   0.030
 9141TIP3    H227367   0.173   4.493   0.147
 9142TIP3   OH227368   5.693   2.333   0.648
 9142TIP3    H127369   5.760   2.401   0.652
 9142TIP3    H227370   5.675   2.323   0.554
 9143TIP3   OH227371   0.986   2.544   3.486
 9143TIP3    H127372   1.023   2.632   3.489
 9143TIP3    H227373   0.921   2.548   3.415
 9144TIP3   OH227374   2.619   1.739   2.043
 9144TIP3    H127375   2.590   1.648   2.040
 9144TIP3    H227376   2.699   1.736   2.095
 9145TIP3   OH227377   4.849   6.080   2.364
 9145TIP3    H127378   4.826   6.009   2.424
 9145TIP3    H227379   4.846   6.159   2.418
 9146TIP3   OH227380   1.551   1.779   2.111
 9146TIP3    H127381   1.612   1.852   2.122
 9146TIP3    H227382   1.587   1.708   2.164
 9147TIP3   OH227383   3.795   1.226   4.710
 9147TIP3    H127384   3.744   1.273   4.645
 9147TIP3    H227385   3.819   1.143   4.667
 9148TIP3   OH227386   4.882   2.071   3.461
 9148TIP3    H127387   4.928   2.065   3.378
 9148TIP3    H227388   4.930   2.011   3.519
 9149TIP3   OH227389   5.746   2.372   3.742
 9149TIP3    H127390   5.735   2.322   3.823
 9149TIP3    H227391   5.799   2.447   3.768
 9150TIP3   OH227392   6.709   6.059   3.847
 9150TIP3    H127393   6.673   5.972   3.867
 9150TIP3    H227394   6.644   6.099   3.789
 9151TIP3   OH227395   4.763   0.707   6.514
 9151TIP3    H127396   4.811   0.637   6.559
 9151TIP3    H227397   4.804   0.713   6.428
 9152TIP3   OH227398   7.139   4.437   5.121
 9152TIP3    H127399   7.120   4.375   5.191
 9152TIP3    H227400   7.135   4.384   5.041
 9153TIP3   OH227401   3.705   2.758   1.928
 9153TIP3    H127402   3.679   2.672   1.960
 9153TIP3    H227403   3.713   2.812   2.006
 9154TIP3   OH227404   3.402   4.373   4.228
 9154TIP3    H127405   3.332   4.436   4.211
 9154TIP3    H227406   3.378   4.332   4.311
 9155TIP3   OH227407   1.352   1.807   1.881
 9155TIP3    H127408   1.389   1.739   1.937
 9155TIP3    H227409   1.426   1.863   1.858
 9156TIP3   OH227410   5.817   6.572   2.634
 9156TIP3    H127411   5.894   6.519   2.612
 9156TIP3    H227412   5.744   6.524   2.594
 9157TIP3   OH227413   4.250   6.225   6.345
 9157TIP3    H127414   4.196   6.148   6.326
 9157TIP3    H227415   4.337   6.189   6.366
 9158TIP3   OH227416   0.884   5.421   0.364
 9158TIP3    H127417   0.965   5.465   0.387
 9158TIP3    H227418   0.827   5.491   0.333
 9159TIP3   OH227419   1.042   3.719   0.186
 9159TIP3    H127420   0.981   3.655   0.149
 9159TIP3    H227421   1.084   3.673   0.259
 9160TIP3   OH227422   2.160   2.073   2.932
 9160TIP3    H127423   2.109   2.116   3.001
 9160TIP3    H227424   2.163   1.981   2.958
 9161TIP3   OH227425   5.431   4.697   3.800
 9161TIP3    H127426   5.486   4.713   3.723
 9161TIP3    H227427   5.472   4.624   3.846
 9162TIP3   OH227428   5.149   6.601   6.284
 9162TIP3    H127429   5.220   6.538   6.295
 9162TIP3    H227430   5.101   6.597   6.367
 9163TIP3   OH227431   4.444   1.177   0.148
 9163TIP3    H127432   4.501   1.219   0.212
 9163TIP3    H227433   4.361   1.226   0.153
 9164TIP3   OH227434   8.154   0.692   2.828
 9164TIP3    H127435   8.218   0.753   2.866
 9164TIP3    H227436   8.082   0.748   2.800
 9165TIP3   OH227437   6.528   6.986   1.494
 9165TIP3    H127438   6.471   7.015   1.565
 9165TIP3    H227439   6.612   6.967   1.537
 9166TIP3   OH227440   1.925   4.492   3.241
 9166TIP3    H127441   1.926   4.418   3.302
 9166TIP3    H227442   1.952   4.567   3.294
 9167TIP3   OH227443   6.787   3.596   4.508
 9167TIP3    H127444   6.802   3.650   4.586
 9167TIP3    H227445   6.700   3.558   4.521
 9168TIP3   OH227446   4.607   3.723   0.179
 9168TIP3    H127447   4.542   3.770   0.232
 9168TIP3    H227448   4.607   3.634   0.215
 9169TIP3   OH227449   7.921   0.968   2.978
 9169TIP3    H127450   8.006   1.009   2.963
 9169TIP3    H227451   7.932   0.921   3.061
 9170TIP3   OH227452   2.920   1.266   4.681
 9170TIP3    H127453   3.014   1.283   4.677
 9170TIP3    H227454   2.881   1.331   4.623
 9171TIP3   OH227455   2.247   2.775   0.612
 9171TIP3    H127456   2.215   2.690   0.582
 9171TIP3    H227457   2.231   2.834   0.538
 9172TIP3   OH227458   3.291   1.880   6.753
 9172TIP3    H127459   3.339   1.913   6.677
 9172TIP3    H227460   3.358   1.858   6.817
 9173TIP3   OH227461   6.465   0.939   0.853
 9173TIP3    H127462   6.441   0.847   0.840
 9173TIP3    H227463   6.559   0.938   0.869
 9174TIP3   OH227464   7.194   1.238   5.446
 9174TIP3    H127465   7.236   1.152   5.451
 9174TIP3    H227466   7.209   1.268   5.356
 9175TIP3   OH227467   4.518   3.627   5.285
 9175TIP3    H127468   4.602   3.582   5.297
 9175TIP3    H227469   4.512   3.688   5.358
 9176TIP3   OH227470   2.145   3.566   0.239
 9176TIP3    H127471   2.149   3.524   0.153
 9176TIP3    H227472   2.071   3.627   0.233
 9177TIP3   OH227473   6.505   2.874   0.867
 9177TIP3    H127474   6.528   2.821   0.791
 9177TIP3    H227475   6.533   2.963   0.844
 9178TIP3   OH227476   4.875   0.582   1.081
 9178TIP3    H127477   4.918   0.666   1.093
 9178TIP3    H227478   4.922   0.523   1.140
 9179TIP3   OH227479   7.095   5.366   3.539
 9179TIP3    H127480   7.151   5.410   3.475
 9179TIP3    H227481   7.019   5.337   3.489
 9180TIP3   OH227482   1.984   0.346   2.194
 9180TIP3    H127483   2.059   0.357   2.252
 9180TIP3    H227484   1.975   0.431   2.150
 9181TIP3   OH227485   7.373   0.888   3.149
 9181TIP3    H127486   7.318   0.830   3.095
 9181TIP3    H227487   7.460   0.849   3.145
 9182TIP3   OH227488   4.627   2.141   5.115
 9182TIP3    H127489   4.548   2.129   5.166
 9182TIP3    H227490   4.696   2.098   5.166
 9183TIP3   OH227491   5.919   4.792   3.664
 9183TIP3    H127492   5.953   4.705   3.684
 9183TIP3    H227493   5.997   4.843   3.640
 9184TIP3   OH227494  -0.062   6.865   5.423
 9184TIP3    H127495  -0.049   6.957   5.445
 9184TIP3    H227496  -0.033   6.857   5.332
 9185TIP3   OH227497   5.254   1.703   3.852
 9185TIP3    H127498   5.262   1.626   3.908
 9185TIP3    H227499   5.344   1.721   3.823
 9186TIP3   OH227500   3.024   0.152   1.364
 9186TIP3    H127501   3.099   0.150   1.424
 9186TIP3    H227502   2.952   0.118   1.416
 9187TIP3   OH227503   3.529   0.675   4.391
 9187TIP3    H127504   3.503   0.655   4.301
 9187TIP3    H227505   3.472   0.749   4.415
 9188TIP3   OH227506   3.460   4.260   0.358
 9188TIP3    H127507   3.470   4.184   0.300
 9188TIP3    H227508   3.470   4.336   0.301
 9189TIP3   OH227509   7.461   6.072   0.160
 9189TIP3    H127510   7.538   6.015   0.170
 9189TIP3    H227511   7.451   6.083   0.066
 9190TIP3   OH227512   3.611   5.872   5.629
 9190TIP3    H127513   3.516   5.885   5.621
 9190TIP3    H227514   3.623   5.838   5.717
 9191TIP3   OH227515   4.426   7.094   0.739
 9191TIP3    H127516   4.386   7.081   0.825
 9191TIP3    H227517   4.502   7.149   0.757
 9192TIP3   OH227518   1.720   4.407   4.657
 9192TIP3    H127519   1.720   4.323   4.705
 9192TIP3    H227520   1.785   4.460   4.703
 9193TIP3   OH227521   5.060   3.616   2.286
 9193TIP3    H127522   5.021   3.531   2.265
 9193TIP3    H227523   5.155   3.601   2.282
 9194TIP3   OH227524   5.690   2.792   0.236
 9194TIP3    H127525   5.683   2.887   0.242
 9194TIP3    H227526   5.600   2.760   0.240
 9195TIP3   OH227527   3.868   1.593   6.148
 9195TIP3    H127528   3.803   1.538   6.192
 9195TIP3    H227529   3.871   1.560   6.058
 9196TIP3   OH227530   4.266   2.586   2.093
 9196TIP3    H127531   4.177   2.559   2.115
 9196TIP3    H227532   4.320   2.550   2.163
 9197TIP3   OH227533   5.394   5.575   2.023
 9197TIP3    H127534   5.474   5.627   2.018
 9197TIP3    H227535   5.324   5.640   2.021
 9198TIP3   OH227536   2.699   6.795   4.373
 9198TIP3    H127537   2.781   6.842   4.360
 9198TIP3    H227538   2.668   6.776   4.284
 9199TIP3   OH227539   3.422   1.249   3.023
 9199TIP3    H127540   3.455   1.239   3.112
 9199TIP3    H227541   3.329   1.225   3.029
 9200TIP3   OH227542   1.215   0.937   6.388
 9200TIP3    H127543   1.137   0.907   6.436
 9200TIP3    H227544   1.222   0.877   6.314
 9201TIP3   OH227545   2.471   6.239   1.848
 9201TIP3    H127546   2.517   6.155   1.857
 9201TIP3    H227547   2.378   6.215   1.847
 9202TIP3   OH227548   0.685   4.112   2.466
 9202TIP3    H127549   0.656   4.042   2.407
 9202TIP3    H227550   0.605   4.161   2.485
 9203TIP3   OH227551   6.213   7.125   5.830
 9203TIP3    H127552   6.297   7.171   5.824
 9203TIP3    H227553   6.186   7.135   5.921
 9204TIP3   OH227554   0.546   5.791   0.768
 9204TIP3    H127555   0.499   5.743   0.836
 9204TIP3    H227556   0.638   5.786   0.794
 9205TIP3   OH227557   4.548   4.396   0.569
 9205TIP3    H127558   4.616   4.381   0.504
 9205TIP3    H227559   4.495   4.316   0.568
 9206TIP3   OH227560   2.505   5.309   6.124
 9206TIP3    H127561   2.483   5.257   6.201
 9206TIP3    H227562   2.435   5.290   6.062
 9207TIP3   OH227563   1.090   0.775   2.390
 9207TIP3    H127564   1.134   0.706   2.341
 9207TIP3    H227565   1.158   0.842   2.403
 9208TIP3   OH227566   0.199   6.773   4.380
 9208TIP3    H127567   0.265   6.763   4.448
 9208TIP3    H227568   0.122   6.728   4.413
 9209TIP3   OH227569   4.361   6.468   6.299
 9209TIP3    H127570   4.437   6.423   6.262
 9209TIP3    H227571   4.309   6.398   6.340
 9210TIP3   OH227572   6.741   2.855   2.581
 9210TIP3    H127573   6.666   2.798   2.597
 9210TIP3    H227574   6.817   2.802   2.604
 9211TIP3   OH227575   6.143   6.326   2.257
 9211TIP3    H127576   6.210   6.263   2.231
 9211TIP3    H227577   6.141   6.320   2.353
 9212TIP3   OH227578   5.664   1.835   2.360
 9212TIP3    H127579   5.628   1.908   2.410
 9212TIP3    H227580   5.705   1.778   2.425
 9213TIP3   OH227581   6.542   2.664   1.390
 9213TIP3    H127582   6.498   2.732   1.441
 9213TIP3    H227583   6.632   2.694   1.382
 9214TIP3   OH227584   6.434   0.419   3.369
 9214TIP3    H127585   6.504   0.480   3.394
 9214TIP3    H227586   6.354   0.462   3.399
 9215TIP3   OH227587   0.372   1.948   0.923
 9215TIP3    H127588   0.386   2.038   0.951
 9215TIP3    H227589   0.439   1.932   0.857
 9216TIP3   OH227590   5.182   2.859   3.067
 9216TIP3    H127591   5.171   2.889   2.977
 9216TIP3    H227592   5.121   2.786   3.075
 9217TIP3   OH227593   6.975   0.984   5.267
 9217TIP3    H127594   6.975   0.950   5.178
 9217TIP3    H227595   7.000   0.910   5.322
 9218TIP3   OH227596   1.178   2.146   2.577
 9218TIP3    H127597   1.140   2.160   2.664
 9218TIP3    H227598   1.102   2.143   2.518
 9219TIP3   OH227599   2.202   6.739   3.478
 9219TIP3    H127600   2.163   6.826   3.468
 9219TIP3    H227601   2.278   6.753   3.535
 9220TIP3   OH227602   2.736   4.701   0.337
 9220TIP3    H127603   2.771   4.780   0.296
 9220TIP3    H227604   2.649   4.691   0.298
 9221TIP3   OH227605   1.154   1.533   1.991
 9221TIP3    H127606   1.093   1.573   1.930
 9221TIP3    H227607   1.195   1.462   1.942
 9222TIP3   OH227608   5.235   1.421   5.918
 9222TIP3    H127609   5.185   1.488   5.966
 9222TIP3    H227610   5.317   1.413   5.967
 9223TIP3   OH227611   2.015   2.663   4.643
 9223TIP3    H127612   2.039   2.680   4.734
 9223TIP3    H227613   2.059   2.733   4.594
 9224TIP3   OH227614   0.711   3.639   2.461
 9224TIP3    H127615   0.700   3.604   2.549
 9224TIP3    H227616   0.804   3.629   2.442
 9225TIP3   OH227617   6.736   4.933   0.919
 9225TIP3    H127618   6.813   4.875   0.924
 9225TIP3    H227619   6.663   4.874   0.898
 9226TIP3   OH227620   2.220   1.579   6.400
 9226TIP3    H127621   2.125   1.587   6.408
 9226TIP3    H227622   2.246   1.656   6.350
 9227TIP3   OH227623   1.346   2.153   2.844
 9227TIP3    H127624   1.410   2.215   2.880
 9227TIP3    H227625   1.271   2.159   2.903
 9228TIP3   OH227626   4.123   5.466   2.940
 9228TIP3    H127627   4.182   5.538   2.965
 9228TIP3    H227628   4.094   5.429   3.023
 9229TIP3   OH227629   6.310   4.212   1.592
 9229TIP3    H127630   6.365   4.134   1.601
 9229TIP3    H227631   6.236   4.183   1.538
 9230TIP3   OH227632   3.167   3.145   5.729
 9230TIP3    H127633   3.261   3.127   5.723
 9230TIP3    H227634   3.152   3.217   5.667
 9231TIP3   OH227635   0.215   5.213   6.184
 9231TIP3    H127636   0.221   5.184   6.093
 9231TIP3    H227637   0.192   5.306   6.177
 9232TIP3   OH227638   1.683   6.841   5.758
 9232TIP3    H127639   1.761   6.853   5.813
 9232TIP3    H227640   1.612   6.826   5.819
 9233TIP3   OH227641   6.596   3.016   1.346
 9233TIP3    H127642   6.676   3.006   1.398
 9233TIP3    H227643   6.588   3.111   1.332
 9234TIP3   OH227644   0.632   4.636   1.939
 9234TIP3    H127645   0.710   4.690   1.940
 9234TIP3    H227646   0.573   4.680   1.878
 9235TIP3   OH227647   0.381   7.752   0.817
 9235TIP3    H127648   0.455   7.694   0.834
 9235TIP3    H227649   0.332   7.710   0.747
 9236TIP3   OH227650   6.057   6.869   1.179
 9236TIP3    H127651   5.991   6.866   1.249
 9236TIP3    H227652   6.121   6.933   1.209
 9237TIP3   OH227653   0.811   6.944   6.560
 9237TIP3    H127654   0.834   6.852   6.570
 9237TIP3    H227655   0.752   6.946   6.485
 9238TIP3   OH227656   2.131   0.167   1.466
 9238TIP3    H127657   2.079   0.107   1.413
 9238TIP3    H227658   2.149   0.117   1.546
 9239TIP3   OH227659   6.341   1.999   6.093
 9239TIP3    H127660   6.329   2.094   6.081
 9239TIP3    H227661   6.252   1.963   6.089
 9240TIP3   OH227662   6.939   2.130   4.467
 9240TIP3    H127663   6.847   2.151   4.450
 9240TIP3    H227664   6.936   2.061   4.533
 9241TIP3   OH227665   1.533   0.245   3.399
 9241TIP3    H127666   1.551   0.244   3.305
 9241TIP3    H227667   1.489   0.329   3.414
 9242TIP3   OH227668   1.294   6.981   1.208
 9242TIP3    H127669   1.270   6.916   1.142
 9242TIP3    H227670   1.254   6.949   1.289
 9243TIP3   OH227671   2.296   6.490   1.340
 9243TIP3    H127672   2.252   6.406   1.324
 9243TIP3    H227673   2.384   6.479   1.305
 9244TIP3   OH227674   3.069   7.085   0.591
 9244TIP3    H127675   3.036   7.079   0.502
 9244TIP3    H227676   3.111   7.000   0.607
 9245TIP3   OH227677   6.725   4.878   6.069
 9245TIP3    H127678   6.649   4.878   6.011
 9245TIP3    H227679   6.766   4.963   6.055
 9246TIP3   OH227680   3.485   5.426   3.898
 9246TIP3    H127681   3.422   5.485   3.858
 9246TIP3    H227682   3.569   5.450   3.858
 9247TIP3   OH227683   7.921   2.953   0.073
 9247TIP3    H127684   7.862   2.877   0.075
 9247TIP3    H227685   7.968   2.944  -0.010
 9248TIP3   OH227686   8.080   1.982   5.113
 9248TIP3    H127687   8.025   1.980   5.191
 9248TIP3    H227688   8.093   1.889   5.091
 9249TIP3   OH227689   7.377   0.579   4.373
 9249TIP3    H127690   7.287   0.573   4.406
 9249TIP3    H227691   7.368   0.590   4.278
 9250TIP3   OH227692   2.584   7.185   2.588
 9250TIP3    H127693   2.510   7.228   2.545
 9250TIP3    H227694   2.631   7.256   2.630
 9251TIP3   OH227695   4.821   6.056   5.970
 9251TIP3    H127696   4.910   6.045   5.937
 9251TIP3    H227697   4.768   6.000   5.914
 9252TIP3   OH227698   2.768   2.984   3.713
 9252TIP3    H127699   2.773   2.889   3.725
 9252TIP3    H227700   2.745   3.017   3.799
 9253TIP3   OH227701   5.891   5.770   5.374
 9253TIP3    H127702   5.984   5.770   5.396
 9253TIP3    H227703   5.879   5.690   5.322
 9254TIP3   OH227704   6.115   7.057   3.244
 9254TIP3    H127705   6.033   7.017   3.212
 9254TIP3    H227706   6.119   7.141   3.199
 9255TIP3   OH227707   6.903   3.094   1.026
 9255TIP3    H127708   6.986   3.132   0.998
 9255TIP3    H227709   6.865   3.158   1.086
 9256TIP3   OH227710   3.898   0.829   3.174
 9256TIP3    H127711   3.939   0.828   3.087
 9256TIP3    H227712   3.813   0.870   3.159
 9257TIP3   OH227713   8.103   4.303   2.266
 9257TIP3    H127714   8.047   4.263   2.333
 9257TIP3    H227715   8.149   4.229   2.226
 9258TIP3   OH227716   5.791   4.104   5.637
 9258TIP3    H127717   5.874   4.088   5.593
 9258TIP3    H227718   5.777   4.026   5.691
 9259TIP3   OH227719   7.619   1.809   4.882
 9259TIP3    H127720   7.693   1.799   4.822
 9259TIP3    H227721   7.660   1.827   4.967
 9260TIP3   OH227722   4.235   4.864   5.056
 9260TIP3    H127723   4.143   4.838   5.064
 9260TIP3    H227724   4.235   4.930   4.986
 9261TIP3   OH227725   0.850   6.497   5.108
 9261TIP3    H127726   0.792   6.520   5.035
 9261TIP3    H227727   0.816   6.413   5.140
 9262TIP3   OH227728   2.082   2.393   0.265
 9262TIP3    H127729   2.025   2.349   0.328
 9262TIP3    H227730   2.166   2.349   0.274
 9263TIP3   OH227731   2.693   4.068   4.183
 9263TIP3    H127732   2.628   4.136   4.198
 9263TIP3    H227733   2.691   4.052   4.089
 9264TIP3   OH227734   2.444   0.465   0.106
 9264TIP3    H127735   2.372   0.494   0.162
 9264TIP3    H227736   2.472   0.544   0.060
 9265TIP3   OH227737   3.569   0.579   4.662
 9265TIP3    H127738   3.585   0.630   4.582
 9265TIP3    H227739   3.516   0.505   4.634
 9266TIP3   OH227740   5.240   0.625   0.564
 9266TIP3    H127741   5.294   0.700   0.540
 9266TIP3    H227742   5.217   0.585   0.480
 9267TIP3   OH227743   1.976   3.205   5.971
 9267TIP3    H127744   1.996   3.112   5.961
 9267TIP3    H227745   1.909   3.223   5.904
 9268TIP3   OH227746   1.738   2.771   2.254
 9268TIP3    H127747   1.824   2.781   2.296
 9268TIP3    H227748   1.714   2.680   2.270
 9269TIP3   OH227749   1.260   6.310   0.224
 9269TIP3    H127750   1.247   6.297   0.130
 9269TIP3    H227751   1.281   6.403   0.233
 9270TIP3   OH227752   5.819   1.066   2.971
 9270TIP3    H127753   5.909   1.095   2.989
 9270TIP3    H227754   5.797   1.108   2.888
 9271TIP3   OH227755   8.255   5.837   1.809
 9271TIP3    H127756   8.164   5.826   1.835
 9271TIP3    H227757   8.290   5.748   1.807
 9272TIP3   OH227758   3.838   2.277   2.969
 9272TIP3    H127759   3.829   2.363   2.930
 9272TIP3    H227760   3.932   2.259   2.966
 9273TIP3   OH227761   7.421   3.395   1.189
 9273TIP3    H127762   7.444   3.303   1.177
 9273TIP3    H227763   7.326   3.397   1.179
 9274TIP3   OH227764   7.047   4.939   3.529
 9274TIP3    H127765   7.129   4.976   3.497
 9274TIP3    H227766   7.074   4.868   3.588
 9275TIP3   OH227767   7.566   1.117   5.989
 9275TIP3    H127768   7.651   1.133   6.032
 9275TIP3    H227769   7.589   1.070   5.909
 9276TIP3   OH227770   3.020   2.936   1.073
 9276TIP3    H127771   2.943   2.968   1.120
 9276TIP3    H227772   3.021   2.985   0.992
 9277TIP3   OH227773   1.637   2.624   4.596
 9277TIP3    H127774   1.642   2.533   4.569
 9277TIP3    H227775   1.660   2.623   4.689
 9278TIP3   OH227776   7.523   0.631   4.647
 9278TIP3    H127777   7.501   0.600   4.559
 9278TIP3    H227778   7.445   0.612   4.699
 9279TIP3   OH227779   2.388   5.109   2.023
 9279TIP3    H127780   2.391   5.018   2.053
 9279TIP3    H227781   2.330   5.153   2.085
 9280TIP3   OH227782   5.891   7.451   4.394
 9280TIP3    H127783   5.973   7.460   4.443
 9280TIP3    H227784   5.863   7.361   4.410
 9281TIP3   OH227785   2.594   6.122   4.582
 9281TIP3    H127786   2.502   6.125   4.557
 9281TIP3    H227787   2.641   6.101   4.501
 9282TIP3   OH227788   0.052   2.568   5.540
 9282TIP3    H127789   0.073   2.585   5.632
 9282TIP3    H227790   0.114   2.623   5.492
 9283TIP3   OH227791   6.544   2.224   5.285
 9283TIP3    H127792   6.459   2.228   5.329
 9283TIP3    H227793   6.598   2.169   5.342
 9284TIP3   OH227794   3.784   6.375   1.526
 9284TIP3    H127795   3.825   6.290   1.543
 9284TIP3    H227796   3.850   6.439   1.555
 9285TIP3   OH227797   2.732   6.116   1.048
 9285TIP3    H127798   2.658   6.057   1.031
 9285TIP3    H227799   2.705   6.200   1.012
 9286TIP3   OH227800   2.161   0.166   3.316
 9286TIP3    H127801   2.094   0.164   3.384
 9286TIP3    H227802   2.234   0.115   3.353
 9287TIP3   OH227803   5.500   0.147   3.700
 9287TIP3    H127804   5.595   0.141   3.685
 9287TIP3    H227805   5.491   0.209   3.772
 9288TIP3   OH227806   1.766   3.658   0.030
 9288TIP3    H127807   1.753   3.581   0.085
 9288TIP3    H227808   1.842   3.702   0.069
 9289TIP3   OH227809   2.289   0.045   2.060
 9289TIP3    H127810   2.196   0.062   2.072
 9289TIP3    H227811   2.322   0.028   2.148
 9290TIP3   OH227812   0.366   6.702   6.197
 9290TIP3    H127813   0.332   6.655   6.273
 9290TIP3    H227814   0.461   6.702   6.209
 9291TIP3   OH227815   5.145   1.054   0.258
 9291TIP3    H127816   5.173   0.966   0.236
 9291TIP3    H227817   5.142   1.100   0.174
 9292TIP3   OH227818   7.666   0.889   3.787
 9292TIP3    H127819   7.616   0.954   3.737
 9292TIP3    H227820   7.606   0.861   3.856
 9293TIP3   OH227821   1.786   2.043   0.155
 9293TIP3    H127822   1.805   2.111   0.220
 9293TIP3    H227823   1.791   2.089   0.071
 9294TIP3   OH227824   6.083   2.132   3.941
 9294TIP3    H127825   5.997   2.103   3.908
 9294TIP3    H227826   6.074   2.129   4.036
 9295TIP3   OH227827   0.841   0.651   2.411
 9295TIP3    H127828   0.901   0.716   2.446
 9295TIP3    H227829   0.897   0.578   2.384
 9296TIP3   OH227830   5.868   7.010   1.626
 9296TIP3    H127831   5.909   7.030   1.542
 9296TIP3    H227832   5.921   6.939   1.663
 9297TIP3   OH227833   0.458   1.103   6.339
 9297TIP3    H127834   0.517   1.135   6.271
 9297TIP3    H227835   0.457   1.008   6.328
 9298TIP3   OH227836   2.928   1.847   0.173
 9298TIP3    H127837   2.988   1.807   0.236
 9298TIP3    H227838   2.842   1.840   0.213
 9299TIP3   OH227839   2.440   0.482   4.752
 9299TIP3    H127840   2.355   0.525   4.748
 9299TIP3    H227841   2.454   0.449   4.663
 9300TIP3   OH227842   2.349   6.256   5.710
 9300TIP3    H127843   2.296   6.239   5.788
 9300TIP3    H227844   2.399   6.176   5.696
 9301TIP3   OH227845   6.247   2.262   6.444
 9301TIP3    H127846   6.282   2.184   6.487
 9301TIP3    H227847   6.284   2.258   6.355
 9302TIP3   OH227848   2.139   6.123   0.943
 9302TIP3    H127849   2.216   6.139   0.889
 9302TIP3    H227850   2.157   6.041   0.988
 9303TIP3   OH227851   5.847   1.844   4.430
 9303TIP3    H127852   5.826   1.759   4.391
 9303TIP3    H227853   5.784   1.854   4.502
 9304TIP3   OH227854   5.544   0.794   5.818
 9304TIP3    H127855   5.585   0.846   5.749
 9304TIP3    H227856   5.451   0.811   5.810
 9305TIP3   OH227857   3.542   1.877   5.521
 9305TIP3    H127858   3.460   1.920   5.495
 9305TIP3    H227859   3.595   1.877   5.442
 9306TIP3   OH227860   5.040   5.953   2.158
 9306TIP3    H127861   4.989   5.975   2.236
 9306TIP3    H227862   5.114   5.902   2.191
 9307TIP3   OH227863   2.632   1.028   0.976
 9307TIP3    H127864   2.667   0.946   0.942
 9307TIP3    H227865   2.563   1.001   1.038
 9308TIP3   OH227866   1.351   7.384   3.326
 9308TIP3    H127867   1.382   7.294   3.335
 9308TIP3    H227868   1.272   7.377   3.272
 9309TIP3   OH227869   2.858   3.164   5.264
 9309TIP3    H127870   2.813   3.241   5.300
 9309TIP3    H227871   2.864   3.103   5.338
 9310TIP3   OH227872   7.910   3.125   2.806
 9310TIP3    H127873   7.939   3.111   2.717
 9310TIP3    H227874   7.922   3.041   2.850
 9311TIP3   OH227875   7.137   0.640   6.754
 9311TIP3    H127876   7.070   0.660   6.689
 9311TIP3    H227877   7.215   0.622   6.701
 9312TIP3   OH227878   2.315   1.435   4.526
 9312TIP3    H127879   2.363   1.352   4.527
 9312TIP3    H227880   2.382   1.502   4.510
 9313TIP3   OH227881   6.690   2.395   0.200
 9313TIP3    H127882   6.643   2.312   0.203
 9313TIP3    H227883   6.663   2.435   0.117
 9314TIP3   OH227884   0.965   6.205   5.652
 9314TIP3    H127885   1.035   6.159   5.699
 9314TIP3    H227886   0.911   6.135   5.615
 9315TIP3   OH227887   6.018   1.226   4.388
 9315TIP3    H127888   6.082   1.195   4.323
 9315TIP3    H227889   5.981   1.146   4.426
 9316TIP3   OH227890   1.215   3.149   6.821
 9316TIP3    H127891   1.216   3.235   6.779
 9316TIP3    H227892   1.257   3.091   6.757
 9317TIP3   OH227893   4.845   3.624   5.635
 9317TIP3    H127894   4.870   3.633   5.543
 9317TIP3    H227895   4.871   3.707   5.675
 9318TIP3   OH227896   0.497   4.443   2.569
 9318TIP3    H127897   0.440   4.408   2.637
 9318TIP3    H227898   0.440   4.496   2.513
 9319TIP3   OH227899   6.744   2.595   5.960
 9319TIP3    H127900   6.803   2.520   5.947
 9319TIP3    H227901   6.692   2.598   5.879
 9320TIP3   OH227902   1.170   0.802   4.191
 9320TIP3    H127903   1.182   0.718   4.147
 9320TIP3    H227904   1.108   0.783   4.262
 9321TIP3   OH227905   5.609   3.705   5.660
 9321TIP3    H127906   5.693   3.662   5.674
 9321TIP3    H227907   5.563   3.650   5.597
 9322TIP3   OH227908   2.985   6.108   5.066
 9322TIP3    H127909   3.002   6.069   4.980
 9322TIP3    H227910   3.037   6.188   5.067
 9323TIP3   OH227911   7.783   2.302   2.801
 9323TIP3    H127912   7.748   2.213   2.802
 9323TIP3    H227913   7.878   2.291   2.799
 9324TIP3   OH227914   7.929   2.335   5.292
 9324TIP3    H127915   7.888   2.380   5.365
 9324TIP3    H227916   7.923   2.242   5.314
 9325TIP3   OH227917   1.151   2.697   3.815
 9325TIP3    H127918   1.069   2.650   3.800
 9325TIP3    H227919   1.151   2.766   3.748
 9326TIP3   OH227920   6.852   3.033   5.684
 9326TIP3    H127921   6.765   3.070   5.691
 9326TIP3    H227922   6.882   3.022   5.774
 9327TIP3   OH227923   5.261   1.104   1.582
 9327TIP3    H127924   5.227   1.178   1.533
 9327TIP3    H227925   5.331   1.068   1.527
 9328TIP3   OH227926   4.467   1.474   4.028
 9328TIP3    H127927   4.397   1.506   3.972
 9328TIP3    H227928   4.456   1.379   4.029
 9329TIP3   OH227929   6.732   1.991   4.844
 9329TIP3    H127930   6.682   1.920   4.803
 9329TIP3    H227931   6.671   2.063   4.849
 9330TIP3   OH227932   7.477   2.814   5.670
 9330TIP3    H127933   7.471   2.875   5.596
 9330TIP3    H227934   7.416   2.744   5.648
 9331TIP3   OH227935   4.591   1.945   4.904
 9331TIP3    H127936   4.564   2.008   4.971
 9331TIP3    H227937   4.536   1.965   4.829
 9332TIP3   OH227938   1.143   5.930   3.374
 9332TIP3    H127939   1.130   5.968   3.461
 9332TIP3    H227940   1.084   5.979   3.317
 9333TIP3   OH227941   3.734   5.118   0.143
 9333TIP3    H127942   3.826   5.126   0.118
 9333TIP3    H227943   3.732   5.049   0.208
 9334TIP3   OH227944   3.361   6.365   0.358
 9334TIP3    H127945   3.428   6.375   0.426
 9334TIP3    H227946   3.280   6.350   0.407
 9335TIP3   OH227947   3.008   5.300   5.585
 9335TIP3    H127948   3.021   5.261   5.671
 9335TIP3    H227949   3.022   5.229   5.523
 9336TIP3   OH227950   2.060   1.703   0.334
 9336TIP3    H127951   2.072   1.769   0.265
 9336TIP3    H227952   2.107   1.626   0.302
 9337TIP3   OH227953   3.903   4.519   2.393
 9337TIP3    H127954   3.958   4.596   2.408
 9337TIP3    H227955   3.878   4.489   2.480
 9338TIP3   OH227956   1.945   3.878   5.774
 9338TIP3    H127957   2.037   3.859   5.792
 9338TIP3    H227958   1.938   3.873   5.679
 9339TIP3   OH227959   7.415   6.184   0.990
 9339TIP3    H127960   7.447   6.118   0.928
 9339TIP3    H227961   7.363   6.135   1.054
 9340TIP3   OH227962   4.143   6.688   6.302
 9340TIP3    H127963   4.216   6.749   6.313
 9340TIP3    H227964   4.167   6.637   6.225
 9341TIP3   OH227965   5.654   0.301   3.341
 9341TIP3    H127966   5.711   0.376   3.321
 9341TIP3    H227967   5.605   0.329   3.418
 9342TIP3   OH227968   7.737   0.973   2.304
 9342TIP3    H127969   7.795   0.948   2.232
 9342TIP3    H227970   7.664   0.911   2.298
 9343TIP3   OH227971   3.355   7.102   4.408
 9343TIP3    H127972   3.293   7.175   4.401
 9343TIP3    H227973   3.358   7.065   4.320
 9344TIP3   OH227974   7.285   2.011   6.120
 9344TIP3    H127975   7.310   2.001   6.212
 9344TIP3    H227976   7.303   1.927   6.080
 9345TIP3   OH227977   7.240   1.574   0.832
 9345TIP3    H127978   7.149   1.604   0.832
 9345TIP3    H227979   7.238   1.493   0.883
 9346TIP3   OH227980   4.053   3.339   5.189
 9346TIP3    H127981   4.140   3.377   5.195
 9346TIP3    H227982   4.068   3.248   5.162
 9347TIP3   OH227983   8.012   2.155   3.531
 9347TIP3    H127984   7.923   2.127   3.554
 9347TIP3    H227985   8.063   2.074   3.531
 9348TIP3   OH227986   2.372  -0.039   3.817
 9348TIP3    H127987   2.367  -0.043   3.913
 9348TIP3    H227988   2.323   0.040   3.794
 9349TIP3   OH227989   1.350   2.682   0.743
 9349TIP3    H127990   1.354   2.598   0.788
 9349TIP3    H227991   1.360   2.747   0.813
 9350TIP3   OH227992   7.783   7.015   2.364
 9350TIP3    H127993   7.729   6.967   2.300
 9350TIP3    H227994   7.770   6.967   2.446
 9351TIP3   OH227995   1.964   6.684   3.191
 9351TIP3    H127996   1.913   6.749   3.241
 9351TIP3    H227997   1.900   6.639   3.137
 9352TIP3   OH227998   2.403   4.752   6.372
 9352TIP3    H127999   2.381   4.819   6.436
 9352TIP3    H228000   2.374   4.669   6.411
 9353TIP3   OH228001   2.173   2.809   6.500
 9353TIP3    H128002   2.146   2.890   6.542
 9353TIP3    H228003   2.230   2.766   6.564
 9354TIP3   OH228004   2.698   4.419   0.318
 9354TIP3    H128005   2.710   4.512   0.340
 9354TIP3    H228006   2.731   4.372   0.394
 9355TIP3   OH228007   6.612   5.724   3.709
 9355TIP3    H128008   6.698   5.685   3.694
 9355TIP3    H228009   6.610   5.743   3.802
 9356TIP3   OH228010   0.360   5.632   3.358
 9356TIP3    H128011   0.435   5.606   3.303
 9356TIP3    H228012   0.291   5.572   3.333
 9357TIP3   OH228013   1.902   4.010   2.630
 9357TIP3    H128014   1.873   4.100   2.635
 9357TIP3    H228015   1.995   4.016   2.608
 9358TIP3   OH228016   1.258   2.558   2.923
 9358TIP3    H128017   1.258   2.497   2.849
 9358TIP3    H228018   1.350   2.585   2.931
 9359TIP3   OH228019   1.623   5.154   5.956
 9359TIP3    H128020   1.686   5.106   5.903
 9359TIP3    H228021   1.625   5.243   5.922
 9360TIP3   OH228022   2.812   1.399   2.449
 9360TIP3    H128023   2.771   1.410   2.535
 9360TIP3    H228024   2.869   1.323   2.459
 9361TIP3   OH228025   6.535   0.854   0.114
 9361TIP3    H128026   6.597   0.873   0.044
 9361TIP3    H228027   6.502   0.940   0.141
 9362TIP3   OH228028   4.727   3.469   0.242
 9362TIP3    H128029   4.771   3.512   0.315
 9362TIP3    H228030   4.781   3.393   0.222
 9363TIP3   OH228031   2.801   6.888   6.622
 9363TIP3    H128032   2.878   6.937   6.592
 9363TIP3    H228033   2.728   6.949   6.610
 9364TIP3   OH228034   2.664   3.933   4.477
 9364TIP3    H128035   2.620   3.999   4.422
 9364TIP3    H228036   2.756   3.958   4.474
 9365TIP3   OH228037   6.715   4.475   3.680
 9365TIP3    H128038   6.739   4.383   3.666
 9365TIP3    H228039   6.727   4.489   3.774
 9366TIP3   OH228040   3.769   4.258   2.219
 9366TIP3    H128041   3.828   4.298   2.283
 9366TIP3    H228042   3.688   4.309   2.225
 9367TIP3   OH228043   6.069   4.109   1.441
 9367TIP3    H128044   5.992   4.138   1.392
 9367TIP3    H228045   6.106   4.038   1.389
 9368TIP3   OH228046   5.859   5.620   6.412
 9368TIP3    H128047   5.818   5.645   6.495
 9368TIP3    H228048   5.883   5.528   6.424
 9369TIP3   OH228049   7.812   1.452   0.144
 9369TIP3    H128050   7.761   1.495   0.076
 9369TIP3    H228051   7.749   1.437   0.215
 9370TIP3   OH228052   3.238   5.041   4.468
 9370TIP3    H128053   3.186   5.117   4.496
 9370TIP3    H228054   3.314   5.078   4.424
 9371TIP3   OH228055   5.296   5.244   1.831
 9371TIP3    H128056   5.310   5.168   1.888
 9371TIP3    H228057   5.229   5.215   1.769
 9372TIP3   OH228058   0.153   3.242   5.434
 9372TIP3    H128059   0.080   3.237   5.372
 9372TIP3    H228060   0.212   3.308   5.398
 9373TIP3   OH228061   1.407   5.891   5.420
 9373TIP3    H128062   1.486   5.909   5.471
 9373TIP3    H228063   1.411   5.797   5.403
 9374TIP3   OH228064   1.200   4.499   6.035
 9374TIP3    H128065   1.154   4.496   5.951
 9374TIP3    H228066   1.246   4.583   6.034
 9375TIP3   OH228067   6.505   7.526   3.969
 9375TIP3    H128068   6.498   7.593   3.901
 9375TIP3    H228069   6.592   7.539   4.007
 9376TIP3   OH228070   0.969   2.621   1.354
 9376TIP3    H128071   0.970   2.575   1.269
 9376TIP3    H228072   0.929   2.706   1.335
 9377TIP3   OH228073   4.655   6.010   0.225
 9377TIP3    H128074   4.678   5.990   0.135
 9377TIP3    H228075   4.579   5.954   0.244
 9378TIP3   OH228076   2.104   5.468   3.645
 9378TIP3    H128077   2.056   5.432   3.720
 9378TIP3    H228078   2.192   5.485   3.679
 9379TIP3   OH228079   7.321   3.870   2.702
 9379TIP3    H128080   7.335   3.811   2.776
 9379TIP3    H228081   7.253   3.930   2.732
 9380TIP3   OH228082   3.868   3.773   2.081
 9380TIP3    H128083   3.889   3.857   2.122
 9380TIP3    H228084   3.883   3.787   1.987
 9381TIP3   OH228085   5.122   0.498   0.349
 9381TIP3    H128086   5.173   0.423   0.317
 9381TIP3    H228087   5.042   0.459   0.384
 9382TIP3   OH228088   6.994   3.984   5.214
 9382TIP3    H128089   6.919   4.034   5.247
 9382TIP3    H228090   6.970   3.962   5.124
 9383TIP3   OH228091   0.275   2.434   4.590
 9383TIP3    H128092   0.313   2.451   4.504
 9383TIP3    H228093   0.321   2.494   4.649
 9384TIP3   OH228094   3.772   4.106   6.048
 9384TIP3    H128095   3.783   4.032   5.988
 9384TIP3    H228096   3.771   4.066   6.135
 9385TIP3   OH228097   4.612   7.365   4.747
 9385TIP3    H128098   4.597   7.358   4.841
 9385TIP3    H228099   4.618   7.459   4.730
 9386TIP3   OH228100   2.899   7.603   3.070
 9386TIP3    H128101   2.903   7.600   2.975
 9386TIP3    H228102   2.980   7.647   3.097
 9387TIP3   OH228103   1.661   3.848   3.454
 9387TIP3    H128104   1.644   3.928   3.404
 9387TIP3    H228105   1.741   3.867   3.504
 9388TIP3   OH228106   0.908   5.985   5.150
 9388TIP3    H128107   0.865   5.911   5.109
 9388TIP3    H228108   0.844   6.056   5.146
 9389TIP3   OH228109   2.214   4.559   6.744
 9389TIP3    H128110   2.240   4.467   6.758
 9389TIP3    H228111   2.229   4.601   6.829
 9390TIP3   OH228112   4.211   0.881   3.987
 9390TIP3    H128113   4.266   0.803   3.989
 9390TIP3    H228114   4.215   0.915   4.076
 9391TIP3   OH228115   2.192   2.368   5.510
 9391TIP3    H128116   2.227   2.361   5.599
 9391TIP3    H228117   2.142   2.287   5.498
 9392TIP3   OH228118   7.122   0.365   2.169
 9392TIP3    H128119   7.058   0.305   2.207
 9392TIP3    H228120   7.157   0.319   2.093
 9393TIP3   OH228121   6.146   1.885   0.540
 9393TIP3    H128122   6.095   1.804   0.535
 9393TIP3    H228123   6.189   1.892   0.455
 9394TIP3   OH228124   2.155   2.226   4.742
 9394TIP3    H128125   2.193   2.262   4.662
 9394TIP3    H228126   2.226   2.229   4.806
 9395TIP3   OH228127   7.592   5.452   3.846
 9395TIP3    H128128   7.603   5.485   3.935
 9395TIP3    H228129   7.514   5.496   3.813
 9396TIP3   OH228130   7.977   2.799   2.289
 9396TIP3    H128131   7.934   2.735   2.345
 9396TIP3    H228132   8.063   2.813   2.329
 9397TIP3   OH228133   4.812   7.133   2.751
 9397TIP3    H128134   4.868   7.114   2.826
 9397TIP3    H228135   4.804   7.049   2.706
 9398TIP3   OH228136   3.694   6.465   2.572
 9398TIP3    H128137   3.758   6.429   2.510
 9398TIP3    H228138   3.747   6.510   2.638
 9399TIP3   OH228139   5.079   3.805   5.495
 9399TIP3    H128140   5.012   3.854   5.541
 9399TIP3    H228141   5.085   3.848   5.409
 9400TIP3   OH228142   0.935   6.003   0.847
 9400TIP3    H128143   0.889   6.014   0.930
 9400TIP3    H228144   0.956   5.910   0.843
 9401TIP3   OH228145   1.973   7.494   1.821
 9401TIP3    H128146   2.048   7.459   1.773
 9401TIP3    H228147   1.979   7.588   1.809
 9402TIP3   OH228148   8.030   0.578   3.066
 9402TIP3    H128149   8.085   0.606   2.992
 9402TIP3    H228150   8.076   0.503   3.102
 9403TIP3   OH228151   3.111   4.280   2.595
 9403TIP3    H128152   3.123   4.323   2.510
 9403TIP3    H228153   3.019   4.252   2.595
 9404TIP3   OH228154   5.596   3.218   3.114
 9404TIP3    H128155   5.623   3.167   3.191
 9404TIP3    H228156   5.507   3.190   3.096
 9405TIP3   OH228157   7.175   3.862   1.832
 9405TIP3    H128158   7.128   3.811   1.897
 9405TIP3    H228159   7.151   3.822   1.748
 9406TIP3   OH228160   0.688   2.066   0.244
 9406TIP3    H128161   0.730   2.053   0.329
 9406TIP3    H228162   0.733   2.143   0.207
 9407TIP3   OH228163   3.126   2.463   2.715
 9407TIP3    H128164   3.176   2.539   2.746
 9407TIP3    H228165   3.037   2.478   2.745
 9408TIP3   OH228166   2.460   0.994   1.401
 9408TIP3    H128167   2.516   1.071   1.396
 9408TIP3    H228168   2.406   1.008   1.479
 9409TIP3   OH228169   6.555   3.281   5.298
 9409TIP3    H128170   6.486   3.231   5.254
 9409TIP3    H228171   6.526   3.287   5.389
 9410TIP3   OH228172   3.012   3.902   3.410
 9410TIP3    H128173   3.087   3.849   3.384
 9410TIP3    H228174   2.960   3.844   3.466
 9411TIP3   OH228175   6.815   5.235   0.094
 9411TIP3    H128176   6.862   5.152   0.084
 9411TIP3    H228177   6.722   5.211   0.090
 9412TIP3   OH228178   0.048   1.694   5.003
 9412TIP3    H128179   0.009   1.609   5.025
 9412TIP3    H228180  -0.016   1.736   4.945
 9413TIP3   OH228181   0.989   2.218   2.827
 9413TIP3    H128182   0.971   2.282   2.895
 9413TIP3    H228183   0.906   2.171   2.816
 9414TIP3   OH228184   2.311   5.345   3.962
 9414TIP3    H128185   2.268   5.260   3.971
 9414TIP3    H228186   2.244   5.408   3.990
 9415TIP3   OH228187   7.506   5.144   1.591
 9415TIP3    H128188   7.537   5.134   1.681
 9415TIP3    H228189   7.497   5.239   1.579
 9416TIP3   OH228190   0.703   6.486   5.459
 9416TIP3    H128191   0.709   6.391   5.449
 9416TIP3    H228192   0.794   6.515   5.464
 9417TIP3   OH228193   0.467   6.268   2.616
 9417TIP3    H128194   0.472   6.328   2.690
 9417TIP3    H228195   0.551   6.222   2.616
 9418TIP3   OH228196   4.432   0.121   3.611
 9418TIP3    H128197   4.469   0.208   3.598
 9418TIP3    H228198   4.505   0.061   3.594
 9419TIP3   OH228199   1.444   3.309   0.745
 9419TIP3    H128200   1.460   3.272   0.659
 9419TIP3    H228201   1.493   3.391   0.745
 9420TIP3   OH228202   6.327   3.593   0.980
 9420TIP3    H128203   6.320   3.613   1.073
 9420TIP3    H228204   6.289   3.670   0.936
 9421TIP3   OH228205   7.242   1.033   3.578
 9421TIP3    H128206   7.291   0.952   3.591
 9421TIP3    H228207   7.258   1.056   3.486
 9422TIP3   OH228208   3.045   0.198   6.206
 9422TIP3    H128209   2.952   0.178   6.193
 9422TIP3    H228210   3.047   0.292   6.224
 9423TIP3   OH228211   4.447   4.816   2.115
 9423TIP3    H128212   4.390   4.762   2.170
 9423TIP3    H228213   4.489   4.754   2.056
 9424TIP3   OH228214   0.411   2.765   2.713
 9424TIP3    H128215   0.412   2.685   2.765
 9424TIP3    H228216   0.479   2.752   2.648
 9425TIP3   OH228217   0.401   6.864   1.266
 9425TIP3    H128218   0.418   6.914   1.346
 9425TIP3    H228219   0.346   6.790   1.295
 9426TIP3   OH228220   6.251   0.119   3.296
 9426TIP3    H128221   6.267   0.184   3.227
 9426TIP3    H228222   6.337   0.106   3.336
 9427TIP3   OH228223   1.101   3.706   3.423
 9427TIP3    H128224   1.067   3.791   3.395
 9427TIP3    H228225   1.035   3.643   3.396
 9428TIP3   OH228226   2.126   2.195   4.429
 9428TIP3    H128227   2.176   2.276   4.433
 9428TIP3    H228228   2.189   2.126   4.451
 9429TIP3   OH228229   8.035   2.032   6.627
 9429TIP3    H128230   7.994   2.112   6.596
 9429TIP3    H228231   7.976   1.962   6.600
 9430TIP3   OH228232   0.592   7.500   1.818
 9430TIP3    H128233   0.537   7.539   1.751
 9430TIP3    H228234   0.544   7.512   1.900
 9431TIP3   OH228235   2.506   1.944   1.085
 9431TIP3    H128236   2.586   1.943   1.031
 9431TIP3    H228237   2.537   1.934   1.175
 9432TIP3   OH228238   0.528   0.118   1.535
 9432TIP3    H128239   0.559   0.137   1.624
 9432TIP3    H228240   0.433   0.108   1.545
 9433TIP3   OH228241   1.153   7.711   6.101
 9433TIP3    H128242   1.113   7.632   6.065
 9433TIP3    H228243   1.096   7.736   6.173
 9434TIP3   OH228244   2.747   0.680   1.790
 9434TIP3    H128245   2.716   0.594   1.764
 9434TIP3    H228246   2.753   0.729   1.708
 9435TIP3   OH228247   0.826   0.750   0.812
 9435TIP3    H128248   0.774   0.739   0.892
 9435TIP3    H228249   0.838   0.660   0.780
 9436TIP3   OH228250   6.836   1.456   6.473
 9436TIP3    H128251   6.896   1.383   6.458
 9436TIP3    H228252   6.825   1.458   6.568
 9437TIP3   OH228253   7.462   2.871   6.310
 9437TIP3    H128254   7.552   2.903   6.309
 9437TIP3    H228255   7.465   2.788   6.262
 9438TIP3   OH228256   3.568   2.157   5.139
 9438TIP3    H128257   3.566   2.241   5.185
 9438TIP3    H228258   3.477   2.129   5.138
 9439TIP3   OH228259   2.336   5.549   4.879
 9439TIP3    H128260   2.264   5.608   4.902
 9439TIP3    H228261   2.317   5.468   4.928
 9440TIP3   OH228262   1.976   4.779   0.023
 9440TIP3    H128263   2.039   4.723   0.069
 9440TIP3    H228264   2.031   4.846  -0.018
 9441TIP3   OH228265   4.113   7.408   1.815
 9441TIP3    H128266   4.164   7.428   1.736
 9441TIP3    H228267   4.028   7.449   1.799
 9442TIP3   OH228268   0.502   2.856   4.628
 9442TIP3    H128269   0.575   2.916   4.644
 9442TIP3    H228270   0.527   2.807   4.549
 9443TIP3   OH228271   4.675   0.261   4.447
 9443TIP3    H128272   4.602   0.216   4.403
 9443TIP3    H228273   4.741   0.273   4.379
 9444TIP3   OH228274   4.471   2.007   5.946
 9444TIP3    H128275   4.450   2.084   5.894
 9444TIP3    H228276   4.490   1.938   5.882
 9445TIP3   OH228277   1.444   1.974   0.389
 9445TIP3    H128278   1.360   1.973   0.342
 9445TIP3    H228279   1.504   1.927   0.331
 9446TIP3   OH228280   4.716   7.046   6.272
 9446TIP3    H128281   4.628   7.013   6.252
 9446TIP3    H228282   4.702   7.105   6.346
 9447TIP3   OH228283   1.591   0.401   5.415
 9447TIP3    H128284   1.540   0.445   5.347
 9447TIP3    H228285   1.644   0.337   5.368
 9448TIP3   OH228286   5.781   1.686   5.338
 9448TIP3    H128287   5.764   1.595   5.314
 9448TIP3    H228288   5.846   1.716   5.274
 9449TIP3   OH228289   7.525   4.676   0.123
 9449TIP3    H128290   7.537   4.741   0.053
 9449TIP3    H228291   7.435   4.687   0.152
 9450TIP3   OH228292   0.360   5.145   5.627
 9450TIP3    H128293   0.337   5.113   5.714
 9450TIP3    H228294   0.332   5.076   5.567
 9451TIP3   OH228295   1.297   2.301   1.212
 9451TIP3    H128296   1.306   2.396   1.220
 9451TIP3    H228297   1.212   2.281   1.252
 9452TIP3   OH228298   1.133   5.101   1.213
 9452TIP3    H128299   1.166   5.127   1.127
 9452TIP3    H228300   1.149   5.006   1.216
 9453TIP3   OH228301   1.553   2.131   1.246
 9453TIP3    H128302   1.475   2.186   1.244
 9453TIP3    H228303   1.618   2.184   1.291
 9454TIP3   OH228304   5.438   1.224   3.923
 9454TIP3    H128305   5.428   1.187   3.835
 9454TIP3    H228306   5.462   1.150   3.978
 9455TIP3   OH228307   3.007   1.608   2.000
 9455TIP3    H128308   2.935   1.550   1.973
 9455TIP3    H228309   3.004   1.681   1.939
 9456TIP3   OH228310   6.401   3.995   5.175
 9456TIP3    H128311   6.405   4.089   5.188
 9456TIP3    H228312   6.442   3.981   5.090
 9457TIP3   OH228313   1.360   4.757   0.586
 9457TIP3    H128314   1.356   4.665   0.612
 9457TIP3    H228315   1.442   4.764   0.536
 9458TIP3   OH228316   3.363   5.321   5.384
 9458TIP3    H128317   3.291   5.295   5.327
 9458TIP3    H228318   3.321   5.361   5.460
 9459TIP3   OH228319   5.715   1.016   3.912
 9459TIP3    H128320   5.789   0.963   3.882
 9459TIP3    H228321   5.752   1.103   3.923
 9460TIP3   OH228322   7.777   3.633   0.581
 9460TIP3    H128323   7.740   3.614   0.667
 9460TIP3    H228324   7.830   3.712   0.595
 9461TIP3   OH228325   8.227   4.836   2.863
 9461TIP3    H128326   8.161   4.768   2.877
 9461TIP3    H228327   8.292   4.822   2.931
 9462TIP3   OH228328   3.180   3.471   3.397
 9462TIP3    H128329   3.168   3.556   3.355
 9462TIP3    H228330   3.220   3.491   3.481
 9463TIP3   OH228331   6.678   2.284   4.416
 9463TIP3    H128332   6.631   2.208   4.451
 9463TIP3    H228333   6.723   2.321   4.491
 9464TIP3   OH228334   5.837   5.535   1.557
 9464TIP3    H128335   5.763   5.538   1.496
 9464TIP3    H228336   5.907   5.583   1.512
 9465TIP3   OH228337   5.787   0.346   1.208
 9465TIP3    H128338   5.869   0.386   1.179
 9465TIP3    H228339   5.748   0.409   1.269
 9466TIP3   OH228340   4.309   0.192   6.228
 9466TIP3    H128341   4.237   0.132   6.250
 9466TIP3    H228342   4.388   0.139   6.235
 9467TIP3   OH228343   8.263   5.419   2.605
 9467TIP3    H128344   8.285   5.410   2.698
 9467TIP3    H228345   8.229   5.333   2.580
 9468TIP3   OH228346   5.531   7.637   4.899
 9468TIP3    H128347   5.594   7.567   4.921
 9468TIP3    H228348   5.451   7.611   4.945
 9469TIP3   OH228349   1.689   1.992   5.012
 9469TIP3    H128350   1.711   1.900   4.995
 9469TIP3    H228351   1.765   2.041   4.980
 9470TIP3   OH228352   3.099   1.297   4.334
 9470TIP3    H128353   3.190   1.323   4.317
 9470TIP3    H228354   3.049   1.377   4.320
 9471TIP3   OH228355   7.955   2.951   5.161
 9471TIP3    H128356   8.009   3.026   5.135
 9471TIP3    H228357   8.008   2.875   5.137
 9472TIP3   OH228358   2.647   6.219   3.643
 9472TIP3    H128359   2.596   6.180   3.714
 9472TIP3    H228360   2.725   6.253   3.686
 9473TIP3   OH228361   4.160   1.400   6.586
 9473TIP3    H128362   4.163   1.367   6.676
 9473TIP3    H228363   4.126   1.326   6.534
 9474TIP3   OH228364   7.127   6.906   0.079
 9474TIP3    H128365   7.147   6.989   0.036
 9474TIP3    H228366   7.102   6.847   0.008
 9475TIP3   OH228367   7.383   3.562   1.872
 9475TIP3    H128368   7.449   3.553   1.941
 9475TIP3    H228369   7.353   3.653   1.880
 9476TIP3   OH228370   0.333   7.597   6.560
 9476TIP3    H128371   0.420   7.571   6.532
 9476TIP3    H228372   0.344   7.687   6.592
 9477TIP3   OH228373   1.906   1.159   5.841
 9477TIP3    H128374   1.941   1.108   5.769
 9477TIP3    H228375   1.827   1.200   5.805
 9478TIP3   OH228376   8.183   7.143   5.744
 9478TIP3    H128377   8.145   7.226   5.775
 9478TIP3    H228378   8.257   7.127   5.804
 9479TIP3   OH228379   1.454   5.786   6.576
 9479TIP3    H128380   1.448   5.785   6.672
 9479TIP3    H228381   1.388   5.724   6.547
 9480TIP3   OH228382   8.099   4.824   2.152
 9480TIP3    H128383   8.082   4.770   2.229
 9480TIP3    H228384   8.143   4.765   2.090
 9481TIP3   OH228385   7.775   3.729   1.846
 9481TIP3    H128386   7.817   3.772   1.772
 9481TIP3    H228387   7.735   3.650   1.809
 9482TIP3   OH228388   5.924   2.716   3.463
 9482TIP3    H128389   5.919   2.638   3.518
 9482TIP3    H228390   5.846   2.766   3.484
 9483TIP3   OH228391   6.041   7.708   5.792
 9483TIP3    H128392   5.973   7.685   5.856
 9483TIP3    H228393   6.005   7.679   5.708
 9484TIP3   OH228394   2.661   7.675   0.303
 9484TIP3    H128395   2.623   7.626   0.376
 9484TIP3    H228396   2.700   7.752   0.344
 9485TIP3   OH228397   7.559   7.770   1.336
 9485TIP3    H128398   7.548   7.718   1.256
 9485TIP3    H228399   7.500   7.728   1.400
 9486TIP3   OH228400   4.993   4.053   3.870
 9486TIP3    H128401   5.052   3.991   3.828
 9486TIP3    H228402   4.969   4.012   3.953
 9487TIP3   OH228403   8.136   7.254   0.131
 9487TIP3    H128404   8.206   7.189   0.135
 9487TIP3    H228405   8.155   7.314   0.204
 9488TIP3   OH228406   2.104   3.860   3.597
 9488TIP3    H128407   2.120   3.832   3.507
 9488TIP3    H228408   2.143   3.792   3.651
 9489TIP3   OH228409   3.241   6.979   6.275
 9489TIP3    H128410   3.242   6.921   6.199
 9489TIP3    H228411   3.270   7.064   6.242
 9490TIP3   OH228412   2.131   0.331   6.111
 9490TIP3    H128413   2.062   0.335   6.178
 9490TIP3    H228414   2.147   0.422   6.088
 9491TIP3   OH228415   2.062   5.924   2.031
 9491TIP3    H128416   1.992   5.915   2.095
 9491TIP3    H228417   2.140   5.943   2.083
 9492TIP3   OH228418   7.807   5.514   0.444
 9492TIP3    H128419   7.813   5.428   0.486
 9492TIP3    H228420   7.890   5.556   0.463
 9493TIP3   OH228421   3.863   5.757   3.409
 9493TIP3    H128422   3.920   5.700   3.357
 9493TIP3    H228423   3.776   5.746   3.370
 9494TIP3   OH228424   5.134   6.248   5.431
 9494TIP3    H128425   5.064   6.311   5.448
 9494TIP3    H228426   5.215   6.296   5.447
 9495TIP3   OH228427   6.371   6.843   4.171
 9495TIP3    H128428   6.299   6.879   4.223
 9495TIP3    H228429   6.352   6.872   4.082
 9496TIP3   OH228430   0.098   2.421   4.884
 9496TIP3    H128431   0.114   2.415   4.790
 9496TIP3    H228432   0.009   2.390   4.896
 9497TIP3   OH228433   4.316   6.563   3.333
 9497TIP3    H128434   4.292   6.633   3.394
 9497TIP3    H228435   4.358   6.608   3.260
 9498TIP3   OH228436   0.119   1.701   4.553
 9498TIP3    H128437   0.189   1.764   4.535
 9498TIP3    H228438   0.040   1.755   4.562
 9499TIP3   OH228439   0.337   4.367   3.181
 9499TIP3    H128440   0.402   4.317   3.232
 9499TIP3    H228441   0.260   4.310   3.177
 9500TIP3   OH228442   6.779   2.367   3.002
 9500TIP3    H128443   6.850   2.400   2.947
 9500TIP3    H228444   6.700   2.376   2.949
 9501TIP3   OH228445   2.881   6.180   2.392
 9501TIP3    H128446   2.860   6.273   2.392
 9501TIP3    H228447   2.847   6.148   2.476
 9502TIP3   OH228448   6.571   1.117   3.309
 9502TIP3    H128449   6.530   1.101   3.225
 9502TIP3    H228450   6.506   1.167   3.358
 9503TIP3   OH228451  -0.055   2.134   0.683
 9503TIP3    H128452   0.015   2.165   0.626
 9503TIP3    H228453  -0.091   2.058   0.638
 9504TIP3   OH228454   7.846   2.351   6.740
 9504TIP3    H128455   7.869   2.436   6.703
 9504TIP3    H228456   7.898   2.288   6.691
 9505TIP3   OH228457   2.612   3.283   1.377
 9505TIP3    H128458   2.644   3.309   1.463
 9505TIP3    H228459   2.528   3.239   1.396
 9506TIP3   OH228460   5.453   2.406   5.689
 9506TIP3    H128461   5.395   2.331   5.678
 9506TIP3    H228462   5.537   2.369   5.717
 9507TIP3   OH228463   3.411   5.354   1.169
 9507TIP3    H128464   3.368   5.280   1.211
 9507TIP3    H228465   3.453   5.317   1.091
 9508TIP3   OH228466   5.201   4.865   6.175
 9508TIP3    H128467   5.275   4.820   6.133
 9508TIP3    H228468   5.129   4.803   6.169
 9509TIP3   OH228469   7.415   2.182   4.657
 9509TIP3    H128470   7.491   2.123   4.658
 9509TIP3    H228471   7.360   2.149   4.587
 9510TIP3   OH228472   7.406   1.078   6.530
 9510TIP3    H128473   7.499   1.054   6.535
 9510TIP3    H228474   7.372   1.061   6.618
 9511TIP3   OH228475   0.845   6.010   1.284
 9511TIP3    H128476   0.788   6.051   1.350
 9511TIP3    H228477   0.808   6.038   1.200
 9512TIP3   OH228478   0.812   5.813   4.968
 9512TIP3    H128479   0.862   5.769   4.899
 9512TIP3    H228480   0.743   5.860   4.921
 9513TIP3   OH228481   5.114   1.008   6.045
 9513TIP3    H128482   5.089   0.964   5.964
 9513TIP3    H228483   5.031   1.027   6.089
 9514TIP3   OH228484   3.281   1.763   0.846
 9514TIP3    H128485   3.230   1.842   0.868
 9514TIP3    H228486   3.289   1.766   0.751
 9515TIP3   OH228487   1.400   0.244   0.343
 9515TIP3    H128488   1.385   0.328   0.387
 9515TIP3    H228489   1.462   0.264   0.273
 9516TIP3   OH228490   1.405   1.731   4.625
 9516TIP3    H128491   1.380   1.678   4.549
 9516TIP3    H228492   1.404   1.821   4.593
 9517TIP3   OH228493   5.197   1.528   6.439
 9517TIP3    H128494   5.142   1.471   6.385
 9517TIP3    H228495   5.275   1.476   6.458
 9518TIP3   OH228496   1.349   3.888   4.064
 9518TIP3    H128497   1.268   3.847   4.093
 9518TIP3    H228498   1.407   3.815   4.042
 9519TIP3   OH228499   2.839   6.821   5.782
 9519TIP3    H128500   2.834   6.916   5.785
 9519TIP3    H228501   2.786   6.791   5.855
 9520TIP3   OH228502   0.064   0.181   5.532
 9520TIP3    H128503   0.040   0.206   5.442
 9520TIP3    H228504   0.083   0.088   5.527
 9521TIP3   OH228505   6.879   5.116   2.719
 9521TIP3    H128506   6.886   5.025   2.750
 9521TIP3    H228507   6.947   5.163   2.767
 9522TIP3   OH228508   0.905   5.166   4.188
 9522TIP3    H128509   0.876   5.154   4.097
 9522TIP3    H228510   0.971   5.235   4.183
 9523TIP3   OH228511   3.336   3.326   1.561
 9523TIP3    H128512   3.318   3.233   1.547
 9523TIP3    H228513   3.300   3.370   1.484
 9524TIP3   OH228514   8.118   2.666   0.005
 9524TIP3    H128515   8.079   2.692  -0.078
 9524TIP3    H228516   8.204   2.709   0.005
 9525TIP3   OH228517   5.739   4.601   4.360
 9525TIP3    H128518   5.803   4.529   4.356
 9525TIP3    H228519   5.754   4.650   4.280
 9526TIP3   OH228520   3.998   4.493   3.629
 9526TIP3    H128521   4.082   4.535   3.608
 9526TIP3    H228522   3.996   4.490   3.724
 9527TIP3   OH228523   2.520   1.457   0.067
 9527TIP3    H128524   2.506   1.497  -0.019
 9527TIP3    H228525   2.483   1.370   0.060
 9528TIP3   OH228526   3.797   7.330   0.763
 9528TIP3    H128527   3.795   7.319   0.668
 9528TIP3    H228528   3.855   7.405   0.778
 9529TIP3   OH228529   3.289   2.920   4.702
 9529TIP3    H128530   3.296   2.990   4.766
 9529TIP3    H228531   3.372   2.873   4.708
 9530TIP3   OH228532   3.856   5.126   0.587
 9530TIP3    H128533   3.951   5.120   0.598
 9530TIP3    H228534   3.835   5.057   0.524
 9531TIP3   OH228535   6.488   3.557   0.244
 9531TIP3    H128536   6.406   3.512   0.227
 9531TIP3    H228537   6.514   3.527   0.332
 9532TIP3   OH228538   0.142   0.277   4.221
 9532TIP3    H128539   0.079   0.216   4.182
 9532TIP3    H228540   0.157   0.243   4.309
 9533TIP3   OH228541   3.755   4.230   2.844
 9533TIP3    H128542   3.743   4.135   2.847
 9533TIP3    H228543   3.831   4.246   2.900
 9534TIP3   OH228544   3.811   1.999   2.627
 9534TIP3    H128545   3.786   1.999   2.719
 9534TIP3    H228546   3.907   2.007   2.627
 9535TIP3   OH228547   4.584   2.065   6.407
 9535TIP3    H128548   4.538   1.982   6.416
 9535TIP3    H228549   4.522   2.121   6.359
 9536TIP3   OH228550   1.638   3.177   3.651
 9536TIP3    H128551   1.553   3.180   3.696
 9536TIP3    H228552   1.626   3.233   3.574
 9537TIP3   OH228553   2.703   0.403   1.710
 9537TIP3    H128554   2.793   0.371   1.717
 9537TIP3    H228555   2.649   0.329   1.737
 9538TIP3   OH228556   7.482   0.595   0.396
 9538TIP3    H128557   7.392   0.588   0.367
 9538TIP3    H228558   7.484   0.549   0.480
 9539TIP3   OH228559   6.167   3.840   1.727
 9539TIP3    H128560   6.115   3.779   1.676
 9539TIP3    H228561   6.200   3.788   1.801
 9540TIP3   OH228562   0.483   6.674   2.140
 9540TIP3    H128563   0.425   6.750   2.129
 9540TIP3    H228564   0.560   6.696   2.088
 9541TIP3   OH228565   6.160   0.626   3.767
 9541TIP3    H128566   6.131   0.616   3.676
 9541TIP3    H228567   6.185   0.537   3.794
 9542TIP3   OH228568   7.380   7.058   1.937
 9542TIP3    H128569   7.367   7.054   2.032
 9542TIP3    H228570   7.316   6.996   1.902
 9543TIP3   OH228571   5.334   6.882   4.039
 9543TIP3    H128572   5.269   6.919   4.098
 9543TIP3    H228573   5.416   6.885   4.089
 9544TIP3   OH228574   3.616   6.377   0.935
 9544TIP3    H128575   3.679   6.309   0.912
 9544TIP3    H228576   3.642   6.452   0.881
 9545TIP3   OH228577   7.396   4.545   5.446
 9545TIP3    H128578   7.337   4.471   5.454
 9545TIP3    H228579   7.392   4.588   5.531
 9546TIP3   OH228580   4.679   5.208   2.867
 9546TIP3    H128581   4.661   5.182   2.958
 9546TIP3    H228582   4.734   5.286   2.875
 9547TIP3   OH228583   3.721   0.404   1.015
 9547TIP3    H128584   3.730   0.454   0.934
 9547TIP3    H228585   3.656   0.453   1.066
 9548TIP3   OH228586   0.667   6.131   4.303
 9548TIP3    H128587   0.748   6.116   4.255
 9548TIP3    H228588   0.600   6.140   4.235
 9549TIP3   OH228589   0.338   0.872   5.165
 9549TIP3    H128590   0.360   0.785   5.130
 9549TIP3    H228591   0.344   0.862   5.260
 9550TIP3   OH228592   0.603   3.900   5.301
 9550TIP3    H128593   0.668   3.910   5.232
 9550TIP3    H228594   0.547   3.977   5.292
 9551TIP3   OH228595   6.196   7.484   3.751
 9551TIP3    H128596   6.198   7.437   3.668
 9551TIP3    H228597   6.157   7.421   3.812
 9552TIP3   OH228598   0.204   2.265   0.200
 9552TIP3    H128599   0.113   2.264   0.228
 9552TIP3    H228600   0.220   2.177   0.165
 9553TIP3   OH228601   4.878   1.966   2.973
 9553TIP3    H128602   4.897   2.056   2.998
 9553TIP3    H228603   4.960   1.934   2.934
 9554TIP3   OH228604   3.458   4.275   5.167
 9554TIP3    H128605   3.542   4.280   5.121
 9554TIP3    H228606   3.474   4.215   5.239
 9555TIP3   OH228607   5.881   5.070   2.006
 9555TIP3    H128608   5.931   4.996   2.040
 9555TIP3    H228609   5.941   5.114   1.945
 9556TIP3   OH228610   7.432   0.771   6.371
 9556TIP3    H128611   7.387   0.851   6.341
 9556TIP3    H228612   7.523   0.784   6.346
 9557TIP3   OH228613   2.632   6.027   2.874
 9557TIP3    H128614   2.560   6.089   2.858
 9557TIP3    H228615   2.655   6.041   2.966
 9558TIP3   OH228616   6.777   7.196   6.459
 9558TIP3    H128617   6.706   7.255   6.433
 9558TIP3    H228618   6.782   7.205   6.554
 9559TIP3   OH228619   3.677   4.602   0.929
 9559TIP3    H128620   3.664   4.509   0.908
 9559TIP3    H228621   3.726   4.601   1.011
 9560TIP3   OH228622   0.245   6.710   0.131
 9560TIP3    H128623   0.332   6.740   0.104
 9560TIP3    H228624   0.233   6.627   0.085
 9561TIP3   OH228625   7.880   6.851   2.152
 9561TIP3    H128626   7.963   6.820   2.189
 9561TIP3    H228627   7.813   6.806   2.203
 9562TIP3   OH228628   7.167   1.002   6.469
 9562TIP3    H128629   7.253   1.042   6.464
 9562TIP3    H228630   7.162   0.966   6.558
 9563TIP3   OH228631   5.627   2.056   5.379
 9563TIP3    H128632   5.711   2.011   5.368
 9563TIP3    H228633   5.644   2.145   5.349
 9564TIP3   OH228634   8.080   6.546   4.958
 9564TIP3    H128635   8.001   6.509   4.920
 9564TIP3    H228636   8.110   6.610   4.894
 9565TIP3   OH228637   1.264   3.182   2.691
 9565TIP3    H128638   1.211   3.258   2.716
 9565TIP3    H228639   1.214   3.106   2.724
 9566TIP3   OH228640   6.704   5.249   4.402
 9566TIP3    H128641   6.783   5.196   4.414
 9566TIP3    H228642   6.727   5.336   4.433
 9567TIP3   OH228643   5.174   4.745   2.938
 9567TIP3    H128644   5.229   4.727   2.862
 9567TIP3    H228645   5.110   4.809   2.907
 9568TIP3   OH228646   2.774   1.640   5.066
 9568TIP3    H128647   2.868   1.657   5.060
 9568TIP3    H228648   2.746   1.631   4.975
 9569TIP3   OH228649   5.776   0.463   0.776
 9569TIP3    H128650   5.751   0.539   0.723
 9569TIP3    H228651   5.740   0.482   0.863
 9570TIP3   OH228652   7.661   0.207   4.675
 9570TIP3    H128653   7.669   0.158   4.757
 9570TIP3    H228654   7.730   0.171   4.619
 9571TIP3   OH228655   1.250   4.238   1.886
 9571TIP3    H128656   1.215   4.150   1.902
 9571TIP3    H228657   1.180   4.297   1.913
 9572TIP3   OH228658   1.849   4.063   4.618
 9572TIP3    H128659   1.798   4.086   4.696
 9572TIP3    H228660   1.901   3.988   4.645
 9573TIP3   OH228661   4.974   3.174   3.190
 9573TIP3    H128662   5.017   3.140   3.112
 9573TIP3    H228663   4.924   3.100   3.224
 9574TIP3   OH228664   0.277   1.740   0.586
 9574TIP3    H128665   0.270   1.718   0.679
 9574TIP3    H228666   0.293   1.656   0.543
 9575TIP3   OH228667   0.932   6.274   1.228
 9575TIP3    H128668   1.009   6.225   1.256
 9575TIP3    H228669   0.964   6.362   1.209
 9576TIP3   OH228670   2.555   7.726   1.651
 9576TIP3    H128671   2.637   7.776   1.648
 9576TIP3    H228672   2.524   7.725   1.561
 9577TIP3   OH228673   7.501   1.455   0.843
 9577TIP3    H128674   7.437   1.527   0.847
 9577TIP3    H228675   7.452   1.378   0.872
 9578TIP3   OH228676   0.551   0.471   0.664
 9578TIP3    H128677   0.476   0.441   0.614
 9578TIP3    H228678   0.522   0.469   0.755
 9579TIP3   OH228679   2.210   6.703   1.172
 9579TIP3    H128680   2.226   6.631   1.233
 9579TIP3    H228681   2.114   6.714   1.172
 9580TIP3   OH228682   4.059   3.872   4.677
 9580TIP3    H128683   3.980   3.886   4.624
 9580TIP3    H228684   4.027   3.834   4.759
 9581TIP3   OH228685   7.411   5.064   0.563
 9581TIP3    H128686   7.367   5.145   0.588
 9581TIP3    H228687   7.367   5.037   0.482
 9582TIP3   OH228688   0.807   6.170   2.699
 9582TIP3    H128689   0.826   6.096   2.756
 9582TIP3    H228690   0.798   6.244   2.758
 9583TIP3   OH228691   6.750   2.399   0.454
 9583TIP3    H128692   6.680   2.350   0.497
 9583TIP3    H228693   6.736   2.384   0.361
 9584TIP3   OH228694   1.412   0.448   0.051
 9584TIP3    H128695   1.409   0.432  -0.043
 9584TIP3    H228696   1.449   0.368   0.088
 9585TIP3   OH228697   4.239   7.022   1.979
 9585TIP3    H128698   4.270   6.965   1.909
 9585TIP3    H228699   4.158   7.060   1.945
 9586TIP3   OH228700   2.975   1.725   1.313
 9586TIP3    H128701   3.017   1.684   1.389
 9586TIP3    H228702   2.883   1.699   1.319
 9587TIP3   OH228703   5.244   2.907   0.241
 9587TIP3    H128704   5.302   2.831   0.246
 9587TIP3    H228705   5.196   2.895   0.159
 9588TIP3   OH228706   1.564   4.859   5.300
 9588TIP3    H128707   1.568   4.775   5.346
 9588TIP3    H228708   1.482   4.855   5.250
 9589TIP3   OH228709   3.307   4.511   5.258
 9589TIP3    H128710   3.233   4.463   5.222
 9589TIP3    H228711   3.381   4.451   5.249
 9590TIP3   OH228712   0.944   2.822   5.383
 9590TIP3    H128713   0.892   2.772   5.446
 9590TIP3    H228714   0.970   2.758   5.317
 9591TIP3   OH228715   0.375   3.998   3.216
 9591TIP3    H128716   0.367   4.015   3.310
 9591TIP3    H228717   0.458   4.037   3.191
 9592TIP3   OH228718   7.170   5.939   4.679
 9592TIP3    H128719   7.137   5.946   4.769
 9592TIP3    H228720   7.170   6.030   4.646
 9593TIP3   OH228721   2.690   5.468   4.457
 9593TIP3    H128722   2.685   5.376   4.430
 9593TIP3    H228723   2.764   5.471   4.519
 9594TIP3   OH228724   2.635   1.335   6.417
 9594TIP3    H128725   2.685   1.279   6.476
 9594TIP3    H228726   2.701   1.377   6.362
 9595TIP3   OH228727   7.353   6.088   2.010
 9595TIP3    H128728   7.432   6.036   1.992
 9595TIP3    H228729   7.300   6.032   2.066
 9596TIP3   OH228730   5.888   7.328   1.144
 9596TIP3    H128731   5.818   7.321   1.209
 9596TIP3    H228732   5.847   7.371   1.069
 9597TIP3   OH228733   8.237   2.016   4.805
 9597TIP3    H128734   8.155   1.975   4.775
 9597TIP3    H228735   8.298   2.004   4.733
 9598TIP3   OH228736   3.527   0.228   4.796
 9598TIP3    H128737   3.576   0.261   4.871
 9598TIP3    H228738   3.525   0.301   4.734
 9599TIP3   OH228739   2.705   4.748   2.500
 9599TIP3    H128740   2.726   4.839   2.480
 9599TIP3    H228741   2.724   4.700   2.419
 9600TIP3   OH228742   8.032   1.104   3.937
 9600TIP3    H128743   8.037   1.194   3.970
 9600TIP3    H228744   8.122   1.073   3.938
 9601TIP3   OH228745   2.680   2.606   3.368
 9601TIP3    H128746   2.678   2.661   3.290
 9601TIP3    H228747   2.590   2.604   3.399
 9602TIP3   OH228748   0.575   1.059   0.542
 9602TIP3    H128749   0.565   0.966   0.523
 9602TIP3    H228750   0.664   1.067   0.578
 9603TIP3   OH228751   3.368   0.446   0.946
 9603TIP3    H128752   3.418   0.466   1.025
 9603TIP3    H228753   3.279   0.473   0.966
 9604TIP3   OH228754   1.992   0.216   5.567
 9604TIP3    H128755   2.064   0.182   5.516
 9604TIP3    H228756   1.917   0.214   5.508
 9605TIP3   OH228757   2.161   0.492   0.198
 9605TIP3    H128758   2.155   0.425   0.129
 9605TIP3    H228759   2.193   0.445   0.274
 9606TIP3   OH228760   1.080   0.842   1.561
 9606TIP3    H128761   0.997   0.794   1.567
 9606TIP3    H228762   1.125   0.823   1.644
 9607TIP3   OH228763   2.123   4.493   2.802
 9607TIP3    H128764   2.218   4.499   2.806
 9607TIP3    H228765   2.093   4.584   2.809
 9608TIP3   OH228766   0.519   0.674   5.752
 9608TIP3    H128767   0.426   0.651   5.747
 9608TIP3    H228768   0.552   0.661   5.663
 9609TIP3   OH228769   3.599   2.309   3.362
 9609TIP3    H128770   3.616   2.276   3.450
 9609TIP3    H228771   3.533   2.249   3.327
 9610TIP3   OH228772   6.491   3.348   4.680
 9610TIP3    H128773   6.500   3.423   4.622
 9610TIP3    H228774   6.579   3.309   4.682
 9611TIP3   OH228775   4.121   2.368   5.987
 9611TIP3    H128776   4.141   2.277   6.009
 9611TIP3    H228777   4.052   2.393   6.047
 9612TIP3   OH228778   4.292   0.760   3.212
 9612TIP3    H128779   4.337   0.843   3.227
 9612TIP3    H228780   4.233   0.752   3.286
 9613TIP3   OH228781   4.509   6.474   5.912
 9613TIP3    H128782   4.581   6.499   5.969
 9613TIP3    H228783   4.433   6.520   5.948
 9614TIP3   OH228784   1.795   4.713   6.386
 9614TIP3    H128785   1.745   4.634   6.408
 9614TIP3    H228786   1.763   4.738   6.299
 9615TIP3   OH228787   1.508   0.157   5.022
 9615TIP3    H128788   1.467   0.099   4.959
 9615TIP3    H228789   1.594   0.119   5.038
 9616TIP3   OH228790   5.320   4.853   0.122
 9616TIP3    H128791   5.350   4.941   0.142
 9616TIP3    H228792   5.298   4.855   0.028
 9617TIP3   OH228793   6.027   1.555   2.078
 9617TIP3    H128794   5.987   1.606   2.148
 9617TIP3    H228795   5.964   1.559   2.006
 9618TIP3   OH228796   7.120   4.387   3.136
 9618TIP3    H128797   7.109   4.302   3.094
 9618TIP3    H228798   7.032   4.409   3.168
 9619TIP3   OH228799   0.610   3.112   5.736
 9619TIP3    H128800   0.678   3.045   5.723
 9619TIP3    H228801   0.530   3.061   5.750
 9620TIP3   OH228802   5.876   2.424   4.565
 9620TIP3    H128803   5.852   2.497   4.508
 9620TIP3    H228804   5.920   2.465   4.639
 9621TIP3   OH228805   3.693   1.594   1.365
 9621TIP3    H128806   3.609   1.623   1.330
 9621TIP3    H228807   3.727   1.670   1.412
 9622TIP3   OH228808   5.660   4.520   2.968
 9622TIP3    H128809   5.621   4.571   2.897
 9622TIP3    H228810   5.586   4.500   3.026
 9623TIP3   OH228811   2.062   4.445   3.961
 9623TIP3    H128812   1.970   4.448   3.987
 9623TIP3    H228813   2.062   4.404   3.875
 9624TIP3   OH228814   3.579   5.420   4.466
 9624TIP3    H128815   3.609   5.469   4.390
 9624TIP3    H228816   3.647   5.353   4.480
 9625TIP3   OH228817   2.957   5.894   4.511
 9625TIP3    H128818   2.899   5.840   4.457
 9625TIP3    H228819   2.970   5.842   4.590
 9626TIP3   OH228820   6.642   2.368   1.501
 9626TIP3    H128821   6.602   2.305   1.440
 9626TIP3    H228822   6.569   2.421   1.532
 9627TIP3   OH228823   7.295   1.501   3.254
 9627TIP3    H128824   7.211   1.542   3.233
 9627TIP3    H228825   7.282   1.459   3.339
 9628TIP3   OH228826   1.182   3.963   5.418
 9628TIP3    H128827   1.127   3.949   5.342
 9628TIP3    H228828   1.208   4.055   5.413
 9629TIP3   OH228829   6.333   7.260   1.593
 9629TIP3    H128830   6.245   7.288   1.617
 9629TIP3    H228831   6.346   7.178   1.641
 9630TIP3   OH228832   0.024   7.657   0.968
 9630TIP3    H128833   0.010   7.592   0.899
 9630TIP3    H228834   0.044   7.738   0.920
 9631TIP3   OH228835   8.236   4.225   1.362
 9631TIP3    H128836   8.262   4.135   1.381
 9631TIP3    H228837   8.172   4.218   1.292
 9632TIP3   OH228838   6.266   6.954   3.921
 9632TIP3    H128839   6.206   6.930   3.849
 9632TIP3    H228840   6.349   6.970   3.877
 9633TIP3   OH228841   2.129   4.507   3.685
 9633TIP3    H128842   2.220   4.481   3.671
 9633TIP3    H228843   2.135   4.588   3.736
 9634TIP3   OH228844   0.068   0.573   0.162
 9634TIP3    H128845   0.007   0.509   0.199
 9634TIP3    H228846   0.143   0.520   0.135
 9635TIP3   OH228847   7.576   7.776   4.854
 9635TIP3    H128848   7.650   7.786   4.794
 9635TIP3    H228849   7.498   7.785   4.798
 9636TIP3   OH228850   7.954   1.922   3.285
 9636TIP3    H128851   7.952   1.929   3.189
 9636TIP3    H228852   8.034   1.874   3.304
 9637TIP3   OH228853   3.991   3.520   2.465
 9637TIP3    H128854   4.003   3.426   2.482
 9637TIP3    H228855   3.967   3.525   2.373
 9638TIP3   OH228856   6.317   3.623   6.349
 9638TIP3    H128857   6.379   3.662   6.287
 9638TIP3    H228858   6.268   3.697   6.384
 9639TIP3   OH228859   4.283   4.104   5.664
 9639TIP3    H128860   4.301   4.193   5.692
 9639TIP3    H228861   4.246   4.114   5.576
 9640TIP3   OH228862   6.309   3.689   1.241
 9640TIP3    H128863   6.349   3.776   1.250
 9640TIP3    H228864   6.233   3.691   1.299
 9641TIP3   OH228865   1.975   6.420   5.688
 9641TIP3    H128866   1.880   6.414   5.702
 9641TIP3    H228867   1.997   6.341   5.640
 9642TIP3   OH228868   3.407   3.612   5.519
 9642TIP3    H128869   3.395   3.586   5.610
 9642TIP3    H228870   3.489   3.662   5.518
 9643TIP3   OH228871   6.953   3.255   1.950
 9643TIP3    H128872   6.983   3.330   1.899
 9643TIP3    H228873   6.968   3.180   1.892
 9644TIP3   OH228874   1.868   5.700   2.687
 9644TIP3    H128875   1.903   5.668   2.604
 9644TIP3    H228876   1.794   5.756   2.663
 9645TIP3   OH228877   2.862   2.187   0.802
 9645TIP3    H128878   2.804   2.194   0.726
 9645TIP3    H228879   2.816   2.128   0.862
 9646TIP3   OH228880   3.228   7.201   6.162
 9646TIP3    H128881   3.176   7.173   6.087
 9646TIP3    H228882   3.181   7.276   6.197
 9647TIP3   OH228883   6.008   1.414   6.450
 9647TIP3    H128884   5.931   1.404   6.395
 9647TIP3    H228885   5.983   1.478   6.516
 9648TIP3   OH228886   4.402   0.441   5.524
 9648TIP3    H128887   4.325   0.464   5.473
 9648TIP3    H228888   4.440   0.366   5.478
 9649TIP3   OH228889   8.134   3.250   3.363
 9649TIP3    H128890   8.201   3.308   3.327
 9649TIP3    H228891   8.145   3.168   3.316
 9650TIP3   OH228892   0.698   1.941   3.412
 9650TIP3    H128893   0.687   1.885   3.335
 9650TIP3    H228894   0.726   2.025   3.376
 9651TIP3   OH228895   1.006   0.951   5.845
 9651TIP3    H128896   1.020   0.909   5.930
 9651TIP3    H228897   0.991   0.878   5.785
 9652TIP3   OH228898   0.171   0.699   4.026
 9652TIP3    H128899   0.136   0.738   4.106
 9652TIP3    H228900   0.095   0.661   3.982
 9653TIP3   OH228901   1.956   0.787   0.672
 9653TIP3    H128902   1.947   0.717   0.608
 9653TIP3    H228903   2.008   0.854   0.628
 9654TIP3   OH228904   0.771   3.620   3.990
 9654TIP3    H128905   0.695   3.670   4.018
 9654TIP3    H228906   0.768   3.539   4.041
 9655TIP3   OH228907   1.300   5.669   2.803
 9655TIP3    H128908   1.279   5.707   2.718
 9655TIP3    H228909   1.375   5.613   2.787
 9656TIP3   OH228910   0.567   2.139   2.312
 9656TIP3    H128911   0.556   2.164   2.220
 9656TIP3    H228912   0.499   2.188   2.359
 9657TIP3   OH228913   5.535   1.949   0.125
 9657TIP3    H128914   5.609   1.889   0.115
 9657TIP3    H228915   5.491   1.921   0.205
 9658TIP3   OH228916   6.856   2.350   3.989
 9658TIP3    H128917   6.892   2.275   3.942
 9658TIP3    H228918   6.852   2.419   3.923
 9659TIP3   OH228919   3.948   5.936   6.600
 9659TIP3    H128920   3.861   5.921   6.637
 9659TIP3    H228921   4.003   5.869   6.640
 9660TIP3   OH228922   1.471   0.924   1.468
 9660TIP3    H128923   1.486   0.843   1.419
 9660TIP3    H228924   1.484   0.900   1.559
 9661TIP3   OH228925   3.404   7.093   6.755
 9661TIP3    H128926   3.377   7.078   6.664
 9661TIP3    H228927   3.487   7.140   6.748
 9662TIP3   OH228928   0.294   6.721   3.796
 9662TIP3    H128929   0.302   6.628   3.774
 9662TIP3    H228930   0.200   6.735   3.807
 9663TIP3   OH228931   8.045   4.862   4.396
 9663TIP3    H128932   8.096   4.943   4.402
 9663TIP3    H228933   7.954   4.891   4.393
 9664TIP3   OH228934   5.366   5.208   6.376
 9664TIP3    H128935   5.341   5.141   6.440
 9664TIP3    H228936   5.450   5.242   6.408
 9665TIP3   OH228937   2.802   0.400   2.210
 9665TIP3    H128938   2.712   0.428   2.195
 9665TIP3    H228939   2.812   0.322   2.155
 9666TIP3   OH228940   3.707   7.810   5.543
 9666TIP3    H128941   3.659   7.862   5.479
 9666TIP3    H228942   3.645   7.744   5.572
 9667TIP3   OH228943   6.868   1.881   1.548
 9667TIP3    H128944   6.877   1.833   1.631
 9667TIP3    H228945   6.915   1.963   1.563
 9668TIP3   OH228946   2.491   4.176   0.019
 9668TIP3    H128947   2.535   4.254  -0.016
 9668TIP3    H228948   2.485   4.117  -0.056
 9669TIP3   OH228949   1.483   1.314   6.016
 9669TIP3    H128950   1.563   1.292   6.065
 9669TIP3    H228951   1.441   1.382   6.068
 9670TIP3   OH228952   7.891   1.849   3.725
 9670TIP3    H128953   7.951   1.790   3.680
 9670TIP3    H228954   7.829   1.792   3.770
 9671TIP3   OH228955   4.174   3.728   2.483
 9671TIP3    H128956   4.109   3.774   2.536
 9671TIP3    H228957   4.136   3.642   2.467
 9672TIP3   OH228958   1.840   2.662   3.371
 9672TIP3    H128959   1.875   2.691   3.455
 9672TIP3    H228960   1.892   2.584   3.349
 9673TIP3   OH228961   7.244   2.753   1.945
 9673TIP3    H128962   7.214   2.690   2.011
 9673TIP3    H228963   7.248   2.837   1.993
 9674TIP3   OH228964   3.425   6.703   1.794
 9674TIP3    H128965   3.488   6.773   1.810
 9674TIP3    H228966   3.475   6.622   1.806
 9675TIP3   OH228967   2.283   0.266   4.551
 9675TIP3    H128968   2.350   0.297   4.489
 9675TIP3    H228969   2.299   0.171   4.558
 9676TIP3   OH228970   1.418   1.842   4.203
 9676TIP3    H128971   1.481   1.883   4.143
 9676TIP3    H228972   1.470   1.778   4.252
 9677TIP3   OH228973   4.191   1.670   6.561
 9677TIP3    H128974   4.282   1.666   6.530
 9677TIP3    H228975   4.167   1.579   6.576
 9678TIP3   OH228976   5.867   1.959   5.314
 9678TIP3    H128977   5.890   2.027   5.251
 9678TIP3    H228978   5.950   1.917   5.337
 9679TIP3   OH228979   2.876   2.005   4.118
 9679TIP3    H128980   2.875   2.042   4.030
 9679TIP3    H228981   2.930   2.066   4.168
 9680TIP3   OH228982   1.254   6.882   4.748
 9680TIP3    H128983   1.164   6.848   4.745
 9680TIP3    H228984   1.245   6.974   4.722
 9681TIP3   OH228985   3.352   0.185   3.895
 9681TIP3    H128986   3.422   0.128   3.927
 9681TIP3    H228987   3.275   0.160   3.946
 9682TIP3   OH228988   7.508   2.684   3.207
 9682TIP3    H128989   7.457   2.730   3.140
 9682TIP3    H228990   7.495   2.736   3.286
 9683TIP3   OH228991   0.405   4.582   0.649
 9683TIP3    H128992   0.487   4.573   0.600
 9683TIP3    H228993   0.395   4.498   0.694
 9684TIP3   OH228994   7.103   2.879   5.162
 9684TIP3    H128995   7.171   2.837   5.107
 9684TIP3    H228996   7.081   2.812   5.227
 9685TIP3   OH228997   8.032   5.531   4.369
 9685TIP3    H128998   8.075   5.446   4.359
 9685TIP3    H228999   7.939   5.511   4.367
 9686TIP3   OH229000   6.033   2.602   3.205
 9686TIP3    H129001   6.126   2.607   3.224
 9686TIP3    H229002   5.990   2.624   3.287
 9687TIP3   OH229003   0.172   7.167   5.064
 9687TIP3    H129004   0.217   7.229   5.121
 9687TIP3    H229005   0.095   7.214   5.032
 9688TIP3   OH229006   5.273   7.791   2.727
 9688TIP3    H129007   5.337   7.796   2.656
 9688TIP3    H229008   5.304   7.718   2.781
 9689TIP3   OH229009   4.015   0.673   4.208
 9689TIP3    H129010   4.076   0.600   4.200
 9689TIP3    H229011   4.049   0.724   4.282
 9690TIP3   OH229012   0.137   5.327   5.605
 9690TIP3    H129013   0.213   5.271   5.591
 9690TIP3    H229014   0.151   5.366   5.692
 9691TIP3   OH229015   3.516   2.416   4.882
 9691TIP3    H129016   3.467   2.459   4.952
 9691TIP3    H229017   3.481   2.453   4.801
 9692TIP3   OH229018   4.413   5.814   4.591
 9692TIP3    H129019   4.505   5.791   4.578
 9692TIP3    H229020   4.415   5.886   4.653
 9693TIP3   OH229021   4.761   5.323   4.952
 9693TIP3    H129022   4.784   5.314   4.860
 9693TIP3    H229023   4.704   5.248   4.971
 9694TIP3   OH229024   4.579   5.919   4.025
 9694TIP3    H129025   4.552   5.980   4.094
 9694TIP3    H229026   4.671   5.900   4.045
 9695TIP3   OH229027   5.548   7.745   1.366
 9695TIP3    H129028   5.493   7.684   1.317
 9695TIP3    H229029   5.512   7.831   1.344
 9696TIP3   OH229030   1.645   6.223   5.834
 9696TIP3    H129031   1.679   6.136   5.855
 9696TIP3    H229032   1.676   6.279   5.906
 9697TIP3   OH229033   0.566   0.814   4.010
 9697TIP3    H129034   0.545   0.907   4.002
 9697TIP3    H229035   0.574   0.783   3.919
 9698TIP3   OH229036   0.657   0.135   0.597
 9698TIP3    H129037   0.604   0.171   0.525
 9698TIP3    H229038   0.724   0.201   0.613
 9699TIP3   OH229039   5.202   0.319   3.637
 9699TIP3    H129040   5.291   0.286   3.629
 9699TIP3    H229041   5.200   0.395   3.579
 9700TIP3   OH229042   1.057   4.594   0.614
 9700TIP3    H129043   1.130   4.573   0.672
 9700TIP3    H229044   1.094   4.653   0.549
 9701TIP3   OH229045   4.960   1.295   2.255
 9701TIP3    H129046   5.013   1.340   2.189
 9701TIP3    H229047   4.870   1.322   2.237
 9702TIP3   OH229048   0.113   2.035   5.889
 9702TIP3    H129049   0.133   1.991   5.807
 9702TIP3    H229050   0.138   1.973   5.958
 9703TIP3   OH229051   6.717   2.158   6.224
 9703TIP3    H129052   6.716   2.220   6.151
 9703TIP3    H229053   6.635   2.172   6.270
 9704TIP3   OH229054   3.234   4.340   5.543
 9704TIP3    H129055   3.257   4.261   5.493
 9704TIP3    H229056   3.308   4.353   5.602
 9705TIP3   OH229057   5.209   5.764   2.016
 9705TIP3    H129058   5.251   5.849   2.003
 9705TIP3    H229059   5.120   5.786   2.045
 9706TIP3   OH229060   2.580   6.731   3.521
 9706TIP3    H129061   2.507   6.756   3.578
 9706TIP3    H229062   2.658   6.740   3.576
 9707TIP3   OH229063   5.470   1.162   0.422
 9707TIP3    H129064   5.488   1.235   0.481
 9707TIP3    H229065   5.385   1.128   0.450
 9708TIP3   OH229066   2.381   4.743   1.191
 9708TIP3    H129067   2.286   4.748   1.187
 9708TIP3    H229068   2.403   4.655   1.161
 9709TIP3   OH229069   0.090   1.137   3.345
 9709TIP3    H129070   0.129   1.050   3.355
 9709TIP3    H229071   0.082   1.170   3.434
 9710TIP3   OH229072   3.658   2.572   3.964
 9710TIP3    H129073   3.696   2.655   3.935
 9710TIP3    H229074   3.713   2.545   4.037
 9711TIP3   OH229075   6.200   0.230   2.959
 9711TIP3    H129076   6.275   0.172   2.968
 9711TIP3    H229077   6.237   0.318   2.960
 9712TIP3   OH229078   1.897   0.572   0.519
 9712TIP3    H129079   1.844   0.512   0.572
 9712TIP3    H229080   1.834   0.612   0.459
 9713TIP3   OH229081   8.316   3.992   6.212
 9713TIP3    H129082   8.316   4.021   6.304
 9713TIP3    H229083   8.357   4.064   6.165
 9714TIP3   OH229084   1.182   4.855   3.740
 9714TIP3    H129085   1.152   4.765   3.725
 9714TIP3    H229086   1.256   4.846   3.800
 9715TIP3   OH229087   1.436   7.704   6.124
 9715TIP3    H129088   1.464   7.736   6.038
 9715TIP3    H229089   1.340   7.705   6.119
 9716TIP3   OH229090   0.391   4.341   6.710
 9716TIP3    H129091   0.301   4.373   6.720
 9716TIP3    H229092   0.422   4.328   6.800
 9717TIP3   OH229093   1.285   6.696   6.179
 9717TIP3    H129094   1.288   6.791   6.164
 9717TIP3    H229095   1.363   6.678   6.232
 9718TIP3   OH229096   1.441   1.530   2.459
 9718TIP3    H129097   1.519   1.475   2.464
 9718TIP3    H229098   1.428   1.546   2.366
 9719TIP3   OH229099   0.856   3.438   1.659
 9719TIP3    H129100   0.836   3.426   1.566
 9719TIP3    H229101   0.771   3.430   1.703
 9720TIP3   OH229102   6.997   2.748   4.539
 9720TIP3    H129103   7.037   2.688   4.476
 9720TIP3    H229104   6.987   2.697   4.619
 9721TIP3   OH229105   4.141   5.139   0.742
 9721TIP3    H129106   4.130   5.209   0.807
 9721TIP3    H229107   4.125   5.059   0.792
 9722TIP3   OH229108   7.477   4.199   3.844
 9722TIP3    H129109   7.514   4.128   3.792
 9722TIP3    H229110   7.501   4.279   3.797
 9723TIP3   OH229111   7.593   1.348   5.207
 9723TIP3    H129112   7.580   1.262   5.167
 9723TIP3    H229113   7.552   1.409   5.146
 9724TIP3   OH229114   1.816   3.778   4.433
 9724TIP3    H129115   1.908   3.762   4.457
 9724TIP3    H229116   1.775   3.692   4.442
 9725TIP3   OH229117   8.022   7.498   0.726
 9725TIP3    H129118   8.117   7.514   0.722
 9725TIP3    H229119   8.004   7.442   0.651
 9726TIP3   OH229120   3.502   6.056   1.995
 9726TIP3    H129121   3.426   6.083   2.046
 9726TIP3    H229122   3.467   6.038   1.908
 9727TIP3   OH229123   1.882   0.314   3.117
 9727TIP3    H129124   1.899   0.219   3.117
 9727TIP3    H229125   1.963   0.352   3.083
 9728TIP3   OH229126   7.199   5.321   3.093
 9728TIP3    H129127   7.134   5.267   3.137
 9728TIP3    H229128   7.275   5.263   3.081
 9729TIP3   OH229129   4.047   4.264   2.558
 9729TIP3    H129130   4.026   4.240   2.467
 9729TIP3    H229131   4.068   4.181   2.600
 9730TIP3   OH229132   1.418   3.930   1.389
 9730TIP3    H129133   1.423   3.964   1.300
 9730TIP3    H229134   1.458   3.843   1.384
 9731TIP3   OH229135   1.164   2.486   5.554
 9731TIP3    H129136   1.069   2.487   5.542
 9731TIP3    H229137   1.190   2.578   5.550
 9732TIP3   OH229138   5.290   5.850   1.487
 9732TIP3    H129139   5.323   5.867   1.399
 9732TIP3    H229140   5.363   5.810   1.534
 9733TIP3   OH229141   1.672   4.564   1.096
 9733TIP3    H129142   1.653   4.516   1.176
 9733TIP3    H229143   1.589   4.567   1.049
 9734TIP3   OH229144   7.930   1.907   0.209
 9734TIP3    H129145   7.932   1.993   0.168
 9734TIP3    H229146   8.022   1.881   0.217
 9735TIP3   OH229147   7.366   1.823   0.901
 9735TIP3    H129148   7.334   1.733   0.889
 9735TIP3    H229149   7.291   1.869   0.940
 9736TIP3   OH229150   0.786   4.969   5.776
 9736TIP3    H129151   0.861   4.946   5.721
 9736TIP3    H229152   0.730   5.022   5.719
 9737TIP3   OH229153   4.627   1.706   6.118
 9737TIP3    H129154   4.664   1.793   6.108
 9737TIP3    H229155   4.559   1.700   6.051
 9738TIP3   OH229156   6.348   0.761   5.078
 9738TIP3    H129157   6.373   0.717   5.159
 9738TIP3    H229158   6.384   0.849   5.086
 9739TIP3   OH229159   0.062   6.261   6.636
 9739TIP3    H129160   0.085   6.174   6.670
 9739TIP3    H229161   0.146   6.304   6.623
 9740TIP3   OH229162   8.243   3.716   5.638
 9740TIP3    H129163   8.226   3.705   5.731
 9740TIP3    H229164   8.214   3.634   5.598
 9741TIP3   OH229165   0.732   7.102   3.013
 9741TIP3    H129166   0.809   7.158   3.017
 9741TIP3    H229167   0.740   7.056   2.929
 9742TIP3   OH229168   7.883   6.560   3.366
 9742TIP3    H129169   7.806   6.504   3.360
 9742TIP3    H229170   7.888   6.603   3.280
 9743TIP3   OH229171   8.231   0.911   4.022
 9743TIP3    H129172   8.217   0.825   3.983
 9743TIP3    H229173   8.217   0.898   4.116
 9744TIP3   OH229174   0.699   7.750   1.994
 9744TIP3    H129175   0.698   7.732   2.088
 9744TIP3    H229176   0.608   7.742   1.966
 9745TIP3   OH229177   7.481   1.121   4.333
 9745TIP3    H129178   7.408   1.147   4.391
 9745TIP3    H229179   7.438   1.093   4.252
 9746TIP3   OH229180   1.614   2.125   5.257
 9746TIP3    H129181   1.593   2.097   5.167
 9746TIP3    H229182   1.562   2.067   5.312
 9747TIP3   OH229183   8.259   0.557   1.828
 9747TIP3    H129184   8.192   0.561   1.759
 9747TIP3    H229185   8.330   0.612   1.795
 9748TIP3   OH229186   3.094   0.970   5.142
 9748TIP3    H129187   3.146   0.908   5.089
 9748TIP3    H229188   3.092   0.930   5.229
 9749TIP3   OH229189   6.185   1.274   3.266
 9749TIP3    H129190   6.151   1.239   3.184
 9749TIP3    H229191   6.234   1.352   3.240
 9750TIP3   OH229192   0.726   2.638   3.950
 9750TIP3    H129193   0.822   2.648   3.944
 9750TIP3    H229194   0.700   2.610   3.863
 9751TIP3   OH229195   7.316   7.103   4.421
 9751TIP3    H129196   7.230   7.095   4.379
 9751TIP3    H229197   7.295   7.120   4.513
 9752TIP3   OH229198   4.304   3.990   4.111
 9752TIP3    H129199   4.313   3.905   4.067
 9752TIP3    H229200   4.358   3.982   4.190
 9753TIP3   OH229201   6.963   3.011   5.934
 9753TIP3    H129202   7.055   3.021   5.959
 9753TIP3    H229203   6.924   2.965   6.008
 9754TIP3   OH229204   2.068   6.164   6.500
 9754TIP3    H129205   2.153   6.175   6.542
 9754TIP3    H229206   2.004   6.175   6.571
 9755TIP3   OH229207   1.340   2.747   6.761
 9755TIP3    H129208   1.272   2.814   6.770
 9755TIP3    H229209   1.294   2.664   6.768
 9756TIP3   OH229210   2.099   3.300   3.269
 9756TIP3    H129211   2.082   3.213   3.305
 9756TIP3    H229212   2.142   3.284   3.185
 9757TIP3   OH229213   5.428   5.356   4.664
 9757TIP3    H129214   5.463   5.414   4.732
 9757TIP3    H229215   5.369   5.297   4.711
 9758TIP3   OH229216   6.139   1.846   4.457
 9758TIP3    H129217   6.052   1.812   4.478
 9758TIP3    H229218   6.199   1.790   4.507
 9759TIP3   OH229219   2.481   5.255   4.602
 9759TIP3    H129220   2.460   5.204   4.681
 9759TIP3    H229221   2.530   5.330   4.635
 9760TIP3   OH229222   6.060   1.477   3.630
 9760TIP3    H129223   5.999   1.493   3.701
 9760TIP3    H229224   6.015   1.416   3.572
 9761TIP3   OH229225   5.894   6.688   5.263
 9761TIP3    H129226   5.878   6.733   5.347
 9761TIP3    H229227   5.922   6.600   5.288
 9762TIP3   OH229228   0.917   0.573   1.876
 9762TIP3    H129229   0.926   0.633   1.803
 9762TIP3    H229230   0.829   0.590   1.912
 9763TIP3   OH229231   3.428   6.513   0.634
 9763TIP3    H129232   3.511   6.527   0.680
 9763TIP3    H229233   3.430   6.575   0.562
 9764TIP3   OH229234   5.230   1.839   4.807
 9764TIP3    H129235   5.288   1.770   4.840
 9764TIP3    H229236   5.157   1.791   4.767
 9765TIP3   OH229237   7.189   6.937   5.673
 9765TIP3    H129238   7.240   6.861   5.645
 9765TIP3    H229239   7.254   7.005   5.689
 9766TIP3   OH229240   7.289   2.281   3.487
 9766TIP3    H129241   7.298   2.350   3.421
 9766TIP3    H229242   7.371   2.231   3.480
 9767TIP3   OH229243   7.021   2.820   2.704
 9767TIP3    H129244   7.017   2.908   2.740
 9767TIP3    H229245   7.115   2.801   2.696
 9768TIP3   OH229246   3.212   3.719   3.331
 9768TIP3    H129247   3.181   3.738   3.242
 9768TIP3    H229248   3.307   3.733   3.327
 9769TIP3   OH229249   5.857   0.903   2.686
 9769TIP3    H129250   5.770   0.910   2.725
 9769TIP3    H229251   5.849   0.834   2.620
 9770TIP3   OH229252   5.622   3.190   4.891
 9770TIP3    H129253   5.550   3.150   4.841
 9770TIP3    H229254   5.623   3.281   4.864
 9771TIP3   OH229255   3.281   5.724   5.275
 9771TIP3    H129256   3.286   5.766   5.190
 9771TIP3    H229257   3.195   5.682   5.276
 9772TIP3   OH229258   2.136   4.007   5.271
 9772TIP3    H129259   2.078   3.933   5.251
 9772TIP3    H229260   2.097   4.081   5.224
 9773TIP3   OH229261   5.429   2.337   0.734
 9773TIP3    H129262   5.399   2.306   0.648
 9773TIP3    H229263   5.521   2.357   0.721
 9774TIP3   OH229264   5.847   5.964   0.770
 9774TIP3    H129265   5.804   6.043   0.736
 9774TIP3    H229266   5.923   5.998   0.819
 9775TIP3   OH229267   6.684   1.550   6.729
 9775TIP3    H129268   6.768   1.542   6.774
 9775TIP3    H229269   6.642   1.626   6.770
 9776TIP3   OH229270   0.023   7.405   2.482
 9776TIP3    H129271  -0.016   7.380   2.398
 9776TIP3    H229272   0.109   7.363   2.483
 9777TIP3   OH229273   6.098   7.569   3.286
 9777TIP3    H129274   6.119   7.520   3.206
 9777TIP3    H229275   6.115   7.507   3.357
 9778TIP3   OH229276   0.749   1.078   4.670
 9778TIP3    H129277   0.837   1.083   4.706
 9778TIP3    H229278   0.759   1.040   4.583
 9779TIP3   OH229279   5.764   0.046   0.496
 9779TIP3    H129280   5.767   0.138   0.524
 9779TIP3    H229281   5.812  -0.001   0.565
 9780TIP3   OH229282   2.342   5.538   3.410
 9780TIP3    H129283   2.260   5.489   3.400
 9780TIP3    H229284   2.384   5.499   3.487
 9781TIP3   OH229285   7.008   4.448   4.473
 9781TIP3    H129286   7.035   4.539   4.461
 9781TIP3    H229287   7.006   4.412   4.384
 9782TIP3   OH229288   0.081   5.496   4.773
 9782TIP3    H129289   0.154   5.434   4.764
 9782TIP3    H229290   0.061   5.523   4.684
 9783TIP3   OH229291   5.546   2.232   1.478
 9783TIP3    H129292   5.605   2.197   1.411
 9783TIP3    H229293   5.543   2.326   1.461
 9784TIP3   OH229294   1.429   3.331   3.128
 9784TIP3    H129295   1.444   3.426   3.127
 9784TIP3    H229296   1.513   3.293   3.102
 9785TIP3   OH229297   2.433   2.494   3.920
 9785TIP3    H129298   2.470   2.506   4.008
 9785TIP3    H229299   2.368   2.425   3.930
 9786TIP3   OH229300   1.168   5.838   6.020
 9786TIP3    H129301   1.077   5.853   6.046
 9786TIP3    H229302   1.184   5.746   6.038
 9787TIP3   OH229303   0.604   1.267   2.408
 9787TIP3    H129304   0.595   1.221   2.324
 9787TIP3    H229305   0.556   1.349   2.395
 9788TIP3   OH229306   2.029   2.008   1.326
 9788TIP3    H129307   2.117   1.974   1.310
 9788TIP3    H229308   2.016   2.076   1.261
 9789TIP3   OH229309   1.371   1.907   2.726
 9789TIP3    H129310   1.436   1.868   2.785
 9789TIP3    H229311   1.354   1.994   2.763
 9790TIP3   OH229312   2.135   0.409   6.600
 9790TIP3    H129313   2.090   0.340   6.649
 9790TIP3    H229314   2.196   0.362   6.544
 9791TIP3   OH229315   8.064   0.403   5.472
 9791TIP3    H129316   8.093   0.314   5.448
 9791TIP3    H229317   7.975   0.409   5.439
 9792TIP3   OH229318   4.362   2.134   4.973
 9792TIP3    H129319   4.362   2.108   4.881
 9792TIP3    H229320   4.342   2.054   5.021
 9793TIP3   OH229321   5.321   4.562   5.501
 9793TIP3    H129322   5.348   4.488   5.556
 9793TIP3    H229323   5.252   4.605   5.550
 9794TIP3   OH229324   4.772   5.894   3.290
 9794TIP3    H129325   4.847   5.952   3.304
 9794TIP3    H229326   4.810   5.806   3.297
 9795TIP3   OH229327   1.885   5.393   3.816
 9795TIP3    H129328   1.795   5.426   3.820
 9795TIP3    H229329   1.914   5.393   3.908
 9796TIP3   OH229330   2.199   6.853   2.518
 9796TIP3    H129331   2.219   6.908   2.593
 9796TIP3    H229332   2.104   6.846   2.517
 9797TIP3   OH229333   0.556   6.907   3.514
 9797TIP3    H129334   0.462   6.891   3.531
 9797TIP3    H229335   0.558   6.954   3.431
 9798TIP3   OH229336   0.900   4.258   2.142
 9798TIP3    H129337   0.923   4.348   2.166
 9798TIP3    H229338   0.824   4.267   2.084
 9799TIP3   OH229339   5.584   7.327   0.335
 9799TIP3    H129340   5.634   7.367   0.265
 9799TIP3    H229341   5.548   7.401   0.385
 9800TIP3   OH229342   1.140   2.529   3.193
 9800TIP3    H129343   1.149   2.620   3.223
 9800TIP3    H229344   1.167   2.531   3.101
 9801TIP3   OH229345   6.800   6.338   1.651
 9801TIP3    H129346   6.760   6.370   1.570
 9801TIP3    H229347   6.869   6.402   1.670
 9802TIP3   OH229348   1.103   3.946   5.910
 9802TIP3    H129349   1.026   3.905   5.871
 9802TIP3    H229350   1.177   3.909   5.861
 9803TIP3   OH229351   7.195   1.344   3.449
 9803TIP3    H129352   7.119   1.336   3.392
 9803TIP3    H229353   7.196   1.263   3.499
 9804TIP3   OH229354   7.850   6.140   4.820
 9804TIP3    H129355   7.844   6.061   4.766
 9804TIP3    H229356   7.895   6.203   4.764
 9805TIP3   OH229357   0.212   1.404   5.495
 9805TIP3    H129358   0.211   1.309   5.481
 9805TIP3    H229359   0.133   1.435   5.451
 9806TIP3   OH229360   6.835   6.812   2.849
 9806TIP3    H129361   6.900   6.744   2.831
 9806TIP3    H229362   6.854   6.882   2.786
 9807TIP3   OH229363   5.431   1.497   4.261
 9807TIP3    H129364   5.503   1.454   4.308
 9807TIP3    H229365   5.357   1.437   4.271
 9808TIP3   OH229366   0.173   6.217   2.312
 9808TIP3    H129367   0.151   6.304   2.276
 9808TIP3    H229368   0.207   6.169   2.237
 9809TIP3   OH229369   3.124   2.835   3.094
 9809TIP3    H129370   3.069   2.910   3.073
 9809TIP3    H229371   3.213   2.870   3.095
 9810TIP3   OH229372   1.786   0.304   3.589
 9810TIP3    H129373   1.694   0.284   3.569
 9810TIP3    H229374   1.811   0.367   3.522
 9811TIP3   OH229375   3.422   5.832   2.890
 9811TIP3    H129376   3.404   5.859   2.800
 9811TIP3    H229377   3.517   5.839   2.899
 9812TIP3   OH229378   5.874   3.804   4.562
 9812TIP3    H129379   5.953   3.821   4.511
 9812TIP3    H229380   5.821   3.883   4.553
 9813TIP3   OH229381   7.267   1.364   4.845
 9813TIP3    H129382   7.207   1.321   4.906
 9813TIP3    H229383   7.222   1.362   4.760
 9814TIP3   OH229384   1.436   0.710   2.765
 9814TIP3    H129385   1.459   0.685   2.854
 9814TIP3    H229386   1.430   0.627   2.718
 9815TIP3   OH229387   7.377   6.769   5.578
 9815TIP3    H129388   7.353   6.746   5.488
 9815TIP3    H229389   7.448   6.833   5.568
 9816TIP3   OH229390   1.873   1.895   6.227
 9816TIP3    H129391   1.927   1.862   6.299
 9816TIP3    H229392   1.910   1.853   6.149
 9817TIP3   OH229393   5.666   7.741   2.526
 9817TIP3    H129394   5.661   7.695   2.443
 9817TIP3    H229395   5.575   7.752   2.553
 9818TIP3   OH229396   3.470   2.556   4.635
 9818TIP3    H129397   3.481   2.628   4.697
 9818TIP3    H229398   3.443   2.597   4.554
 9819TIP3   OH229399   1.015   0.323   6.404
 9819TIP3    H129400   1.013   0.235   6.367
 9819TIP3    H229401   1.070   0.373   6.344
 9820TIP3   OH229402   4.387   7.161   2.975
 9820TIP3    H129403   4.357   7.078   2.939
 9820TIP3    H229404   4.432   7.204   2.902
 9821TIP3   OH229405   3.804   0.498   2.315
 9821TIP3    H129406   3.782   0.459   2.400
 9821TIP3    H229407   3.740   0.568   2.303
 9822TIP3   OH229408   0.239   6.516   4.168
 9822TIP3    H129409   0.288   6.591   4.136
 9822TIP3    H229410   0.210   6.470   4.090
 9823TIP3   OH229411   1.307   3.771   6.238
 9823TIP3    H129412   1.397   3.794   6.262
 9823TIP3    H229413   1.314   3.734   6.150
 9824TIP3   OH229414   4.500   3.744   5.026
 9824TIP3    H129415   4.480   3.728   5.118
 9824TIP3    H229416   4.577   3.690   5.009
 9825TIP3   OH229417   4.530   1.211   1.765
 9825TIP3    H129418   4.560   1.291   1.722
 9825TIP3    H229419   4.538   1.143   1.698
 9826TIP3   OH229420   0.085   3.427   0.094
 9826TIP3    H129421   0.140   3.451   0.169
 9826TIP3    H229422   0.035   3.351   0.124
 9827TIP3   OH229423   0.077   2.365   0.591
 9827TIP3    H129424   0.063   2.416   0.511
 9827TIP3    H229425   0.131   2.422   0.646
 9828TIP3   OH229426   2.660   3.434   5.114
 9828TIP3    H129427   2.591   3.459   5.052
 9828TIP3    H229428   2.691   3.349   5.082
 9829TIP3   OH229429   3.865   1.418   0.452
 9829TIP3    H129430   3.830   1.388   0.367
 9829TIP3    H229431   3.817   1.367   0.517
 9830TIP3   OH229432   1.616   2.733   1.234
 9830TIP3    H129433   1.657   2.819   1.239
 9830TIP3    H229434   1.688   2.672   1.249
 9831TIP3   OH229435   5.959   6.516   1.109
 9831TIP3    H129436   6.032   6.458   1.132
 9831TIP3    H229437   5.889   6.490   1.168
 9832TIP3   OH229438   1.628   4.459   4.397
 9832TIP3    H129439   1.670   4.464   4.483
 9832TIP3    H229440   1.665   4.381   4.357
 9833TIP3   OH229441   4.596   2.347   5.635
 9833TIP3    H129442   4.684   2.325   5.664
 9833TIP3    H229443   4.594   2.319   5.543
 9834TIP3   OH229444   0.278   7.847   4.258
 9834TIP3    H129445   0.200   7.871   4.308
 9834TIP3    H229446   0.313   7.771   4.305
 9835TIP3   OH229447   0.443   5.191   3.936
 9835TIP3    H129448   0.477   5.163   4.022
 9835TIP3    H229449   0.509   5.253   3.903
 9836TIP3   OH229450   6.924   0.320   0.881
 9836TIP3    H129451   7.002   0.375   0.875
 9836TIP3    H229452   6.858   0.376   0.922
 9837TIP3   OH229453   1.255   0.584   4.785
 9837TIP3    H129454   1.262   0.555   4.876
 9837TIP3    H229455   1.204   0.515   4.742
 9838TIP3   OH229456   1.752   7.611   2.732
 9838TIP3    H129457   1.689   7.683   2.740
 9838TIP3    H229458   1.753   7.570   2.818
 9839TIP3   OH229459   5.889   4.512   0.700
 9839TIP3    H129460   5.959   4.543   0.643
 9839TIP3    H229461   5.834   4.589   0.714
 9840TIP3   OH229462   3.115   7.710   2.204
 9840TIP3    H129463   3.189   7.725   2.146
 9840TIP3    H229464   3.086   7.621   2.184
 9841TIP3   OH229465   8.234   1.995   1.944
 9841TIP3    H129466   8.287   2.005   1.865
 9841TIP3    H229467   8.237   2.080   1.986
 9842TIP3   OH229468   1.855   4.132   1.432
 9842TIP3    H129469   1.777   4.090   1.469
 9842TIP3    H229470   1.885   4.191   1.501
 9843TIP3   OH229471   0.416   5.685   5.853
 9843TIP3    H129472   0.401   5.593   5.875
 9843TIP3    H229473   0.367   5.698   5.772
 9844TIP3   OH229474   1.350   0.080   1.612
 9844TIP3    H129475   1.284   0.065   1.544
 9844TIP3    H229476   1.326   0.165   1.650
 9845TIP3   OH229477   5.298   2.152   6.590
 9845TIP3    H129478   5.360   2.083   6.613
 9845TIP3    H229479   5.232   2.150   6.658
 9846TIP3   OH229480   1.484   0.999   6.068
 9846TIP3    H129481   1.539   0.942   6.014
 9846TIP3    H229482   1.394   0.976   6.045
 9847TIP3   OH229483   5.294   4.411   5.801
 9847TIP3    H129484   5.320   4.345   5.738
 9847TIP3    H229485   5.262   4.361   5.877
 9848TIP3   OH229486   1.815   5.911   3.483
 9848TIP3    H129487   1.806   5.952   3.397
 9848TIP3    H229488   1.908   5.891   3.490
 9849TIP3   OH229489   4.821   3.868   0.548
 9849TIP3    H129490   4.880   3.860   0.623
 9849TIP3    H229491   4.799   3.961   0.545
 9850TIP3   OH229492   6.140   0.710   6.229
 9850TIP3    H129493   6.169   0.793   6.191
 9850TIP3    H229494   6.052   0.697   6.195
 9851TIP3   OH229495   3.898   2.439   6.141
 9851TIP3    H129496   3.810   2.410   6.117
 9851TIP3    H229497   3.885   2.522   6.187
 9852TIP3   OH229498   0.916   7.587   5.713
 9852TIP3    H129499   0.823   7.576   5.731
 9852TIP3    H229500   0.959   7.570   5.797
 9853TIP3   OH229501   0.906   5.629   2.647
 9853TIP3    H129502   0.815   5.625   2.678
 9853TIP3    H229503   0.908   5.705   2.588
 9854TIP3   OH229504   5.633   5.812   4.821
 9854TIP3    H129505   5.682   5.732   4.803
 9854TIP3    H229506   5.668   5.843   4.905
 9855TIP3   OH229507   1.332   5.267   4.335
 9855TIP3    H129508   1.394   5.195   4.344
 9855TIP3    H229509   1.387   5.345   4.330
 9856TIP3   OH229510   6.206   1.038   0.916
 9856TIP3    H129511   6.177   1.005   0.831
 9856TIP3    H229512   6.294   1.002   0.928
 9857TIP3   OH229513   5.720   1.553   0.119
 9857TIP3    H129514   5.711   1.508   0.203
 9857TIP3    H229515   5.807   1.527   0.088
 9858TIP3   OH229516   3.751   3.431   0.811
 9858TIP3    H129517   3.672   3.451   0.861
 9858TIP3    H229518   3.810   3.392   0.876
 9859TIP3   OH229519   5.777   6.360   1.627
 9859TIP3    H129520   5.825   6.329   1.705
 9859TIP3    H229521   5.838   6.345   1.555
 9860TIP3   OH229522   3.267   4.499   3.147
 9860TIP3    H129523   3.218   4.535   3.221
 9860TIP3    H229524   3.291   4.576   3.095
 9861TIP3   OH229525   4.565   2.005   3.348
 9861TIP3    H129526   4.650   1.971   3.374
 9861TIP3    H229527   4.506   1.929   3.355
 9862TIP3   OH229528   5.431   3.015   5.083
 9862TIP3    H129529   5.438   3.035   4.990
 9862TIP3    H229530   5.399   3.096   5.123
 9863TIP3   OH229531   1.328   2.753   4.992
 9863TIP3    H129532   1.423   2.760   4.984
 9863TIP3    H229533   1.309   2.663   4.965
 9864TIP3   OH229534   4.789   7.195   1.765
 9864TIP3    H129535   4.696   7.179   1.749
 9864TIP3    H229536   4.824   7.110   1.791
 9865TIP3   OH229537   0.007   1.203   2.602
 9865TIP3    H129538  -0.056   1.133   2.616
 9865TIP3    H229539   0.040   1.223   2.690
 9866TIP3   OH229540   4.731   2.246   6.185
 9866TIP3    H129541   4.642   2.221   6.210
 9866TIP3    H229542   4.746   2.329   6.230
 9867TIP3   OH229543   7.662   1.391   2.538
 9867TIP3    H129544   7.655   1.373   2.631
 9867TIP3    H229545   7.595   1.457   2.521
 9868TIP3   OH229546   2.542   4.327   2.619
 9868TIP3    H129547   2.477   4.258   2.629
 9868TIP3    H229548   2.515   4.374   2.540
 9869TIP3   OH229549   4.933   5.780   0.718
 9869TIP3    H129550   4.922   5.685   0.728
 9869TIP3    H229551   4.858   5.806   0.664
 9870TIP3   OH229552   3.033   7.303   0.134
 9870TIP3    H129553   3.087   7.348   0.068
 9870TIP3    H229554   2.986   7.374   0.179
 9871TIP3   OH229555   1.481   1.630   4.357
 9871TIP3    H129556   1.554   1.597   4.410
 9871TIP3    H229557   1.411   1.567   4.372
 9872TIP3   OH229558   3.793   5.700   4.407
 9872TIP3    H129559   3.738   5.699   4.329
 9872TIP3    H229560   3.764   5.776   4.456
 9873TIP3   OH229561   7.731   2.900   4.568
 9873TIP3    H129562   7.663   2.866   4.625
 9873TIP3    H229563   7.799   2.931   4.628
 9874TIP3   OH229564   7.041   3.512   4.708
 9874TIP3    H129565   7.074   3.505   4.798
 9874TIP3    H229566   7.000   3.428   4.691
 9875TIP3   OH229567   5.374   2.800   4.820
 9875TIP3    H129568   5.369   2.749   4.740
 9875TIP3    H229569   5.408   2.739   4.886
 9876TIP3   OH229570   3.677   3.660   5.431
 9876TIP3    H129571   3.709   3.579   5.390
 9876TIP3    H229572   3.622   3.700   5.363
 9877TIP3   OH229573   5.869   3.695   2.336
 9877TIP3    H129574   5.854   3.620   2.279
 9877TIP3    H229575   5.816   3.765   2.297
 9878TIP3   OH229576   7.314   2.138   0.571
 9878TIP3    H129577   7.244   2.100   0.624
 9878TIP3    H229578   7.393   2.092   0.600
 9879TIP3   OH229579   3.601   1.048   0.688
 9879TIP3    H129580   3.544   1.033   0.613
 9879TIP3    H229581   3.657   1.120   0.661
 9880TIP3   OH229582   0.341   2.540   6.152
 9880TIP3    H129583   0.331   2.447   6.133
 9880TIP3    H229584   0.409   2.543   6.221
 9881TIP3   OH229585   7.227   3.714   2.501
 9881TIP3    H129586   7.266   3.767   2.571
 9881TIP3    H229587   7.132   3.724   2.514
 9882TIP3   OH229588   2.419   1.342   5.888
 9882TIP3    H129589   2.351   1.275   5.895
 9882TIP3    H229590   2.482   1.306   5.826
 9883TIP3   OH229591   1.033   7.416   0.940
 9883TIP3    H129592   1.094   7.359   0.988
 9883TIP3    H229593   1.082   7.497   0.927
 9884TIP3   OH229594   0.116   6.673   4.828
 9884TIP3    H129595   0.047   6.714   4.776
 9884TIP3    H229596   0.167   6.746   4.863
 9885TIP3   OH229597   5.080   6.233   5.086
 9885TIP3    H129598   5.107   6.144   5.106
 9885TIP3    H229599   5.151   6.288   5.121
 9886TIP3   OH229600   7.294   4.177   2.927
 9886TIP3    H129601   7.339   4.095   2.949
 9886TIP3    H229602   7.218   4.149   2.876
 9887TIP3   OH229603   3.300   6.654   1.461
 9887TIP3    H129604   3.372   6.717   1.454
 9887TIP3    H229605   3.335   6.583   1.515
 9888TIP3   OH229606   7.442   0.254   5.993
 9888TIP3    H129607   7.498   0.332   5.997
 9888TIP3    H229608   7.499   0.185   5.961
 9889TIP3   OH229609   2.393   7.360   2.487
 9889TIP3    H129610   2.327   7.428   2.503
 9889TIP3    H229611   2.373   7.328   2.399
 9890TIP3   OH229612   3.900   3.919   4.426
 9890TIP3    H129613   3.826   3.953   4.376
 9890TIP3    H229614   3.949   3.867   4.363
 9891TIP3   OH229615   0.863   2.783   3.155
 9891TIP3    H129616   0.957   2.776   3.172
 9891TIP3    H229617   0.836   2.860   3.205
 9892TIP3   OH229618   0.251   5.801   5.446
 9892TIP3    H129619   0.190   5.728   5.455
 9892TIP3    H229620   0.312   5.773   5.378
 9893TIP3   OH229621   4.465   5.503   4.982
 9893TIP3    H129622   4.544   5.483   5.031
 9893TIP3    H229623   4.489   5.491   4.891
 9894TIP3   OH229624   0.674   7.687   4.915
 9894TIP3    H129625   0.631   7.612   4.873
 9894TIP3    H229626   0.724   7.729   4.844
 9895TIP3   OH229627   3.779   0.823   5.053
 9895TIP3    H129628   3.776   0.915   5.026
 9895TIP3    H229629   3.747   0.775   4.976
 9896TIP3   OH229630   3.735   0.941   6.033
 9896TIP3    H129631   3.683   0.910   6.107
 9896TIP3    H229632   3.676   0.996   5.983
 9897TIP3   OH229633   2.914   4.910   3.232
 9897TIP3    H129634   2.857   4.958   3.293
 9897TIP3    H229635   2.880   4.821   3.233
 9898TIP3   OH229636   6.164   2.066   2.811
 9898TIP3    H129637   6.244   2.028   2.776
 9898TIP3    H229638   6.133   2.002   2.876
 9899TIP3   OH229639   5.577   5.530   1.439
 9899TIP3    H129640   5.527   5.508   1.361
 9899TIP3    H229641   5.533   5.482   1.510
 9900TIP3   OH229642   6.276   1.629   2.790
 9900TIP3    H129643   6.297   1.690   2.720
 9900TIP3    H229644   6.244   1.550   2.746
 9901TIP3   OH229645   3.712   2.059   0.925
 9901TIP3    H129646   3.624   2.085   0.899
 9901TIP3    H229647   3.753   2.030   0.844
 9902TIP3   OH229648   7.119   3.164   6.320
 9902TIP3    H129649   7.155   3.250   6.338
 9902TIP3    H229650   7.095   3.129   6.405
 9903TIP3   OH229651   1.894   3.701   6.465
 9903TIP3    H129652   1.820   3.669   6.413
 9903TIP3    H229653   1.970   3.690   6.408
 9904TIP3   OH229654   2.950   2.916   4.028
 9904TIP3    H129655   2.860   2.946   4.011
 9904TIP3    H229656   3.004   2.994   4.017
 9905TIP3   OH229657   0.260   6.046   0.135
 9905TIP3    H129658   0.355   6.056   0.144
 9905TIP3    H229659   0.237   6.106   0.064
 9906TIP3   OH229660   7.533   0.185   3.791
 9906TIP3    H129661   7.601   0.237   3.748
 9906TIP3    H229662   7.533   0.102   3.744
 9907TIP3   OH229663   3.268   4.642   3.577
 9907TIP3    H129664   3.228   4.619   3.661
 9907TIP3    H229665   3.359   4.614   3.585
 9908TIP3   OH229666   7.036   5.255   1.629
 9908TIP3    H129667   6.996   5.202   1.559
 9908TIP3    H229668   7.045   5.342   1.591
 9909TIP3   OH229669   2.815   6.540   0.064
 9909TIP3    H129670   2.733   6.523   0.109
 9909TIP3    H229671   2.792   6.601  -0.007
 9910TIP3   OH229672   1.003   1.783   0.278
 9910TIP3    H129673   0.932   1.720   0.290
 9910TIP3    H229674   1.012   1.792   0.184
 9911TIP3   OH229675   2.975   5.004   5.496
 9911TIP3    H129676   2.891   4.982   5.536
 9911TIP3    H229677   2.988   4.937   5.429
 9912TIP3   OH229678   7.913   0.221   2.743
 9912TIP3    H129679   7.955   0.136   2.728
 9912TIP3    H229680   7.929   0.270   2.663
 9913TIP3   OH229681   5.740   4.903   0.623
 9913TIP3    H129682   5.779   4.969   0.679
 9913TIP3    H229683   5.807   4.883   0.558
 9914TIP3   OH229684   4.480   4.253   5.475
 9914TIP3    H129685   4.398   4.221   5.437
 9914TIP3    H229686   4.454   4.284   5.562
 9915TIP3   OH229687   0.499   2.327   6.745
 9915TIP3    H129688   0.582   2.328   6.699
 9915TIP3    H229689   0.469   2.418   6.743
 9916TIP3   OH229690   1.297   1.256   4.261
 9916TIP3    H129691   1.299   1.164   4.236
 9916TIP3    H229692   1.353   1.300   4.196
 9917TIP3   OH229693   1.859   4.539   0.442
 9917TIP3    H129694   1.837   4.496   0.359
 9917TIP3    H229695   1.947   4.574   0.428
 9918TIP3   OH229696   5.029   4.170   5.069
 9918TIP3    H129697   4.973   4.143   5.142
 9918TIP3    H229698   5.017   4.264   5.063
 9919TIP3   OH229699   5.529   0.652   6.326
 9919TIP3    H129700   5.582   0.678   6.401
 9919TIP3    H229701   5.555   0.561   6.309
 9920TIP3   OH229702   2.452   1.186   5.482
 9920TIP3    H129703   2.358   1.182   5.500
 9920TIP3    H229704   2.493   1.194   5.568
 9921TIP3   OH229705   4.041   4.803   5.452
 9921TIP3    H129706   4.093   4.742   5.399
 9921TIP3    H229707   4.059   4.889   5.414
 9922TIP3   OH229708   4.928   3.397   6.102
 9922TIP3    H129709   4.979   3.348   6.038
 9922TIP3    H229710   4.993   3.451   6.149
 9923TIP3   OH229711   2.126   5.920   2.469
 9923TIP3    H129712   2.164   5.921   2.557
 9923TIP3    H229713   2.083   6.005   2.460
 9924TIP3   OH229714   6.835   0.438   1.200
 9924TIP3    H129715   6.928   0.455   1.214
 9924TIP3    H229716   6.812   0.489   1.122
 9925TIP3   OH229717   1.239   2.164   4.140
 9925TIP3    H129718   1.293   2.140   4.064
 9925TIP3    H229719   1.159   2.113   4.130
 9926TIP3   OH229720   7.995   6.991   2.601
 9926TIP3    H129721   7.902   6.967   2.598
 9926TIP3    H229722   8.002   7.050   2.677
 9927TIP3   OH229723   5.000   6.587   3.950
 9927TIP3    H129724   5.023   6.576   3.858
 9927TIP3    H229725   4.925   6.646   3.949
 9928TIP3   OH229726   3.789   2.822   0.077
 9928TIP3    H129727   3.764   2.768   0.002
 9928TIP3    H229728   3.783   2.763   0.152
 9929TIP3   OH229729   2.114   7.173   3.242
 9929TIP3    H129730   2.191   7.161   3.298
 9929TIP3    H229731   2.123   7.263   3.209
 9930TIP3   OH229732   1.335   3.384   5.518
 9930TIP3    H129733   1.353   3.291   5.509
 9930TIP3    H229734   1.246   3.388   5.554
 9931TIP3   OH229735   1.811   0.348   4.607
 9931TIP3    H129736   1.906   0.335   4.598
 9931TIP3    H229737   1.803   0.421   4.668
 9932TIP3   OH229738   6.742   3.105   6.205
 9932TIP3    H129739   6.796   3.147   6.139
 9932TIP3    H229740   6.693   3.038   6.157
 9933TIP3   OH229741  -0.001   1.532   0.426
 9933TIP3    H129742   0.076   1.500   0.473
 9933TIP3    H229743  -0.062   1.457   0.427
 9934TIP3   OH229744   4.471   5.273   1.654
 9934TIP3    H129745   4.496   5.307   1.740
 9934TIP3    H229746   4.375   5.273   1.656
 9935TIP3   OH229747   0.169   4.692   2.199
 9935TIP3    H129748   0.206   4.774   2.167
 9935TIP3    H229749   0.227   4.624   2.162
 9936TIP3   OH229750   4.184   2.359   3.354
 9936TIP3    H129751   4.119   2.319   3.296
 9936TIP3    H229752   4.261   2.303   3.346
 9937TIP3   OH229753   6.926   4.735   0.909
 9937TIP3    H129754   6.970   4.730   0.994
 9937TIP3    H229755   6.933   4.646   0.874
 9938TIP3   OH229756   2.648   7.847   2.147
 9938TIP3    H129757   2.682   7.789   2.215
 9938TIP3    H229758   2.722   7.861   2.088
 9939TIP3   OH229759   0.420   1.904   3.655
 9939TIP3    H129760   0.444   1.994   3.677
 9939TIP3    H229761   0.381   1.910   3.568
 9940TIP3   OH229762   0.335   4.310   0.237
 9940TIP3    H129763   0.294   4.369   0.299
 9940TIP3    H229764   0.266   4.249   0.212
 9941TIP3   OH229765   1.129   6.310   3.148
 9941TIP3    H129766   1.038   6.284   3.142
 9941TIP3    H229767   1.159   6.277   3.233
 9942TIP3   OH229768   4.092   0.433   2.286
 9942TIP3    H129769   4.135   0.509   2.325
 9942TIP3    H229770   3.999   0.455   2.288
 9943TIP3   OH229771   4.018   1.280   0.937
 9943TIP3    H129772   3.997   1.192   0.908
 9943TIP3    H229773   3.937   1.313   0.976
 9944TIP3   OH229774   8.172   4.894   4.915
 9944TIP3    H129775   8.214   4.960   4.970
 9944TIP3    H229776   8.239   4.826   4.904
 9945TIP3   OH229777   3.222   4.085   6.279
 9945TIP3    H129778   3.127   4.084   6.290
 9945TIP3    H229779   3.254   4.028   6.349
 9946TIP3   OH229780   0.821   2.026   2.329
 9946TIP3    H129781   0.727   2.042   2.323
 9946TIP3    H229782   0.840   2.035   2.422
 9947TIP3   OH229783   7.788   3.492   1.670
 9947TIP3    H129784   7.731   3.484   1.594
 9947TIP3    H229785   7.756   3.426   1.732
 9948TIP3   OH229786   2.715   2.111   3.804
 9948TIP3    H129787   2.770   2.144   3.734
 9948TIP3    H229788   2.763   2.036   3.840
 9949TIP3   OH229789   8.149   7.050   0.437
 9949TIP3    H129790   8.073   6.993   0.452
 9949TIP3    H229791   8.154   7.059   0.342
 9950TIP3   OH229792   3.709   4.784   1.322
 9950TIP3    H129793   3.693   4.745   1.408
 9950TIP3    H229794   3.635   4.756   1.268
 9951TIP3   OH229795   5.304   6.336   5.650
 9951TIP3    H129796   5.355   6.255   5.656
 9951TIP3    H229797   5.215   6.310   5.670
 9952TIP3   OH229798   4.818   3.407   1.488
 9952TIP3    H129799   4.910   3.428   1.506
 9952TIP3    H229800   4.809   3.315   1.511
 9953TIP3   OH229801   4.041   5.265   3.871
 9953TIP3    H129802   4.134   5.242   3.871
 9953TIP3    H229803   4.013   5.250   3.961
 9954TIP3   OH229804   8.294   6.754   1.450
 9954TIP3    H129805   8.203   6.728   1.433
 9954TIP3    H229806   8.286   6.839   1.493
 9955TIP3   OH229807   4.422   1.797   6.486
 9955TIP3    H129808   4.463   1.771   6.568
 9955TIP3    H229809   4.474   1.754   6.418
 9956TIP3   OH229810   3.054   0.432   2.329
 9956TIP3    H129811   3.036   0.391   2.414
 9956TIP3    H229812   2.974   0.416   2.279
 9957TIP3   OH229813   3.830   7.829   1.658
 9957TIP3    H129814   3.915   7.853   1.621
 9957TIP3    H229815   3.814   7.741   1.625
 9958TIP3   OH229816   1.882   0.436   4.023
 9958TIP3    H129817   1.836   0.451   3.941
 9958TIP3    H229818   1.813   0.417   4.086
 9959TIP3   OH229819   4.682   1.326   1.123
 9959TIP3    H129820   4.676   1.293   1.034
 9959TIP3    H229821   4.662   1.419   1.115
 9960TIP3   OH229822   4.093   0.186   5.267
 9960TIP3    H129823   4.175   0.214   5.226
 9960TIP3    H229824   4.027   0.198   5.198
 9961TIP3   OH229825   4.214   3.968   2.299
 9961TIP3    H129826   4.249   3.882   2.278
 9961TIP3    H229827   4.231   4.020   2.220
 9962TIP3   OH229828   4.400   5.810   0.874
 9962TIP3    H129829   4.486   5.772   0.860
 9962TIP3    H229830   4.412   5.904   0.860
 9963TIP3   OH229831   5.391   3.579   2.311
 9963TIP3    H129832   5.357   3.578   2.401
 9963TIP3    H229833   5.402   3.672   2.292
 9964TIP3   OH229834   5.669   1.163   3.428
 9964TIP3    H129835   5.700   1.209   3.349
 9964TIP3    H229836   5.747   1.120   3.463
 9965TIP3   OH229837   7.302   0.449   3.192
 9965TIP3    H129838   7.251   0.517   3.236
 9965TIP3    H229839   7.295   0.373   3.250
 9966TIP3   OH229840   4.754   3.947   1.144
 9966TIP3    H129841   4.687   4.008   1.174
 9966TIP3    H229842   4.804   3.926   1.223
 9967TIP3   OH229843   1.328   7.021   0.136
 9967TIP3    H129844   1.367   6.937   0.161
 9967TIP3    H229845   1.321   7.069   0.219
 9968TIP3   OH229846   2.966   6.798   0.405
 9968TIP3    H129847   3.044   6.798   0.348
 9968TIP3    H229848   3.001   6.813   0.493
 9969TIP3   OH229849   2.316   4.489   6.229
 9969TIP3    H129850   2.275   4.562   6.182
 9969TIP3    H229851   2.252   4.418   6.223
 9970TIP3   OH229852   2.963   7.135   2.312
 9970TIP3    H129853   2.938   7.095   2.396
 9970TIP3    H229854   2.881   7.171   2.278
 9971TIP3   OH229855   2.089   5.208   1.752
 9971TIP3    H129856   2.175   5.189   1.713
 9971TIP3    H229857   2.095   5.176   1.841
 9972TIP3   OH229858   4.663   6.723   0.217
 9972TIP3    H129859   4.586   6.735   0.273
 9972TIP3    H229860   4.717   6.658   0.262
 9973TIP3   OH229861   6.815   1.281   2.662
 9973TIP3    H129862   6.891   1.229   2.635
 9973TIP3    H229863   6.788   1.242   2.745
 9974TIP3   OH229864   6.350   3.888   5.926
 9974TIP3    H129865   6.391   3.938   5.997
 9974TIP3    H229866   6.264   3.928   5.916
 9975TIP3   OH229867   8.080   0.012   5.870
 9975TIP3    H129868   8.076   0.079   5.802
 9975TIP3    H229869   8.131   0.051   5.940
 9976TIP3   OH229870   5.771   3.203   2.287
 9976TIP3    H129871   5.776   3.281   2.231
 9976TIP3    H229872   5.709   3.228   2.356
 9977TIP3   OH229873   2.306   1.114   2.303
 9977TIP3    H129874   2.400   1.104   2.288
 9977TIP3    H229875   2.266   1.046   2.249
 9978TIP3   OH229876   5.207   3.688   6.466
 9978TIP3    H129877   5.185   3.780   6.451
 9978TIP3    H229878   5.169   3.668   6.552
 9979TIP3   OH229879   7.363   5.601   5.057
 9979TIP3    H129880   7.397   5.519   5.020
 9979TIP3    H229881   7.358   5.661   4.983
 9980TIP3   OH229882   6.246   4.471   4.211
 9980TIP3    H129883   6.339   4.484   4.190
 9980TIP3    H229884   6.225   4.541   4.272
 9981TIP3   OH229885   2.691   3.212   2.420
 9981TIP3    H129886   2.675   3.120   2.439
 9981TIP3    H229887   2.708   3.252   2.505
 9982TIP3   OH229888   0.706   5.600   3.639
 9982TIP3    H129889   0.784   5.545   3.635
 9982TIP3    H229890   0.736   5.686   3.611
 9983TIP3   OH229891   7.402   6.277   6.604
 9983TIP3    H129892   7.465   6.252   6.671
 9983TIP3    H229893   7.321   6.233   6.629
 9984TIP3   OH229894   8.061   2.440   4.693
 9984TIP3    H129895   8.151   2.425   4.663
 9984TIP3    H229896   8.058   2.533   4.714
 9985TIP3   OH229897   6.285   5.820   5.983
 9985TIP3    H129898   6.193   5.819   6.009
 9985TIP3    H229899   6.320   5.736   6.014
 9986TIP3   OH229900   3.878   3.737   3.508
 9986TIP3    H129901   3.839   3.754   3.594
 9986TIP3    H229902   3.824   3.786   3.447
 9987TIP3   OH229903   3.356   3.269   0.357
 9987TIP3    H129904   3.358   3.178   0.328
 9987TIP3    H229905   3.324   3.318   0.282
 9988TIP3   OH229906   4.911   6.575   0.117
 9988TIP3    H129907   4.878   6.557   0.205
 9988TIP3    H229908   4.859   6.649   0.086
 9989TIP3   OH229909   0.577   1.272  -0.023
 9989TIP3    H129910   0.574   1.184   0.013
 9989TIP3    H229911   0.510   1.320   0.026
 9990TIP3   OH229912   0.470   6.635   5.386
 9990TIP3    H129913   0.554   6.590   5.397
 9990TIP3    H229914   0.411   6.593   5.449
 9991TIP3   OH229915   4.187   7.137   0.232
 9991TIP3    H129916   4.114   7.099   0.182
 9991TIP3    H229917   4.265   7.116   0.181
 9992TIP3   OH229918   4.943   2.776   6.183
 9992TIP3    H129919   4.994   2.718   6.239
 9992TIP3    H229920   4.973   2.758   6.094
 9993TIP3   OH229921   5.697   5.583   5.555
 9993TIP3    H129922   5.751   5.560   5.479
 9993TIP3    H229923   5.687   5.678   5.550
 9994TIP3   OH229924   1.868   5.911   0.982
 9994TIP3    H129925   1.832   5.829   1.015
 9994TIP3    H229926   1.953   5.918   1.025
 9995TIP3   OH229927   3.760   3.449   5.290
 9995TIP3    H129928   3.835   3.394   5.269
 9995TIP3    H229929   3.694   3.427   5.225
 9996TIP3   OH229930   1.677   4.683   3.004
 9996TIP3    H129931   1.751   4.683   2.943
 9996TIP3    H229932   1.601   4.705   2.950
 9997TIP3   OH229933   6.998   1.857   6.333
 9997TIP3    H129934   7.083   1.900   6.337
 9997TIP3    H229935   6.993   1.808   6.415
 9998TIP3   OH229936   6.428   1.067   0.272
 9998TIP3    H129937   6.475   1.130   0.326
 9998TIP3    H229938   6.423   0.988   0.326
 9999TIP3   OH229939   7.759   0.721   5.313
 9999TIP3    H129940   7.756   0.660   5.240
 9999TIP3    H229941   7.716   0.675   5.385
10000TIP3   OH229942   1.742   1.616   2.241
10000TIP3    H129943   1.831   1.583   2.223
10000TIP3    H229944   1.740   1.628   2.336
10001TIP3   OH229945   5.510   3.510   5.483
10001TIP3    H129946   5.419   3.513   5.512
10001TIP3    H229947   5.530   3.417   5.476
10002TIP3   OH229948   1.719   0.912   0.633
10002TIP3    H129949   1.802   0.864   0.633
10002TIP3    H229950   1.682   0.896   0.546
10003TIP3   OH229951   1.199   0.459   0.992
10003TIP3    H129952   1.223   0.550   1.008
10003TIP3    H229953   1.268   0.408   1.036
10004TIP3   OH229954   6.432   4.563   6.379
10004TIP3    H129955   6.473   4.567   6.293
10004TIP3    H229956   6.500   4.591   6.440
10005TIP3   OH229957   8.060   7.044   3.836
10005TIP3    H129958   7.995   6.994   3.885
10005TIP3    H229959   8.139   7.042   3.890
10006TIP3   OH229960   7.036   3.406   1.652
10006TIP3    H129961   7.107   3.429   1.592
10006TIP3    H229962   7.064   3.439   1.737
10007TIP3   OH229963   4.474   1.426   1.396
10007TIP3    H129964   4.381   1.408   1.379
10007TIP3    H229965   4.479   1.521   1.406
10008TIP3   OH229966   1.697   0.019   5.637
10008TIP3    H129967   1.691   0.042   5.730
10008TIP3    H229968   1.778  -0.032   5.631
10009TIP3   OH229969   3.920   0.331   1.869
10009TIP3    H129970   3.993   0.345   1.809
10009TIP3    H229971   3.916   0.410   1.921
10010TIP3   OH229972   7.923   1.182   0.113
10010TIP3    H129973   7.854   1.116   0.114
10010TIP3    H229974   7.881   1.262   0.145
10011TIP3   OH229975   2.091   0.383   2.959
10011TIP3    H129976   2.061   0.423   2.877
10011TIP3    H229977   2.148   0.311   2.931
10012TIP3   OH229978   6.300   7.246   4.288
10012TIP3    H129979   6.360   7.260   4.214
10012TIP3    H229980   6.320   7.158   4.319
10013TIP3   OH229981   6.941   1.020   2.526
10013TIP3    H129982   7.013   1.047   2.583
10013TIP3    H229983   6.982   0.970   2.456
10014TIP3   OH229984   5.407   1.871   2.719
10014TIP3    H129985   5.360   1.904   2.643
10014TIP3    H229986   5.339   1.854   2.784
10015TIP3   OH229987   5.644   7.795   3.785
10015TIP3    H129988   5.551   7.816   3.791
10015TIP3    H229989   5.651   7.736   3.710
10016TIP3   OH229990   0.432   5.990   3.640
10016TIP3    H129991   0.448   5.952   3.554
10016TIP3    H229992   0.510   5.967   3.691
10017TIP3   OH229993   7.077   6.606   5.567
10017TIP3    H129994   7.014   6.595   5.496
10017TIP3    H229995   7.099   6.699   5.567
10018TIP3   OH229996   6.764   4.613   5.079
10018TIP3    H129997   6.824   4.687   5.071
10018TIP3    H229998   6.691   4.635   5.021
10019TIP3   OH229999   4.884   5.455   1.714
10019TIP3    H130000   4.923   5.515   1.651
10019TIP3    H230001   4.844   5.386   1.661
10020TIP3   OH230002   4.034   7.130   5.619
10020TIP3    H130003   3.938   7.132   5.618
10020TIP3    H230004   4.058   7.181   5.696
10021TIP3   OH230005   1.953   3.841   3.935
10021TIP3    H130006   1.981   3.751   3.921
10021TIP3    H230007   2.014   3.875   4.000
10022TIP3   OH230008   8.061   0.951   6.158
10022TIP3    H130009   8.107   0.877   6.197
10022TIP3    H230010   8.130   1.017   6.145
10023TIP3   OH230011   3.215   7.140   2.735
10023TIP3    H130012   3.278   7.090   2.787
10023TIP3    H230013   3.174   7.199   2.797
10024TIP3   OH230014   0.429   0.592   5.258
10024TIP3    H130015   0.349   0.593   5.205
10024TIP3    H230016   0.406   0.539   5.335
10025TIP3   OH230017   4.797   4.913   6.478
10025TIP3    H130018   4.862   4.970   6.437
10025TIP3    H230019   4.809   4.926   6.572
10026TIP3   OH230020   1.098   7.096   4.582
10026TIP3    H130021   1.143   7.086   4.498
10026TIP3    H230022   1.096   7.190   4.597
10027TIP3   OH230023   5.362   2.285   4.922
10027TIP3    H130024   5.451   2.303   4.952
10027TIP3    H230025   5.313   2.267   5.002
10028TIP3   OH230026   7.700   3.710   3.837
10028TIP3    H130027   7.663   3.721   3.750
10028TIP3    H230028   7.725   3.617   3.841
10029TIP3   OH230029   6.495   3.964   0.332
10029TIP3    H130030   6.535   4.037   0.380
10029TIP3    H230031   6.475   3.899   0.399
10030TIP3   OH230032   5.289   6.876   3.439
10030TIP3    H130033   5.203   6.865   3.479
10030TIP3    H230034   5.272   6.912   3.352
10031TIP3   OH230035   0.580   1.717   0.863
10031TIP3    H130036   0.594   1.791   0.803
10031TIP3    H230037   0.665   1.673   0.868
10032TIP3   OH230038   7.360   0.981   5.792
10032TIP3    H130039   7.282   0.938   5.827
10032TIP3    H230040   7.433   0.925   5.820
10033TIP3   OH230041   1.945   5.911   6.065
10033TIP3    H130042   1.980   5.825   6.089
10033TIP3    H230043   1.927   5.954   6.149
10034TIP3   OH230044   8.173   5.165   2.567
10034TIP3    H130045   8.150   5.119   2.486
10034TIP3    H230046   8.114   5.128   2.633
10035TIP3   OH230047   4.125   4.127   1.632
10035TIP3    H130048   4.050   4.176   1.665
10035TIP3    H230049   4.198   4.154   1.687
10036TIP3   OH230050   6.473   5.826   1.323
10036TIP3    H130051   6.438   5.915   1.312
10036TIP3    H230052   6.439   5.797   1.408
10037TIP3   OH230053   7.132   6.407   1.585
10037TIP3    H130054   7.136   6.471   1.514
10037TIP3    H230055   7.113   6.459   1.663
10038TIP3   OH230056   5.113   2.511   2.362
10038TIP3    H130057   5.194   2.557   2.341
10038TIP3    H230058   5.057   2.525   2.286
10039TIP3   OH230059   2.506   5.552   5.456
10039TIP3    H130060   2.559   5.586   5.384
10039TIP3    H230061   2.552   5.474   5.486
10040TIP3   OH230062   4.977   3.080   3.595
10040TIP3    H130063   5.002   3.027   3.520
10040TIP3    H230064   5.055   3.085   3.649
10041TIP3   OH230065   2.464   4.040   4.961
10041TIP3    H130066   2.540   4.091   4.933
10041TIP3    H230067   2.444   3.984   4.886
10042TIP3   OH230068   4.151   2.180   1.933
10042TIP3    H130069   4.135   2.085   1.935
10042TIP3    H230070   4.246   2.188   1.939
10043TIP3   OH230071   2.456   0.779   6.266
10043TIP3    H130072   2.468   0.866   6.230
10043TIP3    H230073   2.528   0.727   6.230
10044TIP3   OH230074   6.132   6.749   4.983
10044TIP3    H130075   6.208   6.723   4.931
10044TIP3    H230076   6.162   6.742   5.074
10045TIP3   OH230077   1.564   2.940   4.178
10045TIP3    H130078   1.477   2.969   4.149
10045TIP3    H230079   1.574   2.853   4.140
10046TIP3   OH230080   6.769   5.525   6.574
10046TIP3    H130081   6.762   5.607   6.623
10046TIP3    H230082   6.737   5.545   6.487
10047TIP3   OH230083   1.947   6.388   3.314
10047TIP3    H130084   2.010   6.402   3.384
10047TIP3    H230085   1.935   6.474   3.274
10048TIP3   OH230086   7.802   0.462   2.851
10048TIP3    H130087   7.875   0.401   2.841
10048TIP3    H230088   7.830   0.522   2.920
10049TIP3   OH230089   5.856   3.225   5.129
10049TIP3    H130090   5.779   3.237   5.073
10049TIP3    H230091   5.928   3.260   5.077
10050TIP3   OH230092   1.905   6.739   1.869
10050TIP3    H130093   1.992   6.711   1.839
10050TIP3    H230094   1.923   6.803   1.938
10051TIP3   OH230095   7.322   5.906   3.437
10051TIP3    H130096   7.322   5.853   3.358
10051TIP3    H230097   7.316   5.842   3.508
10052TIP3   OH230098   0.727   1.852   1.232
10052TIP3    H130099   0.644   1.849   1.279
10052TIP3    H230100   0.737   1.764   1.196
10053TIP3   OH230101   7.339   4.173   1.286
10053TIP3    H130102   7.402   4.238   1.255
10053TIP3    H230103   7.298   4.214   1.363
10054TIP3   OH230104   4.060   5.903   0.280
10054TIP3    H130105   4.025   5.864   0.360
10054TIP3    H230106   3.991   5.961   0.249
10055TIP3   OH230107   7.511   1.787   5.374
10055TIP3    H130108   7.468   1.863   5.334
10055TIP3    H230109   7.485   1.713   5.319
10056TIP3   OH230110   4.291   4.027   2.559
10056TIP3    H130111   4.271   4.001   2.469
10056TIP3    H230112   4.383   4.056   2.555
10057TIP3   OH230113   1.155   3.642   0.799
10057TIP3    H130114   1.060   3.654   0.798
10057TIP3    H230115   1.178   3.644   0.892
10058TIP3   OH230116   4.644   7.647   3.351
10058TIP3    H130117   4.598   7.694   3.420
10058TIP3    H230118   4.595   7.668   3.271
10059TIP3   OH230119   3.708   6.743   3.457
10059TIP3    H130120   3.730   6.835   3.438
10059TIP3    H230121   3.620   6.746   3.493
10060TIP3   OH230122   4.853   7.636   6.730
10060TIP3    H130123   4.922   7.692   6.766
10060TIP3    H230124   4.772   7.681   6.751
10061TIP3   OH230125   5.843   4.470   6.087
10061TIP3    H130126   5.832   4.427   6.002
10061TIP3    H230127   5.824   4.562   6.070
10062TIP3   OH230128   1.712   5.128   1.456
10062TIP3    H130129   1.710   5.204   1.514
10062TIP3    H230130   1.641   5.144   1.394
10063TIP3   OH230131   4.390   4.649   1.760
10063TIP3    H130132   4.388   4.583   1.692
10063TIP3    H230133   4.345   4.725   1.722
10064TIP3   OH230134   5.420   3.406   3.563
10064TIP3    H130135   5.490   3.464   3.533
10064TIP3    H230136   5.346   3.427   3.506
10065TIP3   OH230137   1.142   6.094   0.699
10065TIP3    H130138   1.186   6.151   0.762
10065TIP3    H230139   1.058   6.072   0.740
10066TIP3   OH230140   8.068   1.682   5.568
10066TIP3    H130141   8.070   1.755   5.630
10066TIP3    H230142   8.016   1.615   5.612
10067TIP3   OH230143   2.594   6.608   2.495
10067TIP3    H130144   2.625   6.647   2.577
10067TIP3    H230145   2.506   6.643   2.484
10068TIP3   OH230146   3.198   5.229   2.323
10068TIP3    H130147   3.251   5.308   2.311
10068TIP3    H230148   3.114   5.262   2.354
10069TIP3   OH230149   7.384   0.666   6.605
10069TIP3    H130150   7.403   0.695   6.515
10069TIP3    H230151   7.435   0.726   6.660
10070TIP3   OH230152   6.907   4.501   1.626
10070TIP3    H130153   6.839   4.456   1.675
10070TIP3    H230154   6.933   4.438   1.559
10071TIP3   OH230155   7.895   2.599   6.647
10071TIP3    H130156   7.957   2.671   6.645
10071TIP3    H230157   7.838   2.613   6.572
10072TIP3   OH230158   7.179   0.511   1.894
10072TIP3    H130159   7.272   0.511   1.875
10072TIP3    H230160   7.141   0.572   1.832
10073TIP3   OH230161   5.747   5.916   1.795
10073TIP3    H130162   5.778   5.983   1.855
10073TIP3    H230163   5.825   5.865   1.772
10074TIP3   OH230164   3.354   3.067   5.124
10074TIP3    H130165   3.297   3.083   5.200
10074TIP3    H230166   3.405   2.990   5.148
10075TIP3   OH230167   4.508   3.995   0.094
10075TIP3    H130168   4.439   3.969   0.155
10075TIP3    H230169   4.515   3.921   0.033
10076TIP3   OH230170   6.833   5.458   1.867
10076TIP3    H130171   6.808   5.519   1.799
10076TIP3    H230172   6.925   5.477   1.884
10077TIP3   OH230173   2.198   6.973   0.923
10077TIP3    H130174   2.205   7.044   0.986
10077TIP3    H230175   2.167   7.015   0.843
10078TIP3   OH230176   2.684   6.246   4.115
10078TIP3    H130177   2.594   6.238   4.084
10078TIP3    H230178   2.737   6.200   4.050
10079TIP3   OH230179   0.216   2.443   3.015
10079TIP3    H130180   0.235   2.360   2.971
10079TIP3    H230181   0.182   2.416   3.101
10080TIP3   OH230182   3.617   0.572   5.621
10080TIP3    H130183   3.597   0.623   5.543
10080TIP3    H230184   3.636   0.638   5.689
10081TIP3   OH230185   6.637   3.937   4.349
10081TIP3    H130186   6.697   3.890   4.408
10081TIP3    H230187   6.670   4.027   4.347
10082TIP3   OH230188   4.244   4.642   2.260
10082TIP3    H130189   4.251   4.629   2.355
10082TIP3    H230190   4.285   4.564   2.222
10083TIP3   OH230191   3.180   7.016   4.607
10083TIP3    H130192   3.169   7.085   4.673
10083TIP3    H230193   3.241   7.053   4.543
10084TIP3   OH230194   4.051   5.946   5.130
10084TIP3    H130195   4.124   5.894   5.098
10084TIP3    H230196   4.092   6.019   5.177
10085TIP3   OH230197   2.654   4.073   5.746
10085TIP3    H130198   2.688   4.086   5.657
10085TIP3    H230199   2.627   4.160   5.775
10086TIP3   OH230200   0.651   1.621   1.982
10086TIP3    H130201   0.569   1.631   1.933
10086TIP3    H230202   0.639   1.678   2.058
10087TIP3   OH230203   5.006   6.450   4.903
10087TIP3    H130204   4.987   6.399   4.825
10087TIP3    H230205   5.046   6.388   4.964
10088TIP3   OH230206   7.096   5.235   4.757
10088TIP3    H130207   7.057   5.159   4.714
10088TIP3    H230208   7.026   5.271   4.811
10089TIP3   OH230209   4.182   0.606   1.731
10089TIP3    H130210   4.224   0.574   1.811
10089TIP3    H230211   4.231   0.685   1.708
10090TIP3   OH230212   2.217   4.404   0.466
10090TIP3    H130213   2.211   4.498   0.451
10090TIP3    H230214   2.236   4.366   0.380
10091TIP3   OH230215   5.895   6.909   3.725
10091TIP3    H130216   5.905   7.000   3.750
10091TIP3    H230217   5.974   6.888   3.676
10092TIP3   OH230218   0.753   1.512   6.455
10092TIP3    H130219   0.723   1.546   6.370
10092TIP3    H230220   0.822   1.572   6.482
10093TIP3   OH230221   3.643   4.647   0.203
10093TIP3    H130222   3.654   4.651   0.298
10093TIP3    H230223   3.729   4.670   0.167
10094TIP3   OH230224   0.378   1.470   6.254
10094TIP3    H130225   0.348   1.546   6.303
10094TIP3    H230226   0.344   1.483   6.165
10095TIP3   OH230227   1.452   3.392   0.182
10095TIP3    H130228   1.398   3.313   0.182
10095TIP3    H230229   1.391   3.462   0.205
10096TIP3   OH230230   2.159   5.774   4.900
10096TIP3    H130231   2.191   5.833   4.969
10096TIP3    H230232   2.064   5.770   4.915
10097TIP3   OH230233   7.396   5.251   6.272
10097TIP3    H130234   7.318   5.279   6.222
10097TIP3    H230235   7.361   5.221   6.356
10098TIP3   OH230236   0.510   2.431   0.051
10098TIP3    H130237   0.424   2.474   0.051
10098TIP3    H230238   0.511   2.379   0.131
10099TIP3   OH230239   2.773   3.794   6.586
10099TIP3    H130240   2.807   3.712   6.621
10099TIP3    H230241   2.678   3.789   6.602
10100TIP3   OH230242   2.624   2.336   4.117
10100TIP3    H130243   2.671   2.311   4.197
10100TIP3    H230244   2.679   2.403   4.076
10101TIP3   OH230245   2.640   1.346   0.460
10101TIP3    H130246   2.702   1.394   0.405
10101TIP3    H230247   2.696   1.291   0.516
10102TIP3   OH230248   2.693   7.261   3.123
10102TIP3    H130249   2.706   7.289   3.213
10102TIP3    H230250   2.780   7.234   3.093
10103TIP3   OH230251   1.349   0.880   0.067
10103TIP3    H130252   1.268   0.923   0.092
10103TIP3    H230253   1.405   0.950   0.033
10104TIP3   OH230254   1.422   6.890   4.998
10104TIP3    H130255   1.381   6.898   4.912
10104TIP3    H230256   1.348   6.891   5.059
10105TIP3   OH230257   2.285   5.920   3.959
10105TIP3    H130258   2.317   5.858   4.024
10105TIP3    H230259   2.190   5.917   3.966
10106TIP3   OH230260   7.314   5.514   2.142
10106TIP3    H130261   7.263   5.510   2.223
10106TIP3    H230262   7.400   5.480   2.168
10107TIP3   OH230263   3.701   1.448   1.741
10107TIP3    H130264   3.771   1.468   1.679
10107TIP3    H230265   3.706   1.353   1.753
10108TIP3   OH230266   1.607   1.791   5.787
10108TIP3    H130267   1.659   1.835   5.853
10108TIP3    H230268   1.664   1.724   5.751
10109TIP3   OH230269   6.273   2.218   3.552
10109TIP3    H130270   6.216   2.228   3.475
10109TIP3    H230271   6.346   2.165   3.521
10110TIP3   OH230272   7.026   3.796   3.770
10110TIP3    H130273   7.054   3.886   3.751
10110TIP3    H230274   6.951   3.805   3.828
10111TIP3   OH230275   7.395   1.178   4.665
10111TIP3    H130276   7.382   1.221   4.750
10111TIP3    H230277   7.416   1.087   4.688
10112TIP3   OH230278   1.950   2.473   1.861
10112TIP3    H130279   1.990   2.537   1.919
10112TIP3    H230280   1.990   2.390   1.886
10113TIP3   OH230281   4.218   2.168   1.554
10113TIP3    H130282   4.254   2.203   1.635
10113TIP3    H230283   4.139   2.220   1.539
10114TIP3   OH230284   5.768   6.360   6.359
10114TIP3    H130285   5.774   6.389   6.450
10114TIP3    H230286   5.822   6.423   6.310
10115TIP3   OH230287   6.700   5.670   4.893
10115TIP3    H130288   6.795   5.669   4.881
10115TIP3    H230289   6.673   5.756   4.861
10116TIP3   OH230290   7.050   2.636   5.342
10116TIP3    H130291   7.032   2.578   5.268
10116TIP3    H230292   7.127   2.599   5.384
10117TIP3   OH230293   2.249   6.702   3.202
10117TIP3    H130294   2.246   6.633   3.136
10117TIP3    H230295   2.157   6.721   3.221
10118TIP3   OH230296   4.073   1.279   4.683
10118TIP3    H130297   4.133   1.235   4.743
10118TIP3    H230298   3.994   1.226   4.685
10119TIP3   OH230299   5.321   6.881   6.164
10119TIP3    H130300   5.251   6.818   6.145
10119TIP3    H230301   5.288   6.964   6.132
10120TIP3   OH230302   5.614   7.215   1.313
10120TIP3    H130303   5.543   7.200   1.376
10120TIP3    H230304   5.606   7.308   1.291
10121TIP3   OH230305   2.746   4.277   1.189
10121TIP3    H130306   2.652   4.266   1.199
10121TIP3    H230307   2.783   4.191   1.211
10122TIP3   OH230308   4.110   3.340   3.679
10122TIP3    H130309   4.192   3.390   3.682
10122TIP3    H230310   4.134   3.252   3.708
10123TIP3   OH230311   4.241   0.904   5.456
10123TIP3    H130312   4.235   0.830   5.516
10123TIP3    H230313   4.245   0.864   5.369
10124TIP3   OH230314   7.585   3.322   0.911
10124TIP3    H130315   7.618   3.236   0.934
10124TIP3    H230316   7.579   3.368   0.995
10125TIP3   OH230317   5.204   3.526   6.712
10125TIP3    H130318   5.154   3.601   6.745
10125TIP3    H230319   5.274   3.513   6.776
10126TIP3   OH230320   7.363   3.121   6.175
10126TIP3    H130321   7.274   3.127   6.210
10126TIP3    H230322   7.401   3.047   6.221
10127TIP3   OH230323   7.392   3.638   2.817
10127TIP3    H130324   7.324   3.572   2.832
10127TIP3    H230325   7.455   3.624   2.888
10128TIP3   OH230326   1.065   1.982   1.794
10128TIP3    H130327   1.067   1.896   1.752
10128TIP3    H230328   0.972   2.003   1.802
10129TIP3   OH230329   6.016   0.158   5.222
10129TIP3    H130330   5.978   0.091   5.165
10129TIP3    H230331   5.942   0.188   5.275
10130TIP3   OH230332   0.631   4.039   0.335
10130TIP3    H130333   0.703   3.975   0.327
10130TIP3    H230334   0.647   4.101   0.264
10131TIP3   OH230335   4.270   5.430   5.918
10131TIP3    H130336   4.365   5.429   5.917
10131TIP3    H230337   4.246   5.431   5.825
10132TIP3   OH230338   7.106   4.883   0.360
10132TIP3    H130339   7.182   4.931   0.327
10132TIP3    H230340   7.131   4.856   0.449
10133TIP3   OH230341   5.885   3.731   5.460
10133TIP3    H130342   5.816   3.686   5.412
10133TIP3    H230343   5.886   3.819   5.422
10134TIP3   OH230344   7.607   5.447   6.315
10134TIP3    H130345   7.555   5.366   6.313
10134TIP3    H230346   7.559   5.507   6.256
10135TIP3   OH230347   6.873   6.097   4.506
10135TIP3    H130348   6.890   6.139   4.422
10135TIP3    H230349   6.778   6.094   4.513
10136TIP3   OH230350   3.148   1.755   2.825
10136TIP3    H130351   3.097   1.677   2.803
10136TIP3    H230352   3.231   1.719   2.860
10137TIP3   OH230353   3.329   3.464   5.774
10137TIP3    H130354   3.397   3.402   5.800
10137TIP3    H230355   3.259   3.452   5.838
10138TIP3   OH230356   0.696   3.139   5.135
10138TIP3    H130357   0.604   3.130   5.160
10138TIP3    H230358   0.739   3.170   5.215
10139TIP3   OH230359   5.438   4.718   6.120
10139TIP3    H130360   5.439   4.646   6.056
10139TIP3    H230361   5.459   4.795   6.068
10140TIP3   OH230362   2.030   1.707   3.247
10140TIP3    H130363   2.102   1.729   3.188
10140TIP3    H230364   1.999   1.791   3.280
10141TIP3   OH230365   5.481   0.071   4.961
10141TIP3    H130366   5.549   0.111   5.016
10141TIP3    H230367   5.472  -0.018   4.994
10142TIP3   OH230368   5.806   5.193   1.091
10142TIP3    H130369   5.786   5.103   1.118
10142TIP3    H230370   5.858   5.228   1.163
10143TIP3   OH230371   1.198   5.833   5.586
10143TIP3    H130372   1.218   5.899   5.653
10143TIP3    H230373   1.284   5.809   5.551
10144TIP3   OH230374   0.076   3.377   2.946
10144TIP3    H130375   0.062   3.294   2.992
10144TIP3    H230376   0.130   3.428   3.006
10145TIP3   OH230377   3.570   0.095   3.086
10145TIP3    H130378   3.594   0.175   3.040
10145TIP3    H230379   3.491   0.064   3.042
10146TIP3   OH230380   4.842   5.187   1.216
10146TIP3    H130381   4.847   5.120   1.147
10146TIP3    H230382   4.772   5.245   1.187
10147TIP3   OH230383   6.047   3.411   2.922
10147TIP3    H130384   6.061   3.443   3.011
10147TIP3    H230385   6.113   3.343   2.910
10148TIP3   OH230386   0.777   4.566   0.660
10148TIP3    H130387   0.866   4.578   0.627
10148TIP3    H230388   0.729   4.530   0.586
10149TIP3   OH230389   8.197   1.098   3.628
10149TIP3    H130390   8.184   1.003   3.630
10149TIP3    H230391   8.289   1.108   3.603
10150TIP3   OH230392   4.881   3.781   5.136
10150TIP3    H130393   4.827   3.860   5.130
10150TIP3    H230394   4.833   3.716   5.085
10151TIP3   OH230395   7.689   4.944   1.561
10151TIP3    H130396   7.621   5.009   1.542
10151TIP3    H230397   7.755   4.992   1.611
10152TIP3   OH230398   2.892   5.617   3.720
10152TIP3    H130399   2.864   5.573   3.800
10152TIP3    H230400   2.985   5.597   3.712
10153TIP3   OH230401   6.147   3.413   6.666
10153TIP3    H130402   6.133   3.357   6.590
10153TIP3    H230403   6.242   3.418   6.675
10154TIP3   OH230404   2.069   3.776   2.925
10154TIP3    H130405   2.147   3.731   2.958
10154TIP3    H230406   2.073   3.863   2.965
10155TIP3   OH230407   2.493   2.548   0.440
10155TIP3    H130408   2.440   2.540   0.519
10155TIP3    H230409   2.444   2.606   0.383
10156TIP3   OH230410   3.097   1.076   5.569
10156TIP3    H130411   3.186   1.052   5.543
10156TIP3    H230412   3.108   1.117   5.655
10157TIP3   OH230413   2.883   1.212   0.534
10157TIP3    H130414   2.974   1.195   0.557
10157TIP3    H230415   2.861   1.146   0.469
10158TIP3   OH230416   0.826   2.325   6.354
10158TIP3    H130417   0.771   2.383   6.302
10158TIP3    H230418   0.915   2.343   6.326
10159TIP3   OH230419   5.422   1.702   3.228
10159TIP3    H130420   5.468   1.628   3.190
10159TIP3    H230421   5.405   1.677   3.319
10160TIP3   OH230422   5.438   6.946   3.660
10160TIP3    H130423   5.388   6.945   3.578
10160TIP3    H230424   5.422   7.033   3.696
10161TIP3   OH230425   1.297   1.625   2.921
10161TIP3    H130426   1.279   1.553   2.860
10161TIP3    H230427   1.211   1.664   2.936
10162TIP3   OH230428   1.254   6.273   0.518
10162TIP3    H130429   1.193   6.308   0.453
10162TIP3    H230430   1.205   6.205   0.564
10163TIP3   OH230431   3.792   5.541   0.922
10163TIP3    H130432   3.827   5.480   0.857
10163TIP3    H230433   3.721   5.586   0.877
10164TIP3   OH230434   5.338   4.797   1.191
10164TIP3    H130435   5.261   4.800   1.248
10164TIP3    H230436   5.394   4.868   1.222
10165TIP3   OH230437   1.147   5.028   2.986
10165TIP3    H130438   1.162   4.981   3.068
10165TIP3    H230439   1.187   4.973   2.919
10166TIP3   OH230440   2.925   2.129   2.906
10166TIP3    H130441   2.899   2.047   2.865
10166TIP3    H230442   2.863   2.140   2.978
10167TIP3   OH230443   2.151   2.405   5.786
10167TIP3    H130444   2.108   2.452   5.857
10167TIP3    H230445   2.143   2.313   5.810
10168TIP3   OH230446   1.292   7.127   6.686
10168TIP3    H130447   1.320   7.096   6.771
10168TIP3    H230448   1.229   7.062   6.655
10169TIP3   OH230449   0.458   6.248   3.755
10169TIP3    H130450   0.441   6.167   3.705
10169TIP3    H230451   0.395   6.311   3.719
10170TIP3   OH230452   8.052   3.236   3.689
10170TIP3    H130453   8.031   3.327   3.667
10170TIP3    H230454   7.972   3.202   3.730
10171TIP3   OH230455   3.621   5.278   6.745
10171TIP3    H130456   3.638   5.191   6.710
10171TIP3    H230457   3.526   5.281   6.757
10172TIP3   OH230458   2.111   2.539   1.541
10172TIP3    H130459   2.106   2.594   1.463
10172TIP3    H230460   2.161   2.462   1.514
10173TIP3   OH230461   7.143   7.762   5.324
10173TIP3    H130462   7.153   7.803   5.410
10173TIP3    H230463   7.231   7.764   5.287
10174TIP3   OH230464   6.247   7.572   2.281
10174TIP3    H130465   6.315   7.603   2.341
10174TIP3    H230466   6.250   7.477   2.288
10175TIP3   OH230467   4.202   0.682   2.298
10175TIP3    H130468   4.203   0.711   2.207
10175TIP3    H230469   4.286   0.711   2.333
10176TIP3   OH230470   7.658   5.154   3.601
10176TIP3    H130471   7.591   5.209   3.562
10176TIP3    H230472   7.728   5.214   3.624
10177TIP3   OH230473   6.818   1.734   1.772
10177TIP3    H130474   6.734   1.691   1.787
10177TIP3    H230475   6.835   1.782   1.853
10178TIP3   OH230476   4.666   4.204   2.229
10178TIP3    H130477   4.666   4.273   2.162
10178TIP3    H230478   4.737   4.145   2.202
10179TIP3   OH230479   2.073   0.765   2.963
10179TIP3    H130480   2.024   0.741   3.041
10179TIP3    H230481   2.014   0.747   2.890
10180TIP3   OH230482   6.569   4.634   2.485
10180TIP3    H130483   6.662   4.655   2.499
10180TIP3    H230484   6.554   4.656   2.393
10181TIP3   OH230485   4.455   2.576   4.412
10181TIP3    H130486   4.492   2.589   4.499
10181TIP3    H230487   4.523   2.608   4.352
10182TIP3   OH230488   0.695   2.108   4.190
10182TIP3    H130489   0.683   2.013   4.200
10182TIP3    H230490   0.652   2.128   4.106
10183TIP3   OH230491   5.775   1.225   4.878
10183TIP3    H130492   5.869   1.212   4.881
10183TIP3    H230493   5.738   1.141   4.908
10184TIP3   OH230494   0.216   0.662   1.766
10184TIP3    H130495   0.263   0.623   1.692
10184TIP3    H230496   0.270   0.736   1.793
10185TIP3   OH230497   3.967   0.720   2.500
10185TIP3    H130498   4.033   0.772   2.547
10185TIP3    H230499   4.013   0.689   2.422
10186TIP3   OH230500   6.001   3.717   4.167
10186TIP3    H130501   5.978   3.672   4.086
10186TIP3    H230502   5.964   3.805   4.157
10187TIP3   OH230503   7.865   6.807   1.222
10187TIP3    H130504   7.937   6.869   1.209
10187TIP3    H230505   7.807   6.850   1.284
10188TIP3   OH230506   3.029   4.327   4.306
10188TIP3    H130507   3.088   4.395   4.273
10188TIP3    H230508   3.076   4.290   4.381
10189TIP3   OH230509   6.352   7.227   6.640
10189TIP3    H130510   6.300   7.292   6.592
10189TIP3    H230511   6.291   7.155   6.657
10190TIP3   OH230512   2.317   2.477   3.648
10190TIP3    H130513   2.243   2.479   3.708
10190TIP3    H230514   2.395   2.476   3.704
10191TIP3   OH230515   6.805   2.504   1.256
10191TIP3    H130516   6.807   2.597   1.281
10191TIP3    H230517   6.751   2.463   1.324
10192TIP3   OH230518   5.078   1.192   4.616
10192TIP3    H130519   5.172   1.173   4.623
10192TIP3    H230520   5.057   1.235   4.699
10193TIP3   OH230521   0.290   2.896   4.203
10193TIP3    H130522   0.376   2.888   4.160
10193TIP3    H230523   0.285   2.819   4.260
10194TIP3   OH230524   5.807   3.206   1.699
10194TIP3    H130525   5.789   3.299   1.705
10194TIP3    H230526   5.805   3.174   1.789
10195TIP3   OH230527   5.897   1.854   1.343
10195TIP3    H130528   5.851   1.935   1.365
10195TIP3    H230529   5.976   1.856   1.397
10196TIP3   OH230530   7.735   3.098   0.820
10196TIP3    H130531   7.831   3.093   0.828
10196TIP3    H230532   7.705   3.008   0.828
10197TIP3   OH230533   6.757   6.088   6.490
10197TIP3    H130534   6.784   6.154   6.426
10197TIP3    H230535   6.808   6.108   6.568
10198TIP3   OH230536   5.817   3.378   4.737
10198TIP3    H130537   5.880   3.306   4.734
10198TIP3    H230538   5.858   3.444   4.793
10199TIP3   OH230539   0.260   2.080   4.107
10199TIP3    H130540   0.327   2.146   4.091
10199TIP3    H230541   0.215   2.109   4.186
10200TIP3   OH230542   7.313   6.181   2.329
10200TIP3    H130543   7.286   6.187   2.421
10200TIP3    H230544   7.232   6.195   2.279
10201TIP3   OH230545   6.400   6.485   5.598
10201TIP3    H130546   6.312   6.508   5.566
10201TIP3    H230547   6.386   6.408   5.653
10202TIP3   OH230548   0.927   3.150   5.832
10202TIP3    H130549   0.900   3.058   5.839
10202TIP3    H230550   0.849   3.195   5.800
10203TIP3   OH230551   7.935   5.035   1.735
10203TIP3    H130552   7.886   5.015   1.815
10203TIP3    H230553   7.993   4.960   1.723
10204TIP3   OH230554   0.015   1.491   4.371
10204TIP3    H130555   0.054   1.404   4.383
10204TIP3    H230556   0.055   1.544   4.440
10205TIP3   OH230557   0.998   4.482   5.475
10205TIP3    H130558   1.036   4.396   5.455
10205TIP3    H230559   0.921   4.488   5.418
10206TIP3   OH230560   5.267   6.811   5.817
10206TIP3    H130561   5.245   6.748   5.748
10206TIP3    H230562   5.362   6.805   5.826
10207TIP3   OH230563   8.000   7.178   3.141
10207TIP3    H130564   7.968   7.123   3.070
10207TIP3    H230565   8.018   7.117   3.213
10208TIP3   OH230566   4.771   0.852   1.328
10208TIP3    H130567   4.849   0.838   1.274
10208TIP3    H230568   4.698   0.848   1.266
10209TIP3   OH230569   5.464   3.720   0.206
10209TIP3    H130570   5.443   3.641   0.157
10209TIP3    H230571   5.551   3.745   0.176
10210TIP3   OH230572   0.013   6.053   4.655
10210TIP3    H130573  -0.015   6.112   4.724
10210TIP3    H230574  -0.045   5.977   4.663
10211TIP3   OH230575   2.831   1.946   5.171
10211TIP3    H130576   2.738   1.967   5.170
10211TIP3    H230577   2.835   1.851   5.180
10212TIP3   OH230578   4.461   5.036   2.267
10212TIP3    H130579   4.536   5.083   2.229
10212TIP3    H230580   4.443   4.965   2.205
10213TIP3   OH230581   0.036   0.909   2.230
10213TIP3    H130582   0.061   0.892   2.321
10213TIP3    H230583  -0.059   0.917   2.232
10214TIP3   OH230584   7.289   0.241   1.134
10214TIP3    H130585   7.280   0.253   1.039
10214TIP3    H230586   7.345   0.313   1.162
10215TIP3   OH230587   0.683   4.754   5.907
10215TIP3    H130588   0.720   4.834   5.869
10215TIP3    H230589   0.589   4.767   5.902
10216TIP3   OH230590   8.170   6.911   2.419
10216TIP3    H130591   8.103   6.919   2.487
10216TIP3    H230592   8.240   6.859   2.458
10217TIP3   OH230593   4.477   1.870   5.285
10217TIP3    H130594   4.440   1.903   5.366
10217TIP3    H230595   4.408   1.817   5.246
10218TIP3   OH230596   4.377   1.787   3.417
10218TIP3    H130597   4.317   1.859   3.436
10218TIP3    H230598   4.322   1.720   3.376
10219TIP3   OH230599   7.448   7.300   3.801
10219TIP3    H130600   7.466   7.382   3.756
10219TIP3    H230601   7.410   7.244   3.733
10220TIP3   OH230602   6.995   6.261   1.895
10220TIP3    H130603   6.990   6.238   1.803
10220TIP3    H230604   7.055   6.335   1.899
10221TIP3   OH230605   6.458   7.040   0.422
10221TIP3    H130606   6.362   7.040   0.425
10221TIP3    H230607   6.481   7.126   0.386
10222TIP3   OH230608   2.825   1.420   0.741
10222TIP3    H130609   2.883   1.352   0.707
10222TIP3    H230610   2.739   1.379   0.745
10223TIP3   OH230611   7.919   2.865   5.748
10223TIP3    H130612   7.839   2.864   5.697
10223TIP3    H230613   7.901   2.925   5.820
10224TIP3   OH230614   5.482   1.315   3.608
10224TIP3    H130615   5.523   1.230   3.590
10224TIP3    H230616   5.388   1.294   3.616
10225TIP3   OH230617   7.260   6.817   4.642
10225TIP3    H130618   7.304   6.746   4.688
10225TIP3    H230619   7.224   6.776   4.563
10226TIP3   OH230620   4.231   1.624   0.716
10226TIP3    H130621   4.213   1.579   0.798
10226TIP3    H230622   4.148   1.623   0.669
10227TIP3   OH230623   0.217   5.320   4.515
10227TIP3    H130624   0.148   5.387   4.517
10227TIP3    H230625   0.255   5.321   4.603
10228TIP3   OH230626   5.551   4.977   2.116
10228TIP3    H130627   5.540   5.070   2.096
10228TIP3    H230628   5.581   4.974   2.207
10229TIP3   OH230629   5.140   4.978   3.665
10229TIP3    H130630   5.166   4.887   3.675
10229TIP3    H230631   5.222   5.027   3.670
10230TIP3   OH230632   6.375   4.901   1.712
10230TIP3    H130633   6.314   4.869   1.646
10230TIP3    H230634   6.362   4.996   1.713
10231TIP3   OH230635   3.547   4.074   5.344
10231TIP3    H130636   3.482   4.108   5.405
10231TIP3    H230637   3.624   4.056   5.398
10232TIP3   OH230638   0.583   7.550   0.786
10232TIP3    H130639   0.612   7.461   0.765
10232TIP3    H230640   0.571   7.592   0.701
10233TIP3   OH230641   5.597   4.651   5.722
10233TIP3    H130642   5.622   4.739   5.694
10233TIP3    H230643   5.585   4.603   5.641
10234TIP3   OH230644   4.415   2.205   5.775
10234TIP3    H130645   4.339   2.190   5.718
10234TIP3    H230646   4.478   2.250   5.719
10235TIP3   OH230647   2.522   5.779   2.607
10235TIP3    H130648   2.498   5.699   2.559
10235TIP3    H230649   2.438   5.823   2.624
10236TIP3   OH230650   0.806   6.887   3.193
10236TIP3    H130651   0.776   6.977   3.179
10236TIP3    H230652   0.728   6.834   3.183
10237TIP3   OH230653   1.370   1.030   6.575
10237TIP3    H130654   1.319   0.980   6.511
10237TIP3    H230655   1.330   1.118   6.574
10238TIP3   OH230656   1.603   1.904   1.783
10238TIP3    H130657   1.642   1.987   1.810
10238TIP3    H230658   1.591   1.912   1.689
10239TIP3   OH230659   3.991   7.109   0.820
10239TIP3    H130660   3.979   7.017   0.796
10239TIP3    H230661   3.903   7.145   0.821
10240TIP3   OH230662   7.286   5.749   5.276
10240TIP3    H130663   7.276   5.679   5.341
10240TIP3    H230664   7.291   5.704   5.192
10241TIP3   OH230665   2.672   7.484   4.380
10241TIP3    H130666   2.614   7.494   4.456
10241TIP3    H230667   2.752   7.529   4.405
10242TIP3   OH230668   7.680   7.119   1.092
10242TIP3    H130669   7.597   7.159   1.064
10242TIP3    H230670   7.658   7.076   1.175
10243TIP3   OH230671   3.209   0.225   1.866
10243TIP3    H130672   3.275   0.243   1.798
10243TIP3    H230673   3.222   0.296   1.929
10244TIP3   OH230674   7.473   1.491   4.148
10244TIP3    H130675   7.408   1.421   4.142
10244TIP3    H230676   7.425   1.570   4.122
10245TIP3   OH230677   1.050   3.983   3.679
10245TIP3    H130678   1.136   3.950   3.654
10245TIP3    H230679   1.033   3.943   3.764
10246TIP3   OH230680   3.571   4.765   3.043
10246TIP3    H130681   3.550   4.834   3.105
10246TIP3    H230682   3.488   4.745   3.000
10247TIP3   OH230683   6.851   1.479   0.465
10247TIP3    H130684   6.805   1.558   0.494
10247TIP3    H230685   6.933   1.512   0.428
10248TIP3   OH230686   4.605   2.474   3.470
10248TIP3    H130687   4.603   2.414   3.395
10248TIP3    H230688   4.513   2.477   3.499
10249TIP3   OH230689   1.102   0.792   4.857
10249TIP3    H130690   1.142   0.709   4.832
10249TIP3    H230691   1.177   0.850   4.873
10250TIP3   OH230692   0.918   6.316   3.998
10250TIP3    H130693   0.991   6.360   4.041
10250TIP3    H230694   0.895   6.375   3.926
10251TIP3   OH230695   2.940   0.571   0.472
10251TIP3    H130696   2.850   0.549   0.447
10251TIP3    H230697   2.980   0.487   0.494
10252TIP3   OH230698   6.552   7.352   5.202
10252TIP3    H130699   6.612   7.422   5.228
10252TIP3    H230700   6.471   7.397   5.178
10253TIP3   OH230701   7.022   7.736   0.981
10253TIP3    H130702   6.967   7.678   0.927
10253TIP3    H230703   7.056   7.800   0.919
10254TIP3   OH230704   3.960   0.661   0.450
10254TIP3    H130705   3.909   0.742   0.442
10254TIP3    H230706   3.902   0.594   0.414
10255TIP3   OH230707   1.898   3.025   0.612
10255TIP3    H130708   1.806   3.050   0.603
10255TIP3    H230709   1.913   3.023   0.707
10256TIP3   OH230710   0.483   1.248   4.946
10256TIP3    H130711   0.410   1.248   5.008
10256TIP3    H230712   0.489   1.338   4.916
10257TIP3   OH230713   1.333   4.891   2.166
10257TIP3    H130714   1.394   4.965   2.172
10257TIP3    H230715   1.389   4.815   2.151
10258TIP3   OH230716   3.624   6.124   0.608
10258TIP3    H130717   3.670   6.054   0.654
10258TIP3    H230718   3.531   6.103   0.620
10259TIP3   OH230719   2.255   6.346   2.163
10259TIP3    H130720   2.282   6.314   2.250
10259TIP3    H230721   2.173   6.391   2.179
10260TIP3   OH230722   5.455   6.095   5.686
10260TIP3    H130723   5.435   6.083   5.779
10260TIP3    H230724   5.441   6.009   5.647
10261TIP3   OH230725   4.498   1.578   2.344
10261TIP3    H130726   4.429   1.633   2.381
10261TIP3    H230727   4.577   1.601   2.394
10262TIP3   OH230728   3.029   7.572   1.938
10262TIP3    H130729   3.042   7.495   1.882
10262TIP3    H230730   2.935   7.571   1.958
10263TIP3   OH230731   0.340   6.633   1.848
10263TIP3    H130732   0.253   6.619   1.811
10263TIP3    H230733   0.337   6.593   1.934
10264TIP3   OH230734   1.240   3.354   3.354
10264TIP3    H130735   1.313   3.325   3.300
10264TIP3    H230736   1.281   3.392   3.431
10265TIP3   OH230737   4.977   6.621   3.577
10265TIP3    H130738   5.015   6.709   3.578
10265TIP3    H230739   4.894   6.631   3.529
10266TIP3   OH230740   4.685   7.608   2.663
10266TIP3    H130741   4.700   7.516   2.684
10266TIP3    H230742   4.701   7.655   2.744
10267TIP3   OH230743   7.071   3.752   2.072
10267TIP3    H130744   6.996   3.801   2.107
10267TIP3    H230745   7.068   3.668   2.118
10268TIP3   OH230746   6.807   0.667   6.229
10268TIP3    H130747   6.773   0.610   6.298
10268TIP3    H230748   6.745   0.658   6.157
10269TIP3   OH230749   7.775   1.339   2.999
10269TIP3    H130750   7.779   1.425   3.040
10269TIP3    H230751   7.867   1.316   2.981
10270TIP3   OH230752   3.846   3.963   1.140
10270TIP3    H130753   3.858   3.883   1.193
10270TIP3    H230754   3.923   4.016   1.159
10271TIP3   OH230755   6.587   2.901   6.510
10271TIP3    H130756   6.522   2.936   6.449
10271TIP3    H230757   6.654   2.862   6.454
10272TIP3   OH230758   2.487   4.723   5.523
10272TIP3    H130759   2.422   4.712   5.592
10272TIP3    H230760   2.446   4.687   5.445
10273TIP3   OH230761   0.704   1.399   2.763
10273TIP3    H130762   0.624   1.347   2.764
10273TIP3    H230763   0.739   1.388   2.674
10274TIP3   OH230764   7.679   1.375   2.242
10274TIP3    H130765   7.583   1.375   2.247
10274TIP3    H230766   7.708   1.360   2.332
10275TIP3   OH230767   0.016   5.538   4.504
10275TIP3    H130768   0.024   5.628   4.472
10275TIP3    H230769  -0.035   5.493   4.436
10276TIP3   OH230770   5.728   4.060   4.934
10276TIP3    H130771   5.701   3.968   4.939
10276TIP3    H230772   5.815   4.058   4.896
10277TIP3   OH230773   2.692   2.062   6.073
10277TIP3    H130774   2.760   2.058   6.005
10277TIP3    H230775   2.736   2.099   6.149
10278TIP3   OH230776   2.250   6.806   0.166
10278TIP3    H130777   2.209   6.813   0.079
10278TIP3    H230778   2.248   6.712   0.186
10279TIP3   OH230779   7.763   6.007   6.215
10279TIP3    H130780   7.829   6.076   6.220
10279TIP3    H230781   7.680   6.053   6.201
10280TIP3   OH230782   3.748   5.535   6.514
10280TIP3    H130783   3.659   5.501   6.524
10280TIP3    H230784   3.737   5.612   6.458
10281TIP3   OH230785   2.576   7.625   3.300
10281TIP3    H130786   2.654   7.579   3.271
10281TIP3    H230787   2.503   7.577   3.260
10282TIP3   OH230788   3.127   4.805   0.296
10282TIP3    H130789   3.093   4.717   0.313
10282TIP3    H230790   3.211   4.790   0.251
10283TIP3   OH230791   5.448   1.575   6.131
10283TIP3    H130792   5.502   1.651   6.151
10283TIP3    H230793   5.361   1.612   6.116
10284TIP3   OH230794   5.846   1.443   0.882
10284TIP3    H130795   5.927   1.448   0.831
10284TIP3    H230796   5.869   1.484   0.966
10285TIP3   OH230797   7.983   1.110   5.225
10285TIP3    H130798   8.068   1.139   5.190
10285TIP3    H230799   7.941   1.065   5.152
10286TIP3   OH230800   5.692   2.660   5.339
10286TIP3    H130801   5.688   2.634   5.431
10286TIP3    H230802   5.686   2.755   5.341
10287TIP3   OH230803   2.046   6.358   1.538
10287TIP3    H130804   2.139   6.372   1.523
10287TIP3    H230805   2.034   6.374   1.632
10288TIP3   OH230806   3.102   5.901   6.084
10288TIP3    H130807   3.133   5.851   6.009
10288TIP3    H230808   3.144   5.860   6.160
10289TIP3   OH230809   4.842   7.468   6.210
10289TIP3    H130810   4.756   7.472   6.166
10289TIP3    H230811   4.899   7.523   6.156
10290TIP3   OH230812   7.973   6.099   1.188
10290TIP3    H130813   7.908   6.039   1.152
10290TIP3    H230814   8.041   6.042   1.223
10291TIP3   OH230815   1.774   2.197   1.948
10291TIP3    H130816   1.869   2.200   1.941
10291TIP3    H230817   1.743   2.199   1.858
10292TIP3   OH230818   6.883   0.710   2.901
10292TIP3    H130819   6.934   0.790   2.888
10292TIP3    H230820   6.840   0.695   2.817
10293TIP3   OH230821   3.270   0.157   3.633
10293TIP3    H130822   3.175   0.157   3.649
10293TIP3    H230823   3.309   0.162   3.720
10294TIP3   OH230824   0.464   2.185   3.682
10294TIP3    H130825   0.543   2.211   3.637
10294TIP3    H230826   0.427   2.266   3.717
10295TIP3   OH230827   8.013   5.194   0.886
10295TIP3    H130828   8.101   5.217   0.857
10295TIP3    H230829   8.002   5.240   0.969
10296TIP3   OH230830   3.087   2.771   4.486
10296TIP3    H130831   3.131   2.743   4.567
10296TIP3    H230832   3.014   2.826   4.517
10297TIP3   OH230833   5.886   2.764   2.497
10297TIP3    H130834   5.952   2.823   2.461
10297TIP3    H230835   5.803   2.799   2.464
10298TIP3   OH230836   2.300   4.173   5.766
10298TIP3    H130837   2.303   4.169   5.670
10298TIP3    H230838   2.209   4.153   5.788
10299TIP3   OH230839   5.983   4.635   1.279
10299TIP3    H130840   5.980   4.561   1.339
10299TIP3    H230841   5.955   4.710   1.332
10300TIP3   OH230842   2.801   1.669   3.825
10300TIP3    H130843   2.723   1.671   3.769
10300TIP3    H230844   2.873   1.694   3.766
10301TIP3   OH230845   3.925   6.857   5.255
10301TIP3    H130846   3.911   6.820   5.168
10301TIP3    H230847   3.966   6.786   5.304
10302TIP3   OH230848   7.997   3.060   1.982
10302TIP3    H130849   7.934   3.067   1.910
10302TIP3    H230850   7.943   3.054   2.061
10303TIP3   OH230851   4.144   1.156   5.548
10303TIP3    H130852   4.192   1.076   5.527
10303TIP3    H230853   4.052   1.129   5.553
10304TIP3   OH230854   1.458   2.956   3.205
10304TIP3    H130855   1.400   3.032   3.204
10304TIP3    H230856   1.483   2.944   3.113
10305TIP3   OH230857   5.701   0.403   2.181
10305TIP3    H130858   5.611   0.401   2.148
10305TIP3    H230859   5.728   0.311   2.183
10306TIP3   OH230860   0.753   6.522   0.372
10306TIP3    H130861   0.677   6.579   0.360
10306TIP3    H230862   0.716   6.438   0.401
10307TIP3   OH230863   7.361   0.495   6.256
10307TIP3    H130864   7.366   0.554   6.180
10307TIP3    H230865   7.345   0.553   6.330
10308TIP3   OH230866   7.529   7.033   5.150
10308TIP3    H130867   7.551   7.059   5.239
10308TIP3    H230868   7.490   7.110   5.111
10309TIP3   OH230869   6.918   4.213   2.491
10309TIP3    H130870   6.955   4.167   2.567
10309TIP3    H230871   6.956   4.168   2.415
10310TIP3   OH230872   2.498   7.471   4.985
10310TIP3    H130873   2.577   7.433   5.024
10310TIP3    H230874   2.451   7.396   4.949
10311TIP3   OH230875   1.905   5.945   5.650
10311TIP3    H130876   1.930   5.933   5.559
10311TIP3    H230877   1.963   5.887   5.699
10312TIP3   OH230878   2.975   6.385   3.173
10312TIP3    H130879   3.017   6.327   3.238
10312TIP3    H230880   2.887   6.400   3.208
10313TIP3   OH230881   5.287  -0.018   3.671
10313TIP3    H130882   5.265  -0.053   3.758
10313TIP3    H230883   5.358   0.043   3.687
10314TIP3   OH230884   4.185   6.823   4.023
10314TIP3    H130885   4.124   6.875   4.076
10314TIP3    H230886   4.260   6.808   4.081
10315TIP3   OH230887   7.979   6.663   2.838
10315TIP3    H130888   7.965   6.593   2.902
10315TIP3    H230889   7.896   6.711   2.836
10316TIP3   OH230890   1.054   1.919   4.569
10316TIP3    H130891   0.973   1.963   4.595
10316TIP3    H230892   1.107   1.917   4.648
10317TIP3   OH230893   4.808   2.926   1.068
10317TIP3    H130894   4.862   2.851   1.090
10317TIP3    H230895   4.820   2.986   1.142
10318TIP3   OH230896   4.142   1.911   4.705
10318TIP3    H130897   4.228   1.943   4.678
10318TIP3    H230898   4.080   1.973   4.666
10319TIP3   OH230899   3.957   0.720   5.754
10319TIP3    H130900   3.961   0.658   5.681
10319TIP3    H230901   4.048   0.731   5.781
10320TIP3   OH230902   1.755   7.635   3.766
10320TIP3    H130903   1.781   7.642   3.674
10320TIP3    H230904   1.786   7.549   3.794
10321TIP3   OH230905   7.485   7.427   5.419
10321TIP3    H130906   7.430   7.358   5.457
10321TIP3    H230907   7.422   7.491   5.384
10322TIP3   OH230908   4.560   4.115   2.468
10322TIP3    H130909   4.609   4.038   2.497
10322TIP3    H230910   4.586   4.128   2.377
10323TIP3   OH230911   5.102   0.273   1.455
10323TIP3    H130912   5.189   0.282   1.492
10323TIP3    H230913   5.088   0.179   1.448
10324TIP3   OH230914   5.716   3.875   6.624
10324TIP3    H130915   5.670   3.955   6.649
10324TIP3    H230916   5.745   3.892   6.534
10325TIP3   OH230917   7.272   0.120   6.188
10325TIP3    H130918   7.277   0.073   6.105
10325TIP3    H230919   7.364   0.132   6.214
10326TIP3   OH230920   0.205   2.123   3.610
10326TIP3    H130921   0.288   2.084   3.639
10326TIP3    H230922   0.211   2.121   3.514
10327TIP3   OH230923   5.738   0.173   1.681
10327TIP3    H130924   5.795   0.139   1.612
10327TIP3    H230925   5.787   0.246   1.720
10328TIP3   OH230926   0.788   4.007   4.746
10328TIP3    H130927   0.751   3.921   4.769
10328TIP3    H230928   0.711   4.064   4.735
10329TIP3   OH230929   6.289   2.637   4.090
10329TIP3    H130930   6.366   2.583   4.108
10329TIP3    H230931   6.217   2.574   4.079
10330TIP3   OH230932   7.271   0.714   4.824
10330TIP3    H130933   7.177   0.702   4.835
10330TIP3    H230934   7.311   0.655   4.887
10331TIP3   OH230935   4.073   3.506   0.591
10331TIP3    H130936   3.988   3.528   0.554
10331TIP3    H230937   4.066   3.531   0.684
10332TIP3   OH230938   5.212   0.918   3.431
10332TIP3    H130939   5.234   0.862   3.357
10332TIP3    H230940   5.277   0.987   3.430
10333TIP3   OH230941   6.141   6.301   0.996
10333TIP3    H130942   6.200   6.226   1.009
10333TIP3    H230943   6.054   6.265   1.008
10334TIP3   OH230944   0.314   3.062   4.701
10334TIP3    H130945   0.398   3.105   4.719
10334TIP3    H230946   0.333   2.969   4.704
10335TIP3   OH230947   1.807   4.404   0.917
10335TIP3    H130948   1.855   4.464   0.861
10335TIP3    H230949   1.745   4.460   0.964
10336TIP3   OH230950   3.572   1.549   3.684
10336TIP3    H130951   3.487   1.553   3.640
10336TIP3    H230952   3.628   1.501   3.623
10337TIP3   OH230953   8.065   1.159   0.856
10337TIP3    H130954   8.133   1.102   0.892
10337TIP3    H230955   8.100   1.186   0.771
10338TIP3   OH230956   4.771   7.515   0.998
10338TIP3    H130957   4.865   7.526   1.004
10338TIP3    H230958   4.743   7.583   0.936
10339TIP3   OH230959   6.257   4.875   5.810
10339TIP3    H130960   6.256   4.970   5.795
10339TIP3    H230961   6.324   4.842   5.750
10340TIP3   OH230962   0.175   2.002   2.327
10340TIP3    H130963   0.216   1.922   2.295
10340TIP3    H230964   0.183   1.997   2.422
10341TIP3   OH230965   6.273   3.222   4.602
10341TIP3    H130966   6.351   3.261   4.643
10341TIP3    H230967   6.213   3.296   4.592
10342TIP3   OH230968   3.550   1.496   1.019
10342TIP3    H130969   3.555   1.591   1.011
10342TIP3    H230970   3.478   1.480   1.080
10343TIP3   OH230971   7.068   0.347   0.384
10343TIP3    H130972   7.126   0.406   0.336
10343TIP3    H230973   7.003   0.405   0.423
10344TIP3   OH230974   2.995   1.828   1.819
10344TIP3    H130975   3.064   1.818   1.754
10344TIP3    H230976   2.932   1.887   1.779
10345TIP3   OH230977   3.444   2.717   4.411
10345TIP3    H130978   3.393   2.752   4.339
10345TIP3    H230979   3.516   2.779   4.423
10346TIP3   OH230980   5.166   2.937   2.406
10346TIP3    H130981   5.190   2.944   2.499
10346TIP3    H230982   5.249   2.926   2.361
10347TIP3   OH230983   2.609   4.079   3.659
10347TIP3    H130984   2.520   4.109   3.679
10347TIP3    H230985   2.596   4.001   3.605
10348TIP3   OH230986   0.430   6.080   0.505
10348TIP3    H130987   0.364   6.091   0.574
10348TIP3    H230988   0.387   6.024   0.441
10349TIP3   OH230989   2.170   3.026   3.976
10349TIP3    H130990   2.116   3.056   3.903
10349TIP3    H230991   2.168   3.099   4.039
10350TIP3   OH230992   2.014   6.438   2.270
10350TIP3    H130993   2.027   6.391   2.353
10350TIP3    H230994   1.959   6.512   2.293
10351TIP3   OH230995   3.335   0.515   2.301
10351TIP3    H130996   3.310   0.605   2.281
10351TIP3    H230997   3.254   0.473   2.329
10352TIP3   OH230998   4.797   5.541   4.750
10352TIP3    H130999   4.708   5.535   4.787
10352TIP3    H231000   4.783   5.562   4.658
10353TIP3   OH231001   2.957   4.472   5.264
10353TIP3    H131002   2.862   4.481   5.277
10353TIP3    H231003   2.965   4.399   5.203
10354TIP3   OH231004   2.059   3.471   4.872
10354TIP3    H131005   2.122   3.453   4.942
10354TIP3    H231006   1.974   3.451   4.911
10355TIP3   OH231007   6.836   1.834   5.945
10355TIP3    H131008   6.806   1.817   6.034
10355TIP3    H231009   6.927   1.864   5.956
10356TIP3   OH231010   8.116   5.283   1.856
10356TIP3    H131011   8.113   5.249   1.766
10356TIP3    H231012   8.033   5.255   1.895
10357TIP3   OH231013   1.379   0.697   5.982
10357TIP3    H131014   1.362   0.638   5.910
10357TIP3    H231015   1.471   0.720   5.973
10358TIP3   OH231016   4.202   0.473   4.501
10358TIP3    H131017   4.185   0.385   4.535
10358TIP3    H231018   4.125   0.524   4.526
10359TIP3   OH231019   6.538   0.175   6.142
10359TIP3    H131020   6.521   0.212   6.229
10359TIP3    H231021   6.463   0.202   6.089
10360TIP3   OH231022   6.404   1.100   3.097
10360TIP3    H131023   6.427   1.024   3.043
10360TIP3    H231024   6.310   1.090   3.113
10361TIP3   OH231025   1.108   4.517   4.533
10361TIP3    H131026   1.111   4.484   4.623
10361TIP3    H231027   1.040   4.584   4.534
10362TIP3   OH231028   7.986   5.327   1.158
10362TIP3    H131029   7.941   5.407   1.187
10362TIP3    H231030   8.075   5.336   1.193
10363TIP3   OH231031   6.092   3.202   5.417
10363TIP3    H131032   6.108   3.282   5.367
10363TIP3    H231033   6.100   3.229   5.508
10364TIP3   OH231034   7.391   4.451   3.799
10364TIP3    H131035   7.438   4.530   3.825
10364TIP3    H231036   7.423   4.433   3.710
10365TIP3   OH231037   0.639   4.212   5.580
10365TIP3    H131038   0.719   4.161   5.590
10365TIP3    H231039   0.586   4.189   5.656
10366TIP3   OH231040   2.848  -0.005   5.100
10366TIP3    H131041   2.825   0.082   5.069
10366TIP3    H231042   2.765  -0.054   5.098
10367TIP3   OH231043   7.873   0.295   3.942
10367TIP3    H131044   7.819   0.295   3.863
10367TIP3    H231045   7.944   0.356   3.922
10368TIP3   OH231046   6.715   5.881   1.928
10368TIP3    H131047   6.729   5.963   1.882
10368TIP3    H231048   6.799   5.836   1.924
10369TIP3   OH231049   1.915   7.377   0.452
10369TIP3    H131050   1.955   7.386   0.365
10369TIP3    H231051   1.954   7.297   0.487
10370TIP3   OH231052   1.613   5.027   2.916
10370TIP3    H131053   1.582   5.112   2.885
10370TIP3    H231054   1.593   4.967   2.844
10371TIP3   OH231055   4.593   7.680   5.673
10371TIP3    H131056   4.550   7.654   5.591
10371TIP3    H231057   4.521   7.694   5.734
10372TIP3   OH231058   5.562   7.475   1.251
10372TIP3    H131059   5.505   7.541   1.213
10372TIP3    H231060   5.650   7.510   1.239
10373TIP3   OH231061   3.864   4.643   1.128
10373TIP3    H131062   3.960   4.644   1.124
10373TIP3    H231063   3.842   4.712   1.190
10374TIP3   OH231064   0.146   4.362   2.242
10374TIP3    H131065   0.057   4.343   2.213
10374TIP3    H231066   0.142   4.356   2.337
10375TIP3   OH231067   1.690   3.273   5.201
10375TIP3    H131068   1.686   3.255   5.295
10375TIP3    H231069   1.646   3.198   5.161
10376TIP3   OH231070   6.693   3.244   2.707
10376TIP3    H131071   6.761   3.229   2.772
10376TIP3    H231072   6.642   3.163   2.706
10377TIP3   OH231073   3.736   1.306   5.484
10377TIP3    H131074   3.808   1.317   5.422
10377TIP3    H231075   3.679   1.241   5.444
10378TIP3   OH231076   5.445   0.538   1.697
10378TIP3    H131077   5.400   0.453   1.691
10378TIP3    H231078   5.469   0.546   1.790
10379TIP3   OH231079   4.421   6.422   2.018
10379TIP3    H131080   4.372   6.477   1.957
10379TIP3    H231081   4.474   6.484   2.069
10380TIP3   OH231082   0.113   0.485   0.804
10380TIP3    H131083   0.113   0.581   0.810
10380TIP3    H231084   0.169   0.457   0.876
10381TIP3   OH231085   4.497   0.714   5.418
10381TIP3    H131086   4.554   0.701   5.493
10381TIP3    H231087   4.455   0.629   5.404
10382TIP3   OH231088   4.803   4.403   4.201
10382TIP3    H131089   4.733   4.403   4.136
10382TIP3    H231090   4.883   4.392   4.150
10383TIP3   OH231091   5.308   5.331   3.421
10383TIP3    H131092   5.316   5.357   3.513
10383TIP3    H231093   5.214   5.317   3.409
10384TIP3   OH231094   6.397   5.105   3.205
10384TIP3    H131095   6.412   5.033   3.144
10384TIP3    H231096   6.327   5.156   3.164
10385TIP3   OH231097   4.227   6.796   3.485
10385TIP3    H131098   4.178   6.802   3.566
10385TIP3    H231099   4.232   6.886   3.452
10386TIP3   OH231100   4.411   7.722   5.993
10386TIP3    H131101   4.351   7.676   6.051
10386TIP3    H231102   4.358   7.743   5.916
10387TIP3   OH231103   2.686   6.872   1.532
10387TIP3    H131104   2.744   6.827   1.593
10387TIP3    H231105   2.730   6.955   1.514
10388TIP3   OH231106   3.456   1.344   0.784
10388TIP3    H131107   3.498   1.262   0.810
10388TIP3    H231108   3.522   1.411   0.803
10389TIP3   OH231109   1.336   7.575   2.065
10389TIP3    H131110   1.387   7.495   2.082
10389TIP3    H231111   1.356   7.632   2.139
10390TIP3   OH231112   6.598   1.749   3.877
10390TIP3    H131113   6.622   1.660   3.852
10390TIP3    H231114   6.504   1.754   3.860
10391TIP3   OH231115   7.227   4.420   1.128
10391TIP3    H131116   7.183   4.485   1.182
10391TIP3    H231117   7.317   4.417   1.161
10392TIP3   OH231118   7.252   2.133   1.030
10392TIP3    H131119   7.238   2.096   1.117
10392TIP3    H231120   7.204   2.075   0.971
10393TIP3   OH231121   4.929   5.690   3.337
10393TIP3    H131122   4.982   5.656   3.409
10393TIP3    H231123   4.878   5.614   3.308
10394TIP3   OH231124   1.642   3.099   0.932
10394TIP3    H131125   1.570   3.056   0.886
10394TIP3    H231126   1.603   3.181   0.965
10395TIP3   OH231127   6.546   6.674   3.451
10395TIP3    H131128   6.477   6.669   3.517
10395TIP3    H231129   6.509   6.629   3.374
10396TIP3   OH231130   5.541   2.691   1.998
10396TIP3    H131131   5.474   2.654   1.940
10396TIP3    H231132   5.622   2.689   1.946
10397TIP3   OH231133   0.767   3.894   2.649
10397TIP3    H131134   0.766   3.981   2.689
10397TIP3    H231135   0.675   3.871   2.639
10398TIP3   OH231136   1.720   6.301   2.370
10398TIP3    H131137   1.723   6.394   2.347
10398TIP3    H231138   1.764   6.257   2.297
10399TIP3   OH231139   6.305   2.950   0.641
10399TIP3    H131140   6.370   3.002   0.688
10399TIP3    H231141   6.351   2.918   0.564
10400TIP3   OH231142   4.008   4.734   2.494
10400TIP3    H131143   4.001   4.753   2.587
10400TIP3    H231144   4.030   4.818   2.454
10401TIP3   OH231145   3.312   2.516   5.028
10401TIP3    H131146   3.289   2.605   5.054
10401TIP3    H231147   3.228   2.471   5.019
10402TIP3   OH231148   3.178   6.302   2.103
10402TIP3    H131149   3.195   6.352   2.183
10402TIP3    H231150   3.223   6.352   2.034
10403TIP3   OH231151   7.275   7.499   5.604
10403TIP3    H131152   7.279   7.433   5.673
10403TIP3    H231153   7.364   7.535   5.601
10404TIP3   OH231154   4.900   4.796   5.784
10404TIP3    H131155   4.995   4.809   5.781
10404TIP3    H231156   4.883   4.763   5.872
10405TIP3   OH231157   3.273   4.886   3.759
10405TIP3    H131158   3.268   4.795   3.789
10405TIP3    H231159   3.289   4.937   3.838
10406TIP3   OH231160   5.108   5.587   0.840
10406TIP3    H131161   5.145   5.516   0.891
10406TIP3    H231162   5.128   5.565   0.749
10407TIP3   OH231163   2.121   4.902   0.519
10407TIP3    H131164   2.186   4.964   0.485
10407TIP3    H231165   2.048   4.958   0.546
10408TIP3   OH231166   6.060   0.888   2.866
10408TIP3    H131167   6.081   0.795   2.867
10408TIP3    H231168   5.992   0.897   2.799
10409TIP3   OH231169   6.637   1.375   1.560
10409TIP3    H131170   6.716   1.324   1.542
10409TIP3    H231171   6.605   1.343   1.644
10410TIP3   OH231172   7.093   1.226   2.610
10410TIP3    H131173   7.075   1.316   2.583
10410TIP3    H231174   7.173   1.231   2.662
10411TIP3   OH231175   6.108   2.969   6.521
10411TIP3    H131176   6.067   2.886   6.547
10411TIP3    H231177   6.074   2.985   6.433
10412TIP3   OH231178   2.000   5.379   4.346
10412TIP3    H131179   2.063   5.375   4.418
10412TIP3    H231180   1.959   5.292   4.346
10413TIP3   OH231181   5.809   7.045   5.868
10413TIP3    H131182   5.843   7.028   5.780
10413TIP3    H231183   5.835   6.968   5.919
10414TIP3   OH231184   4.086   0.095   0.777
10414TIP3    H131185   4.026   0.041   0.725
10414TIP3    H231186   4.160   0.112   0.719
10415TIP3   OH231187   3.212   6.237   5.333
10415TIP3    H131188   3.289   6.183   5.317
10415TIP3    H231189   3.217   6.260   5.426
10416TIP3   OH231190   4.101   3.474   1.272
10416TIP3    H131191   4.113   3.469   1.367
10416TIP3    H231192   4.155   3.403   1.237
10417TIP3   OH231193   8.162   7.845   1.178
10417TIP3    H131194   8.226   7.776   1.160
10417TIP3    H231195   8.146   7.839   1.272
10418TIP3   OH231196   4.688   4.349   6.566
10418TIP3    H131197   4.622   4.280   6.577
10418TIP3    H231198   4.659   4.397   6.489
10419TIP3   OH231199   2.034   5.095   2.082
10419TIP3    H131200   2.098   5.066   2.146
10419TIP3    H231201   2.035   5.191   2.090
10420TIP3   OH231202   6.368   5.477   0.403
10420TIP3    H131203   6.332   5.520   0.480
10420TIP3    H231204   6.312   5.505   0.330
10421TIP3   OH231205   7.005   2.392   0.619
10421TIP3    H131206   7.088   2.383   0.573
10421TIP3    H231207   6.941   2.413   0.551
10422TIP3   OH231208   1.233   7.291   5.800
10422TIP3    H131209   1.143   7.260   5.813
10422TIP3    H231210   1.240   7.307   5.706
10423TIP3   OH231211   4.623   4.997   6.046
10423TIP3    H131212   4.538   4.963   6.017
10423TIP3    H231213   4.609   5.090   6.059
10424TIP3   OH231214   5.623   0.546   2.422
10424TIP3    H131215   5.569   0.475   2.459
10424TIP3    H231216   5.648   0.513   2.335
10425TIP3   OH231217   0.521   6.885   4.207
10425TIP3    H131218   0.541   6.836   4.127
10425TIP3    H231219   0.534   6.822   4.278
10426TIP3   OH231220   6.221   0.797   1.811
10426TIP3    H131221   6.218   0.876   1.757
10426TIP3    H231222   6.175   0.821   1.891
10427TIP3   OH231223   1.362   2.351   1.580
10427TIP3    H131224   1.295   2.292   1.546
10427TIP3    H231225   1.428   2.354   1.511
10428TIP3   OH231226   6.986   2.825   1.145
10428TIP3    H131227   6.958   2.747   1.098
10428TIP3    H231228   6.932   2.896   1.109
10429TIP3   OH231229   3.119   4.602   3.346
10429TIP3    H131230   3.024   4.615   3.344
10429TIP3    H231231   3.143   4.613   3.438
10430TIP3   OH231232   1.836   4.968   1.016
10430TIP3    H131233   1.932   4.966   1.010
10430TIP3    H231234   1.817   4.929   1.101
10431TIP3   OH231235   7.916   1.933   6.258
10431TIP3    H131236   7.904   1.993   6.184
10431TIP3    H231237   7.983   1.974   6.312
10432TIP3   OH231238   0.528   2.486   2.773
10432TIP3    H131239   0.487   2.510   2.856
10432TIP3    H231240   0.522   2.390   2.770
10433TIP3   OH231241   6.330   3.599   5.301
10433TIP3    H131242   6.374   3.611   5.385
10433TIP3    H231243   6.283   3.681   5.286
10434TIP3   OH231244   2.228   4.773   2.190
10434TIP3    H131245   2.159   4.715   2.224
10434TIP3    H231246   2.190   4.811   2.110
10435TIP3   OH231247   4.758   6.584   2.952
10435TIP3    H131248   4.739   6.571   2.859
10435TIP3    H231249   4.780   6.497   2.985
10436TIP3   OH231250   1.284   5.138   5.913
10436TIP3    H131251   1.374   5.153   5.885
10436TIP3    H231252   1.234   5.134   5.831
10437TIP3   OH231253   7.976   2.271   6.525
10437TIP3    H131254   8.064   2.306   6.511
10437TIP3    H231255   7.924   2.308   6.453
10438TIP3   OH231256   4.521   0.613   3.771
10438TIP3    H131257   4.581   0.687   3.771
10438TIP3    H231258   4.439   0.649   3.735
10439TIP3   OH231259   1.255   6.498   1.870
10439TIP3    H131260   1.331   6.463   1.822
10439TIP3    H231261   1.188   6.510   1.803
10440TIP3   OH231262   6.433   0.100   3.048
10440TIP3    H131263   6.451   0.012   3.016
10440TIP3    H231264   6.499   0.116   3.116
10441TIP3   OH231265   4.149   7.045   6.196
10441TIP3    H131266   4.211   6.997   6.141
10441TIP3    H231267   4.136   7.128   6.151
10442TIP3   OH231268   7.182   2.950   4.442
10442TIP3    H131269   7.091   2.924   4.461
10442TIP3    H231270   7.181   2.973   4.350
10443TIP3   OH231271   0.456   2.920   5.501
10443TIP3    H131272   0.426   2.974   5.574
10443TIP3    H231273   0.494   2.843   5.542
10444TIP3   OH231274   0.786   4.074   0.861
10444TIP3    H131275   0.825   4.158   0.882
10444TIP3    H231276   0.855   4.010   0.880
10445TIP3   OH231277   7.509   2.122   3.527
10445TIP3    H131278   7.497   2.044   3.582
10445TIP3    H231279   7.595   2.110   3.487
10446TIP3   OH231280   7.087   4.299   6.451
10446TIP3    H131281   7.079   4.345   6.534
10446TIP3    H231282   7.179   4.272   6.447
10447TIP3   OH231283   7.082   1.118   2.997
10447TIP3    H131284   7.045   1.204   3.013
10447TIP3    H231285   7.174   1.134   2.973
10448TIP3   OH231286   5.307   7.109   1.387
10448TIP3    H131287   5.218   7.136   1.366
10448TIP3    H231288   5.321   7.029   1.337
10449TIP3   OH231289   1.904   6.695   2.342
10449TIP3    H131290   1.816   6.725   2.320
10449TIP3    H231291   1.911   6.711   2.436
10450TIP3   OH231292   6.679   1.274   4.866
10450TIP3    H131293   6.655   1.231   4.948
10450TIP3    H231294   6.741   1.214   4.824
10451TIP3   OH231295   0.510   4.780   1.749
10451TIP3    H131296   0.581   4.779   1.685
10451TIP3    H231297   0.431   4.766   1.697
10452TIP3   OH231298   3.453   3.363   2.127
10452TIP3    H131299   3.494   3.303   2.064
10452TIP3    H231300   3.521   3.427   2.147
10453TIP3   OH231301   4.906   3.405   5.148
10453TIP3    H131302   4.896   3.471   5.217
10453TIP3    H231303   4.886   3.451   5.067
10454TIP3   OH231304   7.833   1.280   0.421
10454TIP3    H131305   7.885   1.352   0.458
10454TIP3    H231306   7.747   1.289   0.462
10455TIP3   OH231307   5.356   4.304   0.398
10455TIP3    H131308   5.370   4.261   0.314
10455TIP3    H231309   5.270   4.345   0.390
10456TIP3   OH231310   7.049   2.641   2.142
10456TIP3    H131311   6.978   2.596   2.096
10456TIP3    H231312   7.005   2.705   2.198
10457TIP3   OH231313   0.357   3.669   5.329
10457TIP3    H131314   0.324   3.689   5.416
10457TIP3    H231315   0.423   3.737   5.312
10458TIP3   OH231316   3.323   6.953   6.519
10458TIP3    H131317   3.287   6.865   6.531
10458TIP3    H231318   3.316   6.969   6.425
10459TIP3   OH231319   3.058   5.385   0.993
10459TIP3    H131320   3.149   5.409   1.011
10459TIP3    H231321   3.034   5.326   1.064
10460TIP3   OH231322   2.774   0.561   1.073
10460TIP3    H131323   2.729   0.479   1.092
10460TIP3    H231324   2.859   0.552   1.116
10461TIP3   OH231325   4.745   1.841   1.446
10461TIP3    H131326   4.738   1.900   1.371
10461TIP3    H231327   4.717   1.894   1.521
10462TIP3   OH231328   4.061   1.719   4.480
10462TIP3    H131329   4.034   1.629   4.461
10462TIP3    H231330   4.095   1.715   4.570
10463TIP3   OH231331   1.139   4.634   5.643
10463TIP3    H131332   1.095   4.582   5.576
10463TIP3    H231333   1.228   4.646   5.609
10464TIP3   OH231334   7.031   1.033   2.026
10464TIP3    H131335   6.940   1.060   2.016
10464TIP3    H231336   7.034   0.945   1.989
10465TIP3   OH231337   4.063   5.924   4.647
10465TIP3    H131338   4.103   5.883   4.570
10465TIP3    H231339   3.989   5.974   4.612
10466TIP3   OH231340   4.917   1.248   0.556
10466TIP3    H131341   4.831   1.214   0.579
10466TIP3    H231342   4.976   1.173   0.569
10467TIP3   OH231343   0.695   5.228   2.673
10467TIP3    H131344   0.678   5.235   2.579
10467TIP3    H231345   0.622   5.275   2.714
10468TIP3   OH231346   3.964   0.100   3.464
10468TIP3    H131347   4.018   0.151   3.524
10468TIP3    H231348   4.011   0.104   3.380
10469TIP3   OH231349   2.070   4.426   4.625
10469TIP3    H131350   2.002   4.447   4.689
10469TIP3    H231351   2.029   4.441   4.540
10470TIP3   OH231352   5.302   4.458   0.662
10470TIP3    H131353   5.224   4.412   0.692
10470TIP3    H231354   5.334   4.405   0.589
10471TIP3   OH231355   0.616   1.171   6.125
10471TIP3    H131356   0.612   1.265   6.141
10471TIP3    H231357   0.627   1.164   6.030
10472TIP3   OH231358   1.965   4.463   6.613
10472TIP3    H131359   2.059   4.479   6.619
10472TIP3    H231360   1.941   4.430   6.700
10473TIP3   OH231361   0.892   5.851   3.634
10473TIP3    H131362   0.862   5.941   3.646
10473TIP3    H231363   0.940   5.830   3.714
10474TIP3   OH231364   4.579   1.599   1.113
10474TIP3    H131365   4.514   1.615   1.045
10474TIP3    H231366   4.538   1.632   1.193
10475TIP3   OH231367   3.887   0.841   1.961
10475TIP3    H131368   3.823   0.884   2.017
10475TIP3    H231369   3.839   0.820   1.881
10476TIP3   OH231370   5.502   0.690   4.412
10476TIP3    H131371   5.476   0.681   4.504
10476TIP3    H231372   5.437   0.748   4.373
10477TIP3   OH231373   6.442   4.789   4.357
10477TIP3    H131374   6.366   4.744   4.395
10477TIP3    H231375   6.498   4.808   4.431
10478TIP3   OH231376   8.211   5.349   4.236
10478TIP3    H131377   8.178   5.394   4.159
10478TIP3    H231378   8.306   5.352   4.227
10479TIP3   OH231379   0.838   5.645   5.786
10479TIP3    H131380   0.760   5.591   5.794
10479TIP3    H231381   0.905   5.598   5.836
10480TIP3   OH231382   1.041   4.694  -0.011
10480TIP3    H131383   1.105   4.639   0.034
10480TIP3    H231384   1.044   4.777   0.037
10481TIP3   OH231385   8.091   0.553   0.778
10481TIP3    H131386   8.178   0.587   0.754
10481TIP3    H231387   8.036   0.631   0.787
10482TIP3   OH231388   1.239   2.063   6.080
10482TIP3    H131389   1.277   2.129   6.022
10482TIP3    H231390   1.297   1.987   6.070
10483TIP3   OH231391   0.208   4.783   4.498
10483TIP3    H131392   0.290   4.812   4.538
10483TIP3    H231393   0.217   4.806   4.406
10484TIP3   OH231394   6.635   0.830   3.347
10484TIP3    H131395   6.611   0.921   3.327
10484TIP3    H231396   6.698   0.807   3.279
10485TIP3   OH231397   0.054   1.240   6.553
10485TIP3    H131398   0.144   1.273   6.550
10485TIP3    H231399   0.063   1.145   6.546
10486TIP3   OH231400   8.140   2.659   1.743
10486TIP3    H131401   8.058   2.685   1.786
10486TIP3    H231402   8.162   2.575   1.785
10487TIP3   OH231403   7.714   3.518   4.634
10487TIP3    H131404   7.803   3.493   4.659
10487TIP3    H231405   7.713   3.511   4.538
10488TIP3   OH231406   3.864   6.076   4.506
10488TIP3    H131407   3.800   6.005   4.509
10488TIP3    H231408   3.813   6.154   4.487
10489TIP3   OH231409   0.862   3.529   0.118
10489TIP3    H131410   0.769   3.517   0.141
10489TIP3    H231411   0.893   3.440   0.101
10490TIP3   OH231412   7.361   0.356   3.968
10490TIP3    H131413   7.327   0.297   4.035
10490TIP3    H231414   7.398   0.298   3.901
10491TIP3   OH231415   7.086   6.788   1.315
10491TIP3    H131416   7.114   6.849   1.382
10491TIP3    H231417   7.006   6.826   1.279
10492TIP3   OH231418   2.509   0.083   0.632
10492TIP3    H131419   2.583   0.030   0.602
10492TIP3    H231420   2.523   0.094   0.726
10493TIP3   OH231421   2.108   6.542   2.900
10493TIP3    H131422   2.152   6.543   2.815
10493TIP3    H231423   2.126   6.455   2.935
10494TIP3   OH231424   0.955   5.444   4.905
10494TIP3    H131425   1.018   5.389   4.952
10494TIP3    H231426   0.903   5.485   4.974
10495TIP3   OH231427   4.353   0.095   0.124
10495TIP3    H131428   4.438   0.125   0.093
10495TIP3    H231429   4.373   0.040   0.200
10496TIP3   OH231430   2.200   3.140   3.590
10496TIP3    H131431   2.173   3.102   3.506
10496TIP3    H231432   2.120   3.145   3.641
10497TIP3   OH231433   5.919   4.329   1.742
10497TIP3    H131434   5.958   4.356   1.825
10497TIP3    H231435   5.952   4.240   1.728
10498TIP3   OH231436   0.333   1.805   5.084
10498TIP3    H131437   0.276   1.875   5.052
10498TIP3    H231438   0.415   1.818   5.037
10499TIP3   OH231439   0.192   6.968   1.549
10499TIP3    H131440   0.168   6.961   1.641
10499TIP3    H231441   0.258   6.900   1.536
10500TIP3   OH231442   6.794   0.555   1.912
10500TIP3    H131443   6.744   0.514   1.982
10500TIP3    H231444   6.825   0.482   1.859
10501TIP3   OH231445   3.544   1.161   6.682
10501TIP3    H131446   3.513   1.126   6.766
10501TIP3    H231447   3.546   1.084   6.624
10502TIP3   OH231448   3.124   1.910   4.867
10502TIP3    H131449   3.119   2.003   4.842
10502TIP3    H231450   3.068   1.903   4.944
10503TIP3   OH231451   7.300   5.012   3.515
10503TIP3    H131452   7.356   5.004   3.438
10503TIP3    H231453   7.359   5.038   3.586
10504TIP3   OH231454   1.560   4.454   0.703
10504TIP3    H131455   1.637   4.448   0.760
10504TIP3    H231456   1.565   4.543   0.667
10505TIP3   OH231457   7.812   2.357   2.435
10505TIP3    H131458   7.769   2.381   2.517
10505TIP3    H231459   7.779   2.269   2.415
10506TIP3   OH231460   0.578   4.154   0.064
10506TIP3    H131461   0.496   4.144   0.112
10506TIP3    H231462   0.555   4.136  -0.027
10507TIP3   OH231463   8.246   4.059   2.172
10507TIP3    H131464   8.246   3.965   2.153
10507TIP3    H231465   8.336   4.088   2.154
10508TIP3   OH231466   4.483   1.716   1.415
10508TIP3    H131467   4.444   1.756   1.493
10508TIP3    H231468   4.570   1.757   1.409
10509TIP3   OH231469   1.196   1.929   4.798
10509TIP3    H131470   1.285   1.965   4.808
10509TIP3    H231471   1.149   1.960   4.875
10510TIP3   OH231472   3.471   5.006   5.438
10510TIP3    H131473   3.392   5.030   5.487
10510TIP3    H231474   3.486   5.079   5.379
10511TIP3   OH231475   5.450   3.972   4.274
10511TIP3    H131476   5.412   4.006   4.192
10511TIP3    H231477   5.427   4.039   4.339
10512TIP3   OH231478   3.368   6.481   5.618
10512TIP3    H131479   3.348   6.389   5.602
10512TIP3    H231480   3.463   6.487   5.611
10513TIP3   OH231481   3.175   1.365   4.638
10513TIP3    H131482   3.207   1.417   4.565
10513TIP3    H231483   3.203   1.414   4.716
10514TIP3   OH231484   2.941   3.443   2.533
10514TIP3    H131485   2.973   3.466   2.446
10514TIP3    H231486   3.019   3.452   2.589
10515TIP3   OH231487   7.113   4.606   1.294
10515TIP3    H131488   7.159   4.689   1.287
10515TIP3    H231489   7.034   4.618   1.241
10516TIP3   OH231490   0.498   0.439   2.707
10516TIP3    H131491   0.500   0.474   2.796
10516TIP3    H231492   0.514   0.516   2.651
10517TIP3   OH231493   1.799   0.865   2.054
10517TIP3    H131494   1.721   0.867   2.108
10517TIP3    H231495   1.772   0.819   1.974
10518TIP3   OH231496   7.880   4.667   3.843
10518TIP3    H131497   7.946   4.736   3.853
10518TIP3    H231498   7.830   4.692   3.766
10519TIP3   OH231499   4.631   7.273   0.833
10519TIP3    H131500   4.664   7.349   0.880
10519TIP3    H231501   4.706   7.215   0.825
10520TIP3   OH231502   3.629   2.222   1.517
10520TIP3    H131503   3.610   2.246   1.608
10520TIP3    H231504   3.697   2.154   1.524
10521TIP3   OH231505   3.077   4.378   1.651
10521TIP3    H131506   2.983   4.395   1.653
10521TIP3    H231507   3.095   4.358   1.559
10522TIP3   OH231508   3.087   1.195   6.693
10522TIP3    H131509   3.150   1.126   6.712
10522TIP3    H231510   3.131   1.276   6.720
10523TIP3   OH231511   8.182   6.369   5.549
10523TIP3    H131512   8.113   6.369   5.616
10523TIP3    H231513   8.140   6.331   5.472
10524TIP3   OH231514   3.894   6.942   6.217
10524TIP3    H131515   3.880   6.891   6.296
10524TIP3    H231516   3.987   6.964   6.219
10525TIP3   OH231517   0.921   0.772   3.216
10525TIP3    H131518   0.836   0.771   3.261
10525TIP3    H231519   0.985   0.785   3.287
10526TIP3   OH231520   2.159   1.695   2.622
10526TIP3    H131521   2.073   1.734   2.641
10526TIP3    H231522   2.219   1.769   2.620
10527TIP3   OH231523   0.292   0.762   3.617
10527TIP3    H131524   0.200   0.746   3.597
10527TIP3    H231525   0.291   0.802   3.705
10528TIP3   OH231526   4.125   4.170   4.313
10528TIP3    H131527   4.114   4.264   4.298
10528TIP3    H231528   4.112   4.130   4.228
10529TIP3   OH231529   7.295   2.373   4.342
10529TIP3    H131530   7.244   2.354   4.421
10529TIP3    H231531   7.235   2.424   4.287
10530TIP3   OH231532   3.202   1.812   2.062
10530TIP3    H131533   3.221   1.808   2.155
10530TIP3    H231534   3.156   1.730   2.043
10531TIP3   OH231535   0.737   1.221   5.356
10531TIP3    H131536   0.657   1.272   5.371
10531TIP3    H231537   0.706   1.141   5.313
10532TIP3   OH231538   1.778   4.996   0.236
10532TIP3    H131539   1.731   5.035   0.309
10532TIP3    H231540   1.817   4.916   0.273
10533TIP3   OH231541   1.806   0.577   4.757
10533TIP3    H131542   1.742   0.567   4.828
10533TIP3    H231543   1.758   0.622   4.687
10534TIP3   OH231544   2.610   3.149   1.767
10534TIP3    H131545   2.629   3.163   1.860
10534TIP3    H231546   2.694   3.164   1.724
10535TIP3   OH231547   3.827   5.289   5.355
10535TIP3    H131548   3.907   5.341   5.343
10535TIP3    H231549   3.789   5.284   5.268
10536TIP3   OH231550   2.201   2.840   4.380
10536TIP3    H131551   2.153   2.763   4.352
10536TIP3    H231552   2.134   2.901   4.409
10537TIP3   OH231553   7.002   6.885   5.009
10537TIP3    H131554   7.084   6.930   4.990
10537TIP3    H231555   6.949   6.949   5.056
10538TIP3   OH231556   2.065   0.511   1.130
10538TIP3    H131557   2.155   0.481   1.130
10538TIP3    H231558   2.055   0.558   1.047
10539TIP3   OH231559   5.513   5.782   6.218
10539TIP3    H131560   5.520   5.856   6.278
10539TIP3    H231561   5.419   5.770   6.204
10540TIP3   OH231562   0.727   6.589   3.730
10540TIP3    H131563   0.773   6.511   3.700
10540TIP3    H231564   0.702   6.635   3.650
10541TIP3   OH231565   6.131   3.647   1.474
10541TIP3    H131566   6.180   3.568   1.496
10541TIP3    H231567   6.046   3.635   1.516
10542TIP3   OH231568   0.331   6.593   2.392
10542TIP3    H131569   0.398   6.612   2.326
10542TIP3    H231570   0.266   6.541   2.346
10543TIP3   OH231571   4.809   2.946   2.948
10543TIP3    H131572   4.853   3.028   2.925
10543TIP3    H231573   4.719   2.972   2.968
10544TIP3   OH231574   2.788   0.971   3.367
10544TIP3    H131575   2.828   0.927   3.442
10544TIP3    H231576   2.750   0.900   3.315
10545TIP3   OH231577   2.682   4.851   0.706
10545TIP3    H131578   2.755   4.846   0.644
10545TIP3    H231579   2.670   4.761   0.736
10546TIP3   OH231580   6.971   0.065   2.623
10546TIP3    H131581   6.881   0.087   2.648
10546TIP3    H231582   7.015   0.149   2.614
10547TIP3   OH231583   3.834   7.373   1.582
10547TIP3    H131584   3.844   7.278   1.577
10547TIP3    H231585   3.875   7.397   1.665
10548TIP3   OH231586   5.562   0.256   4.257
10548TIP3    H131587   5.526   0.222   4.176
10548TIP3    H231588   5.648   0.216   4.265
10549TIP3   OH231589   2.798   0.025   6.154
10549TIP3    H131590   2.769   0.084   6.085
10549TIP3    H231591   2.846  -0.044   6.109
10550TIP3   OH231592   0.386   6.181   2.117
10550TIP3    H131593   0.453   6.192   2.185
10550TIP3    H231594   0.425   6.120   2.054
10551TIP3   OH231595   5.523   1.364   2.700
10551TIP3    H131596   5.542   1.458   2.701
10551TIP3    H231597   5.494   1.347   2.610
10552TIP3   OH231598   2.152   5.206   5.430
10552TIP3    H131599   2.220   5.200   5.363
10552TIP3    H231600   2.148   5.300   5.452
10553TIP3   OH231601   2.494   3.618   6.463
10553TIP3    H131602   2.444   3.546   6.502
10553TIP3    H231603   2.585   3.589   6.468
10554TIP3   OH231604   6.675   4.320   1.256
10554TIP3    H131605   6.591   4.276   1.265
10554TIP3    H231606   6.697   4.312   1.164
10555TIP3   OH231607   5.974   2.203   5.977
10555TIP3    H131608   6.001   2.112   5.990
10555TIP3    H231609   5.926   2.225   6.056
10556TIP3   OH231610   7.467   2.302   1.531
10556TIP3    H131611   7.503   2.301   1.442
10556TIP3    H231612   7.410   2.379   1.533
10557TIP3   OH231613   3.267   3.768   1.071
10557TIP3    H131614   3.314   3.842   1.110
10557TIP3    H231615   3.202   3.744   1.136
10558TIP3   OH231616   6.262   3.126   0.110
10558TIP3    H131617   6.270   3.038   0.075
10558TIP3    H231618   6.218   3.176   0.042
10559TIP3   OH231619   4.521   7.089   4.303
10559TIP3    H131620   4.520   7.158   4.369
10559TIP3    H231621   4.441   7.038   4.320
10560TIP3   OH231622   0.480   6.079   6.126
10560TIP3    H131623   0.417   6.148   6.146
10560TIP3    H231624   0.429   5.998   6.131
10561TIP3   OH231625   6.981   0.214   4.957
10561TIP3    H131626   6.925   0.222   4.880
10561TIP3    H231627   7.064   0.180   4.924
10562TIP3   OH231628   3.311   5.024   5.048
10562TIP3    H131629   3.318   4.931   5.068
10562TIP3    H231630   3.220   5.037   5.022
10563TIP3   OH231631   6.593   0.354   3.111
10563TIP3    H131632   6.678   0.331   3.150
10563TIP3    H231633   6.531   0.351   3.183
10564TIP3   OH231634   5.735   3.617   5.938
10564TIP3    H131635   5.780   3.574   5.865
10564TIP3    H231636   5.712   3.704   5.904
10565TIP3   OH231637   7.552   7.662   1.093
10565TIP3    H131638   7.595   7.728   1.039
10565TIP3    H231639   7.483   7.626   1.037
10566TIP3   OH231640   5.306   5.101   3.247
10566TIP3    H131641   5.278   5.151   3.324
10566TIP3    H231642   5.382   5.052   3.278
10567TIP3   OH231643   0.159   0.970   6.534
10567TIP3    H131644   0.231   1.028   6.558
10567TIP3    H231645   0.201   0.887   6.510
10568TIP3   OH231646   0.571   5.469   0.300
10568TIP3    H131647   0.489   5.437   0.265
10568TIP3    H231648   0.620   5.499   0.224
10569TIP3   OH231649   5.434   2.172   1.735
10569TIP3    H131650   5.492   2.141   1.666
10569TIP3    H231651   5.383   2.242   1.694
10570TIP3   OH231652   7.749   7.634   3.210
10570TIP3    H131653   7.767   7.540   3.212
10570TIP3    H231654   7.819   7.671   3.155
10571TIP3   OH231655   2.141   4.184   4.785
10571TIP3    H131656   2.185   4.253   4.835
10571TIP3    H231657   2.089   4.231   4.720
10572TIP3   OH231658   0.125   6.328   3.275
10572TIP3    H131659   0.095   6.349   3.187
10572TIP3    H231660   0.052   6.351   3.332
10573TIP3   OH231661   5.844   5.325   6.387
10573TIP3    H131662   5.891   5.260   6.439
10573TIP3    H231663   5.751   5.305   6.401
10574TIP3   OH231664   1.709   5.624   5.632
10574TIP3    H131665   1.745   5.626   5.543
10574TIP3    H231666   1.784   5.607   5.688
10575TIP3   OH231667   5.768   3.457   2.161
10575TIP3    H131668   5.683   3.468   2.202
10575TIP3    H231669   5.752   3.473   2.068
10576TIP3   OH231670   7.157   4.316   4.850
10576TIP3    H131671   7.214   4.239   4.851
10576TIP3    H231672   7.073   4.282   4.881
10577TIP3   OH231673   4.556   6.949   3.847
10577TIP3    H131674   4.546   6.884   3.917
10577TIP3    H231675   4.509   6.911   3.772
10578TIP3   OH231676   0.815   1.576   0.846
10578TIP3    H131677   0.874   1.593   0.919
10578TIP3    H231678   0.820   1.482   0.832
10579TIP3   OH231679   6.975   2.276   2.602
10579TIP3    H131680   6.910   2.325   2.651
10579TIP3    H231681   6.962   2.303   2.511
10580TIP3   OH231682   1.236   1.830   5.522
10580TIP3    H131683   1.279   1.878   5.593
10580TIP3    H231684   1.259   1.738   5.538
10581TIP3   OH231685   6.616   3.658   3.099
10581TIP3    H131686   6.680   3.587   3.093
10581TIP3    H231687   6.532   3.618   3.078
10582TIP3   OH231688   6.643   5.413   3.122
10582TIP3    H131689   6.728   5.448   3.147
10582TIP3    H231690   6.658   5.320   3.107
10583TIP3   OH231691   7.101   7.231   5.699
10583TIP3    H131692   7.123   7.242   5.792
10583TIP3    H231693   7.087   7.136   5.690
10584TIP3   OH231694   7.341   3.274   4.018
10584TIP3    H131695   7.355   3.315   3.933
10584TIP3    H231696   7.421   3.291   4.067
10585TIP3   OH231697   2.848   0.233   5.677
10585TIP3    H131698   2.944   0.236   5.683
10585TIP3    H231699   2.831   0.193   5.592
10586TIP3   OH231700   3.031   7.551   0.420
10586TIP3    H131701   3.110   7.578   0.374
10586TIP3    H231702   3.011   7.624   0.479
10587TIP3   OH231703   4.728   7.879   0.076
10587TIP3    H131704   4.685   7.805   0.034
10587TIP3    H231705   4.751   7.846   0.164
10588TIP3   OH231706   0.595   3.514   0.123
10588TIP3    H131707   0.560   3.514   0.034
10588TIP3    H231708   0.587   3.605   0.152
10589TIP3   OH231709   7.003   7.142   1.640
10589TIP3    H131710   6.956   7.201   1.582
10589TIP3    H231711   7.014   7.191   1.722
10590TIP3   OH231712   2.512   0.576   3.095
10590TIP3    H131713   2.438   0.629   3.125
10590TIP3    H231714   2.517   0.592   3.001
10591TIP3   OH231715   0.152   5.477   5.847
10591TIP3    H131716   0.103   5.547   5.890
10591TIP3    H231717   0.230   5.466   5.900
10592TIP3   OH231718   6.793   4.210   1.961
10592TIP3    H131719   6.771   4.119   1.983
10592TIP3    H231720   6.811   4.251   2.046
10593TIP3   OH231721   5.366   4.204   0.146
10593TIP3    H131722   5.329   4.116   0.136
10593TIP3    H231723   5.343   4.249   0.064
10594TIP3   OH231724   6.928   5.777   5.208
10594TIP3    H131725   6.954   5.825   5.287
10594TIP3    H231726   6.840   5.808   5.188
10595TIP3   OH231727   5.778   6.618   1.673
10595TIP3    H131728   5.790   6.666   1.591
10595TIP3    H231729   5.804   6.528   1.652
10596TIP3   OH231730   5.406   1.072   0.049
10596TIP3    H131731   5.318   1.061   0.015
10596TIP3    H231732   5.395   1.120   0.131
10597TIP3   OH231733   6.025   4.276   5.724
10597TIP3    H131734   6.012   4.225   5.644
10597TIP3    H231735   6.056   4.361   5.693
10598TIP3   OH231736   7.723   0.363   2.333
10598TIP3    H131737   7.670   0.384   2.256
10598TIP3    H231738   7.682   0.284   2.369
10599TIP3   OH231739   5.870   4.162   3.954
10599TIP3    H131740   5.939   4.188   4.016
10599TIP3    H231741   5.861   4.238   3.896
10600TIP3   OH231742   5.922   2.209   5.122
10600TIP3    H131743   5.958   2.217   5.034
10600TIP3    H231744   5.842   2.261   5.120
10601TIP3   OH231745   5.064   2.057   1.666
10601TIP3    H131746   5.099   2.123   1.606
10601TIP3    H231747   5.054   2.102   1.749
10602TIP3   OH231748   2.423   2.657   3.447
10602TIP3    H131749   2.378   2.591   3.501
10602TIP3    H231750   2.409   2.740   3.493
10603TIP3   OH231751   3.981   0.914   2.279
10603TIP3    H131752   4.005   0.855   2.208
10603TIP3    H231753   3.949   0.857   2.349
10604TIP3   OH231754   5.325   6.573   0.296
10604TIP3    H131755   5.362   6.563   0.208
10604TIP3    H231756   5.325   6.485   0.333
10605TIP3   OH231757   3.391   2.693   0.380
10605TIP3    H131758   3.297   2.677   0.367
10605TIP3    H231759   3.433   2.644   0.310
10606TIP3   OH231760   1.096   0.202   0.383
10606TIP3    H131761   1.059   0.148   0.313
10606TIP3    H231762   1.191   0.193   0.371
10607TIP3   OH231763   0.967   5.140   5.960
10607TIP3    H131764   0.906   5.089   5.908
10607TIP3    H231765   1.032   5.172   5.898
10608TIP3   OH231766   0.090   3.577   1.502
10608TIP3    H131767   0.050   3.560   1.587
10608TIP3    H231768   0.162   3.514   1.496
10609TIP3   OH231769   4.262   1.230   1.076
10609TIP3    H131770   4.191   1.189   1.126
10609TIP3    H231771   4.219   1.299   1.026
10610TIP3   OH231772   7.287   6.300   4.217
10610TIP3    H131773   7.358   6.277   4.157
10610TIP3    H231774   7.224   6.348   4.164
10611TIP3   OH231775   3.169   2.431   4.012
10611TIP3    H131776   3.258   2.453   4.039
10611TIP3    H231777   3.142   2.504   3.956
10612TIP3   OH231778   2.538   5.340   2.328
10612TIP3    H131779   2.554   5.415   2.385
10612TIP3    H231780   2.495   5.377   2.251
10613TIP3   OH231781   6.086   6.436   3.137
10613TIP3    H131782   6.180   6.420   3.133
10613TIP3    H231783   6.054   6.410   3.050
10614TIP3   OH231784   7.304   0.230   2.633
10614TIP3    H131785   7.338   0.290   2.567
10614TIP3    H231786   7.246   0.284   2.687
10615TIP3   OH231787   6.991   7.213   6.269
10615TIP3    H131788   7.009   7.125   6.236
10615TIP3    H231789   6.924   7.199   6.337
10616TIP3   OH231790   0.817   7.748   0.982
10616TIP3    H131791   0.859   7.807   1.044
10616TIP3    H231792   0.731   7.786   0.967
10617TIP3   OH231793   3.473   2.111   4.807
10617TIP3    H131794   3.540   2.062   4.759
10617TIP3    H231795   3.519   2.188   4.840
10618TIP3   OH231796   3.952   0.564   4.565
10618TIP3    H131797   3.917   0.519   4.642
10618TIP3    H231798   3.879   0.564   4.503
10619TIP3   OH231799   0.991   0.275   3.942
10619TIP3    H131800   0.931   0.221   3.890
10619TIP3    H231801   0.945   0.287   4.025
10620TIP3   OH231802   2.777   5.386   2.012
10620TIP3    H131803   2.863   5.349   1.993
10620TIP3    H231804   2.796   5.467   2.060
10621TIP3   OH231805   2.534   4.218   4.477
10621TIP3    H131806   2.614   4.271   4.471
10621TIP3    H231807   2.465   4.281   4.498
10622TIP3   OH231808   2.235   5.824   3.028
10622TIP3    H131809   2.321   5.819   2.987
10622TIP3    H231810   2.175   5.787   2.964
10623TIP3   OH231811   6.343   2.257   1.826
10623TIP3    H131812   6.315   2.180   1.877
10623TIP3    H231813   6.415   2.294   1.877
10624TIP3   OH231814   7.952   6.998   4.285
10624TIP3    H131815   7.899   7.077   4.283
10624TIP3    H231816   8.041   7.027   4.265
10625TIP3   OH231817   1.890   4.950   6.540
10625TIP3    H131818   1.854   4.877   6.489
10625TIP3    H231819   1.980   4.924   6.558
10626TIP3   OH231820   7.740   2.442   4.730
10626TIP3    H131821   7.812   2.379   4.740
10626TIP3    H231822   7.764   2.493   4.653
10627TIP3   OH231823   8.178   6.846   4.499
10627TIP3    H131824   8.197   6.754   4.481
10627TIP3    H231825   8.211   6.893   4.423
10628TIP3   OH231826   6.367   0.992   3.564
10628TIP3    H131827   6.449   1.036   3.584
10628TIP3    H231828   6.389   0.932   3.492
10629TIP3   OH231829   3.433   6.907   1.222
10629TIP3    H131830   3.444   6.875   1.311
10629TIP3    H231831   3.346   6.948   1.222
10630TIP3   OH231832   3.565   6.021   0.060
10630TIP3    H131833   3.506   6.052   0.129
10630TIP3    H231834   3.525   5.939   0.030
10631TIP3   OH231835   1.508   6.834   3.400
10631TIP3    H131836   1.556   6.844   3.482
10631TIP3    H231837   1.455   6.755   3.413
10632TIP3   OH231838   7.253   3.698   4.674
10632TIP3    H131839   7.320   3.651   4.624
10632TIP3    H231840   7.174   3.644   4.665
10633TIP3   OH231841   0.866   1.927   3.120
10633TIP3    H131842   0.840   1.995   3.182
10633TIP3    H231843   0.907   1.860   3.174
10634TIP3   OH231844   6.996   6.698   4.787
10634TIP3    H131845   6.974   6.759   4.858
10634TIP3    H231846   7.090   6.708   4.775
10635TIP3   OH231847   8.020   6.798   5.613
10635TIP3    H131848   8.092   6.804   5.550
10635TIP3    H231849   8.061   6.814   5.698
10636TIP3   OH231850   0.171   4.091   2.840
10636TIP3    H131851   0.177   3.995   2.832
10636TIP3    H231852   0.255   4.123   2.810
10637TIP3   OH231853   8.167   3.839   4.485
10637TIP3    H131854   8.102   3.771   4.470
10637TIP3    H231855   8.234   3.797   4.538
10638TIP3   OH231856   7.552   6.036   6.418
10638TIP3    H131857   7.457   6.040   6.428
10638TIP3    H231858   7.568   6.070   6.330
10639TIP3   OH231859   0.890   5.525   6.352
10639TIP3    H131860   0.963   5.516   6.290
10639TIP3    H231861   0.845   5.604   6.323
10640TIP3   OH231862   3.883   3.317   4.863
10640TIP3    H131863   3.936   3.370   4.923
10640TIP3    H231864   3.846   3.249   4.919
10641TIP3   OH231865   1.662   6.056   1.917
10641TIP3    H131866   1.578   6.035   1.876
10641TIP3    H231867   1.666   6.152   1.915
10642TIP3   OH231868   7.410   5.025   4.591
10642TIP3    H131869   7.421   4.936   4.626
10642TIP3    H231870   7.472   5.030   4.518
10643TIP3   OH231871   0.522   0.250   6.435
10643TIP3    H131872   0.442   0.234   6.486
10643TIP3    H231873   0.568   0.318   6.484
10644TIP3   OH231874   5.368   0.322   5.463
10644TIP3    H131875   5.401   0.243   5.420
10644TIP3    H231876   5.317   0.289   5.537
10645TIP3   OH231877   6.070   2.824   1.214
10645TIP3    H131878   6.076   2.754   1.149
10645TIP3    H231879   6.109   2.900   1.171
10646TIP3   OH231880   0.926   1.315   5.133
10646TIP3    H131881   0.855   1.309   5.197
10646TIP3    H231882   0.938   1.225   5.101
10647TIP3   OH231883   2.160   5.042   6.418
10647TIP3    H131884   2.166   4.962   6.469
10647TIP3    H231885   2.151   5.112   6.483
10648TIP3   OH231886   3.166   3.417   1.344
10648TIP3    H131887   3.082   3.396   1.386
10648TIP3    H231888   3.143   3.475   1.272
10649TIP3   OH231889   1.577   4.107   6.742
10649TIP3    H131890   1.542   4.187   6.703
10649TIP3    H231891   1.578   4.044   6.671
10650TIP3   OH231892   7.467   2.902   3.034
10650TIP3    H131893   7.454   2.910   2.940
10650TIP3    H231894   7.498   2.989   3.062
10651TIP3   OH231895   0.793   0.242   2.149
10651TIP3    H131896   0.859   0.183   2.114
10651TIP3    H231897   0.710   0.196   2.134
10652TIP3   OH231898   5.418   3.272   4.232
10652TIP3    H131899   5.486   3.339   4.222
10652TIP3    H231900   5.466   3.191   4.247
10653TIP3   OH231901   2.536   1.451   2.341
10653TIP3    H131902   2.617   1.432   2.388
10653TIP3    H231903   2.466   1.432   2.403
10654TIP3   OH231904   7.131   4.548   1.950
10654TIP3    H131905   7.095   4.589   1.872
10654TIP3    H231906   7.196   4.611   1.983
10655TIP3   OH231907   2.002   1.746   4.221
10655TIP3    H131908   1.952   1.708   4.150
10655TIP3    H231909   2.093   1.741   4.192
10656TIP3   OH231910   1.898   4.584   1.273
10656TIP3    H131911   1.953   4.662   1.269
10656TIP3    H231912   1.840   4.592   1.197
10657TIP3   OH231913   5.959   2.464   3.551
10657TIP3    H131914   6.040   2.515   3.561
10657TIP3    H231915   5.988   2.374   3.536
10658TIP3   OH231916   5.253   5.735   6.520
10658TIP3    H131917   5.197   5.787   6.577
10658TIP3    H231918   5.222   5.754   6.432
10659TIP3   OH231919   4.840   7.766   5.574
10659TIP3    H131920   4.840   7.788   5.667
10659TIP3    H231921   4.759   7.716   5.561
10660TIP3   OH231922   0.445   5.718   3.868
10660TIP3    H131923   0.514   5.782   3.853
10660TIP3    H231924   0.443   5.666   3.788
10661TIP3   OH231925   1.074   2.693   2.544
10661TIP3    H131926   1.146   2.744   2.582
10661TIP3    H231927   1.053   2.628   2.612
10662TIP3   OH231928   7.510   3.218   1.926
10662TIP3    H131929   7.534   3.280   1.857
10662TIP3    H231930   7.590   3.206   1.976
10663TIP3   OH231931   7.424   2.518   6.497
10663TIP3    H131932   7.485   2.448   6.518
10663TIP3    H231933   7.352   2.475   6.452
10664TIP3   OH231934   4.480   0.402   0.274
10664TIP3    H131935   4.424   0.378   0.348
10664TIP3    H231936   4.441   0.483   0.241
10665TIP3   OH231937   1.958   1.591   0.665
10665TIP3    H131938   2.050   1.618   0.674
10665TIP3    H231939   1.914   1.633   0.740
10666TIP3   OH231940   0.239   0.343   5.249
10666TIP3    H131941   0.228   0.408   5.179
10666TIP3    H231942   0.163   0.285   5.240
10667TIP3   OH231943   3.155   6.207   4.433
10667TIP3    H131944   3.108   6.207   4.517
10667TIP3    H231945   3.124   6.129   4.388
10668TIP3   OH231946   0.144   1.150   2.214
10668TIP3    H131947   0.133   1.055   2.216
10668TIP3    H231948   0.193   1.171   2.293
10669TIP3   OH231949   7.583   6.122   2.260
10669TIP3    H131950   7.489   6.132   2.274
10669TIP3    H231951   7.589   6.076   2.176
10670TIP3   OH231952   0.988   0.469   4.802
10670TIP3    H131953   0.912   0.502   4.754
10670TIP3    H231954   0.989   0.375   4.783
10671TIP3   OH231955   1.700   6.877   4.012
10671TIP3    H131956   1.737   6.965   4.002
10671TIP3    H231957   1.727   6.849   4.099
10672TIP3   OH231958   6.599   5.011   4.030
10672TIP3    H131959   6.527   5.054   4.078
10672TIP3    H231960   6.672   5.073   4.036
10673TIP3   OH231961   4.978   0.418   1.837
10673TIP3    H131962   4.946   0.343   1.786
10673TIP3    H231963   4.912   0.430   1.906
10674TIP3   OH231964   4.625   3.717   3.578
10674TIP3    H131965   4.656   3.635   3.618
10674TIP3    H231966   4.530   3.705   3.569
10675TIP3   OH231967   6.060   0.612   1.579
10675TIP3    H131968   6.056   0.616   1.674
10675TIP3    H231969   6.030   0.698   1.549
10676TIP3   OH231970   2.994   3.545   2.270
10676TIP3    H131971   3.004   3.538   2.175
10676TIP3    H231972   3.068   3.600   2.298
10677TIP3   OH231973   0.581   3.236   2.013
10677TIP3    H131974   0.628   3.301   1.960
10677TIP3    H231975   0.649   3.200   2.070
10678TIP3   OH231976   7.628   5.988   4.308
10678TIP3    H131977   7.595   5.923   4.246
10678TIP3    H231978   7.566   5.985   4.382
10679TIP3   OH231979   5.302   1.480   2.933
10679TIP3    H131980   5.277   1.416   2.866
10679TIP3    H231981   5.243   1.554   2.919
10680TIP3   OH231982   6.488   5.726   1.815
10680TIP3    H131983   6.559   5.790   1.824
10680TIP3    H231984   6.427   5.750   1.885
10681TIP3   OH231985   4.941   0.113   3.366
10681TIP3    H131986   4.901   0.027   3.351
10681TIP3    H231987   5.035   0.095   3.375
10682TIP3   OH231988   0.313   7.051   4.125
10682TIP3    H131989   0.279   7.116   4.187
10682TIP3    H231990   0.331   6.974   4.179
10683TIP3   OH231991   7.924   5.954   6.514
10683TIP3    H131992   7.969   5.876   6.549
10683TIP3    H231993   7.994   6.015   6.493
10684TIP3   OH231994   0.383   5.829   2.013
10684TIP3    H131995   0.448   5.898   2.004
10684TIP3    H231996   0.309   5.858   1.960
10685TIP3   OH231997   2.231   5.966   5.572
10685TIP3    H131998   2.147   6.011   5.581
10685TIP3    H231999   2.293   6.020   5.621
10686TIP3   OH232000   4.687   6.110   1.091
10686TIP3    H132001   4.716   6.186   1.041
10686TIP3    H232002   4.629   6.147   1.158
10687TIP3   OH232003   0.805   3.529   2.169
10687TIP3    H132004   0.849   3.612   2.190
10687TIP3    H232005   0.751   3.511   2.246
10688TIP3   OH232006   3.738   2.452   2.294
10688TIP3    H132007   3.821   2.476   2.337
10688TIP3    H232008   3.683   2.420   2.365
10689TIP3   OH232009   7.769   0.395   0.071
10689TIP3    H132010   7.766   0.365   0.162
10689TIP3    H232011   7.859   0.424   0.059
10690TIP3   OH232012   6.241   5.257   4.334
10690TIP3    H132013   6.177   5.272   4.403
10690TIP3    H232014   6.325   5.279   4.374
10691TIP3   OH232015   7.651   0.619   5.531
10691TIP3    H132016   7.574   0.676   5.542
10691TIP3    H232017   7.669   0.586   5.619
10692TIP3   OH232018   5.924   3.590   4.396
10692TIP3    H132019   5.958   3.639   4.321
10692TIP3    H232020   5.882   3.655   4.451
10693TIP3   OH232021   4.099   2.108   3.771
10693TIP3    H132022   4.010   2.109   3.806
10693TIP3    H232023   4.136   2.192   3.799
10694TIP3   OH232024   1.924   0.004   3.903
10694TIP3    H132025   1.830  -0.007   3.888
10694TIP3    H232026   1.945   0.086   3.858
10695TIP3   OH232027   1.454   1.760   5.095
10695TIP3    H132028   1.366   1.759   5.134
10695TIP3    H232029   1.441   1.799   5.009
10696TIP3   OH232030   3.771   3.986   2.670
10696TIP3    H132031   3.844   3.978   2.609
10696TIP3    H232032   3.703   4.033   2.621
10697TIP3   OH232033   2.169   3.614   5.939
10697TIP3    H132034   2.154   3.702   5.973
10697TIP3    H232035   2.264   3.603   5.940
10698TIP3   OH232036   6.397   0.727   5.789
10698TIP3    H132037   6.459   0.795   5.764
10698TIP3    H232038   6.425   0.650   5.739
10699TIP3   OH232039   1.236   5.101   1.988
10699TIP3    H132040   1.239   5.093   2.083
10699TIP3    H232041   1.285   5.025   1.956
10700TIP3   OH232042   4.409   2.958   6.528
10700TIP3    H132043   4.359   3.035   6.552
10700TIP3    H232044   4.345   2.887   6.526
10701TIP3   OH232045   1.466   5.048   3.726
10701TIP3    H132046   1.468   5.017   3.816
10701TIP3    H232047   1.430   4.975   3.676
10702TIP3   OH232048   1.637   2.369   4.472
10702TIP3    H132049   1.692   2.292   4.487
10702TIP3    H232050   1.549   2.333   4.459
10703TIP3   OH232051   5.875   6.216   0.959
10703TIP3    H132052   5.845   6.284   0.899
10703TIP3    H232053   5.795   6.173   0.988
10704TIP3   OH232054   5.943   1.766   2.231
10704TIP3    H132055   5.883   1.782   2.304
10704TIP3    H232056   5.935   1.844   2.176
10705TIP3   OH232057   6.888   2.523   3.218
10705TIP3    H132058   6.844   2.470   3.151
10705TIP3    H232059   6.972   2.478   3.231
10706TIP3   OH232060   3.795   1.304   1.097
10706TIP3    H132061   3.729   1.287   1.030
10706TIP3    H232062   3.745   1.326   1.175
10707TIP3   OH232063   1.719   6.936   2.746
10707TIP3    H132064   1.688   6.984   2.823
10707TIP3    H232065   1.672   6.853   2.749
10708TIP3   OH232066   1.949   5.724   3.137
10708TIP3    H132067   1.974   5.816   3.150
10708TIP3    H232068   2.032   5.680   3.118
10709TIP3   OH232069   0.340   1.873   3.959
10709TIP3    H132070   0.332   1.950   4.016
10709TIP3    H232071   0.416   1.893   3.904
10710TIP3   OH232072   3.754   5.010   6.627
10710TIP3    H132073   3.808   5.054   6.562
10710TIP3    H232074   3.700   4.949   6.576
10711TIP3   OH232075   8.187   7.135   5.480
10711TIP3    H132076   8.171   7.153   5.573
10711TIP3    H232077   8.196   7.222   5.440
10712TIP3   OH232078   5.113   3.790   6.737
10712TIP3    H132079   5.160   3.873   6.729
10712TIP3    H232080   5.022   3.814   6.749
10713TIP3   OH232081   4.124   5.308   4.405
10713TIP3    H132082   4.117   5.400   4.430
10713TIP3    H232083   4.216   5.296   4.383
10714TIP3   OH232084   2.764   5.126   3.079
10714TIP3    H132085   2.780   5.208   3.033
10714TIP3    H232086   2.851   5.092   3.101
10715TIP3   OH232087   7.953   0.861   5.882
10715TIP3    H132088   8.045   0.872   5.860
10715TIP3    H232089   7.953   0.842   5.976
10716TIP3   OH232090   0.207   1.443   1.620
10716TIP3    H132091   0.216   1.454   1.715
10716TIP3    H232092   0.125   1.396   1.609
10717TIP3   OH232093   5.835   4.764   4.549
10717TIP3    H132094   5.786   4.847   4.550
10717TIP3    H232095   5.793   4.712   4.481
10718TIP3   OH232096   6.969   7.532   3.725
10718TIP3    H132097   6.910   7.590   3.774
10718TIP3    H232098   7.056   7.556   3.755
10719TIP3   OH232099   2.710   0.437   0.315
10719TIP3    H132100   2.615   0.429   0.321
10719TIP3    H232101   2.743   0.360   0.362
10720TIP3   OH232102   0.585   5.883   2.479
10720TIP3    H132103   0.586   5.832   2.399
10720TIP3    H232104   0.516   5.948   2.466
10721TIP3   OH232105   7.653   2.996   3.407
10721TIP3    H132106   7.617   2.954   3.329
10721TIP3    H232107   7.621   3.086   3.403
10722TIP3   OH232108   1.434   0.972   5.558
10722TIP3    H132109   1.384   0.959   5.639
10722TIP3    H232110   1.426   1.065   5.540
10723TIP3   OH232111   1.795   2.197   4.065
10723TIP3    H132112   1.755   2.267   4.117
10723TIP3    H232113   1.887   2.197   4.092
10724TIP3   OH232114   6.275   2.555   2.612
10724TIP3    H132115   6.225   2.481   2.645
10724TIP3    H232116   6.330   2.582   2.685
10725TIP3   OH232117   4.795   2.668   1.366
10725TIP3    H132118   4.819   2.609   1.438
10725TIP3    H232119   4.710   2.636   1.337
10726TIP3   OH232120   3.980   7.146   5.326
10726TIP3    H132121   3.964   7.052   5.319
10726TIP3    H232122   3.924   7.174   5.398
10727TIP3   OH232123   3.739   4.334   6.341
10727TIP3    H132124   3.648   4.314   6.363
10727TIP3    H232125   3.734   4.386   6.261
10728TIP3   OH232126   1.198   1.944   3.659
10728TIP3    H132127   1.191   2.039   3.648
10728TIP3    H232128   1.199   1.931   3.754
10729TIP3   OH232129   6.210   4.415   3.366
10729TIP3    H132130   6.152   4.469   3.420
10729TIP3    H232131   6.217   4.461   3.283
10730TIP3   OH232132   8.201   1.189   4.384
10730TIP3    H132133   8.282   1.200   4.336
10730TIP3    H232134   8.183   1.095   4.381
10731TIP3   OH232135   7.286   0.781   0.852
10731TIP3    H132136   7.338   0.782   0.933
10731TIP3    H232137   7.349   0.802   0.783
10732TIP3   OH232138   6.489   0.913   1.208
10732TIP3    H132139   6.394   0.899   1.211
10732TIP3    H232140   6.503   0.995   1.256
10733TIP3   OH232141   3.666   1.274   2.850
10733TIP3    H132142   3.585   1.231   2.875
10733TIP3    H232143   3.734   1.207   2.859
10734TIP3   OH232144   8.046   4.061   5.777
10734TIP3    H132145   7.963   4.053   5.824
10734TIP3    H232146   8.025   4.112   5.699
10735TIP3   OH232147   0.375   5.811   2.296
10735TIP3    H132148   0.382   5.900   2.329
10735TIP3    H232149   0.389   5.819   2.201
10736TIP3   OH232150   0.188   0.632   6.401
10736TIP3    H132151   0.118   0.671   6.350
10736TIP3    H232152   0.256   0.699   6.405
10737TIP3   OH232153   1.397   7.183   2.649
10737TIP3    H132154   1.438   7.197   2.735
10737TIP3    H232155   1.468   7.152   2.593
10738TIP3   OH232156   0.659   1.623   1.540
10738TIP3    H132157   0.633   1.697   1.484
10738TIP3    H232158   0.641   1.653   1.629
10739TIP3   OH232159   0.392   7.250   1.736
10739TIP3    H132160   0.436   7.233   1.819
10739TIP3    H232161   0.306   7.211   1.747
10740TIP3   OH232162   3.653   7.531   3.613
10740TIP3    H132163   3.642   7.513   3.707
10740TIP3    H232164   3.714   7.464   3.582
10741TIP3   OH232165   7.982   1.753   5.864
10741TIP3    H132166   7.899   1.716   5.834
10741TIP3    H232167   7.989   1.728   5.956
10742TIP3   OH232168   1.527   6.581   1.414
10742TIP3    H132169   1.527   6.511   1.480
10742TIP3    H232170   1.575   6.653   1.455
10743TIP3   OH232171   0.395   2.237   0.952
10743TIP3    H132172   0.311   2.271   0.986
10743TIP3    H232173   0.417   2.296   0.881
10744TIP3   OH232174   5.117   6.528   1.147
10744TIP3    H132175   5.107   6.438   1.114
10744TIP3    H232176   5.194   6.524   1.204
10745TIP3   OH232177   5.536   4.972   3.334
10745TIP3    H132178   5.595   5.001   3.403
10745TIP3    H232179   5.594   4.949   3.261
10746TIP3   OH232180   4.378   2.038   4.026
10746TIP3    H132181   4.351   1.947   4.018
10746TIP3    H232182   4.426   2.056   3.945
10747TIP3   OH232183   0.744   1.661   6.223
10747TIP3    H132184   0.834   1.692   6.234
10747TIP3    H232185   0.694   1.739   6.200
10748TIP3   OH232186   1.277   6.283   5.504
10748TIP3    H132187   1.326   6.231   5.568
10748TIP3    H232188   1.231   6.218   5.451
10749TIP3   OH232189   5.102   5.769   2.476
10749TIP3    H132190   5.189   5.776   2.436
10749TIP3    H232191   5.115   5.709   2.550
10750TIP3   OH232192   6.824   0.330   1.764
10750TIP3    H132193   6.836   0.349   1.671
10750TIP3    H232194   6.901   0.280   1.789
10751TIP3   OH232195   3.447   6.612   4.776
10751TIP3    H132196   3.429   6.684   4.716
10751TIP3    H232197   3.473   6.540   4.719
10752TIP3   OH232198   4.383   2.401   2.285
10752TIP3    H132199   4.343   2.325   2.242
10752TIP3    H232200   4.336   2.410   2.367
10753TIP3   OH232201   6.249   6.366   1.931
10753TIP3    H132202   6.302   6.445   1.926
10753TIP3    H232203   6.312   6.294   1.931
10754TIP3   OH232204   6.094   6.067   4.235
10754TIP3    H132205   6.031   6.033   4.171
10754TIP3    H232206   6.172   6.086   4.184
10755TIP3   OH232207   7.415   2.413   4.828
10755TIP3    H132208   7.424   2.332   4.778
10755TIP3    H232209   7.367   2.472   4.771
10756TIP3   OH232210   1.425   5.879   5.751
10756TIP3    H132211   1.387   5.954   5.796
10756TIP3    H232212   1.497   5.916   5.700
10757TIP3   OH232213   7.415   6.534   0.167
10757TIP3    H132214   7.420   6.456   0.222
10757TIP3    H232215   7.429   6.607   0.228
10758TIP3   OH232216   6.550   6.933   5.786
10758TIP3    H132217   6.643   6.932   5.809
10758TIP3    H232218   6.538   6.855   5.732
10759TIP3   OH232219   0.622   7.476   1.241
10759TIP3    H132220   0.657   7.491   1.329
10759TIP3    H232221   0.695   7.497   1.182
10760TIP3   OH232222   2.412   3.888   3.190
10760TIP3    H132223   2.486   3.894   3.250
10760TIP3    H232224   2.443   3.926   3.108
10761TIP3   OH232225   6.827   1.893   4.151
10761TIP3    H132226   6.776   1.974   4.149
10761TIP3    H232227   6.916   1.921   4.173
10762TIP3   OH232228   3.864   3.368   5.845
10762TIP3    H132229   3.933   3.302   5.835
10762TIP3    H232230   3.863   3.415   5.762
10763TIP3   OH232231   4.133   5.512   0.556
10763TIP3    H132232   4.134   5.484   0.465
10763TIP3    H232233   4.225   5.519   0.581
10764TIP3   OH232234   2.807   4.516   1.045
10764TIP3    H132235   2.781   4.430   1.080
10764TIP3    H232236   2.823   4.569   1.123
10765TIP3   OH232237   3.981   2.968   0.944
10765TIP3    H132238   3.949   2.883   0.914
10765TIP3    H232239   3.965   3.028   0.871
10766TIP3   OH232240   0.597   0.623   1.403
10766TIP3    H132241   0.655   0.665   1.339
10766TIP3    H232242   0.657   0.573   1.459
10767TIP3   OH232243   5.607   6.085   2.312
10767TIP3    H132244   5.594   6.054   2.402
10767TIP3    H232245   5.542   6.155   2.301
10768TIP3   OH232246   4.404   5.905   6.157
10768TIP3    H132247   4.357   5.920   6.075
10768TIP3    H232248   4.485   5.956   6.147
10769TIP3   OH232249   8.073   2.013   5.795
10769TIP3    H132250   8.024   1.933   5.818
10769TIP3    H232251   8.128   2.030   5.871
10770TIP3   OH232252   0.024   7.636   3.914
10770TIP3    H132253   0.103   7.599   3.955
10770TIP3    H232254   0.044   7.729   3.904
10771TIP3   OH232255   5.106   3.009   4.952
10771TIP3    H132256   5.141   2.959   5.026
10771TIP3    H232257   5.031   3.057   4.987
10772TIP3   OH232258   1.597   4.488   1.685
10772TIP3    H132259   1.646   4.445   1.755
10772TIP3    H232260   1.660   4.548   1.645
10773TIP3   OH232261   8.240   2.797   1.530
10773TIP3    H132262   8.225   2.737   1.603
10773TIP3    H232263   8.157   2.842   1.518
10774TIP3   OH232264   4.150   6.626   2.303
10774TIP3    H132265   4.084   6.656   2.366
10774TIP3    H232266   4.231   6.669   2.331
10775TIP3   OH232267   7.881   0.990   5.470
10775TIP3    H132268   7.909   1.009   5.381
10775TIP3    H232269   7.822   0.916   5.462
10776TIP3   OH232270   2.180   2.854   2.865
10776TIP3    H132271   2.268   2.891   2.851
10776TIP3    H232272   2.122   2.930   2.868
10777TIP3   OH232273   3.228   4.775   2.139
10777TIP3    H132274   3.173   4.727   2.201
10777TIP3    H232275   3.191   4.864   2.138
10778TIP3   OH232276   7.153   0.783   1.838
10778TIP3    H132277   7.153   0.843   1.763
10778TIP3    H232278   7.246   0.770   1.858
10779TIP3   OH232279   4.216   3.897   4.445
10779TIP3    H132280   4.153   3.961   4.412
10779TIP3    H232281   4.182   3.871   4.531
10780TIP3   OH232282   2.951   1.962   5.922
10780TIP3    H132283   2.946   1.935   6.014
10780TIP3    H232284   2.961   1.880   5.874
10781TIP3   OH232285   1.943   4.440   4.374
10781TIP3    H132286   1.969   4.531   4.367
10781TIP3    H232287   1.887   4.425   4.298
10782TIP3   OH232288   3.383   0.726   0.161
10782TIP3    H132289   3.349   0.640   0.184
10782TIP3    H232290   3.316   0.764   0.104
10783TIP3   OH232291   4.726   0.616   5.554
10783TIP3    H132292   4.808   0.597   5.509
10783TIP3    H232293   4.687   0.530   5.571
10784TIP3   OH232294   2.870   4.295   5.826
10784TIP3    H132295   2.920   4.377   5.829
10784TIP3    H232296   2.909   4.246   5.755
10785TIP3   OH232297   6.002   2.255   0.034
10785TIP3    H132298   5.914   2.259  -0.005
10785TIP3    H232299   5.997   2.313   0.110
10786TIP3   OH232300   6.579   5.502   1.981
10786TIP3    H132301   6.657   5.454   1.953
10786TIP3    H232302   6.592   5.591   1.948
10787TIP3   OH232303   7.816   7.466   3.775
10787TIP3    H132304   7.810   7.556   3.809
10787TIP3    H232305   7.751   7.463   3.704
10788TIP3   OH232306   0.463   5.350   2.736
10788TIP3    H132307   0.396   5.282   2.745
10788TIP3    H232308   0.416   5.425   2.700
10789TIP3   OH232309   3.777   6.916   4.230
10789TIP3    H132310   3.689   6.890   4.257
10789TIP3    H232311   3.788   7.005   4.266
10790TIP3   OH232312   7.948   5.623   3.549
10790TIP3    H132313   7.935   5.668   3.632
10790TIP3    H232314   8.041   5.634   3.530
10791TIP3   OH232315   2.721   0.312   5.254
10791TIP3    H132316   2.780   0.249   5.294
10791TIP3    H232317   2.720   0.288   5.161
10792TIP3   OH232318   6.960   0.731   2.016
10792TIP3    H132319   6.903   0.664   1.977
10792TIP3    H232320   7.039   0.730   1.963
10793TIP3   OH232321   1.353   3.244   1.201
10793TIP3    H132322   1.357   3.285   1.288
10793TIP3    H232323   1.409   3.167   1.208
10794TIP3   OH232324   7.601   5.131   2.661
10794TIP3    H132325   7.688   5.118   2.698
10794TIP3    H232326   7.556   5.047   2.678
10795TIP3   OH232327   2.790   5.649   2.128
10795TIP3    H132328   2.704   5.649   2.170
10795TIP3    H232329   2.826   5.735   2.149
10796TIP3   OH232330   6.509   6.092   5.761
10796TIP3    H132331   6.535   6.166   5.815
10796TIP3    H232332   6.576   6.086   5.693
10797TIP3   OH232333   3.134   5.762   2.805
10797TIP3    H132334   3.213   5.787   2.853
10797TIP3    H232335   3.156   5.678   2.765
10798TIP3   OH232336   4.884   5.566   5.103
10798TIP3    H132337   4.883   5.506   5.028
10798TIP3    H232338   4.959   5.623   5.086
10799TIP3   OH232339   2.596   5.465   0.269
10799TIP3    H132340   2.653   5.520   0.216
10799TIP3    H232341   2.644   5.454   0.351
10800TIP3   OH232342   6.781   6.364   0.140
10800TIP3    H132343   6.852   6.309   0.109
10800TIP3    H232344   6.786   6.359   0.236
10801TIP3   OH232345   6.835   6.036   4.084
10801TIP3    H132346   6.823   6.093   4.008
10801TIP3    H232347   6.746   6.023   4.117
10802TIP3   OH232348   2.622   6.474   3.795
10802TIP3    H132349   2.692   6.538   3.815
10802TIP3    H232350   2.669   6.393   3.776
10803TIP3   OH232351   4.211   4.622   5.298
10803TIP3    H132352   4.150   4.623   5.224
10803TIP3    H232353   4.268   4.547   5.281
10804TIP3   OH232354   4.064   6.803   0.244
10804TIP3    H132355   4.121   6.801   0.167
10804TIP3    H232356   4.124   6.794   0.318
10805TIP3   OH232357   6.590   3.548   5.197
10805TIP3    H132358   6.504   3.551   5.239
10805TIP3    H232359   6.621   3.459   5.212
10806TIP3   OH232360   1.802   1.477   5.704
10806TIP3    H132361   1.781   1.387   5.678
10806TIP3    H232362   1.790   1.478   5.799
10807TIP3   OH232363   5.168   3.574   0.042
10807TIP3    H132364   5.111   3.539   0.111
10807TIP3    H232365   5.184   3.500  -0.016
10808TIP3   OH232366   6.572   4.836   3.083
10808TIP3    H132367   6.571   4.763   3.021
10808TIP3    H232368   6.578   4.914   3.029
10809TIP3   OH232369   2.580   2.050   5.086
10809TIP3    H132370   2.493   2.075   5.119
10809TIP3    H232371   2.562   1.977   5.026
10810TIP3   OH232372   2.366   4.073   4.256
10810TIP3    H132373   2.418   4.141   4.214
10810TIP3    H232374   2.317   4.118   4.324
10811TIP3   OH232375   6.641   4.839   1.782
10811TIP3    H132376   6.565   4.854   1.727
10811TIP3    H232377   6.693   4.774   1.734
10812TIP3   OH232378   7.361   1.585   0.088
10812TIP3    H132379   7.347   1.673   0.122
10812TIP3    H232380   7.288   1.534   0.124
10813TIP3   OH232381   5.384   6.438   2.014
10813TIP3    H132382   5.360   6.517   1.967
10813TIP3    H232383   5.393   6.466   2.105
10814TIP3   OH232384   2.927   4.552   4.790
10814TIP3    H132385   2.920   4.465   4.752
10814TIP3    H232386   2.849   4.561   4.846
10815TIP3   OH232387   6.004  -0.011   4.738
10815TIP3    H132388   5.956   0.066   4.707
10815TIP3    H232389   6.072   0.025   4.795
10816TIP3   OH232390   6.948   4.540   6.374
10816TIP3    H132391   6.886   4.566   6.442
10816TIP3    H232392   6.954   4.445   6.381
10817TIP3   OH232393   8.222   6.660   3.088
10817TIP3    H132394   8.177   6.732   3.042
10817TIP3    H232395   8.161   6.587   3.085
10818TIP3   OH232396   6.184   0.445   4.451
10818TIP3    H132397   6.272   0.442   4.490
10818TIP3    H232398   6.199   0.460   4.358
10819TIP3   OH232399   1.602   3.357   6.166
10819TIP3    H132400   1.641   3.344   6.252
10819TIP3    H232401   1.517   3.314   6.172
10820TIP3   OH232402   4.922   1.906   2.263
10820TIP3    H132403   4.936   1.826   2.211
10820TIP3    H232404   4.960   1.885   2.349
10821TIP3   OH232405   5.468   5.207   2.504
10821TIP3    H132406   5.438   5.240   2.419
10821TIP3    H232407   5.554   5.246   2.516
10822TIP3   OH232408   7.943   4.898   0.078
10822TIP3    H132409   7.890   4.848   0.139
10822TIP3    H232410   7.977   4.971   0.129
10823TIP3   OH232411   2.291   1.426   3.740
10823TIP3    H132412   2.297   1.331   3.753
10823TIP3    H232413   2.314   1.439   3.648
10824TIP3   OH232414   5.705   7.319   3.849
10824TIP3    H132415   5.699   7.315   3.945
10824TIP3    H232416   5.734   7.409   3.831
10825TIP3   OH232417   7.466   1.251   0.076
10825TIP3    H132418   7.381   1.219   0.045
10825TIP3    H232419   7.468   1.343   0.049
10826TIP3   OH232420   6.925   3.039   0.455
10826TIP3    H132421   6.892   3.122   0.488
10826TIP3    H232422   6.859   2.975   0.482
10827TIP3   OH232423   5.302   2.183   5.616
10827TIP3    H132424   5.325   2.090   5.620
10827TIP3    H232425   5.348   2.215   5.538
10828TIP3   OH232426   5.124   2.907   3.420
10828TIP3    H132427   5.218   2.908   3.439
10828TIP3    H232428   5.119   2.881   3.328
10829TIP3   OH232429   2.961   6.078   5.341
10829TIP3    H132430   3.024   6.147   5.356
10829TIP3    H232431   2.959   6.066   5.246
10830TIP3   OH232432   5.936   3.719   3.527
10830TIP3    H132433   5.898   3.639   3.562
10830TIP3    H232434   5.896   3.789   3.579
10831TIP3   OH232435   2.017   7.642   0.333
10831TIP3    H132436   2.035   7.719   0.279
10831TIP3    H232437   2.002   7.571   0.270
10832TIP3   OH232438   2.602   0.334   6.181
10832TIP3    H132439   2.652   0.304   6.104
10832TIP3    H232440   2.632   0.424   6.195
10833TIP3   OH232441   3.682   0.187   3.374
10833TIP3    H132442   3.604   0.137   3.398
10833TIP3    H232443   3.755   0.139   3.415
10834TIP3   OH232444   2.553   7.094   2.016
10834TIP3    H132445   2.556   6.998   2.009
10834TIP3    H232446   2.489   7.120   1.951
10835TIP3   OH232447   6.201   3.737   5.594
10835TIP3    H132448   6.236   3.794   5.526
10835TIP3    H232449   6.279   3.703   5.638
10836TIP3   OH232450   2.211   6.102   4.969
10836TIP3    H132451   2.241   6.068   4.884
10836TIP3    H232452   2.290   6.106   5.022
10837TIP3   OH232453   4.435   6.948   4.834
10837TIP3    H132454   4.382   6.971   4.909
10837TIP3    H232455   4.418   6.854   4.821
10838TIP3   OH232456   0.948   3.285   0.679
10838TIP3    H132457   0.921   3.303   0.589
10838TIP3    H232458   1.010   3.213   0.671
10839TIP3   OH232459   6.115   3.974   0.474
10839TIP3    H132460   6.110   3.884   0.504
10839TIP3    H232461   6.033   4.014   0.503
10840TIP3   OH232462   1.019   3.003   6.583
10840TIP3    H132463   1.111   2.985   6.563
10840TIP3    H232464   1.005   2.966   6.670
10841TIP3   OH232465   1.653   6.412   4.694
10841TIP3    H132466   1.592   6.376   4.758
10841TIP3    H232467   1.679   6.497   4.731
10842TIP3   OH232468   6.163   2.778   4.915
10842TIP3    H132469   6.104   2.853   4.902
10842TIP3    H232470   6.218   2.804   4.989
10843TIP3   OH232471   0.044   0.448   2.068
10843TIP3    H132472   0.031   0.522   2.127
10843TIP3    H232473  -0.015   0.465   1.995
10844TIP3   OH232474   8.273   7.376   3.738
10844TIP3    H132475   8.204   7.311   3.750
10844TIP3    H232476   8.228   7.460   3.737
10845TIP3   OH232477   3.834   2.330   4.712
10845TIP3    H132478   3.880   2.413   4.699
10845TIP3    H232479   3.787   2.317   4.630
10846TIP3   OH232480   5.269   3.128   1.190
10846TIP3    H132481   5.327   3.052   1.193
10846TIP3    H232482   5.243   3.133   1.098
10847TIP3   OH232483   4.099   1.282   0.385
10847TIP3    H132484   4.033   1.347   0.409
10847TIP3    H232485   4.107   1.290   0.290
10848TIP3   OH232486   4.022   5.237   4.149
10848TIP3    H132487   3.980   5.160   4.186
10848TIP3    H232488   4.056   5.285   4.225
10849TIP3   OH232489   0.620   4.178   1.813
10849TIP3    H132490   0.615   4.086   1.788
10849TIP3    H232491   0.695   4.212   1.764
10850TIP3   OH232492   7.066   3.082   3.275
10850TIP3    H132493   7.052   3.058   3.366
10850TIP3    H232494   7.009   3.023   3.226
10851TIP3   OH232495   4.291   7.501   3.017
10851TIP3    H132496   4.290   7.503   2.921
10851TIP3    H232497   4.380   7.475   3.039
10852TIP3   OH232498   1.350   3.753   3.346
10852TIP3    H132499   1.255   3.747   3.355
10852TIP3    H232500   1.384   3.728   3.432
10853TIP3   OH232501   1.848   4.458   2.843
10853TIP3    H132502   1.942   4.460   2.826
10853TIP3    H232503   1.809   4.499   2.766
10854TIP3   OH232504   6.031   5.428   0.670
10854TIP3    H132505   6.100   5.456   0.730
10854TIP3    H232506   5.961   5.396   0.728
10855TIP3   OH232507   2.674   4.811   1.153
10855TIP3    H132508   2.614   4.861   1.098
10855TIP3    H232509   2.617   4.763   1.214
10856TIP3   OH232510   7.017   5.740   2.255
10856TIP3    H132511   7.086   5.780   2.201
10856TIP3    H232512   7.060   5.667   2.299
10857TIP3   OH232513   0.921   1.015   5.006
10857TIP3    H132514   0.954   0.979   4.923
10857TIP3    H232515   0.828   0.993   5.006
10858TIP3   OH232516   5.556   7.708   6.470
10858TIP3    H132517   5.646   7.694   6.500
10858TIP3    H232518   5.564   7.773   6.400
10859TIP3   OH232519   3.478   3.910   3.684
10859TIP3    H132520   3.390   3.883   3.707
10859TIP3    H232521   3.504   3.850   3.614
10860TIP3   OH232522   3.183   1.803   1.633
10860TIP3    H132523   3.248   1.835   1.696
10860TIP3    H232524   3.206   1.844   1.550
10861TIP3   OH232525   6.627   1.775   5.803
10861TIP3    H132526   6.705   1.798   5.854
10861TIP3    H232527   6.604   1.856   5.756
10862TIP3   OH232528   3.915   5.002   3.113
10862TIP3    H132529   3.934   4.933   3.177
10862TIP3    H232530   3.872   4.956   3.041
10863TIP3   OH232531   1.928   7.219   6.424
10863TIP3    H132532   1.911   7.200   6.516
10863TIP3    H232533   2.021   7.199   6.412
10864TIP3   OH232534   2.467   0.087   2.703
10864TIP3    H132535   2.509   0.066   2.787
10864TIP3    H232536   2.539   0.086   2.640
10865TIP3   OH232537   3.086   3.067   6.048
10865TIP3    H132538   3.166   3.112   6.023
10865TIP3    H232539   3.060   3.017   5.971
10866TIP3   OH232540   3.250   3.348   5.154
10866TIP3    H132541   3.184   3.280   5.166
10866TIP3    H232542   3.223   3.419   5.214
10867TIP3   OH232543   1.979   2.639   5.980
10867TIP3    H132544   1.890   2.660   6.010
10867TIP3    H232545   2.006   2.565   6.034
10868TIP3   OH232546   0.864   0.489   0.653
10868TIP3    H132547   0.770   0.508   0.648
10868TIP3    H232548   0.892   0.486   0.562
10869TIP3   OH232549   1.388   2.626   2.655
10869TIP3    H132550   1.304   2.587   2.631
10869TIP3    H232551   1.441   2.623   2.576
10870TIP3   OH232552   7.831   1.097   6.097
10870TIP3    H132553   7.911   1.055   6.129
10870TIP3    H232554   7.863   1.175   6.050
10871TIP3   OH232555   0.413   3.047   1.550
10871TIP3    H132556   0.455   3.131   1.567
10871TIP3    H232557   0.361   3.030   1.629
10872TIP3   OH232558   7.560   7.536   4.282
10872TIP3    H132559   7.569   7.457   4.337
10872TIP3    H232560   7.533   7.502   4.197
10873TIP3   OH232561   4.684   0.925   4.626
10873TIP3    H132562   4.725   0.947   4.543
10873TIP3    H232563   4.666   1.009   4.668
10874TIP3   OH232564   3.961   7.719   4.192
10874TIP3    H132565   4.036   7.704   4.250
10874TIP3    H232566   3.995   7.778   4.125
10875TIP3   OH232567   4.659  -0.009   3.485
10875TIP3    H132568   4.676  -0.102   3.475
10875TIP3    H232569   4.740   0.027   3.520
10876TIP3   OH232570   6.224   6.312   5.969
10876TIP3    H132571   6.304   6.365   5.971
10876TIP3    H232572   6.242   6.238   6.026
10877TIP3   OH232573   7.652   1.017   6.613
10877TIP3    H132574   7.703   0.952   6.563
10877TIP3    H232575   7.717   1.064   6.665
10878TIP3   OH232576   7.832   5.635   4.636
10878TIP3    H132577   7.892   5.685   4.691
10878TIP3    H232578   7.886   5.564   4.600
10879TIP3   OH232579   5.981   5.621   6.831
10879TIP3    H132580   5.994   5.543   6.777
10879TIP3    H232581   5.898   5.658   6.801
10880TIP3   OH232582   5.670   5.779   1.316
10880TIP3    H132583   5.624   5.715   1.370
10880TIP3    H232584   5.684   5.854   1.373
10881TIP3   OH232585   5.045   0.907   2.996
10881TIP3    H132586   5.016   0.967   3.064
10881TIP3    H232587   4.967   0.855   2.974
10882TIP3   OH232588   3.389   7.451   2.236
10882TIP3    H132589   3.410   7.478   2.325
10882TIP3    H232590   3.416   7.525   2.182
10883TIP3   OH232591   6.090   2.934   0.449
10883TIP3    H132592   6.080   3.020   0.409
10883TIP3    H232593   6.167   2.942   0.505
10884TIP3   OH232594   1.199   3.913   4.409
10884TIP3    H132595   1.111   3.945   4.388
10884TIP3    H232596   1.190   3.871   4.494
10885TIP3   OH232597   3.538   6.856   0.159
10885TIP3    H132598   3.564   6.941   0.122
10885TIP3    H232599   3.462   6.830   0.108
10886TIP3   OH232600   2.781   5.596   4.972
10886TIP3    H132601   2.830   5.618   4.892
10886TIP3    H232602   2.690   5.618   4.951
10887TIP3   OH232603   3.282   7.303   5.610
10887TIP3    H132604   3.310   7.307   5.518
10887TIP3    H232605   3.189   7.281   5.606
10888TIP3   OH232606   0.369   3.339   5.787
10888TIP3    H132607   0.383   3.382   5.871
10888TIP3    H232608   0.407   3.400   5.723
10889TIP3   OH232609   1.240   3.147   3.134
10889TIP3    H132610   1.293   3.217   3.096
10889TIP3    H232611   1.240   3.078   3.067
10890TIP3   OH232612   1.767   4.643   1.530
10890TIP3    H132613   1.692   4.702   1.525
10890TIP3    H232614   1.779   4.612   1.440
10891TIP3   OH232615   3.843   0.418   5.845
10891TIP3    H132616   3.875   0.507   5.837
10891TIP3    H232617   3.828   0.389   5.754
10892TIP3   OH232618   0.790   2.615   5.837
10892TIP3    H132619   0.711   2.667   5.850
10892TIP3    H232620   0.761   2.524   5.842
10893TIP3   OH232621   3.742   2.596   3.633
10893TIP3    H132622   3.752   2.557   3.720
10893TIP3    H232623   3.832   2.600   3.599
10894TIP3   OH232624   2.823   3.905   6.272
10894TIP3    H132625   2.905   3.950   6.250
10894TIP3    H232626   2.784   3.958   6.341
10895TIP3   OH232627   5.948   1.765   5.571
10895TIP3    H132628   6.022   1.721   5.528
10895TIP3    H232629   5.879   1.766   5.504
10896TIP3   OH232630   1.456   3.310   6.618
10896TIP3    H132631   1.364   3.303   6.592
10896TIP3    H232632   1.477   3.402   6.603
10897TIP3   OH232633   1.108   3.034   3.384
10897TIP3    H132634   1.163   3.079   3.320
10897TIP3    H232635   1.053   3.103   3.421
10898TIP3   OH232636   3.153   0.188   5.671
10898TIP3    H132637   3.114   0.107   5.639
10898TIP3    H232638   3.243   0.165   5.693
10899TIP3   OH232639   7.174   5.510   2.388
10899TIP3    H132640   7.216   5.560   2.458
10899TIP3    H232641   7.146   5.429   2.430
10900TIP3   OH232642   0.320   7.023   0.917
10900TIP3    H132643   0.380   7.013   0.991
10900TIP3    H232644   0.234   7.035   0.957
10901TIP3   OH232645   0.893   2.064   2.581
10901TIP3    H132646   0.844   2.144   2.600
10901TIP3    H232647   0.914   2.027   2.667
10902TIP3   OH232648   8.306   0.880   5.356
10902TIP3    H132649   8.266   0.937   5.423
10902TIP3    H232650   8.237   0.818   5.334
10903TIP3   OH232651   6.301   5.667   4.910
10903TIP3    H132652   6.263   5.685   4.996
10903TIP3    H232653   6.395   5.678   4.922
10904TIP3   OH232654   7.559   1.528   0.258
10904TIP3    H132655   7.579   1.621   0.267
10904TIP3    H232656   7.485   1.525   0.197
10905TIP3   OH232657   5.451   2.511   2.720
10905TIP3    H132658   5.489   2.476   2.801
10905TIP3    H232659   5.392   2.443   2.690
10906TIP3   OH232660   7.361   6.868   6.191
10906TIP3    H132661   7.295   6.931   6.161
10906TIP3    H232662   7.407   6.914   6.260
10907TIP3   OH232663   4.366   6.295   4.971
10907TIP3    H132664   4.289   6.243   4.993
10907TIP3    H232665   4.379   6.352   5.047
10908TIP3   OH232666   2.856   1.223   5.595
10908TIP3    H132667   2.906   1.305   5.603
10908TIP3    H232668   2.919   1.160   5.560
10909TIP3   OH232669   5.738   0.123   6.505
10909TIP3    H132670   5.755   0.079   6.421
10909TIP3    H232671   5.643   0.119   6.515
10910TIP3   OH232672   6.375   4.527   2.822
10910TIP3    H132673   6.379   4.600   2.759
10910TIP3    H232674   6.284   4.500   2.822
10911TIP3   OH232675   1.658   5.437   4.978
10911TIP3    H132676   1.671   5.507   5.042
10911TIP3    H232677   1.608   5.480   4.907
10912TIP3   OH232678   4.022   5.043   4.390
10912TIP3    H132679   4.100   4.988   4.378
10912TIP3    H232680   4.056   5.128   4.415
10913TIP3   OH232681   3.782   1.231   0.644
10913TIP3    H132682   3.787   1.286   0.723
10913TIP3    H232683   3.849   1.165   0.657
10914TIP3   OH232684   5.547   7.098   3.985
10914TIP3    H132685   5.557   7.023   4.043
10914TIP3    H232686   5.635   7.116   3.952
10915TIP3   OH232687   0.407   5.609   6.264
10915TIP3    H132688   0.468   5.553   6.310
10915TIP3    H232689   0.462   5.668   6.212
10916TIP3   OH232690   7.170   2.557   2.461
10916TIP3    H132691   7.226   2.619   2.414
10916TIP3    H232692   7.150   2.490   2.396
10917TIP3   OH232693   2.822   3.413   1.983
10917TIP3    H132694   2.846   3.326   2.016
10917TIP3    H232695   2.901   3.465   1.994
10918TIP3   OH232696   6.275   5.379   6.537
10918TIP3    H132697   6.298   5.297   6.493
10918TIP3    H232698   6.322   5.446   6.487
10919TIP3   OH232699   5.962   3.129   4.622
10919TIP3    H132700   5.961   3.071   4.546
10919TIP3    H232701   6.005   3.209   4.591
10920TIP3   OH232702   4.019   4.525   3.914
10920TIP3    H132703   4.099   4.474   3.901
10920TIP3    H232704   4.041   4.587   3.984
10921TIP3   OH232705   7.310   0.513   2.575
10921TIP3    H132706   7.365   0.495   2.499
10921TIP3    H232707   7.369   0.553   2.638
10922TIP3   OH232708   8.091   7.690   6.709
10922TIP3    H132709   8.023   7.636   6.750
10922TIP3    H232710   8.094   7.769   6.761
10923TIP3   OH232711   7.449   1.621   1.980
10923TIP3    H132712   7.472   1.619   1.887
10923TIP3    H232713   7.454   1.530   2.009
10924TIP3   OH232714   0.601   1.358   1.539
10924TIP3    H132715   0.624   1.320   1.624
10924TIP3    H232716   0.642   1.444   1.539
10925TIP3   OH232717   4.034   1.042   5.222
10925TIP3    H132718   3.946   1.078   5.233
10925TIP3    H232719   4.092   1.112   5.252
10926TIP3   OH232720   4.937   4.613   6.346
10926TIP3    H132721   4.948   4.601   6.440
10926TIP3    H232722   5.011   4.565   6.307
10927TIP3   OH232723   5.522   7.546   5.326
10927TIP3    H132724   5.613   7.524   5.347
10927TIP3    H232725   5.488   7.469   5.282
10928TIP3   OH232726   5.905   6.564   6.242
10928TIP3    H132727   5.979   6.609   6.283
10928TIP3    H232728   5.839   6.631   6.231
10929TIP3   OH232729   4.349   5.098   1.972
10929TIP3    H132730   4.364   5.013   2.013
10929TIP3    H232731   4.374   5.085   1.880
10930TIP3   OH232732   7.409   6.978   6.673
10930TIP3    H132733   7.353   6.914   6.629
10930TIP3    H232734   7.413   6.949   6.764
10931TIP3   OH232735   5.664   2.919   5.612
10931TIP3    H132736   5.570   2.934   5.598
10931TIP3    H232737   5.707   2.975   5.548
10932TIP3   OH232738   4.497   4.335   2.913
10932TIP3    H132739   4.537   4.411   2.955
10932TIP3    H232740   4.480   4.363   2.823
10933TIP3   OH232741   5.126   6.315   6.617
10933TIP3    H132742   5.166   6.254   6.555
10933TIP3    H232743   5.136   6.401   6.577
10934TIP3   OH232744   5.843   1.576   4.404
10934TIP3    H132745   5.866   1.550   4.493
10934TIP3    H232746   5.808   1.496   4.365
10935TIP3   OH232747   6.419   1.698   0.089
10935TIP3    H132748   6.406   1.693  -0.006
10935TIP3    H232749   6.506   1.660   0.103
10936TIP3   OH232750   6.327   1.820   3.420
10936TIP3    H132751   6.341   1.855   3.332
10936TIP3    H232752   6.390   1.865   3.475
10937TIP3   OH232753   8.307   4.534   3.467
10937TIP3    H132754   8.277   4.619   3.501
10937TIP3    H232755   8.227   4.490   3.440
10938TIP3   OH232756   0.251   4.846   0.320
10938TIP3    H132757   0.346   4.832   0.317
10938TIP3    H232758   0.237   4.924   0.268
10939TIP3   OH232759   8.081   7.378   3.438
10939TIP3    H132760   8.115   7.447   3.495
10939TIP3    H232761   8.049   7.311   3.498
10940TIP3   OH232762   4.749   4.677   4.051
10940TIP3    H132763   4.800   4.627   4.115
10940TIP3    H232764   4.678   4.619   4.026
10941TIP3   OH232765   3.792   2.417   6.553
10941TIP3    H132766   3.787   2.381   6.641
10941TIP3    H232767   3.874   2.382   6.518
10942TIP3   OH232768   2.081   1.230   3.250
10942TIP3    H132769   2.052   1.248   3.339
10942TIP3    H232770   2.027   1.287   3.195
10943TIP3   OH232771   4.111   4.776   4.037
10943TIP3    H132772   4.145   4.866   4.033
10943TIP3    H232773   4.022   4.785   4.071
10944TIP3   OH232774   4.554   7.284   5.026
10944TIP3    H132775   4.533   7.197   5.059
10944TIP3    H232776   4.625   7.315   5.081
10945TIP3   OH232777   4.075   5.447   4.856
10945TIP3    H132778   4.125   5.493   4.788
10945TIP3    H232779   4.043   5.517   4.913
10946TIP3   OH232780   5.677   1.205   4.601
10946TIP3    H132781   5.632   1.130   4.639
10946TIP3    H232782   5.746   1.226   4.664
10947TIP3   OH232783   4.156   3.134   2.764
10947TIP3    H132784   4.115   3.214   2.733
10947TIP3    H232785   4.206   3.102   2.688
10948TIP3   OH232786   7.925   2.974   1.220
10948TIP3    H132787   7.899   2.972   1.312
10948TIP3    H232788   7.857   2.925   1.174
10949TIP3   OH232789   5.253   7.506   6.138
10949TIP3    H132790   5.160   7.497   6.115
10949TIP3    H232791   5.297   7.523   6.054
10950TIP3   OH232792   4.114   4.681   1.033
10950TIP3    H132793   4.171   4.664   0.958
10950TIP3    H232794   4.147   4.763   1.069
10951TIP3   OH232795   0.804   4.350   3.675
10951TIP3    H132796   0.800   4.441   3.705
10951TIP3    H232797   0.898   4.333   3.664
10952TIP3   OH232798   4.466   5.830   0.177
10952TIP3    H132799   4.379   5.800   0.202
10952TIP3    H232800   4.459   5.847   0.083
10953TIP3   OH232801   6.803   4.814   2.778
10953TIP3    H132802   6.740   4.762   2.827
10953TIP3    H232803   6.790   4.787   2.687
10954TIP3   OH232804   4.245   5.107   0.400
10954TIP3    H132805   4.190   5.031   0.383
10954TIP3    H232806   4.265   5.102   0.494
10955TIP3   OH232807   2.163   6.020   4.262
10955TIP3    H132808   2.255   6.012   4.235
10955TIP3    H232809   2.142   5.935   4.301
10956TIP3   OH232810   5.001   6.024   0.370
10956TIP3    H132811   4.907   6.029   0.387
10956TIP3    H232812   5.041   6.050   0.453
10957TIP3   OH232813   5.217   7.119   6.117
10957TIP3    H132814   5.237   7.178   6.190
10957TIP3    H232815   5.122   7.107   6.121
10958TIP3   OH232816   2.346   7.275   1.957
10958TIP3    H132817   2.376   7.347   1.901
10958TIP3    H232818   2.281   7.229   1.904
10959TIP3   OH232819   8.187   2.299   2.061
10959TIP3    H132820   8.265   2.341   2.098
10959TIP3    H232821   8.114   2.335   2.110
10960TIP3   OH232822   2.969   2.946   4.658
10960TIP3    H132823   2.941   3.028   4.618
10960TIP3    H232824   3.045   2.970   4.711
10961TIP3   OH232825   1.895   5.593   2.443
10961TIP3    H132826   1.905   5.500   2.463
10961TIP3    H232827   1.803   5.603   2.420
10962TIP3   OH232828   6.668   2.908   1.803
10962TIP3    H132829   6.648   2.815   1.807
10962TIP3    H232830   6.609   2.948   1.867
10963TIP3   OH232831   4.297   1.762   0.116
10963TIP3    H132832   4.387   1.772   0.148
10963TIP3    H232833   4.279   1.668   0.127
10964TIP3   OH232834   5.700   0.110   1.960
10964TIP3    H132835   5.762   0.150   1.900
10964TIP3    H232836   5.741   0.118   2.046
10965TIP3   OH232837   2.287   3.225   2.448
10965TIP3    H132838   2.331   3.287   2.505
10965TIP3    H232839   2.203   3.267   2.428
10966TIP3   OH232840   1.237   0.817   1.773
10966TIP3    H132841   1.332   0.825   1.773
10966TIP3    H232842   1.209   0.854   1.857
10967TIP3   OH232843   2.165   4.049   2.562
10967TIP3    H132844   2.174   4.143   2.545
10967TIP3    H232845   2.254   4.015   2.564
10968TIP3   OH232846   1.655   4.165   4.827
10968TIP3    H132847   1.691   4.136   4.912
10968TIP3    H232848   1.575   4.115   4.817
10969TIP3   OH232849   2.031   3.188   1.216
10969TIP3    H132850   2.054   3.253   1.282
10969TIP3    H232851   2.005   3.240   1.140
10970TIP3   OH232852   5.155   7.200   5.839
10970TIP3    H132853   5.190   7.176   5.925
10970TIP3    H232854   5.220   7.262   5.804
10971TIP3   OH232855   7.310   3.932   5.659
10971TIP3    H132856   7.245   3.990   5.621
10971TIP3    H232857   7.363   3.903   5.584
10972TIP3   OH232858   6.738   5.880   2.573
10972TIP3    H132859   6.658   5.931   2.588
10972TIP3    H232860   6.742   5.820   2.647
10973TIP3   OH232861   6.301   1.682   5.800
10973TIP3    H132862   6.275   1.759   5.751
10973TIP3    H232863   6.389   1.661   5.768
10974TIP3   OH232864   3.511   0.528   1.164
10974TIP3    H132865   3.454   0.485   1.228
10974TIP3    H232866   3.539   0.609   1.208
10975TIP3   OH232867   6.837   0.247   4.683
10975TIP3    H132868   6.743   0.238   4.668
10975TIP3    H232869   6.854   0.340   4.668
10976TIP3   OH232870   4.535   7.637   3.644
10976TIP3    H132871   4.483   7.566   3.606
10976TIP3    H232872   4.602   7.593   3.695
10977TIP3   OH232873   4.744   5.390   4.239
10977TIP3    H132874   4.840   5.383   4.242
10977TIP3    H232875   4.723   5.394   4.145
10978TIP3   OH232876   4.953   3.475   6.579
10978TIP3    H132877   4.947   3.388   6.540
10978TIP3    H232878   5.047   3.490   6.592
10979TIP3   OH232879   4.857   5.434   2.675
10979TIP3    H132880   4.903   5.461   2.596
10979TIP3    H232881   4.769   5.412   2.646
10980TIP3   OH232882   1.596   6.768   5.354
10980TIP3    H132883   1.667   6.722   5.398
10980TIP3    H232884   1.577   6.843   5.410
10981TIP3   OH232885   0.140   7.638   3.224
10981TIP3    H132886   0.093   7.569   3.178
10981TIP3    H232887   0.079   7.712   3.225
10982TIP3   OH232888   2.575   2.342   1.710
10982TIP3    H132889   2.546   2.384   1.629
10982TIP3    H232890   2.523   2.383   1.779
10983TIP3   OH232891   7.438   0.542   4.943
10983TIP3    H132892   7.404   0.453   4.947
10983TIP3    H232893   7.527   0.535   4.976
10984TIP3   OH232894   7.280   1.610   0.513
10984TIP3    H132895   7.369   1.639   0.497
10984TIP3    H232896   7.241   1.679   0.567
10985TIP3   OH232897   4.952   4.510   3.850
10985TIP3    H132898   4.915   4.457   3.779
10985TIP3    H232899   4.947   4.600   3.818
10986TIP3   OH232900   0.974   7.246   0.709
10986TIP3    H132901   0.995   7.289   0.792
10986TIP3    H232902   0.900   7.189   0.729
10987TIP3   OH232903   3.322   0.507   5.392
10987TIP3    H132904   3.368   0.575   5.342
10987TIP3    H232905   3.392   0.454   5.430
10988TIP3   OH232906   3.921   4.536   4.352
10988TIP3    H132907   3.834   4.500   4.335
10988TIP3    H232908   3.909   4.631   4.347
10989TIP3   OH232909   2.798   2.720   0.839
10989TIP3    H132910   2.890   2.702   0.856
10989TIP3    H232911   2.769   2.771   0.915
10990TIP3   OH232912   6.158   4.077   6.376
10990TIP3    H132913   6.106   4.125   6.312
10990TIP3    H232914   6.223   4.140   6.407
10991TIP3   OH232915   0.163   3.358   6.397
10991TIP3    H132916   0.176   3.417   6.471
10991TIP3    H232917   0.072   3.373   6.370
10992TIP3   OH232918   8.050   7.333   4.386
10992TIP3    H132919   8.033   7.312   4.294
10992TIP3    H232920   8.103   7.259   4.419
10993TIP3   OH232921   4.713   4.651   3.375
10993TIP3    H132922   4.806   4.671   3.373
10993TIP3    H232923   4.670   4.737   3.370
10994TIP3   OH232924   7.621   3.334   6.458
10994TIP3    H132925   7.576   3.254   6.487
10994TIP3    H232926   7.705   3.332   6.504
10995TIP3   OH232927   8.315   1.272   1.362
10995TIP3    H132928   8.282   1.293   1.450
10995TIP3    H232929   8.282   1.342   1.307
10996TIP3   OH232930   3.626   0.334   5.986
10996TIP3    H132931   3.701   0.376   5.944
10996TIP3    H232932   3.562   0.404   5.997
10997TIP3   OH232933   7.523   4.643   1.879
10997TIP3    H132934   7.484   4.679   1.799
10997TIP3    H232935   7.462   4.667   1.948
10998TIP3   OH232936   6.122   3.871   4.420
10998TIP3    H132937   6.215   3.855   4.404
10998TIP3    H232938   6.092   3.916   4.341
10999TIP3   OH232939   3.510   2.490   2.873
10999TIP3    H132940   3.577   2.558   2.873
10999TIP3    H232941   3.445   2.520   2.937
11000TIP3   OH232942   3.198   2.236   6.694
11000TIP3    H132943   3.150   2.318   6.701
11000TIP3    H232944   3.169   2.184   6.769
11001TIP3   OH232945   2.998   1.174   2.520
11001TIP3    H132946   3.023   1.256   2.563
11001TIP3    H232947   3.081   1.128   2.507
11002TIP3   OH232948   0.052   3.756   2.673
11002TIP3    H132949   0.121   3.751   2.607
11002TIP3    H232950  -0.030   3.759   2.623
11003TIP3   OH232951   6.486   3.163   0.307
11003TIP3    H132952   6.401   3.154   0.264
11003TIP3    H232953   6.533   3.226   0.254
11004TIP3   OH232954   0.396   0.727   0.659
11004TIP3    H132955   0.457   0.654   0.666
11004TIP3    H232956   0.352   0.731   0.744
11005TIP3   OH232957   1.211   6.439   2.294
11005TIP3    H132958   1.216   6.404   2.383
11005TIP3    H232959   1.154   6.516   2.301
11006TIP3   OH232960   6.973   7.199   0.029
11006TIP3    H132961   6.921   7.160   0.099
11006TIP3    H232962   7.053   7.227   0.072
11007TIP3   OH232963   3.402   7.012   4.145
11007TIP3    H132964   3.391   6.981   4.055
11007TIP3    H232965   3.462   6.948   4.185
11008TIP3   OH232966   2.363   2.356   0.129
11008TIP3    H132967   2.441   2.402   0.099
11008TIP3    H232968   2.317   2.330   0.048
11009TIP3   OH232969   5.852   4.837   1.398
11009TIP3    H132970   5.891   4.904   1.453
11009TIP3    H232971   5.773   4.810   1.445
11010TIP3   OH232972   7.930   6.741   6.316
11010TIP3    H132973   7.876   6.816   6.293
11010TIP3    H232974   7.881   6.665   6.287
11011TIP3   OH232975   5.203   2.648   2.040
11011TIP3    H132976   5.139   2.630   1.971
11011TIP3    H232977   5.209   2.744   2.042
11012TIP3   OH232978   5.258   0.811   0.199
11012TIP3    H132979   5.192   0.747   0.174
11012TIP3    H232980   5.328   0.800   0.134
11013TIP3   OH232981   5.850   6.864   6.047
11013TIP3    H132982   5.778   6.847   6.109
11013TIP3    H232983   5.927   6.872   6.103
11014TIP3   OH232984   3.037   3.568   1.972
11014TIP3    H132985   3.126   3.555   1.938
11014TIP3    H232986   2.997   3.631   1.912
11015TIP3   OH232987   3.394   2.290   0.947
11015TIP3    H132988   3.328   2.322   0.885
11015TIP3    H232989   3.422   2.206   0.910
11016TIP3   OH232990   3.884   4.806   4.315
11016TIP3    H132991   3.940   4.879   4.340
11016TIP3    H232992   3.797   4.845   4.306
11017TIP3   OH232993   1.528   0.302   4.650
11017TIP3    H132994   1.619   0.324   4.630
11017TIP3    H232995   1.477   0.369   4.604
11018TIP3   OH232996   0.413   7.072   6.510
11018TIP3    H132997   0.431   7.015   6.585
11018TIP3    H232998   0.318   7.064   6.496
11019TIP3   OH232999   7.994   6.933   5.210
11019TIP3    H133000   8.036   6.852   5.180
11019TIP3    H233001   8.058   7.001   5.189
11020TIP3   OH233002   1.490   3.974   2.266
11020TIP3    H133003   1.582   3.992   2.286
11020TIP3    H233004   1.458   4.056   2.229
11021TIP3   OH233005   4.008   6.628   4.141
11021TIP3    H133006   4.058   6.680   4.079
11021TIP3    H233007   4.073   6.595   4.203
11022TIP3   OH233008   5.710   6.303   5.843
11022TIP3    H133009   5.660   6.224   5.862
11022TIP3    H233010   5.792   6.293   5.892
11023TIP3   OH233011   5.808   2.197   2.536
11023TIP3    H133012   5.766   2.275   2.571
11023TIP3    H233013   5.826   2.219   2.444
11024TIP3   OH233014   3.238   0.380   6.443
11024TIP3    H133015   3.190   0.302   6.472
11024TIP3    H233016   3.235   0.375   6.347
11025TIP3   OH233017   6.328   6.688   3.617
11025TIP3    H133018   6.266   6.761   3.605
11025TIP3    H233019   6.273   6.615   3.643
11026TIP3   OH233020   3.648   0.954   4.241
11026TIP3    H133021   3.638   1.037   4.194
11026TIP3    H233022   3.659   0.888   4.172
11027TIP3   OH233023   2.107   4.439   5.715
11027TIP3    H133024   2.197   4.452   5.744
11027TIP3    H233025   2.063   4.523   5.732
11028TIP3   OH233026   2.837   0.572   2.856
11028TIP3    H133027   2.811   0.613   2.773
11028TIP3    H233028   2.812   0.635   2.923
11029TIP3   OH233029   3.675   7.678   2.875
11029TIP3    H133030   3.707   7.643   2.792
11029TIP3    H233031   3.686   7.606   2.937
11030TIP3   OH233032   8.199   3.767   6.130
11030TIP3    H133033   8.117   3.793   6.171
11030TIP3    H233034   8.263   3.832   6.161
11031TIP3   OH233035   7.440   3.520   4.540
11031TIP3    H133036   7.442   3.432   4.577
11031TIP3    H233037   7.528   3.554   4.553
11032TIP3   OH233038   7.988   3.668   0.925
11032TIP3    H133039   7.929   3.608   0.881
11032TIP3    H233040   8.059   3.683   0.862
11033TIP3   OH233041   2.845   5.734   0.088
11033TIP3    H133042   2.877   5.648   0.115
11033TIP3    H233043   2.876   5.794   0.156
11034TIP3   OH233044   7.071   2.802   3.798
11034TIP3    H133045   6.978   2.806   3.819
11034TIP3    H233046   7.106   2.886   3.827
11035TIP3   OH233047   4.295   1.862   3.038
11035TIP3    H133048   4.366   1.828   3.092
11035TIP3    H233049   4.277   1.949   3.073
11036TIP3   OH233050   0.492   6.543   0.877
11036TIP3    H133051   0.558   6.502   0.934
11036TIP3    H233052   0.461   6.473   0.821
11037TIP3   OH233053   1.469   4.999   1.825
11037TIP3    H133054   1.486   5.084   1.865
11037TIP3    H233055   1.547   4.948   1.845
11038TIP3   OH233056   3.404   0.887   5.756
11038TIP3    H133057   3.378   0.807   5.802
11038TIP3    H233058   3.354   0.885   5.675
11039TIP3   OH233059   3.060   2.954   6.543
11039TIP3    H133060   2.975   2.936   6.582
11039TIP3    H233061   3.045   2.949   6.449
11040TIP3   OH233062   5.292   5.501   1.756
11040TIP3    H133063   5.309   5.407   1.765
11040TIP3    H233064   5.365   5.542   1.803
11041TIP3   OH233065   4.629   4.009   6.326
11041TIP3    H133066   4.573   3.951   6.275
11041TIP3    H233067   4.642   3.964   6.409
11042TIP3   OH233068   5.280   4.793   4.206
11042TIP3    H133069   5.215   4.736   4.164
11042TIP3    H233070   5.313   4.742   4.279
11043TIP3   OH233071   7.073   1.937   1.785
11043TIP3    H133072   7.097   1.877   1.856
11043TIP3    H233073   7.140   1.920   1.718
11044TIP3   OH233074   3.645   6.613   0.040
11044TIP3    H133075   3.713   6.667   0.080
11044TIP3    H233076   3.583   6.596   0.111
11045TIP3   OH233077   3.270   3.051   3.308
11045TIP3    H133078   3.268   2.955   3.310
11045TIP3    H233079   3.351   3.074   3.353
11046TIP3   OH233080   1.494   0.830   1.113
11046TIP3    H133081   1.572   0.831   1.169
11046TIP3    H233082   1.505   0.905   1.055
11047TIP3   OH233083   5.611   2.502   1.440
11047TIP3    H133084   5.605   2.509   1.535
11047TIP3    H233085   5.602   2.592   1.408
11048TIP3   OH233086   3.025   6.531   6.342
11048TIP3    H133087   2.947   6.477   6.331
11048TIP3    H233088   3.095   6.482   6.299
11049TIP3   OH233089   7.144   0.731   6.227
11049TIP3    H133090   7.096   0.808   6.196
11049TIP3    H233091   7.231   0.765   6.251
11050TIP3   OH233092   1.571   6.664   5.102
11050TIP3    H133093   1.494   6.713   5.072
11050TIP3    H233094   1.595   6.705   5.185
11051TIP3   OH233095   5.239   3.542   5.528
11051TIP3    H133096   5.178   3.616   5.522
11051TIP3    H233097   5.200   3.484   5.593
11052TIP3   OH233098   7.037   3.686   0.785
11052TIP3    H133099   7.022   3.674   0.691
11052TIP3    H233100   7.117   3.738   0.790
11053TIP3   OH233101   7.709   4.306   5.792
11053TIP3    H133102   7.763   4.318   5.871
11053TIP3    H233103   7.747   4.366   5.728
11054TIP3   OH233104   7.550   2.258   1.276
11054TIP3    H133105   7.627   2.264   1.220
11054TIP3    H233106   7.484   2.310   1.230
11055TIP3   OH233107   0.793   0.838   0.552
11055TIP3    H133108   0.820   0.807   0.638
11055TIP3    H233109   0.864   0.811   0.493
11056TIP3   OH233110   6.751   1.430   5.297
11056TIP3    H133111   6.804   1.350   5.296
11056TIP3    H233112   6.783   1.481   5.223
11057TIP3   OH233113   5.006   5.882   1.692
11057TIP3    H133114   5.050   5.803   1.660
11057TIP3    H233115   4.912   5.862   1.684
11058TIP3   OH233116   5.783   6.660   5.780
11058TIP3    H133117   5.718   6.593   5.800
11058TIP3    H233118   5.858   6.638   5.835
11059TIP3   OH233119   3.999   0.802   1.355
11059TIP3    H133120   4.020   0.815   1.262
11059TIP3    H233121   3.993   0.707   1.364
11060TIP3   OH233122   7.425   0.798   3.548
11060TIP3    H133123   7.392   0.722   3.596
11060TIP3    H233124   7.497   0.764   3.494
11061TIP3   OH233125   3.719   2.516   0.787
11061TIP3    H133126   3.652   2.543   0.724
11061TIP3    H233127   3.746   2.429   0.759
11062TIP3   OH233128   0.135   0.927   4.806
11062TIP3    H133129   0.112   0.930   4.899
11062TIP3    H233130   0.135   1.019   4.778
11063TIP3   OH233131   5.920   5.312   3.441
11063TIP3    H133132   5.923   5.229   3.489
11063TIP3    H233133   5.827   5.328   3.427
11064TIP3   OH233134   3.037   4.903   5.796
11064TIP3    H133135   3.116   4.859   5.828
11064TIP3    H233136   3.061   4.995   5.793
11065TIP3   OH233137   4.593   3.387   4.136
11065TIP3    H133138   4.512   3.377   4.185
11065TIP3    H233139   4.627   3.298   4.126
11066TIP3   OH233140   6.410   5.124   1.088
11066TIP3    H133141   6.503   5.123   1.064
11066TIP3    H233142   6.365   5.148   1.007
11067TIP3   OH233143   4.830   4.892   4.697
11067TIP3    H133144   4.899   4.841   4.740
11067TIP3    H233145   4.824   4.854   4.609
11068TIP3   OH233146   2.505   2.442   1.460
11068TIP3    H133147   2.532   2.371   1.402
11068TIP3    H233148   2.499   2.519   1.403
11069TIP3   OH233149   3.415   4.795   0.099
11069TIP3    H133150   3.495   4.755   0.134
11069TIP3    H233151   3.401   4.751   0.015
11070TIP3   OH233152   7.875   7.830   5.355
11070TIP3    H133153   7.938   7.892   5.392
11070TIP3    H233154   7.903   7.818   5.265
11071TIP3   OH233155   3.603   0.182   3.693
11071TIP3    H133156   3.672   0.173   3.758
11071TIP3    H233157   3.590   0.277   3.686
11072TIP3   OH233158   4.552   5.382   0.112
11072TIP3    H133159   4.637   5.368   0.071
11072TIP3    H233160   4.571   5.422   0.196
11073TIP3   OH233161   0.624   7.687   2.258
11073TIP3    H133162   0.584   7.774   2.255
11073TIP3    H233163   0.559   7.633   2.304
11074TIP3   OH233164   5.714   3.954   0.847
11074TIP3    H133165   5.645   3.890   0.864
11074TIP3    H233166   5.730   3.994   0.933
11075TIP3   OH233167   4.636   6.988   3.350
11075TIP3    H133168   4.578   6.975   3.424
11075TIP3    H233169   4.585   6.962   3.274
11076TIP3   OH233170   5.000   6.045   6.317
11076TIP3    H133171   5.094   6.056   6.329
11076TIP3    H233172   4.973   5.991   6.391
11077TIP3   OH233173   2.186   0.237   0.343
11077TIP3    H133174   2.231   0.219   0.260
11077TIP3    H233175   2.230   0.181   0.407
11078TIP3   OH233176   3.011   5.293   1.852
11078TIP3    H133177   3.058   5.356   1.797
11078TIP3    H233178   3.050   5.208   1.831
11079TIP3   OH233179   6.740   4.939   3.290
11079TIP3    H133180   6.748   4.860   3.343
11079TIP3    H233181   6.678   4.916   3.221
11080TIP3   OH233182   7.043  -0.025   3.486
11080TIP3    H133183   7.115  -0.075   3.524
11080TIP3    H233184   7.027  -0.066   3.401
11081TIP3   OH233185   3.993   6.672   5.455
11081TIP3    H133186   4.012   6.684   5.548
11081TIP3    H233187   3.972   6.579   5.447
11082TIP3   OH233188   1.802   7.072   2.287
11082TIP3    H133189   1.890   7.105   2.304
11082TIP3    H233190   1.762   7.063   2.374
11083TIP3   OH233191   4.354   5.151   5.920
11083TIP3    H133192   4.391   5.199   5.995
11083TIP3    H233193   4.259   5.156   5.933
11084TIP3   OH233194   8.217   7.828   4.196
11084TIP3    H133195   8.222   7.734   4.210
11084TIP3    H233196   8.230   7.839   4.102
11085TIP3   OH233197   5.102   0.458   3.866
11085TIP3    H133198   5.134   0.408   3.791
11085TIP3    H233199   5.182   0.480   3.915
11086TIP3   OH233200   0.837   4.865   0.671
11086TIP3    H133201   0.831   4.772   0.692
11086TIP3    H233202   0.892   4.902   0.740
11087TIP3   OH233203   1.538   0.592   2.996
11087TIP3    H133204   1.629   0.623   2.990
11087TIP3    H233205   1.544   0.511   3.048
11088TIP3   OH233206   5.047   6.615   5.593
11088TIP3    H133207   5.085   6.539   5.638
11088TIP3    H233208   4.973   6.579   5.544
11089TIP3   OH233209   6.976   3.579   3.584
11089TIP3    H133210   6.920   3.612   3.514
11089TIP3    H233211   6.990   3.655   3.641
11090TIP3   OH233212   2.385   7.080   5.159
11090TIP3    H133213   2.292   7.059   5.167
11090TIP3    H233214   2.398   7.156   5.215
11091TIP3   OH233215   0.668   0.814   3.347
11091TIP3    H133216   0.664   0.909   3.359
11091TIP3    H233217   0.594   0.795   3.289
11092TIP3   OH233218   3.470   7.775   3.883
11092TIP3    H133219   3.452   7.848   3.941
11092TIP3    H233220   3.421   7.702   3.920
11093TIP3   OH233221   3.040   2.691   5.441
11093TIP3    H133222   3.035   2.614   5.383
11093TIP3    H233223   3.107   2.667   5.505
11094TIP3   OH233224   8.183   3.245   0.240
11094TIP3    H133225   8.230   3.217   0.318
11094TIP3    H233226   8.092   3.252   0.269
11095TIP3   OH233227   1.717   6.327   2.937
11095TIP3    H133228   1.716   6.322   2.841
11095TIP3    H233229   1.628   6.301   2.963
11096TIP3   OH233230   2.627   3.099   0.329
11096TIP3    H133231   2.588   3.023   0.373
11096TIP3    H233232   2.679   3.062   0.258
11097TIP3   OH233233   3.764   6.492   3.358
11097TIP3    H133234   3.729   6.507   3.270
11097TIP3    H233235   3.736   6.568   3.408
11098TIP3   OH233236   7.835   7.785   1.288
11098TIP3    H133237   7.747   7.757   1.314
11098TIP3    H233238   7.820   7.863   1.235
11099TIP3   OH233239   6.140   4.881   0.439
11099TIP3    H133240   6.173   4.858   0.352
11099TIP3    H233241   6.048   4.852   0.438
11100TIP3   OH233242   6.767   6.717   3.811
11100TIP3    H133243   6.747   6.645   3.751
11100TIP3    H233244   6.731   6.795   3.768
11101TIP3   OH233245   2.903   3.086   5.639
11101TIP3    H133246   2.888   3.171   5.679
11101TIP3    H233247   2.985   3.096   5.591
11102TIP3   OH233248   7.967   1.329   1.368
11102TIP3    H133249   8.024   1.380   1.426
11102TIP3    H233250   7.988   1.360   1.280
11103TIP3   OH233251   0.146   7.288   1.556
11103TIP3    H133252   0.191   7.320   1.478
11103TIP3    H233253   0.156   7.193   1.552
11104TIP3   OH233254   2.625   3.183   4.638
11104TIP3    H133255   2.529   3.180   4.634
11104TIP3    H233256   2.650   3.101   4.681
11105TIP3   OH233257   2.849   1.029   5.903
11105TIP3    H133258   2.912   1.096   5.931
11105TIP3    H233259   2.880   1.003   5.816
11106TIP3   OH233260   6.749   6.637   2.506
11106TIP3    H133261   6.781   6.718   2.467
11106TIP3    H233262   6.806   6.621   2.581
11107TIP3   OH233263   3.617   2.543   2.070
11107TIP3    H133264   3.638   2.503   2.155
11107TIP3    H233265   3.669   2.494   2.007
11108TIP3   OH233266   5.008   1.845   0.561
11108TIP3    H133267   5.000   1.872   0.653
11108TIP3    H233268   4.974   1.756   0.559
11109TIP3   OH233269   0.931   2.797   1.858
11109TIP3    H133270   0.996   2.732   1.833
11109TIP3    H233271   0.852   2.772   1.810
11110TIP3   OH233272   3.603   5.403   2.130
11110TIP3    H133273   3.657   5.476   2.161
11110TIP3    H233274   3.606   5.409   2.035
11111TIP3   OH233275   1.113   2.629   6.383
11111TIP3    H133276   1.174   2.571   6.338
11111TIP3    H233277   1.095   2.584   6.466
11112TIP3   OH233278   6.481   1.477   4.283
11112TIP3    H133279   6.534   1.465   4.204
11112TIP3    H233280   6.392   1.454   4.256
11113TIP3   OH233281   1.690   5.826   6.421
11113TIP3    H133282   1.738   5.780   6.490
11113TIP3    H233283   1.602   5.839   6.458
11114TIP3   OH233284   1.090   3.645   4.925
11114TIP3    H133285   1.073   3.570   4.983
11114TIP3    H233286   1.028   3.633   4.852
11115TIP3   OH233287   2.630   7.307   1.401
11115TIP3    H133288   2.630   7.367   1.476
11115TIP3    H233289   2.705   7.249   1.417
11116TIP3   OH233290   1.786   3.713   4.103
11116TIP3    H133291   1.860   3.698   4.161
11116TIP3    H233292   1.821   3.767   4.032
11117TIP3   OH233293   4.473   7.235   4.541
11117TIP3    H133294   4.534   7.258   4.611
11117TIP3    H233295   4.387   7.234   4.582
11118TIP3   OH233296   8.197   4.500   4.272
11118TIP3    H133297   8.259   4.434   4.301
11118TIP3    H233298   8.112   4.468   4.301
11119TIP3   OH233299   7.105   3.486   1.890
11119TIP3    H133300   7.099   3.490   1.985
11119TIP3    H233301   7.198   3.471   1.872
11120TIP3   OH233302   4.799   1.031   4.378
11120TIP3    H133303   4.891   1.015   4.358
11120TIP3    H233304   4.754   1.024   4.294
11121TIP3   OH233305   4.956   5.234   1.887
11121TIP3    H133306   4.953   5.285   1.969
11121TIP3    H233307   4.986   5.297   1.821
11122TIP3   OH233308   5.529   3.610   4.353
11122TIP3    H133309   5.440   3.611   4.389
11122TIP3    H233310   5.583   3.582   4.427
11123TIP3   OH233311   7.497   7.288   1.868
11123TIP3    H133312   7.456   7.205   1.894
11123TIP3    H233313   7.565   7.302   1.935
11124TIP3   OH233314   5.049   6.808   6.125
11124TIP3    H133315   5.056   6.743   6.195
11124TIP3    H233316   5.000   6.763   6.056
11125TIP3   OH233317   3.858   2.506   2.805
11125TIP3    H133318   3.789   2.572   2.809
11125TIP3    H233319   3.940   2.557   2.807
11126TIP3   OH233320   0.802   4.469   0.049
11126TIP3    H133321   0.719   4.439   0.086
11126TIP3    H233322   0.804   4.563   0.065
11127TIP3   OH233323   0.376   6.231   5.096
11127TIP3    H133324   0.319   6.308   5.102
11127TIP3    H233325   0.384   6.214   5.002
11128TIP3   OH233326   1.330   0.812   2.097
11128TIP3    H133327   1.236   0.825   2.098
11128TIP3    H233328   1.342   0.724   2.061
11129TIP3   OH233329   4.911   2.208   1.324
11129TIP3    H133330   4.948   2.295   1.308
11129TIP3    H233331   4.977   2.164   1.378
11130TIP3   OH233332   6.387   7.437   2.656
11130TIP3    H133333   6.407   7.516   2.706
11130TIP3    H233334   6.466   7.420   2.605
11131TIP3   OH233335   1.826   6.218   4.148
11131TIP3    H133336   1.855   6.139   4.103
11131TIP3    H233337   1.788   6.273   4.080
11132TIP3   OH233338   1.746   5.694   1.116
11132TIP3    H133339   1.737   5.606   1.080
11132TIP3    H233340   1.841   5.706   1.127
11133TIP3   OH233341   2.323   6.702   0.752
11133TIP3    H133342   2.395   6.729   0.811
11133TIP3    H233343   2.280   6.785   0.729
11134TIP3   OH233344   6.363   2.218   5.029
11134TIP3    H133345   6.309   2.285   4.989
11134TIP3    H233346   6.447   2.223   4.982
11135TIP3   OH233347   8.225   3.363   1.968
11135TIP3    H133348   8.171   3.432   1.928
11135TIP3    H233349   8.162   3.304   2.009
11136TIP3   OH233350   7.071   6.081   6.330
11136TIP3    H133351   7.045   6.005   6.277
11136TIP3    H233352   6.998   6.142   6.320
11137TIP3   OH233353   2.215   0.615   6.094
11137TIP3    H133354   2.283   0.658   6.145
11137TIP3    H233355   2.143   0.678   6.090
11138TIP3   OH233356   3.516   6.830   1.475
11138TIP3    H133357   3.522   6.895   1.545
11138TIP3    H233358   3.558   6.752   1.511
11139TIP3   OH233359   6.484   6.077   6.625
11139TIP3    H133360   6.567   6.058   6.580
11139TIP3    H233361   6.466   5.998   6.677
11140TIP3   OH233362   5.501   4.906   5.931
11140TIP3    H133363   5.543   4.961   5.998
11140TIP3    H233364   5.567   4.897   5.862
11141TIP3   OH233365   2.945   6.896   5.247
11141TIP3    H133366   2.863   6.934   5.279
11141TIP3    H233367   2.962   6.823   5.307
11142TIP3   OH233368   0.264   4.003   2.477
11142TIP3    H133369   0.302   4.079   2.434
11142TIP3    H233370   0.184   4.036   2.519
11143TIP3   OH233371   7.821   3.685  -0.050
11143TIP3    H133372   7.779   3.610  -0.007
11143TIP3    H233373   7.786   3.762  -0.005
11144TIP3   OH233374   6.283   4.973   0.188
11144TIP3    H133375   6.275   5.058   0.231
11144TIP3    H233376   6.348   4.926   0.240
11145TIP3   OH233377   7.660   7.350   5.672
11145TIP3    H133378   7.642   7.395   5.754
11145TIP3    H233379   7.603   7.393   5.608
11146TIP3   OH233380   0.864   5.191   1.218
11146TIP3    H133381   0.821   5.179   1.302
11146TIP3    H233382   0.958   5.193   1.238
11147TIP3   OH233383   5.518   7.336   4.751
11147TIP3    H133384   5.568   7.330   4.833
11147TIP3    H233385   5.582   7.366   4.687
11148TIP3   OH233386   1.834   2.783   5.427
11148TIP3    H133387   1.909   2.836   5.454
11148TIP3    H233388   1.873   2.716   5.371
11149TIP3   OH233389   0.510   3.474   5.989
11149TIP3    H133390   0.600   3.451   6.012
11149TIP3    H233391   0.457   3.441   6.062
11150TIP3   OH233392   7.002   5.046   5.498
11150TIP3    H133393   6.968   5.072   5.413
11150TIP3    H233394   7.064   4.976   5.479
11151TIP3   OH233395   2.939   1.713   5.806
11151TIP3    H133396   3.030   1.689   5.818
11151TIP3    H233397   2.889   1.648   5.855
11152TIP3   OH233398   3.751   6.915   0.488
11152TIP3    H133399   3.690   6.988   0.476
11152TIP3    H233400   3.838   6.955   0.489
11153TIP3   OH233401   6.424   5.686   3.513
11153TIP3    H133402   6.469   5.708   3.595
11153TIP3    H233403   6.473   5.612   3.477
11154TIP3   OH233404   6.902   4.967   0.113
11154TIP3    H133405   6.850   4.894   0.079
11154TIP3    H233406   6.868   4.981   0.201
11155TIP3   OH233407   3.142   2.866   0.266
11155TIP3    H133408   3.113   2.918   0.191
11155TIP3    H233409   3.164   2.931   0.333
11156TIP3   OH233410   3.841   6.031   0.438
11156TIP3    H133411   3.760   6.029   0.488
11156TIP3    H233412   3.813   6.021   0.347
11157TIP3   OH233413   6.283   5.152   1.644
11157TIP3    H133414   6.210   5.202   1.681
11157TIP3    H233415   6.269   5.153   1.550
11158TIP3   OH233416   4.012   2.845   5.782
11158TIP3    H133417   4.051   2.761   5.807
11158TIP3    H233418   3.927   2.822   5.745
11159TIP3   OH233419   0.625   5.395   3.880
11159TIP3    H133420   0.653   5.436   3.962
11159TIP3    H233421   0.625   5.467   3.816
11160TIP3   OH233422   4.553   5.282   3.576
11160TIP3    H133423   4.492   5.281   3.501
11160TIP3    H233424   4.498   5.303   3.651
11161TIP3   OH233425   7.456   1.787   4.283
11161TIP3    H133426   7.399   1.844   4.334
11161TIP3    H233427   7.396   1.728   4.237
11162TIP3   OH233428   7.498   1.462   4.970
11162TIP3    H133429   7.409   1.426   4.962
11162TIP3    H233430   7.501   1.532   4.905
11163TIP3   OH233431   3.679   6.488   3.080
11163TIP3    H133432   3.737   6.412   3.080
11163TIP3    H233433   3.728   6.557   3.035
11164TIP3   OH233434   1.831   3.433   5.014
11164TIP3    H133435   1.785   3.435   4.929
11164TIP3    H233436   1.781   3.371   5.066
11165TIP3   OH233437   5.010   3.489   4.788
11165TIP3    H133438   4.949   3.554   4.821
11165TIP3    H233439   5.030   3.434   4.864
11166TIP3   OH233440   2.595   6.073   4.853
11166TIP3    H133441   2.566   6.113   4.771
11166TIP3    H233442   2.523   6.014   4.878
11167TIP3   OH233443   7.569   3.725   1.464
11167TIP3    H133444   7.580   3.637   1.428
11167TIP3    H233445   7.651   3.771   1.444
11168TIP3   OH233446   7.848   4.048   3.134
11168TIP3    H133447   7.847   4.095   3.217
11168TIP3    H233448   7.890   4.109   3.073
11169TIP3   OH233449   1.309   0.220   2.998
11169TIP3    H133450   1.394   0.245   2.963
11169TIP3    H233451   1.323   0.134   3.037
11170TIP3   OH233452   1.374   0.487   2.546
11170TIP3    H133453   1.341   0.404   2.578
11170TIP3    H233454   1.318   0.509   2.472
11171TIP3   OH233455   5.697   0.169   5.098
11171TIP3    H133456   5.784   0.131   5.088
11171TIP3    H233457   5.699   0.213   5.183
11172TIP3   OH233458   7.195   2.616   1.241
11172TIP3    H133459   7.152   2.578   1.318
11172TIP3    H233460   7.177   2.710   1.247
11173TIP3   OH233461   2.183   6.246   1.239
11173TIP3    H133462   2.175   6.164   1.286
11173TIP3    H233463   2.187   6.221   1.147
11174TIP3   OH233464   4.082   5.824   3.885
11174TIP3    H133465   4.173   5.844   3.865
11174TIP3    H233466   4.035   5.838   3.803
11175TIP3   OH233467   8.040   7.262   4.125
11175TIP3    H133468   8.108   7.252   4.059
11175TIP3    H233469   7.958   7.261   4.076
11176TIP3   OH233470   1.054   3.608   3.079
11176TIP3    H133471   1.031   3.535   3.136
11176TIP3    H233472   0.972   3.657   3.069
11177TIP3   OH233473   6.636   1.223   3.963
11177TIP3    H133474   6.611   1.169   4.038
11177TIP3    H233475   6.659   1.308   4.001
11178TIP3   OH233476   2.118   5.726   3.751
11178TIP3    H133477   2.096   5.643   3.709
11178TIP3    H233478   2.155   5.780   3.680
11179TIP3   OH233479   4.345   2.488   3.526
11179TIP3    H133480   4.290   2.562   3.551
11179TIP3    H233481   4.307   2.455   3.445
11180TIP3   OH233482   1.243   6.872   0.562
11180TIP3    H133483   1.224   6.861   0.655
11180TIP3    H233484   1.157   6.875   0.520
11181TIP3   OH233485   5.691   1.766   4.122
11181TIP3    H133486   5.641   1.736   4.198
11181TIP3    H233487   5.681   1.696   4.058
11182TIP3   OH233488   4.285   7.482   5.240
11182TIP3    H133489   4.284   7.555   5.179
11182TIP3    H233490   4.332   7.515   5.317
11183TIP3   OH233491   0.868   3.830   3.343
11183TIP3    H133492   0.806   3.762   3.316
11183TIP3    H233493   0.860   3.897   3.274
11184TIP3   OH233494   4.180   4.733   0.733
11184TIP3    H133495   4.121   4.784   0.789
11184TIP3    H233496   4.132   4.723   0.650
11185TIP3   OH233497   2.265   7.153   5.531
11185TIP3    H133498   2.247   7.239   5.568
11185TIP3    H233499   2.355   7.161   5.498
11186TIP3   OH233500   5.410   6.965   0.828
11186TIP3    H133501   5.402   6.900   0.898
11186TIP3    H233502   5.393   6.916   0.748
11187TIP3   OH233503   3.807   3.409   3.556
11187TIP3    H133504   3.746   3.450   3.494
11187TIP3    H233505   3.802   3.465   3.634
11188TIP3   OH233506   5.610   6.864   4.900
11188TIP3    H133507   5.663   6.791   4.868
11188TIP3    H233508   5.657   6.895   4.978
11189TIP3   OH233509   6.258   5.818   4.585
11189TIP3    H133510   6.188   5.883   4.580
11189TIP3    H233511   6.301   5.836   4.669
11190TIP3   OH233512   1.992   6.173   0.701
11190TIP3    H133513   2.075   6.147   0.740
11190TIP3    H233514   1.927   6.118   0.745
11191TIP3   OH233515   1.893   7.484   4.588
11191TIP3    H133516   1.838   7.540   4.641
11191TIP3    H233517   1.832   7.427   4.541
11192TIP3   OH233518   5.592   7.139   0.704
11192TIP3    H133519   5.572   7.138   0.611
11192TIP3    H233520   5.539   7.067   0.740
11193TIP3   OH233521   2.804   6.364   6.293
11193TIP3    H133522   2.727   6.403   6.251
11193TIP3    H233523   2.863   6.343   6.221
11194TIP3   OH233524   3.225   7.572   4.556
11194TIP3    H133525   3.242   7.655   4.601
11194TIP3    H233526   3.207   7.510   4.627
11195TIP3   OH233527   7.786   7.490   1.073
11195TIP3    H133528   7.703   7.538   1.069
11195TIP3    H233529   7.849   7.556   1.101
11196TIP3   OH233530   5.644   2.941   1.656
11196TIP3    H133531   5.616   2.951   1.747
11196TIP3    H233532   5.706   3.013   1.641
11197TIP3   OH233533   5.441   2.364   6.025
11197TIP3    H133534   5.372   2.299   6.018
11197TIP3    H233535   5.426   2.405   6.110
11198TIP3   OH233536   6.437   2.853   5.941
11198TIP3    H133537   6.496   2.850   5.865
11198TIP3    H233538   6.365   2.795   5.917
11199TIP3   OH233539   3.369   4.359   6.157
11199TIP3    H133540   3.390   4.368   6.064
11199TIP3    H233541   3.300   4.293   6.160
11200TIP3   OH233542   6.193   6.004   1.919
11200TIP3    H133543   6.148   5.986   1.837
11200TIP3    H233544   6.138   5.963   1.986
11201TIP3   OH233545   4.336   6.623   4.520
11201TIP3    H133546   4.346   6.712   4.554
11201TIP3    H233547   4.292   6.575   4.590
11202TIP3   OH233548   1.039   0.892   0.933
11202TIP3    H133549   0.969   0.839   0.896
11202TIP3    H233550   0.994   0.956   0.988
11203TIP3   OH233551   7.150   2.280   4.847
11203TIP3    H133552   7.189   2.203   4.807
11203TIP3    H233553   7.204   2.296   4.925
11204TIP3   OH233554   1.636   7.260   0.794
11204TIP3    H133555   1.684   7.340   0.769
11204TIP3    H233556   1.655   7.249   0.887
11205TIP3   OH233557   3.050   2.607   3.488
11205TIP3    H133558   3.071   2.518   3.460
11205TIP3    H233559   3.126   2.634   3.539
11206TIP3   OH233560   4.516   6.296   2.797
11206TIP3    H133561   4.507   6.355   2.722
11206TIP3    H233562   4.496   6.350   2.873
11207TIP3   OH233563   6.166   5.996   3.799
11207TIP3    H133564   6.108   6.071   3.791
11207TIP3    H233565   6.107   5.920   3.804
11208TIP3   OH233566   1.200   6.119   1.003
11208TIP3    H133567   1.274   6.065   0.978
11208TIP3    H233568   1.183   6.096   1.094
11209TIP3   OH233569   2.107   3.280   4.551
11209TIP3    H133570   2.105   3.373   4.527
11209TIP3    H233571   2.070   3.235   4.475
11210TIP3   OH233572   3.760   3.375   0.069
11210TIP3    H133573   3.714   3.363  -0.015
11210TIP3    H233574   3.692   3.361   0.135
11211TIP3   OH233575  -0.022   4.698   4.667
11211TIP3    H133576   0.030   4.703   4.748
11211TIP3    H233577   0.039   4.724   4.598
11212TIP3   OH233578   1.246   6.485   4.773
11212TIP3    H133579   1.318   6.545   4.752
11212TIP3    H233580   1.274   6.441   4.853
11213TIP3   OH233581   3.760   5.308   2.993
11213TIP3    H133582   3.852   5.312   3.021
11213TIP3    H233583   3.750   5.221   2.956
11214TIP3   OH233584   4.301   0.353   6.817
11214TIP3    H133585   4.252   0.290   6.765
11214TIP3    H233586   4.248   0.433   6.813
11215TIP3   OH233587   0.894   2.479   2.711
11215TIP3    H133588   0.865   2.489   2.801
11215TIP3    H233589   0.849   2.401   2.679
11216TIP3   OH233590   6.974   1.687   2.622
11216TIP3    H133591   6.914   1.702   2.695
11216TIP3    H233592   7.038   1.758   2.628
11217TIP3   OH233593   5.730   7.413   0.930
11217TIP3    H133594   5.720   7.339   0.870
11217TIP3    H233595   5.640   7.439   0.951
11218TIP3   OH233596   6.505   6.090   1.101
11218TIP3    H133597   6.461   6.157   1.049
11218TIP3    H233598   6.599   6.109   1.091
11219TIP3   OH233599   0.340   2.455   3.777
11219TIP3    H133600   0.320   2.519   3.845
11219TIP3    H233601   0.424   2.483   3.741
11220TIP3   OH233602   3.695   2.000   2.196
11220TIP3    H133603   3.626   1.944   2.231
11220TIP3    H233604   3.723   2.052   2.272
11221TIP3   OH233605   3.017   6.781   2.866
11221TIP3    H133606   3.071   6.793   2.788
11221TIP3    H233607   3.031   6.690   2.892
11222TIP3   OH233608   1.949   1.005   3.609
11222TIP3    H133609   1.974   1.088   3.569
11222TIP3    H233610   1.907   1.029   3.692
11223TIP3   OH233611   7.954   4.077   0.289
11223TIP3    H133612   7.924   4.142   0.225
11223TIP3    H233613   7.941   4.120   0.373
11224TIP3   OH233614   0.372   7.641   1.663
11224TIP3    H133615   0.411   7.597   1.588
11224TIP3    H233616   0.309   7.702   1.625
11225TIP3   OH233617   1.034   6.566   1.230
11225TIP3    H133618   0.972   6.620   1.279
11225TIP3    H233619   1.118   6.579   1.275
11226TIP3   OH233620   0.088   4.419   2.931
11226TIP3    H133621   0.087   4.328   2.959
11226TIP3    H233622   0.025   4.422   2.858
11227TIP3   OH233623   6.602   5.035   5.588
11227TIP3    H133624   6.692   5.047   5.619
11227TIP3    H233625   6.561   5.121   5.599
11228TIP3   OH233626   3.108   3.283   1.708
11228TIP3    H133627   3.131   3.302   1.799
11228TIP3    H233628   3.192   3.274   1.663
11229TIP3   OH233629   5.252   1.473   0.568
11229TIP3    H133630   5.308   1.395   0.563
11229TIP3    H233631   5.311   1.546   0.553
11230TIP3   OH233632   3.110   6.873   2.346
11230TIP3    H133633   3.155   6.914   2.420
11230TIP3    H233634   3.081   6.946   2.291
11231TIP3   OH233635   2.664   3.427   1.132
11231TIP3    H133636   2.642   3.419   1.225
11231TIP3    H233637   2.627   3.349   1.092
11232TIP3   OH233638   5.363   2.907   4.443
11232TIP3    H133639   5.367   2.813   4.463
11232TIP3    H233640   5.280   2.935   4.480
11233TIP3   OH233641   1.406   5.480   1.937
11233TIP3    H133642   1.347   5.439   1.874
11233TIP3    H233643   1.438   5.558   1.893
11234TIP3   OH233644   6.909   6.855   5.374
11234TIP3    H133645   6.895   6.945   5.404
11234TIP3    H233646   7.005   6.846   5.368
11235TIP3   OH233647   1.601   3.413   5.455
11235TIP3    H133648   1.508   3.405   5.478
11235TIP3    H233649   1.640   3.330   5.485
11236TIP3   OH233650   7.375   6.056   3.034
11236TIP3    H133651   7.349   5.991   3.099
11236TIP3    H233652   7.460   6.026   3.004
11237TIP3   OH233653   1.667   3.766   5.009
11237TIP3    H133654   1.601   3.783   5.077
11237TIP3    H233655   1.655   3.675   4.985
11238TIP3   OH233656   7.907   2.935   4.809
11238TIP3    H133657   7.909   2.850   4.853
11238TIP3    H233658   7.840   2.984   4.856
11239TIP3   OH233659   0.058   4.707   0.797
11239TIP3    H133660   0.063   4.619   0.760
11239TIP3    H233661   0.119   4.758   0.744
11240TIP3   OH233662   0.346   4.362   5.434
11240TIP3    H133663   0.281   4.391   5.370
11240TIP3    H233664   0.295   4.330   5.508
11241TIP3   OH233665   6.261   5.140   1.329
11241TIP3    H133666   6.290   5.108   1.244
11241TIP3    H233667   6.257   5.235   1.318
11242TIP3   OH233668   0.960   4.965   0.434
11242TIP3    H133669   0.913   4.971   0.517
11242TIP3    H233670   0.997   5.052   0.420
11243TIP3   OH233671   3.572   7.592   3.363
11243TIP3    H133672   3.482   7.616   3.382
11243TIP3    H233673   3.610   7.571   3.448
11244TIP3   OH233674   1.777   4.439   1.892
11244TIP3    H133675   1.836   4.510   1.918
11244TIP3    H233676   1.777   4.379   1.966
11245TIP3   OH233677   0.117   3.704   0.874
11245TIP3    H133678   0.075   3.662   0.950
11245TIP3    H233679   0.045   3.724   0.815
11246TIP3   OH233680   6.029   5.898   4.834
11246TIP3    H133681   6.002   5.835   4.767
11246TIP3    H233682   6.070   5.969   4.785
11247TIP3   OH233683   0.808   3.279   4.901
11247TIP3    H133684   0.803   3.196   4.948
11247TIP3    H233685   0.736   3.331   4.936
11248TIP3   OH233686   1.877   2.571   1.287
11248TIP3    H133687   1.892   2.624   1.365
11248TIP3    H233688   1.963   2.538   1.263
11249TIP3   OH233689   7.836   2.408   0.874
11249TIP3    H133690   7.824   2.481   0.814
11249TIP3    H233691   7.857   2.333   0.818
11250TIP3   OH233692   1.399   6.031   2.450
11250TIP3    H133693   1.412   6.064   2.539
11250TIP3    H233694   1.397   6.110   2.396
11251TIP3   OH233695   2.914   1.627   3.423
11251TIP3    H133696   2.938   1.687   3.354
11251TIP3    H233697   2.989   1.567   3.430
11252TIP3   OH233698   6.855   6.565   2.058
11252TIP3    H133699   6.811   6.639   2.101
11252TIP3    H233700   6.789   6.527   2.001
11253TIP3   OH233701   6.172   2.299   2.957
11253TIP3    H133702   6.150   2.226   2.899
11253TIP3    H233703   6.095   2.356   2.955
11254TIP3   OH233704   3.185   2.393   3.375
11254TIP3    H133705   3.215   2.450   3.304
11254TIP3    H233706   3.255   2.398   3.440
11255TIP3   OH233707   2.991   0.723   2.322
11255TIP3    H133708   3.011   0.629   2.324
11255TIP3    H233709   2.945   0.735   2.238
11256TIP3   OH233710   0.210   2.875   5.917
11256TIP3    H133711   0.285   2.913   5.871
11256TIP3    H233712   0.228   2.781   5.918
11257TIP3   OH233713   5.902   6.496   3.709
11257TIP3    H133714   5.864   6.562   3.767
11257TIP3    H233715   5.993   6.523   3.698
11258TIP3   OH233716   2.212   1.122   6.020
11258TIP3    H133717   2.261   1.079   5.950
11258TIP3    H233718   2.250   1.088   6.101
11259TIP3   OH233719   4.629   0.387   5.701
11259TIP3    H133720   4.568   0.365   5.630
11259TIP3    H233721   4.576   0.378   5.781
11260TIP3   OH233722   3.286   3.011   4.409
11260TIP3    H133723   3.303   2.942   4.474
11260TIP3    H233724   3.350   3.079   4.429
11261TIP3   OH233725   7.915   3.220   1.052
11261TIP3    H133726   7.825   3.251   1.036
11261TIP3    H233727   7.903   3.142   1.106
11262TIP3   OH233728   6.452   7.345   3.539
11262TIP3    H133729   6.436   7.283   3.610
11262TIP3    H233730   6.403   7.310   3.465
11263TIP3   OH233731   3.768   6.896   5.977
11263TIP3    H133732   3.776   6.826   6.042
11263TIP3    H233733   3.833   6.961   6.003
11264TIP3   OH233734   7.726   0.625   2.445
11264TIP3    H133735   7.733   0.532   2.424
11264TIP3    H233736   7.635   0.647   2.423
11265TIP3   OH233737   6.189   0.155   4.089
11265TIP3    H133738   6.247   0.229   4.107
11265TIP3    H233739   6.171   0.117   4.176
11266TIP3   OH233740   1.597   0.112   1.541
11266TIP3    H133741   1.592   0.065   1.458
11266TIP3    H233742   1.515   0.091   1.585
11267TIP3   OH233743   1.651   2.981   4.439
11267TIP3    H133744   1.686   2.893   4.425
11267TIP3    H233745   1.631   3.013   4.352
11268TIP3   OH233746   5.152   4.102   0.524
11268TIP3    H133747   5.070   4.070   0.486
11268TIP3    H233748   5.125   4.166   0.590
11269TIP3   OH233749   0.097   3.949   0.987
11269TIP3    H133750   0.184   3.986   1.001
11269TIP3    H233751   0.113   3.856   0.972
11270TIP3   OH233752   2.980   5.795   0.645
11270TIP3    H133753   2.954   5.747   0.724
11270TIP3    H233754   3.066   5.760   0.623
11271TIP3   OH233755   2.237   1.527   0.220
11271TIP3    H133756   2.257   1.437   0.197
11271TIP3    H233757   2.310   1.555   0.275
11272TIP3   OH233758   6.539   3.324   6.243
11272TIP3    H133759   6.558   3.394   6.305
11272TIP3    H233760   6.625   3.293   6.215
11273TIP3   OH233761   2.400   6.381   4.685
11273TIP3    H133762   2.475   6.417   4.637
11273TIP3    H233763   2.379   6.448   4.750
11274TIP3   OH233764   3.448   4.064   3.985
11274TIP3    H133765   3.362   4.058   3.944
11274TIP3    H233766   3.456   4.155   4.012
11275TIP3   OH233767   0.932   5.246   6.387
11275TIP3    H133768   0.853   5.196   6.367
11275TIP3    H233769   0.921   5.328   6.338
11276TIP3   OH233770   1.845   2.254   0.345
11276TIP3    H133771   1.818   2.332   0.297
11276TIP3    H233772   1.855   2.284   0.435
11277TIP3   OH233773   7.979   2.061   1.324
11277TIP3    H133774   7.890   2.025   1.326
11277TIP3    H233775   7.970   2.145   1.279
11278TIP3   OH233776   6.866   1.440   2.307
11278TIP3    H133777   6.945   1.493   2.313
11278TIP3    H233778   6.895   1.350   2.324
11279TIP3   OH233779   6.725   6.389   6.564
11279TIP3    H133780   6.639   6.430   6.561
11279TIP3    H233781   6.725   6.337   6.644
11280TIP3   OH233782   2.883   1.405   2.938
11280TIP3    H133783   2.957   1.374   2.991
11280TIP3    H233784   2.820   1.334   2.941
11281TIP3   OH233785   4.805   6.554   0.372
11281TIP3    H133786   4.850   6.479   0.411
11281TIP3    H233787   4.818   6.625   0.434
11282TIP3   OH233788   7.648   0.204   1.455
11282TIP3    H133789   7.606   0.119   1.442
11282TIP3    H233790   7.644   0.219   1.549
11283TIP3   OH233791   0.593   7.682   5.416
11283TIP3    H133792   0.560   7.698   5.327
11283TIP3    H233793   0.607   7.770   5.452
11284TIP3   OH233794   6.205   2.889   1.731
11284TIP3    H133795   6.296   2.891   1.701
11284TIP3    H233796   6.153   2.887   1.651
11285TIP3   OH233797   1.796   1.029   2.872
11285TIP3    H133798   1.701   1.019   2.882
11285TIP3    H233799   1.810   1.124   2.877
11286TIP3   OH233800   2.081   4.859   1.959
11286TIP3    H133801   2.098   4.878   1.867
11286TIP3    H233802   2.052   4.942   1.997
11287TIP3   OH233803   3.810   2.252   5.035
11287TIP3    H133804   3.724   2.213   5.056
11287TIP3    H233805   3.792   2.345   5.024
11288TIP3   OH233806   6.740   7.831   5.374
11288TIP3    H133807   6.666   7.776   5.401
11288TIP3    H233808   6.804   7.820   5.444
11289TIP3   OH233809   1.834   0.556   3.754
11289TIP3    H133810   1.831   0.510   3.670
11289TIP3    H233811   1.797   0.642   3.735
11290TIP3   OH233812   3.682   0.947   2.098
11290TIP3    H133813   3.689   0.997   2.179
11290TIP3    H233814   3.644   1.009   2.035
11291TIP3   OH233815   0.515   5.358   1.433
11291TIP3    H133816   0.514   5.344   1.527
11291TIP3    H233817   0.463   5.286   1.397
11292TIP3   OH233818   7.787   1.594   6.643
11292TIP3    H133819   7.695   1.601   6.670
11292TIP3    H233820   7.798   1.663   6.578
11293TIP3   OH233821   6.908   1.103  -0.038
11293TIP3    H133822   6.861   1.022  -0.057
11293TIP3    H233823   6.944   1.130  -0.123
11294TIP3   OH233824   3.002   7.018   1.659
11294TIP3    H133825   3.056   6.950   1.698
11294TIP3    H233826   2.957   7.059   1.733
11295TIP3   OH233827   2.346   0.524   1.103
11295TIP3    H133828   2.338   0.577   1.024
11295TIP3    H233829   2.332   0.586   1.175
11296TIP3   OH233830   2.183   5.056   2.339
11296TIP3    H133831   2.243   5.104   2.396
11296TIP3    H233832   2.129   5.004   2.399
11297TIP3   OH233833   5.726   4.322   3.764
11297TIP3    H133834   5.672   4.266   3.707
11297TIP3    H233835   5.664   4.361   3.825
11298TIP3   OH233836   1.833   3.042   3.172
11298TIP3    H133837   1.818   2.948   3.160
11298TIP3    H233838   1.821   3.056   3.266
11299TIP3   OH233839   8.116   1.980   4.031
11299TIP3    H133840   8.186   1.936   3.982
11299TIP3    H233841   8.085   2.049   3.973
11300TIP3   OH233842   4.941   7.786   2.435
11300TIP3    H133843   4.911   7.871   2.467
11300TIP3    H233844   4.946   7.795   2.340
11301TIP3   OH233845   7.141   7.147   6.672
11301TIP3    H133846   7.082   7.209   6.715
11301TIP3    H233847   7.220   7.149   6.726
11302TIP3   OH233848   4.791   0.591   5.156
11302TIP3    H133849   4.800   0.659   5.223
11302TIP3    H233850   4.702   0.602   5.122
11303TIP3   OH233851   8.121   2.704   4.794
11303TIP3    H133852   8.088   2.734   4.709
11303TIP3    H233853   8.216   2.713   4.786
11304TIP3   OH233854   6.064   3.493   2.186
11304TIP3    H133855   5.974   3.492   2.154
11304TIP3    H233856   6.115   3.452   2.116
11305TIP3   OH233857   8.207   1.016   1.361
11305TIP3    H133858   8.274   0.994   1.425
11305TIP3    H233859   8.220   1.110   1.344
11306TIP3   OH233860   3.641   6.682   3.803
11306TIP3    H133861   3.684   6.761   3.770
11306TIP3    H233862   3.674   6.671   3.892
11307TIP3   OH233863   7.869   5.785   0.926
11307TIP3    H133864   7.844   5.877   0.940
11307TIP3    H233865   7.910   5.759   1.009
11308TIP3   OH233866   1.932   5.512   0.448
11308TIP3    H133867   2.014   5.559   0.434
11308TIP3    H233868   1.894   5.553   0.526
11309TIP3   OH233869   0.286   1.459   4.626
11309TIP3    H133870   0.368   1.473   4.579
11309TIP3    H233871   0.230   1.532   4.599
11310TIP3   OH233872   4.261   3.005   4.070
11310TIP3    H133873   4.309   2.983   3.990
11310TIP3    H233874   4.328   3.043   4.128
11311TIP3   OH233875   4.873   1.058   5.582
11311TIP3    H133876   4.870   1.124   5.513
11311TIP3    H233877   4.783   1.051   5.613
11312TIP3   OH233878   6.577   2.337   1.998
11312TIP3    H133879   6.600   2.316   2.089
11312TIP3    H233880   6.652   2.307   1.947
11313TIP3   OH233881   6.444   4.575   3.723
11313TIP3    H133882   6.483   4.662   3.738
11313TIP3    H233883   6.514   4.524   3.681
11314TIP3   OH233884   3.038   7.148   5.554
11314TIP3    H133885   3.086   7.077   5.596
11314TIP3    H233886   2.988   7.189   5.625
11315TIP3   OH233887   6.690   3.472   4.872
11315TIP3    H133888   6.721   3.413   4.939
11315TIP3    H233889   6.603   3.439   4.849
11316TIP3   OH233890   8.228   3.628   2.913
11316TIP3    H133891   8.282   3.549   2.918
11316TIP3    H233892   8.258   3.673   2.834
11317TIP3   OH233893   2.920   4.568   0.052
11317TIP3    H133894   2.844   4.626   0.052
11317TIP3    H233895   2.958   4.579   0.139
11318TIP3   OH233896   1.127   5.887   1.483
11318TIP3    H133897   1.096   5.818   1.426
11318TIP3    H233898   1.119   5.851   1.572
11319TIP3   OH233899   0.435   4.525   2.123
11319TIP3    H133900   0.391   4.452   2.079
11319TIP3    H233901   0.506   4.549   2.063
11320TIP3   OH233902   0.542   3.960   5.771
11320TIP3    H133903   0.473   3.939   5.834
11320TIP3    H233904   0.614   3.992   5.824
11321TIP3   OH233905   3.194   6.412   0.742
11321TIP3    H133906   3.283   6.430   0.712
11321TIP3    H233907   3.149   6.375   0.667
11322TIP3   OH233908   2.045   7.792   4.027
11322TIP3    H133909   1.985   7.762   4.095
11322TIP3    H233910   2.131   7.794   4.070
11323TIP3   OH233911   3.094   2.543   6.459
11323TIP3    H133912   3.166   2.602   6.437
11323TIP3    H233913   3.115   2.461   6.414
11324TIP3   OH233914   6.895   3.313   6.048
11324TIP3    H133915   6.874   3.271   5.965
11324TIP3    H233916   6.935   3.396   6.024
11325TIP3   OH233917   4.564   5.462   4.470
11325TIP3    H133918   4.639   5.421   4.427
11325TIP3    H233919   4.581   5.556   4.465
11326TIP3   OH233920   7.610   4.033   3.666
11326TIP3    H133921   7.638   3.957   3.614
11326TIP3    H233922   7.667   4.031   3.743
11327TIP3   OH233923   3.527   1.590   3.227
11327TIP3    H133924   3.589   1.633   3.285
11327TIP3    H233925   3.451   1.647   3.226
11328TIP3   OH233926   0.588   1.686   3.507
11328TIP3    H133927   0.679   1.683   3.537
11328TIP3    H233928   0.560   1.776   3.525
11329TIP3   OH233929   7.656   3.692   6.465
11329TIP3    H133930   7.621   3.625   6.406
11329TIP3    H233931   7.632   3.775   6.423
11330TIP3   OH233932   3.188   0.418   6.152
11330TIP3    H133933   3.143   0.440   6.071
11330TIP3    H233934   3.211   0.326   6.143
11331TIP3   OH233935   4.594   1.453   1.650
11331TIP3    H133936   4.532   1.501   1.704
11331TIP3    H233937   4.549   1.440   1.567
11332TIP3   OH233938   0.130   6.464   4.662
11332TIP3    H133939   0.055   6.404   4.664
11332TIP3    H233940   0.122   6.515   4.743
11333TIP3   OH233941   5.806   2.500   5.144
11333TIP3    H133942   5.895   2.528   5.119
11333TIP3    H233943   5.776   2.568   5.204
11334TIP3   OH233944   5.192   4.561   3.335
11334TIP3    H133945   5.207   4.499   3.407
11334TIP3    H233946   5.116   4.612   3.362
11335TIP3   OH233947   4.639   0.830   0.735
11335TIP3    H133948   4.553   0.839   0.775
11335TIP3    H233949   4.691   0.783   0.801
11336TIP3   OH233950   6.840   7.248   4.480
11336TIP3    H133951   6.780   7.280   4.412
11336TIP3    H233952   6.836   7.314   4.548
11337TIP3   OH233953   4.641   6.217   1.936
11337TIP3    H133954   4.574   6.254   1.994
11337TIP3    H233955   4.697   6.291   1.914
11338TIP3   OH233956   5.588   6.876   4.146
11338TIP3    H133957   5.606   6.793   4.190
11338TIP3    H233958   5.672   6.901   4.107
11339TIP3   OH233959   4.880   6.843   4.100
11339TIP3    H133960   4.971   6.869   4.094
11339TIP3    H233961   4.830   6.925   4.096
11340TIP3   OH233962   1.455   6.142   0.360
11340TIP3    H133963   1.518   6.208   0.331
11340TIP3    H233964   1.374   6.191   0.374
11341TIP3   OH233965   0.952   0.732   4.415
11341TIP3    H133966   0.900   0.676   4.472
11341TIP3    H233967   0.981   0.675   4.344
11342TIP3   OH233968   5.083   5.004   5.877
11342TIP3    H133969   5.130   5.063   5.935
11342TIP3    H233970   5.012   4.969   5.931
11343TIP3   OH233971   6.730   3.741   6.136
11343TIP3    H133972   6.808   3.774   6.182
11343TIP3    H233973   6.764   3.695   6.059
11344TIP3   OH233974   7.316   2.971   2.098
11344TIP3    H133975   7.238   2.972   2.154
11344TIP3    H233976   7.388   2.998   2.156
11345TIP3   OH233977   7.258   3.062   3.833
11345TIP3    H133978   7.302   3.077   3.749
11345TIP3    H233979   7.313   3.108   3.897
11346TIP3   OH233980   4.282   2.460   4.716
11346TIP3    H133981   4.345   2.398   4.680
11346TIP3    H233982   4.335   2.525   4.761
11347TIP3   OH233983   0.380   2.027   1.968
11347TIP3    H133984   0.335   2.112   1.971
11347TIP3    H233985   0.309   1.964   1.955
11348TIP3   OH233986   7.692   6.815   0.970
11348TIP3    H133987   7.687   6.893   0.915
11348TIP3    H233988   7.775   6.825   1.018
11349TIP3   OH233989   4.178   6.237   0.669
11349TIP3    H133990   4.155   6.176   0.598
11349TIP3    H233991   4.273   6.234   0.673
11350TIP3   OH233992   6.395   3.638   5.746
11350TIP3    H133993   6.402   3.710   5.808
11350TIP3    H233994   6.452   3.570   5.782
11351TIP3   OH233995   4.532   0.623   3.142
11351TIP3    H133996   4.547   0.640   3.049
11351TIP3    H233997   4.444   0.655   3.158
11352TIP3   OH233998   2.685   4.955   5.510
11352TIP3    H133999   2.597   4.925   5.486
11352TIP3    H234000   2.673   4.997   5.595
11353TIP3   OH234001   4.206   4.708   1.336
11353TIP3    H134002   4.217   4.616   1.359
11353TIP3    H234003   4.139   4.740   1.395
11354TIP3   OH234004   2.786   1.451   1.950
11354TIP3    H134005   2.803   1.370   1.999
11354TIP3    H234006   2.692   1.463   1.956
11355TIP3   OH234007   1.858   3.090   4.136
11355TIP3    H134008   1.805   3.157   4.177
11355TIP3    H234009   1.804   3.056   4.065
11356TIP3   OH234010   0.374   2.672   3.556
11356TIP3    H134011   0.383   2.717   3.640
11356TIP3    H234012   0.280   2.661   3.544
11357TIP3   OH234013   0.320   4.464   4.350
11357TIP3    H134014   0.318   4.471   4.446
11357TIP3    H234015   0.321   4.370   4.333
11358TIP3   OH234016   1.029   3.947   0.978
11358TIP3    H134017   1.066   3.979   0.895
11358TIP3    H234018   1.096   3.888   1.012
11359TIP3   OH234019   6.819   0.747   3.162
11359TIP3    H134020   6.877   0.817   3.195
11359TIP3    H234021   6.845   0.735   3.071
11360TIP3   OH234022   7.599   0.169   2.625
11360TIP3    H134023   7.511   0.161   2.588
11360TIP3    H234024   7.588   0.221   2.704
11361TIP3   OH234025   2.824   7.119   1.471
11361TIP3    H134026   2.840   7.189   1.533
11361TIP3    H234027   2.904   7.067   1.471
11362TIP3   OH234028   1.906   1.209   4.125
11362TIP3    H134029   1.818   1.173   4.113
11362TIP3    H234030   1.946   1.155   4.192
11363TIP3   OH234031   8.001   3.889   2.800
11363TIP3    H134032   8.076   3.934   2.764
11363TIP3    H234033   7.933   3.956   2.807
11364TIP3   OH234034   5.467   2.857   3.103
11364TIP3    H134035   5.372   2.851   3.115
11364TIP3    H234036   5.495   2.767   3.086
11365TIP3   OH234037   5.608   0.070   2.549
11365TIP3    H134038   5.666   0.078   2.625
11365TIP3    H234039   5.562   0.154   2.544
11366TIP3   OH234040   2.335   5.734   1.387
11366TIP3    H134041   2.267   5.702   1.447
11366TIP3    H234042   2.414   5.690   1.417
11367TIP3   OH234043   1.793   0.785   2.480
11367TIP3    H134044   1.699   0.781   2.460
11367TIP3    H234045   1.827   0.702   2.450
11368TIP3   OH234046   7.299   1.271   4.160
11368TIP3    H134047   7.291   1.332   4.233
11368TIP3    H234048   7.255   1.191   4.189
11369TIP3   OH234049   0.342   3.639   4.592
11369TIP3    H134050   0.273   3.637   4.524
11369TIP3    H234051   0.398   3.711   4.565
11370TIP3   OH234052   8.033   0.664   2.027
11370TIP3    H134053   8.113   0.712   2.007
11370TIP3    H234054   8.001   0.635   1.941
11371TIP3   OH234055   1.537   3.805   2.749
11371TIP3    H134056   1.613   3.839   2.797
11371TIP3    H234057   1.514   3.724   2.795
11372TIP3   OH234058   5.096   6.540   2.398
11372TIP3    H134059   5.135   6.459   2.430
11372TIP3    H234060   5.168   6.603   2.398
11373TIP3   OH234061   0.444   2.471   4.365
11373TIP3    H134062   0.511   2.405   4.382
11373TIP3    H234063   0.477   2.519   4.289
11374TIP3   OH234064   4.219   5.799   4.381
11374TIP3    H134065   4.248   5.876   4.333
11374TIP3    H234066   4.285   5.787   4.450
11375TIP3   OH234067   5.099   3.946   5.273
11375TIP3    H134068   5.191   3.940   5.248
11375TIP3    H234069   5.050   3.922   5.194
11376TIP3   OH234070   6.316   3.855   6.820
11376TIP3    H134071   6.378   3.910   6.867
11376TIP3    H234072   6.366   3.818   6.748
11377TIP3   OH234073   4.826   0.996   3.317
11377TIP3    H134074   4.918   1.012   3.293
11377TIP3    H234075   4.826   0.992   3.412
11378TIP3   OH234076   7.118   1.641   1.969
11378TIP3    H134077   7.159   1.654   1.884
11378TIP3    H234078   7.069   1.560   1.961
11379TIP3   OH234079   0.583   7.506   0.132
11379TIP3    H134080   0.603   7.486   0.041
11379TIP3    H234081   0.668   7.523   0.173
11380TIP3   OH234082   4.190   4.912   1.160
11380TIP3    H134083   4.191   4.850   1.232
11380TIP3    H234084   4.098   4.940   1.153
11381TIP3   OH234085   6.433   3.960   2.767
11381TIP3    H134086   6.524   3.938   2.746
11381TIP3    H234087   6.434   4.054   2.784
11382TIP3   OH234088   5.929   5.310   4.381
11382TIP3    H134089   5.847   5.315   4.332
11382TIP3    H234090   5.964   5.400   4.379
11383TIP3   OH234091   6.770   5.693   5.746
11383TIP3    H134092   6.682   5.730   5.755
11383TIP3    H234093   6.828   5.769   5.743
11384TIP3   OH234094   1.184   3.677   3.972
11384TIP3    H134095   1.162   3.649   3.883
11384TIP3    H234096   1.131   3.620   4.028
11385TIP3   OH234097   6.231   3.769   0.232
11385TIP3    H134098   6.229   3.739   0.142
11385TIP3    H234099   6.318   3.746   0.264
11386TIP3   OH234100   6.583   0.802   0.409
11386TIP3    H134101   6.613   0.721   0.368
11386TIP3    H234102   6.651   0.866   0.389
11387TIP3   OH234103   1.315   1.591   3.737
11387TIP3    H134104   1.408   1.565   3.739
11387TIP3    H234105   1.297   1.623   3.825
11388TIP3   OH234106   3.836   0.523   2.906
11388TIP3    H134107   3.920   0.568   2.919
11388TIP3    H234108   3.823   0.473   2.987
11389TIP3   OH234109   1.760   6.580   3.030
11389TIP3    H134110   1.680   6.613   3.072
11389TIP3    H234111   1.740   6.489   3.010
11390TIP3   OH234112   7.976   4.464   4.991
11390TIP3    H134113   8.051   4.411   4.965
11390TIP3    H234114   8.013   4.532   5.048
11391TIP3   OH234115   4.106   1.449   3.953
11391TIP3    H134116   4.189   1.492   3.935
11391TIP3    H234117   4.116   1.414   4.042
11392TIP3   OH234118   7.525   4.234   2.129
11392TIP3    H134119   7.553   4.256   2.218
11392TIP3    H234120   7.461   4.302   2.106
11393TIP3   OH234121   0.784   6.257   5.222
11393TIP3    H134122   0.728   6.246   5.299
11393TIP3    H234123   0.871   6.277   5.258
11394TIP3   OH234124   3.127   5.392   3.730
11394TIP3    H134125   3.209   5.369   3.686
11394TIP3    H234126   3.087   5.307   3.751
11395TIP3   OH234127   1.682   7.631   3.273
11395TIP3    H134128   1.711   7.722   3.264
11395TIP3    H234129   1.590   7.632   3.248
11396TIP3   OH234130   0.648   7.098   2.207
11396TIP3    H134131   0.557   7.126   2.220
11396TIP3    H234132   0.695   7.134   2.282
11397TIP3   OH234133   7.799   2.278   1.538
11397TIP3    H134134   7.738   2.251   1.469
11397TIP3    H234135   7.881   2.234   1.515
11398TIP3   OH234136   7.143   4.050   3.738
11398TIP3    H134137   7.211   4.083   3.679
11398TIP3    H234138   7.159   4.095   3.821
11399TIP3   OH234139   3.916   3.548   2.886
11399TIP3    H134140   3.949   3.624   2.838
11399TIP3    H234141   3.979   3.478   2.868
11400TIP3   OH234142   2.391   4.995   3.779
11400TIP3    H134143   2.309   5.040   3.757
11400TIP3    H234144   2.458   5.063   3.772
11401TIP3   OH234145   0.663   2.660   6.619
11401TIP3    H134146   0.673   2.618   6.704
11401TIP3    H234147   0.752   2.671   6.587
11402TIP3   OH234148   0.331   3.808   2.182
11402TIP3    H134149   0.358   3.736   2.125
11402TIP3    H234150   0.374   3.788   2.266
11403TIP3   OH234151   1.325   3.495   0.453
11403TIP3    H134152   1.237   3.504   0.417
11403TIP3    H234153   1.334   3.570   0.512
11404TIP3   OH234154   3.550   6.462   3.701
11404TIP3    H134155   3.521   6.425   3.784
11404TIP3    H234156   3.579   6.551   3.723
11405TIP3   OH234157   7.447   7.732   3.618
11405TIP3    H134158   7.536   7.760   3.599
11405TIP3    H234159   7.456   7.670   3.690
11406TIP3   OH234160   7.060   5.276   2.452
11406TIP3    H134161   7.026   5.269   2.363
11406TIP3    H234162   6.983   5.296   2.506
11407TIP3   OH234163   1.392   5.389   6.648
11407TIP3    H134164   1.331   5.331   6.692
11407TIP3    H234165   1.372   5.379   6.555
11408TIP3   OH234166   1.549   4.060   5.581
11408TIP3    H134167   1.573   4.113   5.505
11408TIP3    H234168   1.557   3.969   5.550
11409TIP3   OH234169   0.193   0.895   3.346
11409TIP3    H134170   0.243   0.847   3.413
11409TIP3    H234171   0.117   0.839   3.329
11410TIP3   OH234172   5.201   6.609   4.163
11410TIP3    H134173   5.124   6.612   4.107
11410TIP3    H234174   5.191   6.683   4.222
11411TIP3   OH234175   6.895   3.970   0.202
11411TIP3    H134176   6.990   3.971   0.191
11411TIP3    H234177   6.876   3.882   0.234
11412TIP3   OH234178   4.149   3.673   1.059
11412TIP3    H134179   4.176   3.611   1.127
11412TIP3    H234180   4.139   3.756   1.106
11413TIP3   OH234181   4.191   1.563   2.026
11413TIP3    H134182   4.118   1.618   2.056
11413TIP3    H234183   4.170   1.475   2.059
11414TIP3   OH234184   1.853   5.370   4.662
11414TIP3    H134185   1.882   5.459   4.642
11414TIP3    H234186   1.776   5.357   4.606
11415TIP3   OH234187   7.427   7.737   0.702
11415TIP3    H134188   7.456   7.804   0.763
11415TIP3    H234189   7.333   7.754   0.691
11416TIP3   OH234190   1.994  -0.006   6.512
11416TIP3    H134191   1.994  -0.098   6.535
11416TIP3    H234192   1.905   0.013   6.484
11417TIP3   OH234193   1.894   7.035   1.148
11417TIP3    H134194   1.891   7.030   1.052
11417TIP3    H234195   1.913   6.946   1.177
11418TIP3   OH234196  -0.112   1.431   2.536
11418TIP3    H134197  -0.053   1.358   2.556
11418TIP3    H234198  -0.054   1.504   2.516
11419TIP3   OH234199   6.850   0.054   1.531
11419TIP3    H134200   6.853   0.148   1.515
11419TIP3    H234201   6.929   0.036   1.581
11420TIP3   OH234202   6.155   3.233   6.458
11420TIP3    H134203   6.212   3.237   6.381
11420TIP3    H234204   6.153   3.140   6.481
11421TIP3   OH234205   5.248   0.548   5.766
11421TIP3    H134206   5.188   0.502   5.707
11421TIP3    H234207   5.260   0.633   5.725
11422TIP3   OH234208   7.932   2.523   3.221
11422TIP3    H134209   7.855   2.530   3.278
11422TIP3    H234210   7.992   2.590   3.253
11423TIP3   OH234211   4.431   5.545   0.650
11423TIP3    H134212   4.453   5.451   0.645
11423TIP3    H234213   4.450   5.569   0.740
11424TIP3   OH234214   1.433   0.243   5.590
11424TIP3    H134215   1.477   0.272   5.670
11424TIP3    H234216   1.485   0.281   5.519
11425TIP3   OH234217   1.130   1.031   0.128
11425TIP3    H134218   1.110   1.107   0.183
11425TIP3    H234219   1.085   1.048   0.046
11426TIP3   OH234220   7.232   3.722   1.163
11426TIP3    H134221   7.193   3.685   1.242
11426TIP3    H234222   7.224   3.817   1.174
11427TIP3   OH234223   5.428   7.412   2.808
11427TIP3    H134224   5.375   7.370   2.740
11427TIP3    H234225   5.415   7.505   2.794
11428TIP3   OH234226  -0.013   2.705   2.785
11428TIP3    H134227   0.010   2.767   2.855
11428TIP3    H234228   0.061   2.646   2.780
11429TIP3   OH234229   5.890   6.510   4.206
11429TIP3    H134230   5.795   6.524   4.202
11429TIP3    H234231   5.905   6.430   4.155
11430TIP3   OH234232   4.953   6.666   4.494
11430TIP3    H134233   5.025   6.719   4.527
11430TIP3    H234234   4.876   6.721   4.503
11431TIP3   OH234235   0.547   5.105   5.121
11431TIP3    H134236   0.540   5.192   5.081
11431TIP3    H234237   0.640   5.082   5.112
11432TIP3   OH234238   4.144   3.135   5.053
11432TIP3    H134239   4.200   3.059   5.043
11432TIP3    H234240   4.195   3.208   5.017
11433TIP3   OH234241   3.356   6.030   2.298
11433TIP3    H134242   3.267   6.041   2.264
11433TIP3    H234243   3.350   6.056   2.390
11434TIP3   OH234244   4.718   4.366   0.787
11434TIP3    H134245   4.647   4.389   0.727
11434TIP3    H234246   4.677   4.306   0.850
11435TIP3   OH234247   1.039   0.746   0.135
11435TIP3    H134248   1.042   0.832   0.093
11435TIP3    H234249   1.050   0.764   0.228
11436TIP3   OH234250   5.814   3.397   2.757
11436TIP3    H134251   5.830   3.429   2.668
11436TIP3    H234252   5.876   3.446   2.812
11437TIP3   OH234253   2.462   4.683   0.219
11437TIP3    H134254   2.442   4.775   0.235
11437TIP3    H234255   2.380   4.644   0.190
11438TIP3   OH234256   4.264   3.308   2.321
11438TIP3    H134257   4.331   3.377   2.315
11438TIP3    H234258   4.280   3.253   2.245
11439TIP3   OH234259   6.162   5.657   1.846
11439TIP3    H134260   6.202   5.703   1.919
11439TIP3    H234261   6.223   5.585   1.827
11440TIP3   OH234262   6.182   7.745   2.967
11440TIP3    H134263   6.165   7.769   3.058
11440TIP3    H234264   6.173   7.828   2.919
11441TIP3   OH234265   4.109   2.062   0.653
11441TIP3    H134266   4.085   2.137   0.599
11441TIP3    H234267   4.185   2.023   0.608
11442TIP3   OH234268   4.636   5.375   2.534
11442TIP3    H134269   4.571   5.305   2.544
11442TIP3    H234270   4.609   5.421   2.455
11443TIP3   OH234271   1.470   2.898   5.787
11443TIP3    H134272   1.496   2.989   5.801
11443TIP3    H234273   1.502   2.877   5.699
11444TIP3   OH234274   1.024   0.132   6.001
11444TIP3    H134275   0.973   0.125   5.920
11444TIP3    H234276   1.113   0.147   5.971
11445TIP3   OH234277   5.945   1.747   5.126
11445TIP3    H134278   6.016   1.803   5.092
11445TIP3    H234279   5.977   1.658   5.114
11446TIP3   OH234280   2.024   4.783   4.735
11446TIP3    H134281   1.971   4.835   4.796
11446TIP3    H234282   2.016   4.828   4.651
11447TIP3   OH234283   3.372   1.849   1.830
11447TIP3    H134284   3.433   1.776   1.844
11447TIP3    H234285   3.313   1.846   1.905
11448TIP3   OH234286   1.224   2.478   4.181
11448TIP3    H134287   1.225   2.383   4.191
11448TIP3    H234288   1.254   2.511   4.265
11449TIP3   OH234289   2.757   7.581   1.991
11449TIP3    H134290   2.714   7.498   2.011
11449TIP3    H234291   2.775   7.620   2.076
11450TIP3   OH234292   5.112   5.030   0.508
11450TIP3    H134293   5.130   4.938   0.528
11450TIP3    H234294   5.017   5.038   0.517
11451TIP3   OH234295   2.103   5.004   0.974
11451TIP3    H134296   2.139   5.091   0.991
11451TIP3    H234297   2.098   4.998   0.879
11452TIP3   OH234298   4.747   4.033   5.163
11452TIP3    H134299   4.663   3.987   5.158
11452TIP3    H234300   4.734   4.099   5.230
11453TIP3   OH234301   4.179   3.104   6.612
11453TIP3    H134302   4.086   3.087   6.627
11453TIP3    H234303   4.197   3.181   6.666
11454TIP3   OH234304   6.015   6.263   1.794
11454TIP3    H134305   6.055   6.189   1.748
11454TIP3    H234306   6.089   6.314   1.828
11455TIP3   OH234307   4.139   5.063   2.223
11455TIP3    H134308   4.085   5.092   2.150
11455TIP3    H234309   4.227   5.095   2.203
11456TIP3   OH234310   0.713   3.608   0.433
11456TIP3    H134311   0.801   3.591   0.469
11456TIP3    H234312   0.655   3.603   0.508
11457TIP3   OH234313   1.083   3.381   4.741
11457TIP3    H134314   1.168   3.373   4.784
11457TIP3    H234315   1.044   3.294   4.747
11458TIP3   OH234316   0.037   7.462   4.706
11458TIP3    H134317  -0.041   7.510   4.676
11458TIP3    H234318   0.064   7.411   4.630
11459TIP3   OH234319   5.506   2.136   3.356
11459TIP3    H134320   5.585   2.147   3.409
11459TIP3    H234321   5.441   2.191   3.400
11460TIP3   OH234322   5.075   0.637   2.835
11460TIP3    H134323   5.072   0.574   2.763
11460TIP3    H234324   5.034   0.716   2.800
11461TIP3   OH234325   5.748   7.696   1.828
11461TIP3    H134326   5.739   7.649   1.746
11461TIP3    H234327   5.831   7.665   1.865
11462TIP3   OH234328   3.576   2.830   5.450
11462TIP3    H134329   3.660   2.784   5.447
11462TIP3    H234330   3.573   2.868   5.538
11463TIP3   OH234331   4.742   2.862   1.623
11463TIP3    H134332   4.697   2.865   1.707
11463TIP3    H234333   4.693   2.798   1.571
11464TIP3   OH234334   2.827   2.825   1.961
11464TIP3    H134335   2.816   2.786   1.874
11464TIP3    H234336   2.920   2.816   1.979
11465TIP3   OH234337   4.891   0.221   5.055
11465TIP3    H134338   4.838   0.198   4.979
11465TIP3    H234339   4.871   0.153   5.120
11466TIP3   OH234340   4.569   1.186   2.040
11466TIP3    H134341   4.560   1.252   1.971
11466TIP3    H234342   4.639   1.129   2.010
11467TIP3   OH234343   8.018   3.224   5.668
11467TIP3    H134344   7.999   3.234   5.574
11467TIP3    H234345   8.064   3.140   5.674
11468TIP3   OH234346   6.573   2.628   2.544
11468TIP3    H134347   6.485   2.665   2.547
11468TIP3    H234348   6.569   2.559   2.479
11469TIP3   OH234349   4.819   4.740   0.560
11469TIP3    H134350   4.747   4.753   0.623
11469TIP3    H234351   4.833   4.826   0.522
11470TIP3   OH234352   4.908   5.192   6.179
11470TIP3    H134353   4.887   5.103   6.153
11470TIP3    H234354   4.836   5.245   6.146
11471TIP3   OH234355   7.030   7.330   2.044
11471TIP3    H134356   7.019   7.279   2.124
11471TIP3    H234357   7.026   7.421   2.073
11472TIP3   OH234358   3.868   0.033   5.844
11472TIP3    H134359   3.883  -0.004   5.931
11472TIP3    H234360   3.773   0.044   5.838
11473TIP3   OH234361   1.153   4.085   1.348
11473TIP3    H134362   1.117   3.997   1.357
11473TIP3    H234363   1.198   4.102   1.431
11474TIP3   OH234364   5.570   5.933   3.794
11474TIP3    H134365   5.657   5.962   3.764
11474TIP3    H234366   5.555   5.851   3.748
11475TIP3   OH234367   0.795   7.188   2.407
11475TIP3    H134368   0.739   7.211   2.481
11475TIP3    H234369   0.878   7.234   2.425
11476TIP3   OH234370   8.112   1.523   0.019
11476TIP3    H134371   8.103   1.505   0.112
11476TIP3    H234372   8.070   1.449  -0.024
11477TIP3   OH234373   3.740   7.616   1.494
11477TIP3    H134374   3.790   7.648   1.419
11477TIP3    H234375   3.780   7.532   1.515
11478TIP3   OH234376   6.245   4.712   1.163
11478TIP3    H134377   6.298   4.704   1.242
11478TIP3    H234378   6.156   4.690   1.191
11479TIP3   OH234379   0.348   2.101   1.605
11479TIP3    H134380   0.307   2.165   1.547
11479TIP3    H234381   0.369   2.027   1.548
11480TIP3   OH234382   1.797   6.371   4.439
11480TIP3    H134383   1.754   6.365   4.524
11480TIP3    H234384   1.824   6.463   4.432
11481TIP3   OH234385   3.241   0.535   4.197
11481TIP3    H134386   3.170   0.599   4.201
11481TIP3    H234387   3.261   0.528   4.103
11482TIP3   OH234388   4.900   2.195   2.455
11482TIP3    H134389   4.880   2.167   2.544
11482TIP3    H234390   4.887   2.116   2.402
11483TIP3   OH234391   2.216   7.214   6.416
11483TIP3    H134392   2.284   7.153   6.442
11483TIP3    H234393   2.254   7.301   6.431
11484TIP3   OH234394   6.935   6.596   2.682
11484TIP3    H134395   6.938   6.539   2.759
11484TIP3    H234396   7.013   6.573   2.632
11485TIP3   OH234397   6.781   1.819   2.078
11485TIP3    H134398   6.770   1.724   2.068
11485TIP3    H234399   6.810   1.831   2.168
11486TIP3   OH234400   2.594   2.543   6.232
11486TIP3    H134401   2.671   2.572   6.281
11486TIP3    H234402   2.574   2.457   6.269
11487TIP3   OH234403   4.417   3.108   3.580
11487TIP3    H134404   4.445   3.057   3.505
11487TIP3    H234405   4.345   3.058   3.618
11488TIP3   OH234406   6.429   5.271   4.515
11488TIP3    H134407   6.514   5.241   4.484
11488TIP3    H234408   6.445   5.358   4.550
11489TIP3   OH234409   7.050   7.088   4.378
11489TIP3    H134410   6.983   7.154   4.395
11489TIP3    H234411   7.021   7.012   4.428
11490TIP3   OH234412   7.200   4.641   3.395
11490TIP3    H134413   7.154   4.693   3.328
11490TIP3    H234414   7.197   4.551   3.362
11491TIP3   OH234415   6.822   1.162   5.864
11491TIP3    H134416   6.861   1.083   5.826
11491TIP3    H234417   6.861   1.169   5.951
11492TIP3   OH234418   4.670   7.673   0.778
11492TIP3    H134419   4.613   7.611   0.734
11492TIP3    H234420   4.659   7.755   0.729
11493TIP3   OH234421   0.514   6.987   5.050
11493TIP3    H134422   0.487   7.030   4.969
11493TIP3    H234423   0.598   6.945   5.027
11494TIP3   OH234424   7.239   1.401   6.350
11494TIP3    H134425   7.326   1.365   6.365
11494TIP3    H234426   7.204   1.350   6.277
11495TIP3   OH234427   1.973   5.952   2.879
11495TIP3    H134428   1.934   5.870   2.849
11495TIP3    H234429   1.964   5.949   2.974
11496TIP3   OH234430   7.830   1.562   2.065
11496TIP3    H134431   7.919   1.527   2.068
11496TIP3    H234432   7.783   1.514   2.133
11497TIP3   OH234433   6.050   4.158   5.234
11497TIP3    H134434   6.055   4.187   5.143
11497TIP3    H234435   5.986   4.087   5.233
11498TIP3   OH234436   3.037   2.067   6.554
11498TIP3    H134437   3.101   2.114   6.608
11498TIP3    H234438   3.059   1.975   6.564
11499TIP3   OH234439   5.749   0.988   1.916
11499TIP3    H134440   5.697   1.065   1.936
11499TIP3    H234441   5.837   1.022   1.901
11500TIP3   OH234442   7.875   3.156   4.528
11500TIP3    H134443   7.908   3.230   4.579
11500TIP3    H234444   7.908   3.078   4.574
11501TIP3   OH234445   6.805   0.258   0.031
11501TIP3    H134446   6.806   0.186  -0.032
11501TIP3    H234447   6.869   0.320  -0.004
11502TIP3   OH234448   2.270   6.462   0.627
11502TIP3    H134449   2.178   6.446   0.650
11502TIP3    H234450   2.282   6.556   0.642
11503TIP3   OH234451   5.551   5.297   1.986
11503TIP3    H134452   5.548   5.258   1.899
11503TIP3    H234453   5.523   5.387   1.974
11504TIP3   OH234454   5.430   0.850   4.907
11504TIP3    H134455   5.347   0.895   4.889
11504TIP3    H234456   5.419   0.813   4.995
11505TIP3   OH234457   1.534   2.586   3.299
11505TIP3    H134458   1.536   2.678   3.323
11505TIP3    H234459   1.608   2.547   3.346
11506TIP3   OH234460   6.236   6.662   0.172
11506TIP3    H134461   6.295   6.712   0.228
11506TIP3    H234462   6.226   6.716   0.093
11507TIP3   OH234463   2.232   2.506   2.085
11507TIP3    H134464   2.301   2.539   2.026
11507TIP3    H234465   2.160   2.567   2.072
11508TIP3   OH234466   5.184   2.230   2.404
11508TIP3    H134467   5.193   2.322   2.381
11508TIP3    H234468   5.094   2.222   2.435
11509TIP3   OH234469   3.422   2.563   3.799
11509TIP3    H134470   3.415   2.469   3.815
11509TIP3    H234471   3.493   2.592   3.856
11510TIP3   OH234472   4.832   3.998   3.017
11510TIP3    H134473   4.745   4.018   3.052
11510TIP3    H234474   4.886   4.072   3.043
11511TIP3   OH234475   3.601   2.831   0.486
11511TIP3    H134476   3.529   2.803   0.430
11511TIP3    H234477   3.676   2.779   0.457
11512TIP3   OH234478   6.431   2.076   4.236
11512TIP3    H134479   6.515   2.098   4.195
11512TIP3    H234480   6.423   1.981   4.225
11513TIP3   OH234481   5.609   0.381   2.822
11513TIP3    H134482   5.615   0.452   2.758
11513TIP3    H234483   5.547   0.412   2.887
11514TIP3   OH234484   4.906   4.879   3.982
11514TIP3    H134485   4.872   4.791   4.002
11514TIP3    H234486   4.942   4.909   4.065
11515TIP3   OH234487   5.201   2.573   3.753
11515TIP3    H134488   5.125   2.518   3.733
11515TIP3    H234489   5.253   2.520   3.814
11516TIP3   OH234490   0.534   3.434   4.494
11516TIP3    H134491   0.591   3.377   4.546
11516TIP3    H234492   0.505   3.501   4.556
11517TIP3   OH234493   7.566   2.158   6.074
11517TIP3    H134494   7.576   2.099   6.149
11517TIP3    H234495   7.593   2.105   5.998
11518TIP3   OH234496   1.188   1.133   1.164
11518TIP3    H134497   1.201   1.044   1.197
11518TIP3    H234498   1.246   1.187   1.217
11519TIP3   OH234499   1.917   2.930   4.894
11519TIP3    H134500   1.979   2.951   4.964
11519TIP3    H234501   1.930   3.000   4.829
11520TIP3   OH234502   4.535   7.421   3.991
11520TIP3    H134503   4.551   7.338   4.036
11520TIP3    H234504   4.453   7.407   3.944
11521TIP3   OH234505   8.219   2.300   2.375
11521TIP3    H134506   8.299   2.315   2.326
11521TIP3    H234507   8.170   2.238   2.321
11522TIP3   OH234508   4.607   1.745   4.096
11522TIP3    H134509   4.530   1.766   4.044
11522TIP3    H234510   4.585   1.662   4.139
11523TIP3   OH234511   2.865   0.323   4.095
11523TIP3    H134512   2.945   0.313   4.146
11523TIP3    H234513   2.820   0.398   4.134
11524TIP3   OH234514   3.266   3.956   0.473
11524TIP3    H134515   3.304   3.886   0.419
11524TIP3    H234516   3.171   3.944   0.464
11525TIP3   OH234517   1.831   6.556   5.961
11525TIP3    H134518   1.826   6.631   6.020
11525TIP3    H234519   1.920   6.558   5.926
11526TIP3   OH234520   5.909   5.152   0.279
11526TIP3    H134521   5.877   5.063   0.266
11526TIP3    H234522   5.829   5.205   0.290
11527TIP3   OH234523   3.310   6.096   3.672
11527TIP3    H134524   3.392   6.070   3.629
11527TIP3    H234525   3.328   6.086   3.765
11528TIP3   OH234526   3.003   4.530   5.560
11528TIP3    H134527   3.058   4.522   5.481
11528TIP3    H234528   3.051   4.482   5.627
11529TIP3   OH234529   6.840   4.898   4.366
11529TIP3    H134530   6.747   4.922   4.365
11529TIP3    H234531   6.870   4.923   4.453
11530TIP3   OH234532   2.800   6.777   2.362
11530TIP3    H134533   2.728   6.717   2.378
11530TIP3    H234534   2.786   6.849   2.424
11531TIP3   OH234535   5.613   4.367   6.194
11531TIP3    H134536   5.592   4.281   6.157
11531TIP3    H234537   5.676   4.405   6.132
11532TIP3   OH234538   4.324   0.941   0.363
11532TIP3    H134539   4.297   0.908   0.448
11532TIP3    H234540   4.243   0.965   0.319
11533TIP3   OH234541   1.734   7.039   3.583
11533TIP3    H134542   1.794   7.068   3.514
11533TIP3    H234543   1.704   7.119   3.624
11534TIP3   OH234544   0.538   6.019   0.057
11534TIP3    H134545   0.614   6.068   0.089
11534TIP3    H234546   0.537   5.939   0.110
11535TIP3   OH234547   7.952   6.815   0.374
11535TIP3    H134548   7.940   6.752   0.445
11535TIP3    H234549   8.034   6.789   0.332
11536TIP3   OH234550   3.574   5.552   4.224
11536TIP3    H134551   3.604   5.598   4.145
11536TIP3    H234552   3.490   5.514   4.199
11537TIP3   OH234553   7.003   3.039   3.923
11537TIP3    H134554   6.949   3.094   3.865
11537TIP3    H234555   7.093   3.057   3.896
11538TIP3   OH234556   5.616   3.272   5.804
11538TIP3    H134557   5.531   3.249   5.843
11538TIP3    H234558   5.677   3.271   5.878
11539TIP3   OH234559   5.516   7.090   2.849
11539TIP3    H134560   5.593   7.051   2.809
11539TIP3    H234561   5.443   7.061   2.794
11540TIP3   OH234562   0.797   3.805   4.246
11540TIP3    H134563   0.744   3.724   4.241
11540TIP3    H234564   0.887   3.774   4.238
11541TIP3   OH234565   3.049   5.288   4.935
11541TIP3    H134566   3.081   5.215   4.881
11541TIP3    H234567   2.956   5.292   4.916
11542TIP3   OH234568   3.567   4.783   5.287
11542TIP3    H134569   3.526   4.698   5.304
11542TIP3    H234570   3.509   4.846   5.329
11543TIP3   OH234571   3.750   2.448   5.472
11543TIP3    H134572   3.766   2.354   5.468
11543TIP3    H234573   3.666   2.456   5.517
11544TIP3   OH234574   7.063   0.618   2.254
11544TIP3    H134575   7.021   0.651   2.174
11544TIP3    H234576   7.108   0.539   2.225
11545TIP3   OH234577   2.496   4.223   2.158
11545TIP3    H134578   2.449   4.165   2.097
11545TIP3    H234579   2.580   4.239   2.115
11546TIP3   OH234580   6.928   4.587   2.133
11546TIP3    H134581   6.987   4.589   2.209
11546TIP3    H234582   6.987   4.573   2.059
11547TIP3   OH234583   0.905   1.288   3.408
11547TIP3    H134584   0.926   1.236   3.331
11547TIP3    H234585   0.832   1.242   3.450
11548TIP3   OH234586   4.994   7.732   2.711
11548TIP3    H134587   5.083   7.766   2.709
11548TIP3    H234588   4.952   7.770   2.634
11549TIP3   OH234589   7.178   1.503   5.214
11549TIP3    H134590   7.145   1.428   5.165
11549TIP3    H234591   7.105   1.530   5.270
11550TIP3   OH234592   0.737   2.043   6.412
11550TIP3    H134593   0.778   2.122   6.377
11550TIP3    H234594   0.809   1.992   6.449
11551TIP3   OH234595   7.702   5.647   2.731
11551TIP3    H134596   7.621   5.610   2.766
11551TIP3    H234597   7.705   5.618   2.640
11552TIP3   OH234598   1.401   5.971   3.014
11552TIP3    H134599   1.472   5.911   3.036
11552TIP3    H234600   1.321   5.918   3.024
11553TIP3   OH234601   5.438   2.851   2.203
11553TIP3    H134602   5.451   2.814   2.116
11553TIP3    H234603   5.445   2.946   2.190
11554TIP3   OH234604   3.566   4.967   1.663
11554TIP3    H134605   3.598   4.895   1.609
11554TIP3    H234606   3.529   4.925   1.741
11555TIP3   OH234607   4.033   3.287   4.436
11555TIP3    H134608   4.087   3.275   4.358
11555TIP3    H234609   4.050   3.378   4.462
11556TIP3   OH234610   5.159   4.837   5.643
11556TIP3    H134611   5.161   4.916   5.588
11556TIP3    H234612   5.147   4.870   5.732
11557TIP3   OH234613   6.380   6.503   4.125
11557TIP3    H134614   6.302   6.471   4.080
11557TIP3    H234615   6.410   6.576   4.071
11558TIP3   OH234616   1.305   6.156   4.505
11558TIP3    H134617   1.352   6.235   4.476
11558TIP3    H234618   1.215   6.170   4.477
11559TIP3   OH234619   7.268   1.559   1.710
11559TIP3    H134620   7.248   1.635   1.654
11559TIP3    H234621   7.361   1.568   1.730
11560TIP3   OH234622   3.895   4.955   1.149
11560TIP3    H134623   3.847   5.035   1.170
11560TIP3    H234624   3.844   4.885   1.191
11561TIP3   OH234625   1.056   2.801   3.536
11561TIP3    H134626   1.013   2.883   3.562
11561TIP3    H234627   1.143   2.828   3.507
11562TIP3   OH234628   5.022   6.259   5.764
11562TIP3    H134629   5.027   6.171   5.800
11562TIP3    H234630   4.963   6.251   5.688
11563TIP3   OH234631   3.552   4.815   2.178
11563TIP3    H134632   3.500   4.739   2.204
11563TIP3    H234633   3.489   4.886   2.172
11564TIP3   OH234634   3.521   2.569   0.596
11564TIP3    H134635   3.498   2.657   0.566
11564TIP3    H234636   3.438   2.529   0.619
11565TIP3   OH234637   5.171   5.918   5.671
11565TIP3    H134638   5.144   5.967   5.593
11565TIP3    H234639   5.262   5.896   5.655
11566TIP3   OH234640   7.599   1.891   1.556
11566TIP3    H134641   7.553   1.970   1.583
11566TIP3    H234642   7.642   1.860   1.635
11567TIP3   OH234643   1.996   1.901   1.848
11567TIP3    H134644   2.086   1.921   1.824
11567TIP3    H234645   1.949   1.897   1.764
11568TIP3   OH234646   2.498   5.950   6.663
11568TIP3    H134647   2.417   5.926   6.617
11568TIP3    H234648   2.548   5.869   6.668
11569TIP3   OH234649   8.067   2.195   5.581
11569TIP3    H134650   8.141   2.234   5.534
11569TIP3    H234651   8.107   2.128   5.636
11570TIP3   OH234652   3.033   7.615   6.585
11570TIP3    H134653   2.942   7.619   6.613
11570TIP3    H234654   3.072   7.697   6.616
11571TIP3   OH234655   0.619   7.126   4.319
11571TIP3    H134656   0.584   7.056   4.264
11571TIP3    H234657   0.709   7.139   4.287
11572TIP3   OH234658   1.870   5.531   3.460
11572TIP3    H134659   1.956   5.552   3.421
11572TIP3    H234660   1.887   5.452   3.512
11573TIP3   OH234661   2.287   2.384   6.088
11573TIP3    H134662   2.304   2.327   6.164
11573TIP3    H234663   2.192   2.380   6.077
11574TIP3   OH234664   2.353   3.857   0.813
11574TIP3    H134665   2.368   3.948   0.839
11574TIP3    H234666   2.310   3.817   0.888
11575TIP3   OH234667   6.445   3.285   1.037
11575TIP3    H134668   6.414   3.314   1.123
11575TIP3    H234669   6.447   3.189   1.044
11576TIP3   OH234670   6.958   3.371   0.366
11576TIP3    H134671   6.897   3.308   0.404
11576TIP3    H234672   7.001   3.322   0.295
11577TIP3   OH234673   3.229   3.975   2.217
11577TIP3    H134674   3.271   4.057   2.190
11577TIP3    H234675   3.258   3.911   2.152
11578TIP3   OH234676   4.586   2.609   5.372
11578TIP3    H134677   4.583   2.584   5.280
11578TIP3    H234678   4.678   2.624   5.390
11579TIP3   OH234679   0.589   1.933   2.737
11579TIP3    H134680   0.589   1.843   2.770
11579TIP3    H234681   0.570   1.925   2.643
11580TIP3   OH234682   6.249   5.412   0.863
11580TIP3    H134683   6.210   5.325   0.855
11580TIP3    H234684   6.332   5.397   0.907
11581TIP3   OH234685   1.080   7.432   2.276
11581TIP3    H134686   1.090   7.513   2.228
11581TIP3    H234687   1.168   7.392   2.276
11582TIP3   OH234688   5.927   6.395   2.138
11582TIP3    H134689   5.889   6.307   2.129
11582TIP3    H234690   6.017   6.379   2.165
11583TIP3   OH234691   1.431   4.931   1.106
11583TIP3    H134692   1.475   4.999   1.055
11583TIP3    H234693   1.400   4.977   1.184
11584TIP3   OH234694   3.826   6.902   3.724
11584TIP3    H134695   3.815   6.934   3.634
11584TIP3    H234696   3.890   6.831   3.717
11585TIP3   OH234697   7.360   2.697   2.293
11585TIP3    H134698   7.413   2.737   2.224
11585TIP3    H234699   7.424   2.651   2.348
11586TIP3   OH234700   6.311   3.317   0.806
11586TIP3    H134701   6.356   3.400   0.792
11586TIP3    H234702   6.311   3.304   0.901
11587TIP3   OH234703   6.997   6.103   5.447
11587TIP3    H134704   7.079   6.061   5.421
11587TIP3    H234705   6.933   6.032   5.450
11588TIP3   OH234706   2.301   2.676   0.293
11588TIP3    H134707   2.266   2.656   0.206
11588TIP3    H234708   2.236   2.641   0.354
11589TIP3   OH234709   7.890   5.310   5.972
11589TIP3    H134710   7.928   5.303   5.884
11589TIP3    H234711   7.847   5.395   5.972
11590TIP3   OH234712   4.189   6.759   3.752
11590TIP3    H134713   4.174   6.796   3.839
11590TIP3    H234714   4.127   6.686   3.746
11591TIP3   OH234715   0.209   3.219   4.479
11591TIP3    H134716   0.291   3.219   4.428
11591TIP3    H234717   0.228   3.164   4.555
11592TIP3   OH234718   1.490   5.769   0.686
11592TIP3    H134719   1.495   5.747   0.779
11592TIP3    H234720   1.542   5.849   0.677
11593TIP3   OH234721   8.256   1.368   2.212
11593TIP3    H134722   8.313   1.297   2.185
11593TIP3    H234723   8.196   1.328   2.275
11594TIP3   OH234724   3.056   3.101   3.030
11594TIP3    H134725   3.098   3.165   3.088
11594TIP3    H234726   3.084   3.126   2.942
11595TIP3   OH234727   2.762   3.910   1.013
11595TIP3    H134728   2.831   3.945   0.957
11595TIP3    H234729   2.696   3.877   0.952
11596TIP3   OH234730   5.909   0.840   5.124
11596TIP3    H134731   5.984   0.793   5.088
11596TIP3    H234732   5.868   0.778   5.183
11597TIP3   OH234733   2.291   1.540   4.847
11597TIP3    H134734   2.268   1.630   4.869
11597TIP3    H234735   2.238   1.520   4.770
11598TIP3   OH234736   5.957   0.788   1.269
11598TIP3    H134737   5.879   0.795   1.325
11598TIP3    H234738   5.946   0.855   1.202
11599TIP3   OH234739   4.219   1.183   2.574
11599TIP3    H134740   4.288   1.233   2.618
11599TIP3    H234741   4.178   1.246   2.514
11600TIP3   OH234742   3.047   5.245   0.751
11600TIP3    H134743   3.035   5.300   0.827
11600TIP3    H234744   3.127   5.277   0.709
11601TIP3   OH234745   6.882   6.591   1.237
11601TIP3    H134746   6.964   6.593   1.285
11601TIP3    H234747   6.896   6.649   1.162
11602TIP3   OH234748   5.132   2.899   2.114
11602TIP3    H134749   5.114   2.927   2.203
11602TIP3    H234750   5.180   2.971   2.075
11603TIP3   OH234751   3.797   0.436   3.487
11603TIP3    H134752   3.874   0.468   3.440
11603TIP3    H234753   3.771   0.357   3.439
11604TIP3   OH234754   3.463   1.604   5.514
11604TIP3    H134755   3.530   1.563   5.569
11604TIP3    H234756   3.481   1.697   5.519
11605TIP3   OH234757   4.399   4.515   2.681
11605TIP3    H134758   4.414   4.609   2.694
11605TIP3    H234759   4.413   4.502   2.587
11606TIP3   OH234760   4.870   7.523   2.249
11606TIP3    H134761   4.883   7.613   2.277
11606TIP3    H234762   4.778   7.505   2.265
11607TIP3   OH234763   6.457   4.891   6.176
11607TIP3    H134764   6.531   4.836   6.149
11607TIP3    H234765   6.485   4.980   6.156
11608TIP3   OH234766   5.426   6.438   0.086
11608TIP3    H134767   5.374   6.361   0.063
11608TIP3    H234768   5.437   6.485   0.003
11609TIP3   OH234769   5.081   1.974   5.354
11609TIP3    H134770   5.058   2.042   5.418
11609TIP3    H234771   5.151   1.925   5.397
11610TIP3   OH234772   6.020   7.588   5.530
11610TIP3    H134773   5.925   7.589   5.536
11610TIP3    H234774   6.041   7.499   5.500
11611TIP3   OH234775   4.595   0.207   1.236
11611TIP3    H134776   4.601   0.298   1.268
11611TIP3    H234777   4.513   0.204   1.188
11612TIP3   OH234778   7.123   4.392   6.701
11612TIP3    H134779   7.213   4.362   6.714
11612TIP3    H234780   7.129   4.487   6.704
11613TIP3   OH234781   4.770   6.736   3.406
11613TIP3    H134782   4.704   6.690   3.457
11613TIP3    H234783   4.722   6.807   3.363
11614TIP3   OH234784   6.392   4.696   1.440
11614TIP3    H134785   6.441   4.635   1.495
11614TIP3    H234786   6.326   4.733   1.499
11615TIP3   OH234787   1.989   1.755   5.993
11615TIP3    H134788   2.019   1.781   5.906
11615TIP3    H234789   1.935   1.678   5.978
11616TIP3   OH234790   5.766   1.604   6.316
11616TIP3    H134791   5.677   1.641   6.310
11616TIP3    H234792   5.793   1.621   6.406
11617TIP3   OH234793   1.280   3.842   4.725
11617TIP3    H134794   1.265   3.819   4.816
11617TIP3    H234795   1.275   3.938   4.723
11618TIP3   OH234796   0.551   5.911   2.942
11618TIP3    H134797   0.481   5.968   2.975
11618TIP3    H234798   0.505   5.835   2.905
11619TIP3   OH234799   1.345   6.602   0.852
11619TIP3    H134800   1.399   6.546   0.908
11619TIP3    H234801   1.363   6.572   0.763
11620TIP3   OH234802   2.072   0.509   2.728
11620TIP3    H134803   2.078   0.425   2.681
11620TIP3    H234804   2.075   0.575   2.658
11621TIP3   OH234805   7.042   2.057   5.658
11621TIP3    H134806   7.089   2.027   5.580
11621TIP3    H234807   7.108   2.102   5.711
11622TIP3   OH234808   5.054   4.791   5.165
11622TIP3    H134809   4.971   4.827   5.197
11622TIP3    H234810   5.081   4.729   5.233
11623TIP3   OH234811   7.193   7.453   4.116
11623TIP3    H134812   7.189   7.534   4.064
11623TIP3    H234813   7.140   7.391   4.068
11624TIP3   OH234814   7.000   5.489   6.030
11624TIP3    H134815   6.924   5.486   5.971
11624TIP3    H234816   7.044   5.571   6.006
11625TIP3   OH234817   3.524   7.547   4.489
11625TIP3    H134818   3.490   7.636   4.495
11625TIP3    H234819   3.511   7.523   4.397
11626TIP3   OH234820   1.873   1.479   3.794
11626TIP3    H134821   1.817   1.431   3.733
11626TIP3    H234822   1.908   1.411   3.853
11627TIP3   OH234823   2.247   0.629   3.469
11627TIP3    H134824   2.258   0.585   3.384
11627TIP3    H234825   2.304   0.705   3.464
11628TIP3   OH234826   4.931   7.395   4.605
11628TIP3    H134827   4.934   7.365   4.514
11628TIP3    H234828   4.875   7.472   4.603
11629TIP3   OH234829   2.758   2.031   2.312
11629TIP3    H134830   2.711   2.085   2.376
11629TIP3    H234831   2.689   1.980   2.269
11630TIP3   OH234832   3.207   6.193   4.744
11630TIP3    H134833   3.172   6.282   4.748
11630TIP3    H234834   3.130   6.136   4.742
11631TIP3   OH234835   2.335   4.018   4.597
11631TIP3    H134836   2.404   4.051   4.539
11631TIP3    H234837   2.311   4.094   4.650
11632TIP3   OH234838   8.088   4.204   4.224
11632TIP3    H134839   8.065   4.260   4.297
11632TIP3    H234840   8.180   4.222   4.206
11633TIP3   OH234841   1.016   7.024   0.296
11633TIP3    H134842   1.060   6.939   0.298
11633TIP3    H234843   1.076   7.082   0.344
11634TIP3   OH234844   7.517   2.703   1.459
11634TIP3    H134845   7.442   2.644   1.456
11634TIP3    H234846   7.578   2.662   1.521
11635TIP3   OH234847   1.758   4.203   3.723
11635TIP3    H134848   1.741   4.238   3.636
11635TIP3    H234849   1.801   4.119   3.709
11636TIP3   OH234850   1.371   1.673   3.987
11636TIP3    H134851   1.361   1.712   4.073
11636TIP3    H234852   1.463   1.690   3.963
11637TIP3   OH234853   0.883   5.243   0.162
11637TIP3    H134854   0.849   5.295   0.089
11637TIP3    H234855   0.884   5.303   0.236
11638TIP3   OH234856   5.834   7.263   6.535
11638TIP3    H134857   5.845   7.198   6.465
11638TIP3    H234858   5.818   7.345   6.489
11639TIP3   OH234859   5.912   7.276   5.272
11639TIP3    H134860   6.002   7.260   5.302
11639TIP3    H234861   5.916   7.362   5.231
11640TIP3   OH234862   4.666   3.897   0.874
11640TIP3    H134863   4.577   3.929   0.887
11640TIP3    H234864   4.705   3.899   0.962
11641TIP3   OH234865   0.014   5.195   5.372
11641TIP3    H134866  -0.004   5.183   5.465
11641TIP3    H234867   0.063   5.277   5.367
11642TIP3   OH234868   0.428   4.034   0.489
11642TIP3    H134869   0.465   3.979   0.558
11642TIP3    H234870   0.497   4.036   0.422
11643TIP3   OH234871   7.995   1.712   0.853
11643TIP3    H134872   7.918   1.658   0.838
11643TIP3    H234873   8.032   1.727   0.766
11644TIP3   OH234874   0.799   7.648   2.938
11644TIP3    H134875   0.846   7.602   3.007
11644TIP3    H234876   0.865   7.705   2.897
11645TIP3   OH234877   5.851   5.512   5.341
11645TIP3    H134878   5.917   5.446   5.363
11645TIP3    H234879   5.799   5.471   5.272
11646TIP3   OH234880   3.361   2.118   1.947
11646TIP3    H134881   3.387   2.035   1.907
11646TIP3    H234882   3.425   2.133   2.016
11647TIP3   OH234883   6.402   1.470   6.100
11647TIP3    H134884   6.484   1.496   6.142
11647TIP3    H234885   6.349   1.550   6.099
11648TIP3   OH234886   4.301   0.761   3.695
11648TIP3    H134887   4.285   0.782   3.603
11648TIP3    H234888   4.215   0.763   3.736
11649TIP3   OH234889   7.486   3.137   1.595
11649TIP3    H134890   7.467   3.229   1.612
11649TIP3    H234891   7.579   3.136   1.570
11650TIP3   OH234892   7.699   5.816   5.020
11650TIP3    H134893   7.685   5.722   5.007
11650TIP3    H234894   7.787   5.823   5.056
11651TIP3   OH234895   4.212   2.025   3.502
11651TIP3    H134896   4.160   2.075   3.565
11651TIP3    H234897   4.152   2.006   3.430
11652TIP3   OH234898   5.886   3.539   2.555
11652TIP3    H134899   5.880   3.607   2.488
11652TIP3    H234900   5.970   3.496   2.539
11653TIP3   OH234901   3.176   3.099   2.792
11653TIP3    H134902   3.126   3.078   2.713
11653TIP3    H234903   3.241   3.029   2.798
11654TIP3   OH234904   5.332   0.478   4.104
11654TIP3    H134905   5.337   0.461   4.199
11654TIP3    H234906   5.349   0.572   4.096
11655TIP3   OH234907   3.102   7.051   3.471
11655TIP3    H134908   3.078   7.064   3.563
11655TIP3    H234909   3.091   6.956   3.457
11656TIP3   OH234910   5.904   6.490   3.336
11656TIP3    H134911   5.919   6.473   3.243
11656TIP3    H234912   5.848   6.417   3.365
11657TIP3   OH234913   4.080   5.775   5.970
11657TIP3    H134914   3.996   5.730   5.976
11657TIP3    H234915   4.120   5.765   6.056
11658TIP3   OH234916   3.791   1.121   0.303
11658TIP3    H134917   3.818   1.197   0.251
11658TIP3    H234918   3.713   1.151   0.349
11659TIP3   OH234919   1.689   1.254   1.020
11659TIP3    H134920   1.780   1.231   1.038
11659TIP3    H234921   1.693   1.314   0.946
11660TIP3   OH234922   1.491   3.510   5.793
11660TIP3    H134923   1.458   3.546   5.711
11660TIP3    H234924   1.555   3.574   5.823
11661TIP3   OH234925   6.493   6.669   5.181
11661TIP3    H134926   6.471   6.592   5.234
11661TIP3    H234927   6.410   6.716   5.171
11662TIP3   OH234928   2.586   3.786   2.713
11662TIP3    H134929   2.665   3.739   2.685
11662TIP3    H234930   2.607   3.817   2.801
11663TIP3   OH234931   1.159   0.551   2.257
11663TIP3    H134932   1.077   0.503   2.264
11663TIP3    H234933   1.193   0.529   2.170
11664TIP3   OH234934   2.008   2.347   6.387
11664TIP3    H134935   1.945   2.302   6.443
11664TIP3    H234936   2.056   2.277   6.344
11665TIP3   OH234937   5.287   1.835   6.312
11665TIP3    H134938   5.228   1.909   6.320
11665TIP3    H234939   5.281   1.809   6.220
11666TIP3   OH234940   7.043   5.515   1.529
11666TIP3    H134941   7.106   5.583   1.554
11666TIP3    H234942   6.964   5.563   1.504
11667TIP3   OH234943   4.419   3.740   5.556
11667TIP3    H134944   4.354   3.673   5.535
11667TIP3    H234945   4.370   3.822   5.559
11668TIP3   OH234946   4.537   0.367   3.571
11668TIP3    H134947   4.611   0.367   3.510
11668TIP3    H234948   4.491   0.449   3.553
11669TIP3   OH234949   4.806   7.432   6.549
11669TIP3    H134950   4.832   7.486   6.625
11669TIP3    H234951   4.730   7.383   6.579
11670TIP3   OH234952   1.099   1.719   0.947
11670TIP3    H134953   1.123   1.634   0.984
11670TIP3    H234954   1.180   1.752   0.908
11671TIP3   OH234955   2.956   6.979   3.038
11671TIP3    H134956   2.894   6.941   3.099
11671TIP3    H234957   2.981   6.906   2.980
11672TIP3   OH234958   0.111   2.376   3.620
11672TIP3    H134959   0.145   2.289   3.603
11672TIP3    H234960   0.180   2.420   3.670
11673TIP3   OH234961   2.078   3.380   6.230
11673TIP3    H134962   2.133   3.318   6.278
11673TIP3    H234963   2.013   3.409   6.294
11674TIP3   OH234964   2.061   0.833   6.052
11674TIP3    H134965   1.976   0.866   6.081
11674TIP3    H234966   2.095   0.901   5.994
11675TIP3   OH234967   1.775   0.121   2.635
11675TIP3    H134968   1.819   0.049   2.679
11675TIP3    H234969   1.739   0.082   2.555
11676TIP3   OH234970   4.572   4.548   1.374
11676TIP3    H134971   4.553   4.497   1.452
11676TIP3    H234972   4.660   4.582   1.388
11677TIP3   OH234973   1.422   5.852   4.915
11677TIP3    H134974   1.382   5.924   4.866
11677TIP3    H234975   1.431   5.885   5.004
11678TIP3   OH234976   4.956   2.688   3.159
11678TIP3    H134977   4.920   2.662   3.244
11678TIP3    H234978   4.926   2.621   3.098
11679TIP3   OH234979   4.463   4.790   5.556
11679TIP3    H134980   4.428   4.810   5.470
11679TIP3    H234981   4.409   4.841   5.617
11680TIP3   OH234982   2.842   1.063   6.266
11680TIP3    H134983   2.773   1.100   6.211
11680TIP3    H234984   2.799   1.046   6.350
11681TIP3   OH234985   4.711   5.392   3.109
11681TIP3    H134986   4.684   5.469   3.059
11681TIP3    H234987   4.804   5.383   3.092
11682TIP3   OH234988   0.957   0.074   6.266
11682TIP3    H134989   0.862   0.078   6.250
11682TIP3    H234990   0.996   0.090   6.180
11683TIP3   OH234991   3.999   6.202   6.629
11683TIP3    H134992   4.088   6.186   6.599
11683TIP3    H234993   3.956   6.117   6.624
11684TIP3   OH234994   7.711   2.010   1.339
11684TIP3    H134995   7.658   2.055   1.274
11684TIP3    H234996   7.648   1.962   1.393
11685TIP3   OH234997   3.204   5.784   5.853
11685TIP3    H134998   3.275   5.720   5.850
11685TIP3    H234999   3.125   5.731   5.861
11686TIP3   OH235000   4.782   1.308   6.463
11686TIP3    H135001   4.700   1.267   6.435
11686TIP3    H235002   4.762   1.401   6.467
11687TIP3   OH235003   0.684   6.231   0.184
11687TIP3    H135004   0.749   6.300   0.187
11687TIP3    H235005   0.602   6.274   0.208
11688TIP3   OH235006   4.960   0.385   6.071
11688TIP3    H135007   5.014   0.453   6.031
11688TIP3    H235008   4.990   0.303   6.030
11689TIP3   OH235009   7.868   3.526   2.946
11689TIP3    H135010   7.912   3.544   2.863
11689TIP3    H235011   7.887   3.602   3.001
11690TIP3   OH235012   3.712   5.098   3.646
11690TIP3    H135013   3.626   5.107   3.605
11690TIP3    H235014   3.745   5.188   3.652
11691TIP3   OH235015   6.646   5.192   3.316
11691TIP3    H135016   6.689   5.107   3.312
11691TIP3    H235017   6.560   5.178   3.277
11692TIP3   OH235018   3.868   0.306   4.267
11692TIP3    H135019   3.840   0.377   4.324
11692TIP3    H235020   3.807   0.234   4.287
11693TIP3   OH235021   7.709   1.299   6.467
11693TIP3    H135022   7.754   1.215   6.476
11693TIP3    H235023   7.717   1.340   6.553
11694TIP3   OH235024   5.180   2.200   5.134
11694TIP3    H135025   5.123   2.128   5.161
11694TIP3    H235026   5.175   2.263   5.206
11695TIP3   OH235027   4.151   7.436   0.409
11695TIP3    H135028   4.150   7.363   0.470
11695TIP3    H235029   4.116   7.510   0.458
11696TIP3   OH235030   6.830   2.443   4.594
11696TIP3    H135031   6.915   2.471   4.628
11696TIP3    H235032   6.772   2.518   4.606
11697TIP3   OH235033   8.061   3.594   2.201
11697TIP3    H135034   8.044   3.538   2.276
11697TIP3    H235035   8.142   3.640   2.222
11698TIP3   OH235036   7.463   6.300   5.221
11698TIP3    H135037   7.515   6.367   5.265
11698TIP3    H235038   7.496   6.217   5.257
11699TIP3   OH235039   1.659   3.637   6.315
11699TIP3    H135040   1.631   3.556   6.273
11699TIP3    H235041   1.696   3.689   6.244
11700TIP3   OH235042   4.141   3.991   2.789
11700TIP3    H135043   4.120   4.066   2.844
11700TIP3    H235044   4.196   4.027   2.719
11701TIP3   OH235045   8.197   0.340  -0.033
11701TIP3    H135046   8.259   0.269  -0.015
11701TIP3    H235047   8.132   0.333   0.036
11702TIP3   OH235048   1.265   1.267   3.743
11702TIP3    H135049   1.299   1.214   3.670
11702TIP3    H235050   1.235   1.348   3.701
11703TIP3   OH235051   1.708   3.137   5.436
11703TIP3    H135052   1.630   3.103   5.480
11703TIP3    H235053   1.775   3.137   5.505
11704TIP3   OH235054   3.413   4.232   3.758
11704TIP3    H135055   3.406   4.244   3.663
11704TIP3    H235056   3.461   4.150   3.769
11705TIP3   OH235057   7.619   3.263   2.375
11705TIP3    H135058   7.659   3.297   2.455
11705TIP3    H235059   7.526   3.282   2.384
11706TIP3   OH235060   2.311   2.164   5.099
11706TIP3    H135061   2.336   2.201   5.014
11706TIP3    H235062   2.332   2.233   5.161
11707TIP3   OH235063   3.243   5.044   5.590
11707TIP3    H135064   3.213   5.084   5.672
11707TIP3    H235065   3.163   5.031   5.539
11708TIP3   OH235066   3.892   6.340   3.546
11708TIP3    H135067   3.841   6.392   3.483
11708TIP3    H235068   3.827   6.281   3.585
11709TIP3   OH235069   3.572   4.991   6.085
11709TIP3    H135070   3.643   5.047   6.117
11709TIP3    H235071   3.554   5.024   5.997
11710TIP3   OH235072   2.431   0.753   5.769
11710TIP3    H135073   2.449   0.676   5.823
11710TIP3    H235074   2.518   0.790   5.752
11711TIP3   OH235075   7.243   2.768   0.820
11711TIP3    H135076   7.173   2.736   0.764
11711TIP3    H235077   7.207   2.761   0.909
11712TIP3   OH235078   4.295   7.339   4.935
11712TIP3    H135079   4.372   7.309   4.985
11712TIP3    H235080   4.220   7.309   4.986
11713TIP3   OH235081   0.947   1.684   1.902
11713TIP3    H135082   0.941   1.764   1.955
11713TIP3    H235083   0.861   1.644   1.909
11714TIP3   OH235084   3.690   3.543   4.082
11714TIP3    H135085   3.773   3.498   4.064
11714TIP3    H235086   3.710   3.603   4.153
11715TIP3   OH235087   3.029   5.908   2.539
11715TIP3    H135088   2.940   5.878   2.557
11715TIP3    H235089   3.027   6.002   2.557
11716TIP3   OH235090   3.222   3.017   4.149
11716TIP3    H135091   3.245   2.928   4.121
11716TIP3    H235092   3.251   3.022   4.240
11717TIP3   OH235093   7.001   0.714   1.022
11717TIP3    H135094   7.076   0.658   1.002
11717TIP3    H235095   6.935   0.691   0.956
11718TIP3   OH235096   4.876   7.133   4.738
11718TIP3    H135097   4.789   7.141   4.778
11718TIP3    H235098   4.889   7.217   4.693
11719TIP3   OH235099   0.256   1.184   1.221
11719TIP3    H135100   0.325   1.175   1.286
11719TIP3    H235101   0.176   1.200   1.272
11720TIP3   OH235102   3.124   6.594   3.675
11720TIP3    H135103   3.122   6.505   3.710
11720TIP3    H235104   3.056   6.640   3.723
11721TIP3   OH235105   7.167   5.240   0.655
11721TIP3    H135106   7.120   5.166   0.693
11721TIP3    H235107   7.104   5.312   0.659
11722TIP3   OH235108   1.739   1.819  -0.021
11722TIP3    H135109   1.762   1.893   0.036
11722TIP3    H235110   1.665   1.778   0.022
11723TIP3   OH235111   6.239   2.717   6.229
11723TIP3    H135112   6.190   2.792   6.263
11723TIP3    H235113   6.281   2.679   6.306
11724TIP3   OH235114   1.848   6.995   1.449
11724TIP3    H135115   1.936   7.014   1.478
11724TIP3    H235116   1.853   6.996   1.353
11725TIP3   OH235117   0.233   7.556   4.086
11725TIP3    H135118   0.175   7.560   4.163
11725TIP3    H235119   0.308   7.506   4.115
11726TIP3   OH235120   2.149   0.738   1.767
11726TIP3    H135121   2.076   0.722   1.707
11726TIP3    H235122   2.120   0.814   1.819
11727TIP3   OH235123   3.149   6.768   0.604
11727TIP3    H135124   3.155   6.759   0.699
11727TIP3    H235125   3.231   6.733   0.571
11728TIP3   OH235126   3.621   6.253   1.304
11728TIP3    H135127   3.561   6.189   1.341
11728TIP3    H235128   3.675   6.282   1.378
11729TIP3   OH235129   7.649   5.992   3.570
11729TIP3    H135130   7.662   6.046   3.647
11729TIP3    H235131   7.624   5.906   3.604
11730TIP3   OH235132   2.955   4.464   2.118
11730TIP3    H135133   2.927   4.555   2.108
11730TIP3    H235134   2.877   4.412   2.100
11731TIP3   OH235135   3.793   0.227   2.849
11731TIP3    H135136   3.800   0.319   2.825
11731TIP3    H235137   3.725   0.193   2.791
11732TIP3   OH235138   4.067   3.103   6.081
11732TIP3    H135139   4.073   3.038   6.150
11732TIP3    H235140   4.084   3.186   6.125
11733TIP3   OH235141   2.829   3.474   4.833
11733TIP3    H135142   2.833   3.454   4.739
11733TIP3    H235143   2.795   3.564   4.836
11734TIP3   OH235144   6.862   4.181   6.280
11734TIP3    H135145   6.956   4.164   6.292
11734TIP3    H235146   6.859   4.268   6.240
11735TIP3   OH235147   2.363   4.748   5.932
11735TIP3    H135148   2.446   4.709   5.905
11735TIP3    H235149   2.302   4.674   5.936
11736TIP3   OH235150   0.571   2.484   1.856
11736TIP3    H135151   0.517   2.559   1.877
11736TIP3    H235152   0.646   2.521   1.810
11737TIP3   OH235153   7.945   2.439   6.255
11737TIP3    H135154   7.879   2.371   6.269
11737TIP3    H235155   7.962   2.436   6.161
11738TIP3   OH235156   5.157   7.318   4.827
11738TIP3    H135157   5.200   7.325   4.741
11738TIP3    H235158   5.068   7.349   4.812
11739TIP3   OH235159   6.246   4.522   6.010
11739TIP3    H135160   6.182   4.554   5.946
11739TIP3    H235161   6.209   4.440   6.041
11740TIP3   OH235162   0.989   6.964   2.560
11740TIP3    H135163   1.070   7.011   2.538
11740TIP3    H235164   0.943   6.955   2.477
11741TIP3   OH235165   6.163   4.080   3.566
11741TIP3    H135166   6.132   4.024   3.637
11741TIP3    H235167   6.163   4.169   3.603
11742TIP3   OH235168   1.847   5.290   1.027
11742TIP3    H135169   1.847   5.219   1.092
11742TIP3    H235170   1.791   5.258   0.956
11743TIP3   OH235171   0.366   7.407   4.538
11743TIP3    H135172   0.278   7.415   4.575
11743TIP3    H235173   0.424   7.448   4.603
11744TIP3   OH235174   7.182   3.739   0.440
11744TIP3    H135175   7.231   3.816   0.411
11744TIP3    H235176   7.248   3.683   0.481
11745TIP3   OH235177   5.227   0.094   2.848
11745TIP3    H135178   5.309   0.047   2.836
11745TIP3    H235179   5.179   0.044   2.914
11746TIP3   OH235180   0.243   7.541   5.069
11746TIP3    H135181   0.178   7.506   5.008
11746TIP3    H235182   0.232   7.636   5.064
11747TIP3   OH235183   6.310   1.231   6.029
11747TIP3    H135184   6.392   1.183   6.018
11747TIP3    H235185   6.335   1.312   6.072
11748TIP3   OH235186   5.579   3.581   3.424
11748TIP3    H135187   5.599   3.587   3.330
11748TIP3    H235188   5.571   3.672   3.453
11749TIP3   OH235189   4.757   6.617   6.462
11749TIP3    H135190   4.750   6.706   6.496
11749TIP3    H235191   4.668   6.581   6.470
11750TIP3   OH235192   7.267   3.127   3.546
11750TIP3    H135193   7.186   3.177   3.560
11750TIP3    H235194   7.327   3.190   3.507
11751TIP3   OH235195   1.003   2.281   2.389
11751TIP3    H135196   0.934   2.342   2.365
11751TIP3    H235197   0.957   2.200   2.410
11752TIP3   OH235198   5.987   3.990   4.165
11752TIP3    H135199   6.072   4.035   4.164
11752TIP3    H235200   5.944   4.018   4.085
11753TIP3   OH235201   3.226   5.667   6.661
11753TIP3    H135202   3.225   5.617   6.743
11753TIP3    H235203   3.168   5.741   6.677
11754TIP3   OH235204   2.487   7.098   1.669
11754TIP3    H135205   2.558   7.078   1.608
11754TIP3    H235206   2.415   7.128   1.613
11755TIP3   OH235207   1.670   6.998   4.539
11755TIP3    H135208   1.639   7.041   4.618
11755TIP3    H235209   1.765   6.995   4.548
11756TIP3   OH235210   1.278   5.475   1.566
11756TIP3    H135211   1.264   5.402   1.627
11756TIP3    H235212   1.219   5.544   1.598
11757TIP3   OH235213   4.969   5.574   1.926
11757TIP3    H135214   4.934   5.544   1.842
11757TIP3    H235215   5.064   5.575   1.913
11758TIP3   OH235216   3.350   1.804   3.257
11758TIP3    H135217   3.332   1.844   3.342
11758TIP3    H235218   3.267   1.808   3.211
11759TIP3   OH235219   3.060   4.669   2.381
11759TIP3    H135220   3.140   4.622   2.407
11759TIP3    H235221   3.036   4.630   2.297
11760TIP3   OH235222   6.721   3.893   4.623
11760TIP3    H135223   6.740   3.818   4.678
11760TIP3    H235224   6.804   3.941   4.617
11761TIP3   OH235225   6.330   0.508   6.191
11761TIP3    H135226   6.268   0.476   6.126
11761TIP3    H235227   6.281   0.572   6.243
11762TIP3   OH235228   6.773   7.172   1.095
11762TIP3    H135229   6.795   7.265   1.107
11762TIP3    H235230   6.738   7.167   1.007
11763TIP3   OH235231   3.148   4.929   6.174
11763TIP3    H135232   3.226   4.916   6.228
11763TIP3    H235233   3.146   5.022   6.156
11764TIP3   OH235234   5.614   3.440   2.948
11764TIP3    H135235   5.629   3.379   3.020
11764TIP3    H235236   5.683   3.421   2.886
11765TIP3   OH235237   0.214   5.649   6.607
11765TIP3    H135238   0.259   5.568   6.581
11765TIP3    H235239   0.121   5.630   6.598
11766TIP3   OH235240   1.261   6.943   5.903
11766TIP3    H135241   1.266   6.966   5.996
11766TIP3    H235242   1.298   6.855   5.898
11767TIP3   OH235243   6.744   6.495   4.184
11767TIP3    H135244   6.688   6.572   4.197
11767TIP3    H235245   6.814   6.505   4.248
11768TIP3   OH235246   4.238   5.559   5.158
11768TIP3    H135247   4.315   5.548   5.103
11768TIP3    H235248   4.195   5.638   5.124
11769TIP3   OH235249   3.020   6.753   1.372
11769TIP3    H135250   3.024   6.849   1.369
11769TIP3    H235251   3.095   6.727   1.425
11770TIP3   OH235252   6.198   0.411   1.412
11770TIP3    H135253   6.236   0.330   1.445
11770TIP3    H235254   6.172   0.459   1.491
11771TIP3   OH235255   0.596   5.966   5.633
11771TIP3    H135256   0.685   5.942   5.657
11771TIP3    H235257   0.560   6.008   5.711
11772TIP3   OH235258   5.076   0.888   6.289
11772TIP3    H135259   5.101   0.966   6.339
11772TIP3    H235260   5.043   0.923   6.206
11773TIP3   OH235261   4.986   4.276   5.781
11773TIP3    H135262   5.068   4.253   5.826
11773TIP3    H235263   4.919   4.268   5.849
11774TIP3   OH235264   4.008   7.366   4.784
11774TIP3    H135265   3.935   7.359   4.722
11774TIP3    H235266   3.969   7.407   4.862
11775TIP3   OH235267   1.559   2.410   5.915
11775TIP3    H135268   1.535   2.475   5.981
11775TIP3    H235269   1.536   2.451   5.832
11776TIP3   OH235270   3.430   6.093   1.422
11776TIP3    H135271   3.445   6.014   1.473
11776TIP3    H235272   3.336   6.108   1.428
11777TIP3   OH235273   7.891   0.505   1.047
11777TIP3    H135274   7.929   0.488   1.133
11777TIP3    H235275   7.862   0.596   1.050
11778TIP3   OH235276   6.571   3.982   6.621
11778TIP3    H135277   6.657   4.008   6.590
11778TIP3    H235278   6.567   3.888   6.606
11779TIP3   OH235279   2.510   2.656   5.595
11779TIP3    H135280   2.513   2.683   5.686
11779TIP3    H235281   2.599   2.670   5.562
11780TIP3   OH235282   3.573   2.791   1.406
11780TIP3    H135283   3.574   2.822   1.497
11780TIP3    H235284   3.561   2.696   1.413
11781TIP3   OH235285   5.777   7.672   6.217
11781TIP3    H135286   5.727   7.608   6.268
11781TIP3    H235287   5.752   7.757   6.253
11782TIP3   OH235288   3.716   3.656   3.091
11782TIP3    H135289   3.779   3.594   3.054
11782TIP3    H235290   3.745   3.741   3.057
11783TIP3   OH235291   4.549   6.300   1.533
11783TIP3    H135292   4.618   6.345   1.485
11783TIP3    H235293   4.490   6.369   1.562
11784TIP3   OH235294   3.426   0.312   1.688
11784TIP3    H135295   3.506   0.303   1.741
11784TIP3    H235296   3.438   0.395   1.642
11785TIP3   OH235297   3.545   1.476   5.940
11785TIP3    H135298   3.622   1.429   5.970
11785TIP3    H235299   3.568   1.505   5.852
11786TIP3   OH235300   0.886   5.299   5.692
11786TIP3    H135301   0.854   5.336   5.774
11786TIP3    H235302   0.874   5.368   5.628
11787TIP3   OH235303   5.383   5.595   0.261
11787TIP3    H135304   5.377   5.534   0.334
11787TIP3    H235305   5.409   5.541   0.186
11788TIP3   OH235306   5.501   0.589   1.957
11788TIP3    H135307   5.453   0.545   2.028
11788TIP3    H235308   5.526   0.674   1.993
11789TIP3   OH235309   0.091   4.308   4.226
11789TIP3    H135310   0.147   4.241   4.264
11789TIP3    H235311   0.133   4.332   4.143
11790TIP3   OH235312   7.301   2.585   4.603
11790TIP3    H135313   7.336   2.653   4.546
11790TIP3    H235314   7.265   2.520   4.543
11791TIP3   OH235315   1.193   4.256   0.586
11791TIP3    H135316   1.146   4.236   0.505
11791TIP3    H235317   1.263   4.317   0.559
11792TIP3   OH235318   3.584   2.929   6.127
11792TIP3    H135319   3.574   3.023   6.144
11792TIP3    H235320   3.666   2.922   6.077
11793TIP3   OH235321   2.461   5.877   6.273
11793TIP3    H135322   2.399   5.920   6.332
11793TIP3    H235323   2.523   5.946   6.249
11794TIP3   OH235324   8.225   6.651   6.829
11794TIP3    H135325   8.156   6.654   6.763
11794TIP3    H235326   8.306   6.647   6.778
11795TIP3   OH235327   7.136   6.037   0.815
11795TIP3    H135328   7.175   6.029   0.902
11795TIP3    H235329   7.132   6.132   0.800
11796TIP3   OH235330   3.049   4.817   4.751
11796TIP3    H135331   3.131   4.769   4.738
11796TIP3    H235332   2.981   4.750   4.744
11797TIP3   OH235333   6.475   6.675   3.883
11797TIP3    H135334   6.487   6.747   3.822
11797TIP3    H235335   6.528   6.603   3.848
11798TIP3   OH235336   1.714   4.831   6.097
11798TIP3    H135337   1.670   4.911   6.126
11798TIP3    H235338   1.804   4.858   6.079
11799TIP3   OH235339   6.248   2.380   4.803
11799TIP3    H135340   6.304   2.372   4.725
11799TIP3    H235341   6.189   2.453   4.782
11800TIP3   OH235342   6.984   3.246   4.670
11800TIP3    H135343   7.004   3.273   4.580
11800TIP3    H235344   7.029   3.163   4.681
11801TIP3   OH235345   3.714   3.484   4.720
11801TIP3    H135346   3.773   3.413   4.746
11801TIP3    H235347   3.629   3.442   4.709
11802TIP3   OH235348   8.266   0.563   2.354
11802TIP3    H135349   8.172   0.572   2.335
11802TIP3    H235350   8.274   0.584   2.447
11803TIP3   OH235351   6.619   2.511   4.951
11803TIP3    H135352   6.598   2.549   4.865
11803TIP3    H235353   6.681   2.441   4.931
11804TIP3   OH235354   2.494   2.716   0.081
11804TIP3    H135355   2.464   2.732   0.171
11804TIP3    H235356   2.426   2.756   0.026
11805TIP3   OH235357   1.487   3.027   2.945
11805TIP3    H135358   1.493   3.072   2.861
11805TIP3    H235359   1.486   2.934   2.922
11806TIP3   OH235360   6.074   3.858   2.075
11806TIP3    H135361   6.131   3.792   2.036
11806TIP3    H235362   6.002   3.809   2.114
11807TIP3   OH235363   7.833   3.167   3.887
11807TIP3    H135364   7.829   3.228   3.960
11807TIP3    H235365   7.784   3.090   3.917
11808TIP3   OH235366   4.240   0.453   6.094
11808TIP3    H135367   4.251   0.359   6.109
11808TIP3    H235368   4.162   0.475   6.145
11809TIP3   OH235369   2.768   2.639   1.308
11809TIP3    H135370   2.841   2.578   1.320
11809TIP3    H235371   2.760   2.685   1.391
11810TIP3   OH235372   3.315   6.544   5.002
11810TIP3    H135373   3.346   6.548   4.911
11810TIP3    H235374   3.319   6.635   5.032
11811TIP3   OH235375   6.023   1.909   6.337
11811TIP3    H135376   5.953   1.920   6.401
11811TIP3    H235377   6.093   1.864   6.385
11812TIP3   OH235378   6.549   3.119   0.742
11812TIP3    H135379   6.638   3.110   0.708
11812TIP3    H235380   6.543   3.211   0.770
11813TIP3   OH235381   4.359   5.927   3.843
11813TIP3    H135382   4.427   5.883   3.894
11813TIP3    H235383   4.405   5.962   3.766
11814TIP3   OH235384   2.980   4.518   0.666
11814TIP3    H135385   2.891   4.485   0.678
11814TIP3    H235386   3.004   4.552   0.752
11815TIP3   OH235387   0.906   5.524   3.251
11815TIP3    H135388   0.961   5.566   3.317
11815TIP3    H235389   0.818   5.524   3.289
11816TIP3   OH235390   6.104   3.827   5.838
11816TIP3    H135391   6.144   3.779   5.911
11816TIP3    H235392   6.133   3.781   5.760
11817TIP3   OH235393   6.393   0.031   2.596
11817TIP3    H135394   6.354   0.002   2.678
11817TIP3    H235395   6.378  -0.042   2.535
11818TIP3   OH235396   1.820   0.085   4.473
11818TIP3    H135397   1.845   0.089   4.381
11818TIP3    H235398   1.790   0.173   4.494
11819TIP3   OH235399   0.362   1.272   1.471
11819TIP3    H135400   0.299   1.323   1.522
11819TIP3    H235401   0.445   1.318   1.482
11820TIP3   OH235402   7.064   4.630   4.788
11820TIP3    H135403   7.052   4.630   4.693
11820TIP3    H235404   7.122   4.556   4.805
11821TIP3   OH235405   5.467   2.185   5.147
11821TIP3    H135406   5.464   2.180   5.242
11821TIP3    H235407   5.417   2.109   5.117
11822TIP3   OH235408   6.338   1.462   5.274
11822TIP3    H135409   6.378   1.377   5.293
11822TIP3    H235410   6.410   1.516   5.244
11823TIP3   OH235411   4.678   1.351   0.081
11823TIP3    H135412   4.738   1.362   0.007
11823TIP3    H235413   4.623   1.277   0.057
11824TIP3   OH235414   0.591   2.828   1.505
11824TIP3    H135415   0.596   2.818   1.410
11824TIP3    H235416   0.516   2.886   1.518
11825TIP3   OH235417   0.200   3.157   2.714
11825TIP3    H135418   0.196   3.065   2.690
11825TIP3    H235419   0.246   3.158   2.798
11826TIP3   OH235420   1.819   3.969   6.427
11826TIP3    H135421   1.841   3.878   6.448
11826TIP3    H235422   1.730   3.980   6.459
11827TIP3   OH235423   7.213   0.936   4.041
11827TIP3    H135424   7.131   0.888   4.033
11827TIP3    H235425   7.196   1.003   4.107
11828TIP3   OH235426   0.890   7.490   4.959
11828TIP3    H135427   0.862   7.467   4.870
11828TIP3    H235428   0.809   7.515   5.003
11829TIP3   OH235429   7.917   3.042   0.478
11829TIP3    H135430   7.843   2.992   0.512
11829TIP3    H235431   7.989   2.979   0.477
11830TIP3   OH235432   4.176   7.169   1.431
11830TIP3    H135433   4.174   7.145   1.339
11830TIP3    H235434   4.145   7.260   1.434
11831TIP3   OH235435   6.485   2.477   5.196
11831TIP3    H135436   6.522   2.493   5.109
11831TIP3    H235437   6.499   2.384   5.211
11832TIP3   OH235438   1.168   4.531   1.568
11832TIP3    H135439   1.212   4.540   1.653
11832TIP3    H235440   1.223   4.582   1.508
11833TIP3   OH235441   2.820   2.527   0.248
11833TIP3    H135442   2.898   2.545   0.299
11833TIP3    H235443   2.752   2.582   0.288
11834TIP3   OH235444   1.883   6.760   0.061
11834TIP3    H135445   1.802   6.734   0.019
11834TIP3    H235446   1.952   6.730   0.001
11835TIP3   OH235447   2.206   1.702   2.138
11835TIP3    H135448   2.281   1.725   2.193
11835TIP3    H235449   2.129   1.723   2.191
11836TIP3   OH235450   0.931   7.029   1.013
11836TIP3    H135451   0.846   7.036   1.055
11836TIP3    H235452   0.915   6.978   0.934
11837TIP3   OH235453   3.113   4.589   6.458
11837TIP3    H135454   3.186   4.648   6.443
11837TIP3    H235455   3.049   4.611   6.391
11838TIP3   OH235456   6.668   7.269   1.681
11838TIP3    H135457   6.588   7.232   1.719
11838TIP3    H235458   6.724   7.287   1.756
11839TIP3   OH235459   3.914   4.798   3.318
11839TIP3    H135460   3.909   4.703   3.319
11839TIP3    H235461   3.916   4.823   3.410
11840TIP3   OH235462   3.843   0.145   3.853
11840TIP3    H135463   3.841   0.056   3.816
11840TIP3    H235464   3.936   0.169   3.852
11841TIP3   OH235465   3.923   5.117   6.421
11841TIP3    H135466   4.001   5.110   6.367
11841TIP3    H235467   3.945   5.183   6.487
11842TIP3   OH235468   7.468   4.382   2.865
11842TIP3    H135469   7.427   4.445   2.924
11842TIP3    H235470   7.425   4.299   2.886
11843TIP3   OH235471   1.029   7.713   0.796
11843TIP3    H135472   0.964   7.733   0.863
11843TIP3    H235473   0.994   7.637   0.751
11844TIP3   OH235474   2.644   3.564   5.662
11844TIP3    H135475   2.728   3.519   5.649
11844TIP3    H235476   2.660   3.653   5.633
11845TIP3   OH235477   3.220   1.929   1.391
11845TIP3    H135478   3.165   1.934   1.313
11845TIP3    H235479   3.281   2.002   1.382
11846TIP3   OH235480   3.791   2.981   4.573
11846TIP3    H135481   3.746   3.050   4.622
11846TIP3    H235482   3.880   3.015   4.561
11847TIP3   OH235483   6.350   7.757   0.088
11847TIP3    H135484   6.275   7.736   0.144
11847TIP3    H235485   6.331   7.713   0.005
11848TIP3   OH235486   6.171   3.587   2.746
11848TIP3    H135487   6.095   3.629   2.707
11848TIP3    H235488   6.135   3.535   2.818
11849TIP3   OH235489   6.832   4.734   1.494
11849TIP3    H135490   6.857   4.646   1.521
11849TIP3    H235491   6.783   4.721   1.413
11850TIP3   OH235492   6.625   7.630   5.201
11850TIP3    H135493   6.539   7.669   5.186
11850TIP3    H235494   6.687   7.696   5.172
11851TIP3   OH235495   0.716   2.370   6.593
11851TIP3    H135496   0.725   2.464   6.575
11851TIP3    H235497   0.789   2.330   6.546
11852TIP3   OH235498   3.030   0.739   3.913
11852TIP3    H135499   3.020   0.709   4.004
11852TIP3    H235500   3.124   0.733   3.896
11853TIP3   OH235501   0.212   7.776   2.606
11853TIP3    H135502   0.273   7.703   2.616
11853TIP3    H235503   0.240   7.819   2.525
11854TIP3   OH235504   2.462   4.881   4.257
11854TIP3    H135505   2.380   4.929   4.258
11854TIP3    H235506   2.458   4.829   4.176
11855TIP3   OH235507   0.962   5.044   1.947
11855TIP3    H135508   0.919   5.127   1.927
11855TIP3    H235509   1.055   5.067   1.956
11856TIP3   OH235510   0.390   5.117   1.357
11856TIP3    H135511   0.449   5.050   1.392
11856TIP3    H235512   0.306   5.100   1.400
11857TIP3   OH235513   2.627   1.015   6.026
11857TIP3    H135514   2.712   0.988   5.991
11857TIP3    H235515   2.573   1.028   5.948
11858TIP3   OH235516   1.224   5.301   2.420
11858TIP3    H135517   1.195   5.389   2.445
11858TIP3    H235518   1.264   5.265   2.499
11859TIP3   OH235519   4.301   7.785   5.216
11859TIP3    H135520   4.267   7.874   5.227
11859TIP3    H235521   4.239   7.743   5.156
11860TIP3   OH235522   2.338   7.652   0.936
11860TIP3    H135523   2.416   7.654   0.992
11860TIP3    H235524   2.349   7.728   0.878
11861TIP3   OH235525   3.450   2.348   5.884
11861TIP3    H135526   3.355   2.336   5.880
11861TIP3    H235527   3.483   2.261   5.907
11862TIP3   OH235528   2.875   4.643   3.901
11862TIP3    H135529   2.872   4.577   3.970
11862TIP3    H235530   2.801   4.701   3.921
11863TIP3   OH235531   3.560   3.741   0.070
11863TIP3    H135532   3.593   3.829   0.055
11863TIP3    H235533   3.638   3.687   0.084
11864TIP3   OH235534   5.922   7.615   0.894
11864TIP3    H135535   5.863   7.540   0.884
11864TIP3    H235536   5.873   7.679   0.945
11865TIP3   OH235537   0.367   7.411   2.033
11865TIP3    H135538   0.338   7.325   2.061
11865TIP3    H235539   0.295   7.445   1.980
11866TIP3   OH235540   0.241   2.681   1.711
11866TIP3    H135541   0.208   2.592   1.696
11866TIP3    H235542   0.173   2.723   1.764
11867TIP3   OH235543   5.281   4.199   2.482
11867TIP3    H135544   5.324   4.132   2.535
11867TIP3    H235545   5.224   4.150   2.422
11868TIP3   OH235546   1.778   0.097   5.112
11868TIP3    H135547   1.807   0.168   5.054
11868TIP3    H235548   1.766   0.022   5.055
11869TIP3   OH235549   6.363   6.047   0.311
11869TIP3    H135550   6.286   6.057   0.368
11869TIP3    H235551   6.434   6.022   0.371
11870TIP3   OH235552   5.259   5.656   2.695
11870TIP3    H135553   5.327   5.637   2.630
11870TIP3    H235554   5.272   5.592   2.764
11871TIP3   OH235555   0.481   4.971   0.790
11871TIP3    H135556   0.492   4.903   0.856
11871TIP3    H235557   0.394   5.008   0.808
11872TIP3   OH235558   1.216   4.518   4.175
11872TIP3    H135559   1.137   4.548   4.130
11872TIP3    H235560   1.234   4.584   4.241
11873TIP3   OH235561   4.878   1.690   4.197
11873TIP3    H135562   4.813   1.760   4.196
11873TIP3    H235563   4.840   1.621   4.143
11874TIP3   OH235564   3.645   3.505   2.786
11874TIP3    H135565   3.660   3.448   2.710
11874TIP3    H235566   3.730   3.544   2.804
11875TIP3   OH235567   1.902   7.179   1.885
11875TIP3    H135568   1.836   7.232   1.840
11875TIP3    H235569   1.977   7.180   1.825
11876TIP3   OH235570   5.798   3.001   4.892
11876TIP3    H135571   5.753   3.085   4.893
11876TIP3    H235572   5.792   2.971   4.801
11877TIP3   OH235573   0.562   2.893   6.743
11877TIP3    H135574   0.597   2.823   6.688
11877TIP3    H235575   0.528   2.958   6.682
11878TIP3   OH235576   7.850   5.904   5.377
11878TIP3    H135577   7.876   5.906   5.469
11878TIP3    H235578   7.816   5.816   5.362
11879TIP3   OH235579   5.081   6.598   0.598
11879TIP3    H135580   5.169   6.580   0.631
11879TIP3    H235581   5.092   6.674   0.541
11880TIP3   OH235582   5.199   5.066   6.586
11880TIP3    H135583   5.146   5.032   6.658
11880TIP3    H235584   5.136   5.082   6.516
11881TIP3   OH235585   8.175   5.166   0.533
11881TIP3    H135586   8.193   5.101   0.465
11881TIP3    H235587   8.225   5.136   0.608
11882TIP3   OH235588   3.010   2.103   5.305
11882TIP3    H135589   2.930   2.082   5.257
11882TIP3    H235590   3.034   2.022   5.350
11883TIP3   OH235591   1.795   6.806   3.731
11883TIP3    H135592   1.778   6.820   3.824
11883TIP3    H235593   1.757   6.883   3.688
11884TIP3   OH235594   1.441   2.964   1.260
11884TIP3    H135595   1.489   2.923   1.188
11884TIP3    H235596   1.457   2.907   1.336
11885TIP3   OH235597   0.680   1.353   4.387
11885TIP3    H135598   0.755   1.305   4.354
11885TIP3    H235599   0.604   1.307   4.352
11886TIP3   OH235600   7.651   1.893   1.834
11886TIP3    H135601   7.651   1.868   1.927
11886TIP3    H235602   7.585   1.961   1.827
11887TIP3   OH235603   3.395   2.302   3.865
11887TIP3    H135604   3.311   2.304   3.912
11887TIP3    H235605   3.461   2.307   3.934
11888TIP3   OH235606   2.266   2.559   2.529
11888TIP3    H135607   2.183   2.526   2.495
11888TIP3    H235608   2.261   2.654   2.515
11889TIP3   OH235609   6.093   5.795   2.715
11889TIP3    H135610   6.172   5.807   2.768
11889TIP3    H235611   6.094   5.701   2.693
11890TIP3   OH235612   0.350   0.729   6.126
11890TIP3    H135613   0.313   0.809   6.088
11890TIP3    H235614   0.321   0.659   6.068
11891TIP3   OH235615   7.480   2.989   2.312
11891TIP3    H135616   7.493   2.949   2.398
11891TIP3    H235617   7.508   3.080   2.324
11892TIP3   OH235618   2.089   6.096   5.864
11892TIP3    H135619   2.039   6.035   5.918
11892TIP3    H235620   2.098   6.175   5.918
11893TIP3   OH235621   4.004   4.062   4.919
11893TIP3    H135622   4.006   4.152   4.886
11893TIP3    H235623   3.976   4.009   4.844
11894TIP3   OH235624   5.829   0.779   3.044
11894TIP3    H135625   5.910   0.751   3.086
11894TIP3    H235626   5.826   0.874   3.058
11895TIP3   OH235627   7.701   7.413   5.224
11895TIP3    H135628   7.698   7.502   5.189
11895TIP3    H235629   7.641   7.414   5.298
11896TIP3   OH235630   6.465   7.061   5.008
11896TIP3    H135631   6.374   7.072   5.038
11896TIP3    H235632   6.489   7.147   4.975
11897TIP3   OH235633   4.795   4.989   4.997
11897TIP3    H135634   4.781   4.962   5.087
11897TIP3    H235635   4.884   5.023   4.996
11898TIP3   OH235636   1.301   5.731   3.273
11898TIP3    H135637   1.241   5.783   3.326
11898TIP3    H235638   1.259   5.726   3.187
11899TIP3   OH235639   6.502   4.302   2.494
11899TIP3    H135640   6.422   4.298   2.443
11899TIP3    H235641   6.542   4.386   2.470
11900TIP3   OH235642   3.782   2.783   3.892
11900TIP3    H135643   3.769   2.848   3.960
11900TIP3    H235644   3.746   2.823   3.813
11901TIP3   OH235645   6.802   1.373   3.799
11901TIP3    H135646   6.870   1.440   3.796
11901TIP3    H235647   6.849   1.290   3.808
11902TIP3   OH235648   6.400   3.845   4.688
11902TIP3    H135649   6.468   3.894   4.734
11902TIP3    H235650   6.390   3.764   4.738
11903TIP3   OH235651   7.600   1.988   4.631
11903TIP3    H135652   7.607   1.898   4.664
11903TIP3    H235653   7.676   2.000   4.575
11904TIP3   OH235654   3.773   6.669   6.133
11904TIP3    H135655   3.818   6.706   6.209
11904TIP3    H235656   3.719   6.599   6.170
11905TIP3   OH235657   3.398   0.062   5.709
11905TIP3    H135658   3.492   0.074   5.724
11905TIP3    H235659   3.375  -0.016   5.758
11906TIP3   OH235660   4.169   1.502   0.948
11906TIP3    H135661   4.098   1.561   0.974
11906TIP3    H235662   4.127   1.417   0.936
11907TIP3   OH235663   0.948   1.550   3.901
11907TIP3    H135664   0.919   1.476   3.955
11907TIP3    H235665   0.988   1.509   3.825
11908TIP3   OH235666   6.625   3.282   1.383
11908TIP3    H135667   6.577   3.263   1.464
11908TIP3    H235668   6.596   3.370   1.358
11909TIP3   OH235669   1.753   0.729   6.446
11909TIP3    H135670   1.745   0.800   6.383
11909TIP3    H235671   1.826   0.676   6.413
11910TIP3   OH235672   7.666   2.868   4.310
11910TIP3    H135673   7.684   2.881   4.403
11910TIP3    H235674   7.614   2.788   4.306
11911TIP3   OH235675   4.961   7.081   6.134
11911TIP3    H135676   4.981   6.987   6.135
11911TIP3    H235677   4.886   7.090   6.193
11912TIP3   OH235678   1.968   6.574   5.261
11912TIP3    H135679   1.961   6.576   5.166
11912TIP3    H235680   1.965   6.666   5.288
11913TIP3   OH235681   6.931   2.175   2.159
11913TIP3    H135682   6.861   2.128   2.205
11913TIP3    H235683   6.992   2.107   2.132
11914TIP3   OH235684   4.164   6.905   1.214
11914TIP3    H135685   4.233   6.840   1.200
11914TIP3    H235686   4.145   6.900   1.308
11915TIP3   OH235687   2.270   1.851   3.860
11915TIP3    H135688   2.364   1.868   3.854
11915TIP3    H235689   2.264   1.756   3.875
11916TIP3   OH235690   4.598   6.605   3.562
11916TIP3    H135691   4.612   6.516   3.531
11916TIP3    H235692   4.533   6.596   3.632
11917TIP3   OH235693   7.515   3.655   4.854
11917TIP3    H135694   7.453   3.593   4.892
11917TIP3    H235695   7.461   3.716   4.804
11918TIP3   OH235696   4.022   1.365   2.529
11918TIP3    H135697   4.005   1.342   2.620
11918TIP3    H235698   3.943   1.336   2.482
11919TIP3   OH235699   4.429   4.819   5.272
11919TIP3    H135700   4.355   4.820   5.211
11919TIP3    H235701   4.477   4.739   5.250
11920TIP3   OH235702   6.807   2.209   3.392
11920TIP3    H135703   6.732   2.255   3.354
11920TIP3    H235704   6.839   2.268   3.460
11921TIP3   OH235705   3.018   3.466   4.349
11921TIP3    H135706   2.946   3.488   4.408
11921TIP3    H235707   2.991   3.384   4.308
11922TIP3   OH235708   1.295   6.989   5.612
11922TIP3    H135709   1.274   7.012   5.703
11922TIP3    H235710   1.320   7.071   5.571
11923TIP3   OH235711   0.461   4.345   2.942
11923TIP3    H135712   0.418   4.389   3.015
11923TIP3    H235713   0.394   4.337   2.875
11924TIP3   OH235714   6.440   4.868   2.653
11924TIP3    H135715   6.460   4.834   2.565
11924TIP3    H235716   6.493   4.947   2.660
11925TIP3   OH235717   0.012   0.984   1.643
11925TIP3    H135718   0.003   1.044   1.717
11925TIP3    H235719   0.106   0.974   1.630
11926TIP3   OH235720   0.890   2.284   5.496
11926TIP3    H135721   0.805   2.259   5.461
11926TIP3    H235722   0.913   2.214   5.557
11927TIP3   OH235723   6.890   6.297   1.230
11927TIP3    H135724   6.852   6.232   1.171
11927TIP3    H235725   6.889   6.379   1.180
11928TIP3   OH235726   5.366   5.949   2.672
11928TIP3    H135727   5.440   5.963   2.731
11928TIP3    H235728   5.364   5.855   2.658
11929TIP3   OH235729   6.953   6.221   4.265
11929TIP3    H135730   7.024   6.158   4.253
11929TIP3    H235731   6.906   6.221   4.181
11930TIP3   OH235732   5.718   0.881   0.302
11930TIP3    H135733   5.806   0.914   0.320
11930TIP3    H235734   5.695   0.921   0.218
11931TIP3   OH235735   2.316   6.588   2.428
11931TIP3    H135736   2.284   6.675   2.450
11931TIP3    H235737   2.294   6.577   2.336
11932TIP3   OH235738   6.854   5.012   5.710
11932TIP3    H135739   6.904   4.998   5.790
11932TIP3    H235740   6.920   5.023   5.642
11933TIP3   OH235741   1.754   6.028   3.218
11933TIP3    H135742   1.724   5.971   3.148
11933TIP3    H235743   1.821   6.083   3.177
11934TIP3   OH235744   2.206   2.084   3.286
11934TIP3    H135745   2.136   2.020   3.275
11934TIP3    H235746   2.161   2.166   3.307
11935TIP3   OH235747   2.396   1.709   1.786
11935TIP3    H135748   2.345   1.629   1.775
11935TIP3    H235749   2.331   1.777   1.805
11936TIP3   OH235750   0.429   5.043   2.510
11936TIP3    H135751   0.484   5.115   2.480
11936TIP3    H235752   0.479   5.002   2.581
11937TIP3   OH235753   0.913   1.709   2.516
11937TIP3    H135754   0.907   1.637   2.453
11937TIP3    H235755   0.954   1.781   2.467
11938TIP3   OH235756   1.082   3.976   0.459
11938TIP3    H135757   1.109   3.884   0.465
11938TIP3    H235758   1.087   3.996   0.365
11939TIP3   OH235759   4.631   0.776   0.378
11939TIP3    H135760   4.592   0.848   0.427
11939TIP3    H235761   4.573   0.764   0.303
11940TIP3   OH235762   6.085   4.350   5.445
11940TIP3    H135763   6.051   4.435   5.417
11940TIP3    H235764   6.053   4.288   5.380
11941TIP3   OH235765   2.396   6.795   3.684
11941TIP3    H135766   2.375   6.779   3.776
11941TIP3    H235767   2.360   6.883   3.667
11942TIP3   OH235768   7.220   0.110   0.809
11942TIP3    H135769   7.185   0.055   0.739
11942TIP3    H235770   7.232   0.050   0.883
11943TIP3   OH235771   8.224   2.023   3.670
11943TIP3    H135772   8.228   1.929   3.688
11943TIP3    H235773   8.316   2.048   3.657
11944TIP3   OH235774   5.346   0.333   6.691
11944TIP3    H135775   5.358   0.399   6.759
11944TIP3    H235776   5.413   0.353   6.626
11945TIP3   OH235777   1.202   2.711   0.517
11945TIP3    H135778   1.194   2.627   0.471
11945TIP3    H235779   1.261   2.693   0.590
11946TIP3   OH235780   4.103   4.271   2.215
11946TIP3    H135781   4.148   4.211   2.156
11946TIP3    H235782   4.168   4.293   2.282
11947TIP3   OH235783   2.558   2.997   5.300
11947TIP3    H135784   2.467   2.992   5.272
11947TIP3    H235785   2.589   3.081   5.267
11948TIP3   OH235786   2.275   6.437   3.381
11948TIP3    H135787   2.341   6.415   3.447
11948TIP3    H235788   2.256   6.530   3.397
11949TIP3   OH235789   5.026   2.827   1.713
11949TIP3    H135790   5.037   2.915   1.749
11949TIP3    H235791   4.947   2.833   1.659
11950TIP3   OH235792   8.005   4.599   2.881
11950TIP3    H135793   7.963   4.517   2.908
11950TIP3    H235794   7.946   4.667   2.914
11951TIP3   OH235795   6.349   1.330   4.632
11951TIP3    H135796   6.338   1.239   4.659
11951TIP3    H235797   6.260   1.361   4.616
11952TIP3   OH235798   2.645   7.463   1.640
11952TIP3    H135799   2.725   7.445   1.689
11952TIP3    H235800   2.622   7.553   1.664
11953TIP3   OH235801   2.809   1.918   1.656
11953TIP3    H135802   2.735   1.857   1.654
11953TIP3    H235803   2.808   1.960   1.570
11954TIP3   OH235804   1.106   2.267   5.312
11954TIP3    H135805   1.044   2.279   5.385
11954TIP3    H235806   1.130   2.356   5.287
11955TIP3   OH235807   6.151   1.031   5.853
11955TIP3    H135808   6.181   1.026   5.944
11955TIP3    H235809   6.220   0.988   5.803
11956TIP3   OH235810   4.271   7.402   0.837
11956TIP3    H135811   4.289   7.399   0.931
11956TIP3    H235812   4.178   7.420   0.831
11957TIP3   OH235813   2.628   7.356   2.071
11957TIP3    H135814   2.653   7.361   2.163
11957TIP3    H235815   2.609   7.264   2.056
11958TIP3   OH235816   3.717   1.071   3.058
11958TIP3    H135817   3.697   1.045   3.148
11958TIP3    H235818   3.676   1.004   3.004
11959TIP3   OH235819   6.621   7.675   0.979
11959TIP3    H135820   6.579   7.648   0.897
11959TIP3    H235821   6.565   7.638   1.048
11960TIP3   OH235822   4.480   1.382   5.774
11960TIP3    H135823   4.541   1.320   5.815
11960TIP3    H235824   4.393   1.351   5.801
11961TIP3   OH235825   1.165   0.466   1.287
11961TIP3    H135826   1.150   0.443   1.195
11961TIP3    H235827   1.258   0.485   1.292
11962TIP3   OH235828   6.517   2.798   3.504
11962TIP3    H135829   6.526   2.745   3.425
11962TIP3    H235830   6.603   2.836   3.517
11963TIP3   OH235831   3.035   5.000   5.012
11963TIP3    H135832   2.955   4.950   5.031
11963TIP3    H235833   3.045   4.994   4.917
11964TIP3   OH235834   3.561   1.593   4.840
11964TIP3    H135835   3.555   1.634   4.926
11964TIP3    H235836   3.615   1.516   4.852
11965TIP3   OH235837   6.253   5.987   5.751
11965TIP3    H135838   6.332   6.039   5.737
11965TIP3    H235839   6.275   5.932   5.826
11966TIP3   OH235840   0.857   0.947   2.743
11966TIP3    H135841   0.774   0.971   2.702
11966TIP3    H235842   0.849   0.853   2.759
11967TIP3   OH235843   2.187   7.131   5.797
11967TIP3    H135844   2.156   7.069   5.731
11967TIP3    H235845   2.116   7.194   5.806
11968TIP3   OH235846   3.991   2.902   4.995
11968TIP3    H135847   4.053   2.973   5.009
11968TIP3    H235848   4.034   2.845   4.931
11969TIP3   OH235849   3.084   5.266   4.536
11969TIP3    H135850   3.031   5.343   4.557
11969TIP3    H235851   3.121   5.238   4.620
11970TIP3   OH235852   2.220   7.002   3.918
11970TIP3    H135853   2.240   7.059   3.844
11970TIP3    H235854   2.179   7.060   3.982
11971TIP3   OH235855   6.792   3.308   6.703
11971TIP3    H135856   6.823   3.247   6.769
11971TIP3    H235857   6.766   3.253   6.629
11972TIP3   OH235858   4.756   1.776   4.631
11972TIP3    H135859   4.760   1.863   4.670
11972TIP3    H235860   4.672   1.774   4.585
11973TIP3   OH235861   1.474   4.833   4.756
11973TIP3    H135862   1.470   4.738   4.753
11973TIP3    H235863   1.557   4.856   4.714
11974TIP3   OH235864   4.808   5.324   5.264
11974TIP3    H135865   4.848   5.366   5.189
11974TIP3    H235866   4.841   5.374   5.340
11975TIP3   OH235867   4.274   5.814   5.009
11975TIP3    H135868   4.369   5.825   5.015
11975TIP3    H235869   4.248   5.872   4.937
11976TIP3   OH235870   1.194   4.971   4.101
11976TIP3    H135871   1.110   4.961   4.057
11976TIP3    H235872   1.171   4.974   4.194
11977TIP3   OH235873   4.043   5.571   3.304
11977TIP3    H135874   4.109   5.631   3.268
11977TIP3    H235875   4.065   5.565   3.397
11978TIP3   OH235876   0.761   2.939   1.017
11978TIP3    H135877   0.667   2.938   1.032
11978TIP3    H235878   0.771   2.975   0.928
11979TIP3   OH235879   0.418   0.400   3.205
11979TIP3    H135880   0.331   0.431   3.232
11979TIP3    H235881   0.470   0.399   3.285
11980TIP3   OH235882   1.752   4.108   5.074
11980TIP3    H135883   1.689   4.168   5.113
11980TIP3    H235884   1.832   4.159   5.066
11981TIP3   OH235885   1.551   3.167   2.704
11981TIP3    H135886   1.461   3.184   2.674
11981TIP3    H235887   1.601   3.155   2.623
11982TIP3   OH235888   6.968   0.132   2.185
11982TIP3    H135889   6.962   0.050   2.234
11982TIP3    H235890   6.938   0.111   2.097
11983TIP3   OH235891   3.832   1.800   5.092
11983TIP3    H135892   3.864   1.781   5.004
11983TIP3    H235893   3.908   1.834   5.138
11984TIP3   OH235894   8.024   5.583   1.581
11984TIP3    H135895   7.931   5.574   1.601
11984TIP3    H235896   8.027   5.616   1.491
11985TIP3   OH235897   3.815   3.874   2.948
11985TIP3    H135898   3.746   3.921   2.902
11985TIP3    H235899   3.886   3.866   2.884
11986TIP3   OH235900   6.930   6.468   4.414
11986TIP3    H135901   6.943   6.379   4.381
11986TIP3    H235902   6.913   6.457   4.507
11987TIP3   OH235903   1.450   1.956   5.395
11987TIP3    H135904   1.361   1.921   5.403
11987TIP3    H235905   1.503   1.881   5.367
11988TIP3   OH235906   0.960   7.260   2.947
11988TIP3    H135907   0.992   7.338   2.990
11988TIP3    H235908   1.018   7.247   2.872
11989TIP3   OH235909   0.224   3.735   2.453
11989TIP3    H135910   0.252   3.827   2.452
11989TIP3    H235911   0.304   3.685   2.437
11990TIP3   OH235912   4.531   0.211   6.524
11990TIP3    H135913   4.477   0.157   6.582
11990TIP3    H235914   4.612   0.225   6.573
11991TIP3   OH235915   3.718   7.407   3.091
11991TIP3    H135916   3.754   7.402   3.002
11991TIP3    H235917   3.623   7.409   3.077
11992TIP3   OH235918   3.917   1.205   3.186
11992TIP3    H135919   3.863   1.277   3.217
11992TIP3    H235920   3.860   1.157   3.126
11993TIP3   OH235921   0.208   4.224   1.209
11993TIP3    H135922   0.260   4.164   1.155
11993TIP3    H235923   0.150   4.268   1.147
11994TIP3   OH235924   0.114   3.759   1.299
11994TIP3    H135925   0.031   3.807   1.290
11994TIP3    H235926   0.101   3.704   1.377
11995TIP3   OH235927   4.496   0.588   1.671
11995TIP3    H135928   4.590   0.585   1.655
11995TIP3    H235929   4.485   0.653   1.740
11996TIP3   OH235930   2.332   5.940   0.170
11996TIP3    H135931   2.306   5.908   0.083
11996TIP3    H235932   2.388   5.871   0.205
11997TIP3   OH235933   7.598   0.378   6.287
11997TIP3    H135934   7.591   0.282   6.281
11997TIP3    H235935   7.508   0.407   6.302
11998TIP3   OH235936   2.208   6.726   6.198
11998TIP3    H135937   2.127   6.745   6.152
11998TIP3    H235938   2.267   6.798   6.175
11999TIP3   OH235939   4.188   5.273   6.482
11999TIP3    H135940   4.140   5.349   6.517
11999TIP3    H235941   4.274   5.278   6.526
12000TIP3   OH235942   6.550   1.049   4.497
12000TIP3    H135943   6.580   1.140   4.493
12000TIP3    H235944   6.622   0.998   4.459
12001TIP3   OH235945   0.149   3.737   3.728
12001TIP3    H135946   0.077   3.747   3.665
12001TIP3    H235947   0.124   3.661   3.781
12002TIP3   OH235948   0.995   1.190   0.315
12002TIP3    H135949   1.000   1.131   0.390
12002TIP3    H235950   1.025   1.274   0.348
12003TIP3   OH235951   8.256   6.595   4.442
12003TIP3    H135952   8.289   6.557   4.523
12003TIP3    H235953   8.265   6.526   4.377
12004TIP3   OH235954   7.294   1.152   5.196
12004TIP3    H135955   7.256   1.069   5.166
12004TIP3    H235956   7.377   1.158   5.150
12005TIP3   OH235957   2.286   3.462   6.563
12005TIP3    H135958   2.208   3.414   6.537
12005TIP3    H235959   2.253   3.547   6.592
12006TIP3   OH235960   8.148   5.180   1.589
12006TIP3    H135961   8.137   5.182   1.494
12006TIP3    H235962   8.238   5.148   1.601
12007TIP3   OH235963   1.768   1.093   5.367
12007TIP3    H135964   1.829   1.031   5.407
12007TIP3    H235965   1.809   1.179   5.380
12008TIP3   OH235966   6.227   3.566   4.144
12008TIP3    H135967   6.204   3.656   4.166
12008TIP3    H235968   6.157   3.513   4.182
12009TIP3   OH235969   6.860   1.645   4.044
12009TIP3    H135970   6.821   1.723   4.083
12009TIP3    H235971   6.859   1.662   3.950
12010TIP3   OH235972   2.255   3.600   0.773
12010TIP3    H135973   2.170   3.586   0.730
12010TIP3    H235974   2.282   3.688   0.746
12011TIP3   OH235975   6.375   4.152   3.891
12011TIP3    H135976   6.421   4.110   3.964
12011TIP3    H235977   6.432   4.139   3.816
12012TIP3   OH235978   2.640   6.060   4.302
12012TIP3    H135979   2.589   5.994   4.254
12012TIP3    H235980   2.655   6.129   4.238
12013TIP3   OH235981   7.579   5.775   5.702
12013TIP3    H135982   7.497   5.756   5.747
12013TIP3    H235983   7.552   5.807   5.616
12014TIP3   OH235984   1.809   1.835   3.399
12014TIP3    H135985   1.805   1.914   3.453
12014TIP3    H235986   1.756   1.770   3.446
12015TIP3   OH235987   4.623   7.317   5.901
12015TIP3    H135988   4.709   7.275   5.896
12015TIP3    H235989   4.576   7.284   5.825
12016TIP3   OH235990   0.622   3.571   3.421
12016TIP3    H135991   0.609   3.477   3.433
12016TIP3    H235992   0.626   3.606   3.510
12017TIP3   OH235993   7.833   0.337   4.917
12017TIP3    H135994   7.801   0.256   4.878
12017TIP3    H235995   7.835   0.400   4.845
12018TIP3   OH235996   0.711   7.425   3.096
12018TIP3    H135997   0.723   7.362   3.025
12018TIP3    H235998   0.628   7.468   3.076
12019TIP3   OH235999   5.945   7.556   6.011
12019TIP3    H136000   6.000   7.481   6.033
12019TIP3    H236001   5.922   7.594   6.096
12020TIP3   OH236002   4.748   5.518   2.104
12020TIP3    H136003   4.744   5.590   2.167
12020TIP3    H236004   4.803   5.552   2.033
12021TIP3   OH236005   6.787   5.022   1.186
12021TIP3    H136006   6.757   5.058   1.102
12021TIP3    H236007   6.714   4.968   1.216
12022TIP3   OH236008   0.213   0.678   5.679
12022TIP3    H136009   0.153   0.625   5.625
12022TIP3    H236010   0.212   0.635   5.764
12023TIP3   OH236011   2.503   4.968   0.137
12023TIP3    H136012   2.575   5.026   0.160
12023TIP3    H236013   2.545   4.890   0.103
12024TIP3   OH236014   5.541   7.145   5.865
12024TIP3    H136015   5.517   7.054   5.851
12024TIP3    H236016   5.635   7.144   5.883
12025TIP3   OH236017   8.072   6.087   5.710
12025TIP3    H136018   8.075   6.174   5.748
12025TIP3    H236019   8.155   6.077   5.665
12026TIP3   OH236020   3.669   7.052   3.886
12026TIP3    H136021   3.737   7.015   3.829
12026TIP3    H236022   3.717   7.098   3.954
12027TIP3   OH236023   4.989   6.247   2.771
12027TIP3    H136024   5.050   6.320   2.760
12027TIP3    H236025   5.043   6.169   2.757
12028TIP3   OH236026   4.552   7.187   1.361
12028TIP3    H136027   4.494   7.193   1.285
12028TIP3    H236028   4.639   7.207   1.327
12029TIP3   OH236029   4.735   5.224   3.322
12029TIP3    H136030   4.713   5.277   3.245
12029TIP3    H236031   4.765   5.288   3.387
12030TIP3   OH236032   4.247   6.598   1.861
12030TIP3    H136033   4.302   6.674   1.841
12030TIP3    H236034   4.216   6.568   1.775
12031TIP3   OH236035   4.560   3.696   2.658
12031TIP3    H136036   4.545   3.725   2.748
12031TIP3    H236037   4.643   3.649   2.662
12032TIP3   OH236038   1.908   3.543   2.132
12032TIP3    H136039   1.927   3.585   2.216
12032TIP3    H236040   1.970   3.470   2.128
12033TIP3   OH236041   7.895   6.661   5.952
12033TIP3    H136042   7.882   6.752   5.980
12033TIP3    H236043   7.816   6.615   5.980
12034TIP3   OH236044   6.871   2.398   0.860
12034TIP3    H136045   6.924   2.415   0.782
12034TIP3    H236046   6.864   2.303   0.864
12035TIP3   OH236047   3.079   1.503   5.965
12035TIP3    H136048   3.018   1.430   5.964
12035TIP3    H236049   3.144   1.478   6.030
12036TIP3   OH236050   5.869   7.576   4.098
12036TIP3    H136051   5.842   7.534   4.179
12036TIP3    H236052   5.818   7.657   4.094
12037TIP3   OH236053   6.289   3.147   1.745
12037TIP3    H136054   6.214   3.204   1.758
12037TIP3    H236055   6.253   3.058   1.755
12038TIP3   OH236056   6.628   1.613   6.153
12038TIP3    H136057   6.715   1.584   6.179
12038TIP3    H236058   6.626   1.706   6.175
12039TIP3   OH236059   6.089   1.082   1.396
12039TIP3    H136060   6.001   1.053   1.373
12039TIP3    H236061   6.088   1.177   1.384
12040TIP3   OH236062   1.960   0.788   6.650
12040TIP3    H136063   2.032   0.837   6.608
12040TIP3    H236064   1.900   0.767   6.578
12041TIP3   OH236065   1.731   5.095   3.160
12041TIP3    H136066   1.643   5.124   3.183
12041TIP3    H236067   1.720   5.048   3.077
12042TIP3   OH236068   8.184   1.728   1.414
12042TIP3    H136069   8.116   1.697   1.474
12042TIP3    H236070   8.154   1.701   1.327
12043TIP3   OH236071   4.617   7.529   6.066
12043TIP3    H136072   4.598   7.466   5.997
12043TIP3    H236073   4.557   7.602   6.049
12044TIP3   OH236074   0.271   3.262   0.314
12044TIP3    H136075   0.199   3.248   0.375
12044TIP3    H236076   0.264   3.355   0.290
12045TIP3   OH236077   7.679   7.345   0.832
12045TIP3    H136078   7.687   7.439   0.843
12045TIP3    H236079   7.743   7.308   0.892
12046TIP3   OH236080   7.942   0.903   3.726
12046TIP3    H136081   7.967   0.930   3.814
12046TIP3    H236082   7.847   0.894   3.730
12047TIP3   OH236083   0.627   1.052   2.963
12047TIP3    H136084   0.702   0.992   2.963
12047TIP3    H236085   0.560   1.006   2.912
12048TIP3   OH236086   6.937   0.790   6.612
12048TIP3    H136087   6.976   0.874   6.587
12048TIP3    H236088   6.905   0.804   6.702
12049TIP3   OH236089   7.008   5.874   4.397
12049TIP3    H136090   7.094   5.906   4.370
12049TIP3    H236091   6.972   5.944   4.451
12050TIP3   OH236092   1.440   6.858   4.423
12050TIP3    H136093   1.505   6.788   4.435
12050TIP3    H236094   1.455   6.917   4.497
12051TIP3   OH236095   4.213   4.137   1.002
12051TIP3    H136096   4.240   4.200   0.935
12051TIP3    H236097   4.130   4.102   0.969
12052TIP3   OH236098   4.870   4.728   0.139
12052TIP3    H136099   4.844   4.819   0.156
12052TIP3    H236100   4.823   4.704   0.059
12053TIP3   OH236101   5.610   4.513   3.935
12053TIP3    H136102   5.636   4.467   4.015
12053TIP3    H236103   5.690   4.557   3.906
12054TIP3   OH236104   0.550   5.197   5.935
12054TIP3    H136105   0.592   5.117   5.966
12054TIP3    H236106   0.470   5.167   5.892
12055TIP3   OH236107   0.104   0.782   4.271
12055TIP3    H136108   0.182   0.804   4.322
12055TIP3    H236109   0.032   0.826   4.318
12056TIP3   OH236110   6.929   4.938   1.794
12056TIP3    H136111   6.842   4.901   1.811
12056TIP3    H236112   6.921   5.030   1.821
12057TIP3   OH236113  -0.009   6.940   4.265
12057TIP3    H136114   0.084   6.922   4.277
12057TIP3    H236115  -0.027   6.915   4.174
12058TIP3   OH236116   6.201   4.007   2.609
12058TIP3    H136117   6.272   3.983   2.669
12058TIP3    H236118   6.181   4.098   2.630
12059TIP3   OH236119   0.998   4.530   5.842
12059TIP3    H136120   1.037   4.575   5.767
12059TIP3    H236121   0.969   4.601   5.900
12060TIP3   OH236122   0.321   7.328   1.324
12060TIP3    H136123   0.342   7.421   1.335
12060TIP3    H236124   0.398   7.282   1.358
12061TIP3   OH236125   5.883   4.481   3.251
12061TIP3    H136126   5.820   4.539   3.208
12061TIP3    H236127   5.937   4.540   3.305
12062TIP3   OH236128   7.534   0.779   2.268
12062TIP3    H136129   7.446   0.777   2.231
12062TIP3    H236130   7.584   0.720   2.213
12063TIP3   OH236131   5.225   1.722   0.146
12063TIP3    H136132   5.146   1.719   0.201
12063TIP3    H236133   5.286   1.661   0.188
12064TIP3   OH236134   0.867   3.749   1.451
12064TIP3    H136135   0.891   3.662   1.420
12064TIP3    H236136   0.937   3.806   1.418
12065TIP3   OH236137   7.804   1.781   4.699
12065TIP3    H136138   7.788   1.713   4.633
12065TIP3    H236139   7.861   1.844   4.654
12066TIP3   OH236140   0.207   0.611   5.082
12066TIP3    H136141   0.178   0.649   4.999
12066TIP3    H236142   0.127   0.577   5.122
12067TIP3   OH236143   5.554   7.101   2.224
12067TIP3    H136144   5.520   7.015   2.198
12067TIP3    H236145   5.648   7.094   2.211
12068TIP3   OH236146   0.863   5.828   2.479
12068TIP3    H136147   0.845   5.784   2.396
12068TIP3    H236148   0.818   5.913   2.471
12069TIP3   OH236149   6.871   1.437   5.707
12069TIP3    H136150   6.824   1.377   5.765
12069TIP3    H236151   6.960   1.402   5.704
12070TIP3   OH236152   2.311   1.783   1.168
12070TIP3    H136153   2.329   1.758   1.258
12070TIP3    H236154   2.395   1.817   1.136
12071TIP3   OH236155   1.066   4.043   2.065
12071TIP3    H136156   1.021   3.995   2.134
12071TIP3    H236157   1.015   4.124   2.054
12072TIP3   OH236158   7.034   3.546   5.971
12072TIP3    H136159   6.966   3.611   5.989
12072TIP3    H236160   7.055   3.558   5.879
12073TIP3   OH236161   5.293   2.582   1.227
12073TIP3    H136162   5.284   2.621   1.314
12073TIP3    H236163   5.372   2.529   1.232
12074TIP3   OH236164   4.088   0.066   2.086
12074TIP3    H136165   3.997   0.094   2.100
12074TIP3    H236166   4.140   0.144   2.102
12075TIP3   OH236167   1.735   4.704   4.311
12075TIP3    H136168   1.820   4.724   4.273
12075TIP3    H236169   1.728   4.609   4.307
12076TIP3   OH236170   5.035   2.453   1.284
12076TIP3    H136171   5.010   2.512   1.354
12076TIP3    H236172   5.116   2.491   1.248
12077TIP3   OH236173   6.178   6.292   6.682
12077TIP3    H136174   6.165   6.333   6.596
12077TIP3    H236175   6.155   6.200   6.668
12078TIP3   OH236176   5.314   1.893   0.849
12078TIP3    H136177   5.365   1.970   0.827
12078TIP3    H236178   5.326   1.881   0.943
12079TIP3   OH236179   2.030   3.529   3.124
12079TIP3    H136180   2.116   3.564   3.098
12079TIP3    H236181   2.051   3.460   3.187
12080TIP3   OH236182   3.017   6.192   3.385
12080TIP3    H136183   3.000   6.125   3.451
12080TIP3    H236184   3.108   6.217   3.398
12081TIP3   OH236185   6.397   7.668   2.810
12081TIP3    H136186   6.310   7.659   2.850
12081TIP3    H236187   6.440   7.735   2.863
12082TIP3   OH236188   2.322   5.719   4.158
12082TIP3    H136189   2.394   5.681   4.208
12082TIP3    H236190   2.250   5.727   4.220
12083TIP3   OH236191   5.206   5.050   5.435
12083TIP3    H136192   5.201   5.135   5.391
12083TIP3    H236193   5.286   5.010   5.400
12084TIP3   OH236194   0.650   7.197   5.155
12084TIP3    H136195   0.742   7.173   5.164
12084TIP3    H236196   0.605   7.114   5.138
12085TIP3   OH236197   7.019   0.913   5.001
12085TIP3    H136198   7.087   0.959   4.952
12085TIP3    H236199   7.007   0.830   4.954
12086TIP3   OH236200   2.452   0.935   2.842
12086TIP3    H136201   2.380   0.877   2.814
12086TIP3    H236202   2.531   0.894   2.806
12087TIP3   OH236203   2.944   2.039   3.472
12087TIP3    H136204   2.927   2.120   3.521
12087TIP3    H236205   2.988   2.068   3.393
12088TIP3   OH236206   2.683   4.045   3.928
12088TIP3    H136207   2.725   4.125   3.896
12088TIP3    H236208   2.701   3.979   3.860
12089TIP3   OH236209   2.899   2.571   1.670
12089TIP3    H136210   2.865   2.657   1.645
12089TIP3    H236211   2.972   2.589   1.728
12090TIP3   OH236212   5.181   4.146   2.742
12090TIP3    H136213   5.142   4.195   2.669
12090TIP3    H236214   5.239   4.208   2.785
12091TIP3   OH236215   1.654   0.018   3.850
12091TIP3    H136216   1.576  -0.036   3.866
12091TIP3    H236217   1.693  -0.020   3.771
12092TIP3   OH236218   2.549   0.666   4.946
12092TIP3    H136219   2.633   0.656   4.900
12092TIP3    H236220   2.485   0.626   4.887
12093TIP3   OH236221   5.132   3.019   2.866
12093TIP3    H136222   5.051   3.063   2.841
12093TIP3    H236223   5.161   2.974   2.787
12094TIP3   OH236224   5.755   0.135   2.249
12094TIP3    H136225   5.677   0.107   2.296
12094TIP3    H236226   5.806   0.054   2.237
12095TIP3   OH236227   1.123   6.024   5.780
12095TIP3    H136228   1.114   5.964   5.854
12095TIP3    H236229   1.153   6.106   5.819
12096TIP3   OH236230   7.751   0.172   5.460
12096TIP3    H136231   7.800   0.139   5.385
12096TIP3    H236232   7.714   0.093   5.500
12097TIP3   OH236233   2.713   4.343   3.617
12097TIP3    H136234   2.660   4.264   3.605
12097TIP3    H236235   2.774   4.321   3.687
12098TIP3   OH236236   5.344   0.298   1.647
12098TIP3    H136237   5.422   0.253   1.616
12098TIP3    H236238   5.291   0.230   1.689
12099TIP3   OH236239   0.557   6.867   3.112
12099TIP3    H136240   0.524   6.891   3.025
12099TIP3    H236241   0.493   6.902   3.173
12100TIP3   OH236242   1.596   3.861   3.803
12100TIP3    H136243   1.585   3.951   3.832
12100TIP3    H236244   1.679   3.860   3.755
12101TIP3   OH236245   1.648   0.822   5.940
12101TIP3    H136246   1.715   0.883   5.970
12101TIP3    H236247   1.668   0.809   5.847
12102TIP3   OH236248   4.811   2.856   4.617
12102TIP3    H136249   4.822   2.897   4.703
12102TIP3    H236250   4.763   2.921   4.565
12103TIP3   OH236251   8.172   1.291   5.685
12103TIP3    H136252   8.102   1.325   5.629
12103TIP3    H236253   8.131   1.282   5.771
12104TIP3   OH236254   1.735   4.769   2.261
12104TIP3    H136255   1.823   4.748   2.290
12104TIP3    H236256   1.745   4.845   2.204
12105TIP3   OH236257   5.566   1.699   5.530
12105TIP3    H136258   5.521   1.626   5.489
12105TIP3    H236259   5.609   1.745   5.457
12106TIP3   OH236260   5.047   2.999   4.067
12106TIP3    H136261   4.955   2.985   4.092
12106TIP3    H236262   5.072   3.079   4.112
12107TIP3   OH236263   2.018   2.986   5.237
12107TIP3    H136264   1.974   3.056   5.190
12107TIP3    H236265   2.038   3.023   5.323
12108TIP3   OH236266   7.675   4.888   1.149
12108TIP3    H136267   7.769   4.871   1.148
12108TIP3    H236268   7.645   4.862   1.062
12109TIP3   OH236269   5.118   3.323   2.518
12109TIP3    H136270   5.179   3.261   2.557
12109TIP3    H236271   5.098   3.285   2.432
12110TIP3   OH236272   3.838   5.502   1.658
12110TIP3    H136273   3.746   5.490   1.636
12110TIP3    H236274   3.875   5.553   1.586
12111TIP3   OH236275   3.431   5.982   1.736
12111TIP3    H136276   3.344   5.992   1.698
12111TIP3    H236277   3.462   5.897   1.705
12112TIP3   OH236278   6.916   2.186   0.219
12112TIP3    H136279   6.976   2.230   0.159
12112TIP3    H236280   6.830   2.222   0.197
12113TIP3   OH236281   3.195   0.986   2.851
12113TIP3    H136282   3.115   1.027   2.817
12113TIP3    H236283   3.217   0.919   2.785
12114TIP3   OH236284   3.311   0.038   5.148
12114TIP3    H136285   3.395   0.074   5.175
12114TIP3    H236286   3.333  -0.023   5.077
12115TIP3   OH236287   2.225   3.370   5.320
12115TIP3    H136288   2.131   3.358   5.330
12115TIP3    H236289   2.261   3.359   5.408
12116TIP3   OH236290   8.280   2.245   2.638
12116TIP3    H136291   8.253   2.262   2.548
12116TIP3    H236292   8.320   2.158   2.635
12117TIP3   OH236293   1.655   3.091   0.509
12117TIP3    H136294   1.606   3.156   0.458
12117TIP3    H236295   1.590   3.028   0.538
12118TIP3   OH236296   7.175   4.276   0.715
12118TIP3    H136297   7.244   4.302   0.775
12118TIP3    H236298   7.134   4.200   0.756
12119TIP3   OH236299   1.202   1.755   3.468
12119TIP3    H136300   1.296   1.741   3.457
12119TIP3    H236301   1.193   1.788   3.558
12120TIP3   OH236302   0.493   7.176   5.527
12120TIP3    H136303   0.569   7.186   5.584
12120TIP3    H236304   0.529   7.174   5.438
12121TIP3   OH236305   8.020   4.093   3.639
12121TIP3    H136306   7.990   4.053   3.721
12121TIP3    H236307   7.996   4.185   3.647
12122TIP3   OH236308   7.296   4.042   2.029
12122TIP3    H136309   7.249   3.964   1.998
12122TIP3    H236310   7.318   4.021   2.120
12123TIP3   OH236311   7.516   3.686   1.133
12123TIP3    H136312   7.546   3.595   1.134
12123TIP3    H236313   7.423   3.680   1.155
12124TIP3   OH236314   5.401   6.495   1.047
12124TIP3    H136315   5.469   6.467   0.985
12124TIP3    H236316   5.361   6.413   1.077
12125TIP3   OH236317   1.266   7.647   4.302
12125TIP3    H136318   1.176   7.652   4.270
12125TIP3    H236319   1.305   7.574   4.254
12126TIP3   OH236320   8.106   6.673   5.202
12126TIP3    H136321   8.097   6.629   5.117
12126TIP3    H236322   8.200   6.689   5.210
12127TIP3   OH236323   3.651   5.981   4.977
12127TIP3    H136324   3.595   5.995   4.901
12127TIP3    H236325   3.598   5.930   5.037
12128TIP3   OH236326   6.030   0.939   3.291
12128TIP3    H136327   5.955   0.950   3.350
12128TIP3    H236328   6.045   0.844   3.290
12129TIP3   OH236329   6.192   5.765   3.392
12129TIP3    H136330   6.272   5.730   3.433
12129TIP3    H236331   6.121   5.718   3.436
12130TIP3   OH236332   3.043   3.084   0.799
12130TIP3    H136333   2.965   3.123   0.838
12130TIP3    H236334   3.101   3.158   0.783
12131TIP3   OH236335   4.059   4.404   0.817
12131TIP3    H136336   4.140   4.354   0.807
12131TIP3    H236337   4.051   4.419   0.911
12132TIP3   OH236338   6.047   5.043   1.465
12132TIP3    H136339   5.997   5.125   1.469
12132TIP3    H236340   6.124   5.065   1.413
12133TIP3   OH236341   7.652   7.645   3.946
12133TIP3    H136342   7.577   7.702   3.932
12133TIP3    H236343   7.615   7.566   3.987
12134TIP3   OH236344   6.913   1.488   1.638
12134TIP3    H136345   6.935   1.535   1.719
12134TIP3    H236346   6.851   1.546   1.594
12135TIP3   OH236347   7.839   2.775   0.872
12135TIP3    H136348   7.792   2.774   0.955
12135TIP3    H236349   7.915   2.719   0.887
12136TIP3   OH236350   4.773   0.201   6.279
12136TIP3    H136351   4.826   0.254   6.339
12136TIP3    H236352   4.734   0.265   6.219
12137TIP3   OH236353   5.421   4.692   2.319
12137TIP3    H136354   5.419   4.631   2.245
12137TIP3    H236355   5.328   4.705   2.341
12138TIP3   OH236356   0.130   6.558   2.792
12138TIP3    H136357   0.112   6.502   2.716
12138TIP3    H236358   0.217   6.594   2.776
12139TIP3   OH236359   3.326   4.552   4.540
12139TIP3    H136360   3.276   4.477   4.509
12139TIP3    H236361   3.282   4.628   4.502
12140TIP3   OH236362   0.874   2.878   1.267
12140TIP3    H136363   0.842   2.931   1.340
12140TIP3    H236364   0.823   2.907   1.192
12141TIP3   OH236365   5.071   3.429   4.121
12141TIP3    H136366   5.104   3.387   4.042
12141TIP3    H236367   5.064   3.358   4.185
12142TIP3   OH236368   7.645   7.694   5.115
12142TIP3    H136369   7.603   7.752   5.178
12142TIP3    H236370   7.608   7.719   5.031
12143TIP3   OH236371   0.289   5.162   3.376
12143TIP3    H136372   0.282   5.090   3.438
12143TIP3    H236373   0.263   5.124   3.292
12144TIP3   OH236374   3.790   2.780   3.098
12144TIP3    H136375   3.752   2.783   3.186
12144TIP3    H236376   3.843   2.859   3.092
12145TIP3   OH236377   4.181   0.095   1.805
12145TIP3    H136378   4.157   0.094   1.898
12145TIP3    H236379   4.158   0.184   1.776
12146TIP3   OH236380   0.224   4.356   3.973
12146TIP3    H136381   0.238   4.432   3.916
12146TIP3    H236382   0.266   4.284   3.927
12147TIP3   OH236383   8.126   3.038   4.643
12147TIP3    H136384   8.153   3.124   4.673
12147TIP3    H236385   8.091   2.995   4.721
12148TIP3   OH236386   1.933   5.946   0.385
12148TIP3    H136387   1.884   6.011   0.335
12148TIP3    H236388   1.947   5.874   0.323
12149TIP3   OH236389   6.764   1.076   1.782
12149TIP3    H136390   6.796   1.007   1.722
12149TIP3    H236391   6.676   1.047   1.806
12150TIP3   OH236392   5.830   7.109   5.594
12150TIP3    H136393   5.775   7.056   5.536
12150TIP3    H236394   5.772   7.180   5.623
12151TIP3   OH236395   6.164   3.932   3.323
12151TIP3    H136396   6.120   4.004   3.280
12151TIP3    H236397   6.183   3.964   3.411
12152TIP3   OH236398   7.906   2.176   4.773
12152TIP3    H136399   7.997   2.200   4.755
12152TIP3    H236400   7.882   2.119   4.700
12153TIP3   OH236401   5.184   5.587   6.065
12153TIP3    H136402   5.166   5.505   6.112
12153TIP3    H236403   5.101   5.611   6.026
12154TIP3   OH236404   7.141   1.913   2.691
12154TIP3    H136405   7.223   1.957   2.671
12154TIP3    H236406   7.093   1.974   2.747
12155TIP3   OH236407   5.468   3.842   2.372
12155TIP3    H136408   5.537   3.896   2.409
12155TIP3    H236409   5.412   3.819   2.446
12156TIP3   OH236410   3.175   6.691   6.518
12156TIP3    H136411   3.166   6.662   6.427
12156TIP3    H236412   3.109   6.639   6.565
12157TIP3   OH236413   0.628   0.364   5.860
12157TIP3    H136414   0.610   0.439   5.803
12157TIP3    H236415   0.681   0.399   5.931
12158TIP3   OH236416   8.142   1.787   2.112
12158TIP3    H136417   8.204   1.782   2.185
12158TIP3    H236418   8.167   1.867   2.066
12159TIP3   OH236419   4.283   1.479   0.045
12159TIP3    H136420   4.239   1.498  -0.038
12159TIP3    H236421   4.228   1.412   0.085
12160TIP3   OH236422   1.342   1.348   5.775
12160TIP3    H136423   1.262   1.296   5.782
12160TIP3    H236424   1.381   1.344   5.863
12161TIP3   OH236425   7.963   4.919   6.285
12161TIP3    H136426   7.998   4.946   6.200
12161TIP3    H236427   8.012   4.971   6.349
12162TIP3   OH236428   3.891   7.577   1.086
12162TIP3    H136429   3.809   7.626   1.075
12162TIP3    H236430   3.926   7.608   1.169
12163TIP3   OH236431   7.589   6.795   4.028
12163TIP3    H136432   7.530   6.868   4.008
12163TIP3    H236433   7.584   6.785   4.123
12164TIP3   OH236434   6.199   3.783   3.649
12164TIP3    H136435   6.130   3.736   3.601
12164TIP3    H236436   6.189   3.755   3.740
12165TIP3   OH236437   6.896   7.277   3.737
12165TIP3    H136438   6.896   7.372   3.750
12165TIP3    H236439   6.864   7.265   3.648
12166TIP3   OH236440   0.106   4.480   1.960
12166TIP3    H136441   0.042   4.411   1.937
12166TIP3    H236442   0.140   4.453   2.045
12167TIP3   OH236443   2.962   7.655   1.530
12167TIP3    H136444   2.926   7.656   1.619
12167TIP3    H236445   2.966   7.747   1.504
12168TIP3   OH236446   7.947   6.021   5.967
12168TIP3    H136447   7.991   6.005   5.884
12168TIP3    H236448   8.015   6.058   6.024
12169TIP3   OH236449   6.565   0.607   0.187
12169TIP3    H136450   6.541   0.699   0.190
12169TIP3    H236451   6.659   0.605   0.203
12170TIP3   OH236452   0.077   0.521   4.329
12170TIP3    H136453   0.137   0.457   4.290
12170TIP3    H236454   0.092   0.601   4.280
12171TIP3   OH236455   4.541   5.794   2.975
12171TIP3    H136456   4.597   5.871   2.975
12171TIP3    H236457   4.599   5.721   2.955
12172TIP3   OH236458   2.048   4.764   6.325
12172TIP3    H136459   1.958   4.756   6.357
12172TIP3    H236460   2.101   4.765   6.405
12173TIP3   OH236461   3.031   0.390   2.845
12173TIP3    H136462   2.963   0.457   2.857
12173TIP3    H236463   3.006   0.346   2.763
12174TIP3   OH236464   7.555   1.592   3.212
12174TIP3    H136465   7.596   1.508   3.191
12174TIP3    H236466   7.462   1.573   3.220
12175TIP3   OH236467   5.818   6.934   4.013
12175TIP3    H136468   5.872   6.925   3.935
12175TIP3    H236469   5.876   6.976   4.077
12176TIP3   OH236470   4.361   5.431   1.410
12176TIP3    H136471   4.452   5.434   1.440
12176TIP3    H236472   4.310   5.428   1.491
12177TIP3   OH236473   1.005   3.301   3.707
12177TIP3    H136474   0.992   3.330   3.617
12177TIP3    H236475   0.990   3.379   3.761
12178TIP3   OH236476   4.045   0.860   6.718
12178TIP3    H136477   4.013   0.770   6.716
12178TIP3    H236478   4.063   0.881   6.627
12179TIP3   OH236479   4.655   1.252   4.657
12179TIP3    H136480   4.573   1.245   4.609
12179TIP3    H236481   4.706   1.318   4.609
12180TIP3   OH236482   7.973   4.571   1.429
12180TIP3    H136483   7.971   4.666   1.416
12180TIP3    H236484   7.931   4.557   1.514
12181TIP3   OH236485   1.683   0.852   5.642
12181TIP3    H136486   1.769   0.890   5.622
12181TIP3    H236487   1.620   0.920   5.620
12182TIP3   OH236488   7.001   3.068   2.820
12182TIP3    H136489   6.988   3.135   2.886
12182TIP3    H236490   6.993   3.114   2.737
12183TIP3   OH236491   4.959   4.743   2.320
12183TIP3    H136492   4.956   4.827   2.367
12183TIP3    H236493   4.868   4.727   2.295
12184TIP3   OH236494   5.374   2.631   3.311
12184TIP3    H136495   5.461   2.618   3.273
12184TIP3    H236496   5.391   2.655   3.402
12185TIP3   OH236497   7.534   6.612   1.381
12185TIP3    H136498   7.493   6.529   1.403
12185TIP3    H236499   7.489   6.642   1.302
12186TIP3   OH236500   3.643   7.460   6.514
12186TIP3    H136501   3.726   7.422   6.543
12186TIP3    H236502   3.588   7.385   6.492
12187TIP3   OH236503   4.756   7.255   3.585
12187TIP3    H136504   4.758   7.213   3.671
12187TIP3    H236505   4.796   7.191   3.527
12188TIP3   OH236506   7.173   6.687   2.202
12188TIP3    H136507   7.251   6.631   2.203
12188TIP3    H236508   7.102   6.630   2.233
12189TIP3   OH236509   6.707   2.568   2.783
12189TIP3    H136510   6.757   2.586   2.703
12189TIP3    H236511   6.620   2.544   2.753
12190TIP3   OH236512   0.990   1.398   1.169
12190TIP3    H136513   0.983   1.358   1.256
12190TIP3    H236514   1.084   1.406   1.154
12191TIP3   OH236515   0.692   2.285   3.494
12191TIP3    H136516   0.654   2.244   3.416
12191TIP3    H236517   0.774   2.325   3.462
12192TIP3   OH236518   6.757   6.954   3.633
12192TIP3    H136519   6.786   6.933   3.544
12192TIP3    H236520   6.734   7.046   3.630
12193TIP3   OH236521   4.518   3.860   6.110
12193TIP3    H136522   4.442   3.879   6.056
12193TIP3    H236523   4.577   3.813   6.052
12194TIP3   OH236524   2.809   2.554   4.050
12194TIP3    H136525   2.727   2.596   4.078
12194TIP3    H236526   2.876   2.594   4.106
12195TIP3   OH236527   4.338   1.091   3.181
12195TIP3    H136528   4.276   1.040   3.234
12195TIP3    H236529   4.314   1.072   3.091
12196TIP3   OH236530   1.897   3.118   2.023
12196TIP3    H136531   1.982   3.100   2.063
12196TIP3    H236532   1.844   3.155   2.094
12197TIP3   OH236533   7.602   4.320   6.593
12197TIP3    H136534   7.548   4.397   6.581
12197TIP3    H236535   7.626   4.294   6.504
12198TIP3   OH236536   4.207   4.454   5.025
12198TIP3    H136537   4.144   4.523   5.005
12198TIP3    H236538   4.279   4.468   4.963
12199TIP3   OH236539   8.068   5.455   0.140
12199TIP3    H136540   8.120   5.447   0.219
12199TIP3    H236541   8.132   5.449   0.069
12200TIP3   OH236542   4.101   0.877   6.146
12200TIP3    H136543   4.034   0.842   6.204
12200TIP3    H236544   4.115   0.967   6.175
12201TIP3   OH236545   5.006   3.243   1.889
12201TIP3    H136546   5.052   3.226   1.972
12201TIP3    H236547   5.065   3.208   1.822
12202TIP3   OH236548   8.018   6.826   1.846
12202TIP3    H136549   8.023   6.914   1.883
12202TIP3    H236550   7.924   6.812   1.831
12203TIP3   OH236551   4.278   5.009   4.088
12203TIP3    H136552   4.298   4.962   4.168
12203TIP3    H236553   4.289   5.101   4.111
12204TIP3   OH236554   6.722   3.534   0.665
12204TIP3    H136555   6.720   3.456   0.720
12204TIP3    H236556   6.812   3.538   0.632
12205TIP3   OH236557   5.821   1.989   4.169
12205TIP3    H136558   5.803   1.901   4.136
12205TIP3    H236559   5.747   2.009   4.226
12206TIP3   OH236560   5.087   2.606   4.372
12206TIP3    H136561   5.091   2.512   4.354
12206TIP3    H236562   5.082   2.646   4.286
12207TIP3   OH236563   0.632   1.319   0.778
12207TIP3    H136564   0.623   1.259   0.852
12207TIP3    H236565   0.718   1.299   0.741
12208TIP3   OH236566   5.349   0.113   4.363
12208TIP3    H136567   5.399   0.191   4.341
12208TIP3    H236568   5.370   0.096   4.455
12209TIP3   OH236569   1.092   3.375   2.802
12209TIP3    H136570   1.117   3.427   2.879
12209TIP3    H236571   1.036   3.433   2.751
12210TIP3   OH236572   4.651   2.924   6.693
12210TIP3    H136573   4.610   2.962   6.770
12210TIP3    H236574   4.598   2.954   6.619
12211TIP3   OH236575   1.024   2.754   4.138
12211TIP3    H136576   1.117   2.744   4.119
12211TIP3    H236577   1.001   2.839   4.099
12212TIP3   OH236578   2.661   4.619   0.825
12212TIP3    H136579   2.685   4.548   0.766
12212TIP3    H236580   2.732   4.623   0.889
12213TIP3   OH236581   4.829   2.344   5.753
12213TIP3    H136582   4.908   2.311   5.711
12213TIP3    H236583   4.859   2.382   5.835
12214TIP3   OH236584   2.907   1.755   3.186
12214TIP3    H136585   2.833   1.755   3.126
12214TIP3    H236586   2.897   1.836   3.236
12215TIP3   OH236587   0.584   6.672   4.383
12215TIP3    H136588   0.557   6.608   4.318
12215TIP3    H236589   0.508   6.683   4.440
12216TIP3   OH236590   4.852   3.144   6.681
12216TIP3    H136591   4.899   3.157   6.599
12216TIP3    H236592   4.786   3.077   6.661
12217TIP3   OH236593   6.227   6.430   3.588
12217TIP3    H136594   6.285   6.379   3.644
12217TIP3    H236595   6.237   6.391   3.501
12218TIP3   OH236596   4.678   2.767   2.770
12218TIP3    H136597   4.596   2.812   2.791
12218TIP3    H236598   4.746   2.825   2.803
12219TIP3   OH236599   0.829   1.918   1.513
12219TIP3    H136600   0.844   1.864   1.591
12219TIP3    H236601   0.873   1.871   1.442
12220TIP3   OH236602   5.535   5.782   1.020
12220TIP3    H136603   5.561   5.706   0.969
12220TIP3    H236604   5.478   5.832   0.961
12221TIP3   OH236605   3.779   0.964   1.422
12221TIP3    H136606   3.837   0.911   1.366
12221TIP3    H236607   3.829   1.045   1.437
12222TIP3   OH236608   1.280   2.835   4.014
12222TIP3    H136609   1.286   2.918   3.967
12222TIP3    H236610   1.222   2.781   3.960
12223TIP3   OH236611   4.388   1.798   1.663
12223TIP3    H136612   4.300   1.833   1.667
12223TIP3    H236613   4.399   1.750   1.745
12224TIP3   OH236614   0.978   1.312   4.265
12224TIP3    H136615   1.046   1.318   4.332
12224TIP3    H236616   1.025   1.321   4.182
12225TIP3   OH236617   3.283   1.233   5.058
12225TIP3    H136618   3.228   1.212   5.133
12225TIP3    H236619   3.361   1.274   5.096
12226TIP3   OH236620   1.678   3.074   5.981
12226TIP3    H136621   1.675   2.985   6.016
12226TIP3    H236622   1.730   3.123   6.045
12227TIP3   OH236623   8.189   6.147   4.893
12227TIP3    H136624   8.171   6.218   4.954
12227TIP3    H236625   8.133   6.075   4.923
12228TIP3   OH236626   2.433   3.617   5.861
12228TIP3    H136627   2.491   3.595   5.788
12228TIP3    H236628   2.463   3.704   5.889
12229TIP3   OH236629   6.360   5.437   4.747
12229TIP3    H136630   6.315   5.357   4.776
12229TIP3    H236631   6.325   5.506   4.804
12230TIP3   OH236632   4.784   1.634   6.822
12230TIP3    H136633   4.817   1.698   6.759
12230TIP3    H236634   4.811   1.669   6.907
12231TIP3   OH236635   8.026   5.721   6.654
12231TIP3    H136636   8.034   5.681   6.741
12231TIP3    H236637   7.952   5.676   6.614
12232TIP3   OH236638   0.788   7.706   4.045
12232TIP3    H136639   0.697   7.709   4.074
12232TIP3    H236640   0.820   7.796   4.054
12233TIP3   OH236641   5.322   2.873   1.836
12233TIP3    H136642   5.383   2.945   1.819
12233TIP3    H236643   5.235   2.910   1.816
12234TIP3   OH236644   3.402   6.839   5.456
12234TIP3    H136645   3.411   6.749   5.487
12234TIP3    H236646   3.483   6.857   5.408
12235TIP3   OH236647   6.150   2.172   2.189
12235TIP3    H136648   6.225   2.192   2.245
12235TIP3    H236649   6.073   2.189   2.244
12236TIP3   OH236650   6.145   4.836   4.026
12236TIP3    H136651   6.098   4.824   4.108
12236TIP3    H236652   6.232   4.801   4.043
12237TIP3   OH236653   3.203   0.145   4.841
12237TIP3    H136654   3.197   0.052   4.819
12237TIP3    H236655   3.153   0.189   4.772
12238TIP3   OH236656   7.460   7.213   6.542
12238TIP3    H136657   7.381   7.230   6.492
12238TIP3    H236658   7.433   7.151   6.610
12239TIP3   OH236659   0.112   4.442   6.297
12239TIP3    H136660   0.073   4.525   6.267
12239TIP3    H236661   0.180   4.423   6.232
12240TIP3   OH236662   4.349   7.689   4.201
12240TIP3    H136663   4.352   7.628   4.275
12240TIP3    H236664   4.438   7.688   4.166
12241TIP3   OH236665   3.285   5.263   6.477
12241TIP3    H136666   3.340   5.222   6.410
12241TIP3    H236667   3.280   5.197   6.547
12242TIP3   OH236668   0.141   2.158   5.270
12242TIP3    H136669   0.160   2.151   5.176
12242TIP3    H236670   0.118   2.070   5.297
12243TIP3   OH236671   8.222   0.244   3.984
12243TIP3    H136672   8.207   0.294   3.903
12243TIP3    H236673   8.190   0.156   3.964
12244TIP3   OH236674   7.959   4.970   5.329
12244TIP3    H136675   7.911   4.958   5.247
12244TIP3    H236676   7.902   4.931   5.395
12245TIP3   OH236677   7.229   2.944   0.610
12245TIP3    H136678   7.211   2.859   0.650
12245TIP3    H236679   7.150   2.965   0.560
12246TIP3   OH236680   6.166   7.866   1.993
12246TIP3    H136681   6.120   7.788   1.963
12246TIP3    H236682   6.258   7.850   1.971
12247TIP3   OH236683   8.221   1.353   6.105
12247TIP3    H136684   8.250   1.441   6.130
12247TIP3    H236685   8.201   1.310   6.188
12248TIP3   OH236686   6.719   4.549   3.939
12248TIP3    H136687   6.797   4.511   3.978
12248TIP3    H236688   6.701   4.627   3.991
12249TIP3   OH236689   0.340   0.684   1.510
12249TIP3    H136690   0.427   0.662   1.476
12249TIP3    H236691   0.351   0.773   1.545
12250TIP3   OH236692   3.458   7.289   3.141
12250TIP3    H136693   3.499   7.203   3.148
12250TIP3    H236694   3.389   7.288   3.206
12251TIP3   OH236695   8.033   6.429   3.836
12251TIP3    H136696   7.987   6.444   3.753
12251TIP3    H236697   8.025   6.511   3.884
12252TIP3   OH236698   7.605   3.788   5.761
12252TIP3    H136699   7.569   3.876   5.772
12252TIP3    H236700   7.535   3.738   5.720
12253TIP3   OH236701   0.184   1.321   3.928
12253TIP3    H136702   0.137   1.281   4.001
12253TIP3    H236703   0.270   1.344   3.963
12254TIP3   OH236704   0.623   2.749   4.410
12254TIP3    H136705   0.595   2.824   4.358
12254TIP3    H236706   0.700   2.716   4.365
12255TIP3   OH236707   2.634   6.087   3.397
12255TIP3    H136708   2.562   6.122   3.344
12255TIP3    H236709   2.648   6.152   3.466
12256TIP3   OH236710   6.113   7.301   2.261
12256TIP3    H136711   6.017   7.293   2.265
12256TIP3    H236712   6.146   7.216   2.288
12257TIP3   OH236713   0.713   2.688   1.716
12257TIP3    H136714   0.756   2.609   1.683
12257TIP3    H236715   0.674   2.728   1.638
12258TIP3   OH236716   0.684   0.172   6.212
12258TIP3    H136717   0.708   0.264   6.204
12258TIP3    H236718   0.628   0.169   6.290
12259TIP3   OH236719   3.722   5.057   2.102
12259TIP3    H136720   3.757   4.986   2.049
12259TIP3    H236721   3.632   5.030   2.121
12260TIP3   OH236722   5.973   0.169   3.749
12260TIP3    H136723   5.914   0.103   3.785
12260TIP3    H236724   5.958   0.166   3.655
12261TIP3   OH236725   8.025   1.433   4.330
12261TIP3    H136726   8.018   1.343   4.296
12261TIP3    H236727   8.119   1.448   4.335
12262TIP3   OH236728   2.474   0.358   0.910
12262TIP3    H136729   2.538   0.314   0.964
12262TIP3    H236730   2.408   0.391   0.971
12263TIP3   OH236731   5.259   0.671   3.269
12263TIP3    H136732   5.342   0.676   3.222
12263TIP3    H236733   5.195   0.650   3.202
12264TIP3   OH236734   0.598   3.498   1.176
12264TIP3    H136735   0.532   3.499   1.245
12264TIP3    H236736   0.606   3.590   1.149
12265TIP3   OH236737   6.136   3.417   5.261
12265TIP3    H136738   6.216   3.467   5.278
12265TIP3    H236739   6.149   3.380   5.173
12266TIP3   OH236740   3.511   2.109   0.130
12266TIP3    H136741   3.584   2.141   0.183
12266TIP3    H236742   3.469   2.188   0.097
12267TIP3   OH236743   0.344   0.215   6.634
12267TIP3    H136744   0.280   0.270   6.679
12267TIP3    H236745   0.414   0.202   6.698
12268TIP3   OH236746   4.052   0.339   2.614
12268TIP3    H136747   4.054   0.356   2.708
12268TIP3    H236748   4.125   0.279   2.599
12269TIP3   OH236749   2.403   7.727   5.857
12269TIP3    H136750   2.328   7.681   5.820
12269TIP3    H236751   2.477   7.700   5.803
12270TIP3   OH236752   7.374   1.556   6.146
12270TIP3    H136753   7.397   1.484   6.205
12270TIP3    H236754   7.379   1.519   6.059
12271TIP3   OH236755   1.697   4.027   5.799
12271TIP3    H136756   1.644   4.056   5.725
12271TIP3    H236757   1.777   3.993   5.759
12272TIP3   OH236758   4.121   1.380   4.216
12272TIP3    H136759   4.184   1.429   4.268
12272TIP3    H236760   4.057   1.349   4.279
12273TIP3   OH236761   4.574   5.831   1.942
12273TIP3    H136762   4.636   5.877   1.998
12273TIP3    H236763   4.525   5.774   2.002
12274TIP3   OH236764   7.872   5.732   5.707
12274TIP3    H136765   7.895   5.676   5.781
12274TIP3    H236766   7.780   5.712   5.690
12275TIP3   OH236767   5.652   2.521   3.479
12275TIP3    H136768   5.606   2.542   3.560
12275TIP3    H236769   5.724   2.465   3.506
12276TIP3   OH236770   3.462   5.951   4.306
12276TIP3    H136771   3.385   5.917   4.350
12276TIP3    H236772   3.477   5.891   4.233
12277TIP3   OH236773   6.825   0.077   5.739
12277TIP3    H136774   6.734   0.106   5.731
12277TIP3    H236775   6.862   0.131   5.808
12278TIP3   OH236776   6.802   2.568   3.498
12278TIP3    H136777   6.838   2.543   3.413
12278TIP3    H236778   6.788   2.662   3.491
12279TIP3   OH236779   3.124   7.091   5.278
12279TIP3    H136780   3.058   7.032   5.241
12279TIP3    H236781   3.082   7.128   5.356
12280TIP3   OH236782   3.219   0.158   1.574
12280TIP3    H136783   3.268   0.104   1.511
12280TIP3    H236784   3.287   0.196   1.629
12281TIP3   OH236785   1.578   1.721   5.348
12281TIP3    H136786   1.546   1.691   5.262
12281TIP3    H236787   1.590   1.640   5.398
12282TIP3   OH236788   5.281   2.663   4.560
12282TIP3    H136789   5.219   2.651   4.489
12282TIP3    H236790   5.238   2.625   4.637
12283TIP3   OH236791   5.681   5.582   0.460
12283TIP3    H136792   5.697   5.498   0.417
12283TIP3    H236793   5.723   5.574   0.546
12284TIP3   OH236794   4.389   6.490   6.564
12284TIP3    H136795   4.472   6.460   6.599
12284TIP3    H236796   4.400   6.488   6.469
12285TIP3   OH236797   5.047   2.703   6.455
12285TIP3    H136798   5.062   2.625   6.509
12285TIP3    H236799   5.125   2.757   6.469
12286TIP3   OH236800   0.203   5.853   3.451
12286TIP3    H136801   0.261   5.782   3.424
12286TIP3    H236802   0.218   5.922   3.386
12287TIP3   OH236803   4.436   0.364   2.842
12287TIP3    H136804   4.470   0.294   2.786
12287TIP3    H236805   4.509   0.424   2.853
12288TIP3   OH236806   2.895   1.121   4.252
12288TIP3    H136807   2.827   1.173   4.210
12288TIP3    H236808   2.960   1.185   4.280
12289TIP3   OH236809   7.354   4.281   5.678
12289TIP3    H136810   7.259   4.282   5.691
12289TIP3    H236811   7.390   4.302   5.764
12290TIP3   OH236812   0.599   7.173   1.910
12290TIP3    H136813   0.620   7.264   1.893
12290TIP3    H236814   0.601   7.164   2.005
12291TIP3   OH236815   1.466   1.168   6.288
12291TIP3    H136816   1.458   1.105   6.360
12291TIP3    H236817   1.484   1.114   6.211
12292TIP3   OH236818   2.388   0.739   4.488
12292TIP3    H136819   2.366   0.803   4.556
12292TIP3    H236820   2.304   0.697   4.468
12293TIP3   OH236821   2.933   2.636   3.189
12293TIP3    H136822   2.993   2.670   3.123
12293TIP3    H236823   2.953   2.542   3.193
12294TIP3   OH236824   0.665   3.533   4.272
12294TIP3    H136825   0.601   3.484   4.222
12294TIP3    H236826   0.631   3.533   4.361
12295TIP3   OH236827   4.916   6.348   0.516
12295TIP3    H136828   4.956   6.419   0.566
12295TIP3    H236829   4.961   6.269   0.545
12296TIP3   OH236830   1.895   7.468   6.321
12296TIP3    H136831   1.887   7.376   6.349
12296TIP3    H236832   1.988   7.488   6.331
12297TIP3   OH236833   7.872   6.531   0.488
12297TIP3    H136834   7.816   6.505   0.415
12297TIP3    H236835   7.960   6.504   0.462
12298TIP3   OH236836   2.151   3.760   2.539
12298TIP3    H136837   2.210   3.721   2.604
12298TIP3    H236838   2.158   3.854   2.554
12299TIP3   OH236839   3.264   3.973   5.937
12299TIP3    H136840   3.239   4.065   5.937
12299TIP3    H236841   3.182   3.926   5.951
12300TIP3   OH236842   1.278   4.158   5.912
12300TIP3    H136843   1.204   4.099   5.926
12300TIP3    H236844   1.283   4.168   5.817
12301TIP3   OH236845   2.328   2.664   6.685
12301TIP3    H136846   2.294   2.650   6.773
12301TIP3    H236847   2.326   2.578   6.644
12302TIP3   OH236848   7.585   5.258   4.096
12302TIP3    H136849   7.600   5.164   4.089
12302TIP3    H236850   7.622   5.295   4.016
12303TIP3   OH236851   3.927   6.619   3.057
12303TIP3    H136852   3.918   6.645   3.149
12303TIP3    H236853   3.928   6.702   3.009
12304TIP3   OH236854   3.244   3.948   1.537
12304TIP3    H136855   3.327   3.944   1.491
12304TIP3    H236856   3.222   3.857   1.558
12305TIP3   OH236857   0.874   4.079   5.599
12305TIP3    H136858   0.897   4.142   5.668
12305TIP3    H236859   0.886   3.993   5.640
12306TIP3   OH236860   0.542   2.247   2.058
12306TIP3    H136861   0.632   2.266   2.029
12306TIP3    H236862   0.510   2.181   1.996
12307TIP3   OH236863   5.623   6.110   5.446
12307TIP3    H136864   5.642   6.044   5.379
12307TIP3    H236865   5.587   6.061   5.519
12308TIP3   OH236866   5.323   4.406   6.182
12308TIP3    H136867   5.412   4.441   6.178
12308TIP3    H236868   5.332   4.319   6.220
12309TIP3   OH236869   1.937   3.176   4.765
12309TIP3    H136870   1.850   3.206   4.742
12309TIP3    H236871   1.989   3.188   4.685
12310TIP3   OH236872   2.544   4.441   3.841
12310TIP3    H136873   2.469   4.402   3.796
12310TIP3    H236874   2.619   4.418   3.786
12311TIP3   OH236875   3.331   0.147   0.671
12311TIP3    H136876   3.358   0.151   0.763
12311TIP3    H236877   3.253   0.092   0.671
12312TIP3   OH236878   6.667   0.772   4.731
12312TIP3    H136879   6.573   0.788   4.741
12312TIP3    H236880   6.677   0.679   4.752
12313TIP3   OH236881   0.317   1.497   5.977
12313TIP3    H136882   0.265   1.456   5.908
12313TIP3    H236883   0.271   1.579   5.996
12314TIP3   OH236884   0.455   3.611   2.389
12314TIP3    H136885   0.547   3.630   2.408
12314TIP3    H236886   0.457   3.525   2.347
12315TIP3   OH236887   1.847   7.039   6.635
12315TIP3    H136888   1.836   7.013   6.727
12315TIP3    H236889   1.938   7.017   6.615
12316TIP3   OH236890   1.807   0.055   3.425
12316TIP3    H136891   1.812   0.143   3.462
12316TIP3    H236892   1.821  -0.003   3.499
12317TIP3   OH236893   7.393   3.798   6.227
12317TIP3    H136894   7.451   3.727   6.252
12317TIP3    H236895   7.352   3.826   6.309
12318TIP3   OH236896   5.298   6.012   4.618
12318TIP3    H136897   5.358   6.065   4.565
12318TIP3    H236898   5.254   6.075   4.675
12319TIP3   OH236899   2.126   4.751   4.036
12319TIP3    H136900   2.039   4.773   4.004
12319TIP3    H236901   2.138   4.659   4.012
12320TIP3   OH236902  -0.010   5.104   5.093
12320TIP3    H136903  -0.007   5.104   5.189
12320TIP3    H236904   0.079   5.082   5.066
12321TIP3   OH236905   5.344   3.755   3.536
12321TIP3    H136906   5.409   3.783   3.471
12321TIP3    H236907   5.313   3.671   3.503
12322TIP3   OH236908   0.106   2.454   1.718
12322TIP3    H136909   0.020   2.413   1.724
12322TIP3    H236910   0.163   2.398   1.770
12323TIP3   OH236911   8.053   7.761   1.912
12323TIP3    H136912   8.009   7.691   1.864
12323TIP3    H236913   7.987   7.791   1.975
12324TIP3   OH236914   3.384   3.283   2.866
12324TIP3    H136915   3.413   3.298   2.776
12324TIP3    H236916   3.302   3.234   2.857
12325TIP3   OH236917   1.048   5.351   3.075
12325TIP3    H136918   1.093   5.298   3.141
12325TIP3    H236919   0.977   5.394   3.124
12326TIP3   OH236920   7.892   0.145   1.287
12326TIP3    H136921   7.881   0.103   1.202
12326TIP3    H236922   7.803   0.173   1.312
12327TIP3   OH236923   7.783   6.991   6.593
12327TIP3    H136924   7.878   6.982   6.581
12327TIP3    H236925   7.751   7.017   6.507
12328TIP3   OH236926   2.526   3.059   2.665
12328TIP3    H136927   2.612   3.100   2.682
12328TIP3    H236928   2.468   3.133   2.648
12329TIP3   OH236929   4.463   3.465   5.950
12329TIP3    H136930   4.517   3.386   5.957
12329TIP3    H236931   4.523   3.531   5.914
12330TIP3   OH236932   1.375   4.452   5.713
12330TIP3    H136933   1.439   4.462   5.783
12330TIP3    H236934   1.375   4.536   5.668
12331TIP3   OH236935   0.136   1.451   3.313
12331TIP3    H136936   0.056   1.400   3.324
12331TIP3    H236937   0.130   1.521   3.377
12332TIP3   OH236938   4.254   7.042   5.488
12332TIP3    H136939   4.331   7.065   5.540
12332TIP3    H236940   4.182   7.086   5.532
12333TIP3   OH236941   3.130   1.372   2.652
12333TIP3    H136942   3.094   1.458   2.674
12333TIP3    H236943   3.181   1.347   2.729
12334TIP3   OH236944   2.054   3.639   4.179
12334TIP3    H136945   2.119   3.569   4.175
12334TIP3    H236946   2.105   3.720   4.168
12335TIP3   OH236947   3.362   5.814   1.053
12335TIP3    H136948   3.304   5.887   1.036
12335TIP3    H236949   3.450   5.851   1.044
12336TIP3   OH236950   8.052   5.329   5.747
12336TIP3    H136951   8.141   5.305   5.774
12336TIP3    H236952   8.045   5.297   5.657
12337TIP3   OH236953   4.883   3.969   5.939
12337TIP3    H136954   4.846   4.057   5.947
12337TIP3    H236955   4.860   3.926   6.022
12338TIP3   OH236956   8.012   7.570   5.986
12338TIP3    H136957   8.053   7.650   5.955
12338TIP3    H236958   7.935   7.599   6.035
12339TIP3   OH236959   3.744   6.776   4.576
12339TIP3    H136960   3.703   6.860   4.552
12339TIP3    H236961   3.724   6.718   4.503
12340TIP3   OH236962   7.196   6.071   0.185
12340TIP3    H136963   7.167   5.983   0.208
12340TIP3    H236964   7.289   6.071   0.205
12341TIP3   OH236965   2.338   0.394   5.115
12341TIP3    H136966   2.250   0.393   5.076
12341TIP3    H236967   2.390   0.337   5.058
12342TIP3   OH236968   1.059   7.617   1.672
12342TIP3    H136969   1.149   7.633   1.703
12342TIP3    H236970   1.018   7.568   1.743
12343TIP3   OH236971   3.049   0.085   2.373
12343TIP3    H136972   2.995   0.037   2.310
12343TIP3    H236973   3.126   0.112   2.324
12344TIP3   OH236974   6.239   6.522   4.682
12344TIP3    H136975   6.257   6.581   4.755
12344TIP3    H236976   6.275   6.566   4.605
12345TIP3   OH236977   2.552   7.119   3.945
12345TIP3    H136978   2.487   7.127   3.874
12345TIP3    H236979   2.503   7.080   4.017
12346TIP3   OH236980   3.129   6.998   1.426
12346TIP3    H136981   3.218   7.033   1.428
12346TIP3    H236982   3.093   7.022   1.512
12347TIP3   OH236983   3.434   1.723   6.256
12347TIP3    H136984   3.489   1.684   6.323
12347TIP3    H236985   3.495   1.760   6.192
12348TIP3   OH236986   1.255   5.562   3.939
12348TIP3    H136987   1.169   5.563   3.981
12348TIP3    H236988   1.283   5.470   3.945
12349TIP3   OH236989   1.835   7.538   3.486
12349TIP3    H136990   1.816   7.450   3.518
12349TIP3    H236991   1.758   7.561   3.434
12350TIP3   OH236992   2.776   2.306   5.402
12350TIP3    H136993   2.766   2.377   5.465
12350TIP3    H236994   2.791   2.228   5.455
12351TIP3   OH236995   4.237   1.851   3.815
12351TIP3    H136996   4.181   1.923   3.842
12351TIP3    H236997   4.320   1.893   3.790
12352TIP3   OH236998   1.658   5.601   2.884
12352TIP3    H136999   1.686   5.647   2.805
12352TIP3    H237000   1.737   5.557   2.916
12353TIP3   OH237001   2.695   0.957   5.256
12353TIP3    H137002   2.680   0.879   5.203
12353TIP3    H237003   2.624   0.958   5.319
12354TIP3   OH237004   2.290   1.279   0.091
12354TIP3    H137005   2.214   1.221   0.095
12354TIP3    H237006   2.266   1.345   0.026
12355TIP3   OH237007   1.074   7.013   2.112
12355TIP3    H137008   1.170   7.019   2.110
12355TIP3    H237009   1.044   7.079   2.050
12356TIP3   OH237010   1.316   7.700   3.887
12356TIP3    H137011   1.284   7.627   3.941
12356TIP3    H237012   1.245   7.717   3.826
12357TIP3   OH237013   7.794   4.069   2.772
12357TIP3    H137014   7.726   4.032   2.829
12357TIP3    H237015   7.824   4.147   2.819
12358TIP3   OH237016   3.452   6.071   5.408
12358TIP3    H137017   3.418   5.990   5.447
12358TIP3    H237018   3.485   6.044   5.322
12359TIP3   OH237019   4.647   3.041   6.384
12359TIP3    H137020   4.641   3.113   6.322
12359TIP3    H237021   4.556   3.025   6.410
12360TIP3   OH237022   7.569   5.316   4.344
12360TIP3    H137023   7.570   5.310   4.248
12360TIP3    H237024   7.618   5.395   4.364
12361TIP3   OH237025   4.151   4.137   0.262
12361TIP3    H137026   4.229   4.147   0.315
12361TIP3    H237027   4.090   4.204   0.294
12362TIP3   OH237028   7.652   1.614   2.946
12362TIP3    H137029   7.588   1.665   2.896
12362TIP3    H237030   7.654   1.655   3.032
12363TIP3   OH237031   6.444   0.680   0.744
12363TIP3    H137032   6.410   0.612   0.802
12363TIP3    H237033   6.504   0.634   0.686
12364TIP3   OH237034   2.205   0.755   6.372
12364TIP3    H137035   2.288   0.789   6.340
12364TIP3    H237036   2.156   0.833   6.399
12365TIP3   OH237037   0.534   2.227   6.447
12365TIP3    H137038   0.570   2.139   6.451
12365TIP3    H237039   0.601   2.282   6.488
12366TIP3   OH237040   5.433   5.826   5.627
12366TIP3    H137041   5.474   5.784   5.702
12366TIP3    H237042   5.480   5.792   5.551
12367TIP3   OH237043   5.974   5.887   1.300
12367TIP3    H137044   5.900   5.900   1.240
12367TIP3    H237045   5.941   5.916   1.385
12368TIP3   OH237046   1.534   1.038   0.935
12368TIP3    H137047   1.451   1.071   0.900
12368TIP3    H237048   1.576   1.115   0.974
12369TIP3   OH237049   3.452   0.517   6.081
12369TIP3    H137050   3.400   0.456   6.133
12369TIP3    H237051   3.436   0.603   6.121
12370TIP3   OH237052   4.426   2.322   3.080
12370TIP3    H137053   4.446   2.401   3.029
12370TIP3    H237054   4.435   2.250   3.017
12371TIP3   OH237055   0.364   2.094   5.479
12371TIP3    H137056   0.329   2.100   5.391
12371TIP3    H237057   0.355   2.183   5.514
12372TIP3   OH237058   3.237   1.079   2.439
12372TIP3    H137059   3.284   1.016   2.492
12372TIP3    H237060   3.299   1.150   2.424
12373TIP3   OH237061   2.861   7.286   2.684
12373TIP3    H137062   2.808   7.224   2.734
12373TIP3    H237063   2.935   7.305   2.740
12374TIP3   OH237064   4.327   6.645   1.173
12374TIP3    H137065   4.309   6.555   1.200
12374TIP3    H237066   4.288   6.652   1.086
12375TIP3   OH237067   7.508   1.788   1.235
12375TIP3    H137068   7.444   1.717   1.239
12375TIP3    H237069   7.466   1.861   1.281
12376TIP3   OH237070   6.290   2.861   0.076
12376TIP3    H137071   6.365   2.860   0.135
12376TIP3    H237072   6.324   2.830  -0.007
12377TIP3   OH237073   2.019   4.711   0.996
12377TIP3    H137074   1.979   4.774   0.936
12377TIP3    H237075   2.066   4.650   0.939
12378TIP3   OH237076   1.037   3.426   5.090
12378TIP3    H137077   1.084   3.360   5.141
12378TIP3    H237078   0.979   3.376   5.033
12379TIP3   OH237079   2.325   2.113   6.478
12379TIP3    H137080   2.326   2.018   6.487
12379TIP3    H237081   2.344   2.145   6.566
12380TIP3   OH237082   2.182   4.350   2.151
12380TIP3    H137083   2.187   4.396   2.235
12380TIP3    H237084   2.267   4.306   2.143
12381TIP3   OH237085   0.283   0.385   0.555
12381TIP3    H137086   0.265   0.461   0.500
12381TIP3    H237087   0.233   0.400   0.635
12382TIP3   OH237088   5.193   0.119   1.779
12382TIP3    H137089   5.237   0.038   1.753
12382TIP3    H237090   5.100   0.101   1.767
12383TIP3   OH237091   5.308   0.229   2.312
12383TIP3    H137092   5.309   0.135   2.294
12383TIP3    H237093   5.220   0.246   2.346
12384TIP3   OH237094   0.915   1.900   2.078
12384TIP3    H137095   0.891   1.932   2.165
12384TIP3    H237096   0.877   1.963   2.017
12385TIP3   OH237097   5.707   5.356   2.674
12385TIP3    H137098   5.767   5.410   2.725
12385TIP3    H237099   5.672   5.415   2.607
12386TIP3   OH237100   4.734   5.829   1.697
12386TIP3    H137101   4.648   5.819   1.655
12386TIP3    H237102   4.721   5.799   1.786
12387TIP3   OH237103   4.082   4.394   0.402
12387TIP3    H137104   4.175   4.403   0.381
12387TIP3    H237105   4.057   4.481   0.434
12388TIP3   OH237106   1.151   4.395   6.734
12388TIP3    H137107   1.104   4.426   6.812
12388TIP3    H237108   1.161   4.301   6.747
12389TIP3   OH237109   3.074   7.572   5.383
12389TIP3    H137110   3.131   7.503   5.418
12389TIP3    H237111   3.062   7.547   5.291
12390TIP3   OH237112   3.082   3.821   4.337
12390TIP3    H137113   3.041   3.907   4.333
12390TIP3    H237114   3.163   3.835   4.387
12391TIP3   OH237115   1.076   7.307   3.272
12391TIP3    H137116   1.058   7.286   3.180
12391TIP3    H237117   1.008   7.260   3.321
12392TIP3   OH237118   5.699   7.530   0.184
12392TIP3    H137119   5.693   7.612   0.233
12392TIP3    H237120   5.771   7.483   0.226
12393TIP3   OH237121   7.870   0.575   6.613
12393TIP3    H137122   7.854   0.494   6.564
12393TIP3    H237123   7.937   0.551   6.677
12394TIP3   OH237124   5.549   6.490   3.184
12394TIP3    H137125   5.635   6.496   3.143
12394TIP3    H237126   5.567   6.472   3.276
12395TIP3   OH237127   7.838   2.776   3.425
12395TIP3    H137128   7.801   2.691   3.448
12395TIP3    H237129   7.768   2.839   3.442
12396TIP3   OH237130   6.749   7.762   3.566
12396TIP3    H137131   6.788   7.808   3.492
12396TIP3    H237132   6.731   7.674   3.532
12397TIP3   OH237133   1.177   0.247   3.271
12397TIP3    H137134   1.247   0.233   3.207
12397TIP3    H237135   1.158   0.341   3.266
12398TIP3   OH237136   8.232   0.884   1.939
12398TIP3    H137137   8.287   0.831   1.881
12398TIP3    H237138   8.277   0.881   2.024
12399TIP3   OH237139   5.659   0.196   1.011
12399TIP3    H137140   5.589   0.260   0.996
12399TIP3    H237141   5.712   0.236   1.080
12400TIP3   OH237142   7.741   3.330   0.558
12400TIP3    H137143   7.806   3.298   0.621
12400TIP3    H237144   7.764   3.422   0.544
12401TIP3   OH237145   5.034   5.903   0.129
12401TIP3    H137146   5.009   5.966   0.196
12401TIP3    H237147   5.083   5.954   0.064
12402TIP3   OH237148   3.652   6.493   5.575
12402TIP3    H137149   3.702   6.573   5.587
12402TIP3    H237150   3.716   6.423   5.581
12403TIP3   OH237151   5.984   6.396   2.857
12403TIP3    H137152   5.904   6.381   2.907
12403TIP3    H237153   6.017   6.309   2.837
12404TIP3   OH237154   1.593   4.390   1.318
12404TIP3    H137155   1.501   4.399   1.294
12404TIP3    H237156   1.596   4.311   1.371
12405TIP3   OH237157   1.846   3.053   3.453
12405TIP3    H137158   1.786   3.120   3.485
12405TIP3    H237159   1.847   2.986   3.522
12406TIP3   OH237160   0.059   2.494   5.841
12406TIP3    H137161   0.021   2.410   5.868
12406TIP3    H237162   0.005   2.560   5.885
12407TIP3   OH237163   6.317   7.012   1.686
12407TIP3    H137164   6.375   6.964   1.746
12407TIP3    H237165   6.234   7.018   1.732
12408TIP3   OH237166   5.358   0.747   4.007
12408TIP3    H137167   5.428   0.812   4.013
12408TIP3    H237168   5.281   0.798   3.979
12409TIP3   OH237169   1.868   7.141   3.350
12409TIP3    H137170   1.828   7.211   3.298
12409TIP3    H237171   1.961   7.163   3.350
12410TIP3   OH237172   6.091   6.778   1.556
12410TIP3    H137173   6.115   6.685   1.550
12410TIP3    H237174   6.064   6.789   1.647
12411TIP3   OH237175   1.680   4.003   4.362
12411TIP3    H137176   1.704   4.057   4.437
12411TIP3    H237177   1.721   3.918   4.380
12412TIP3   OH237178   7.766   6.526   6.259
12412TIP3    H137179   7.726   6.458   6.313
12412TIP3    H237180   7.735   6.508   6.170
12413TIP3   OH237181   6.085   6.110   2.509
12413TIP3    H137182   6.026   6.116   2.434
12413TIP3    H237183   6.172   6.094   2.471
12414TIP3   OH237184   5.555   3.532   0.398
12414TIP3    H137185   5.490   3.597   0.369
12414TIP3    H237186   5.550   3.533   0.493
12415TIP3   OH237187   5.017   5.738   4.877
12415TIP3    H137188   4.943   5.687   4.846
12415TIP3    H237189   5.001   5.827   4.845
12416TIP3   OH237190   0.054   1.228   3.073
12416TIP3    H137191   0.087   1.189   3.155
12416TIP3    H237192   0.047   1.321   3.092
12417TIP3   OH237193   5.040   5.009   6.341
12417TIP3    H137194   5.094   4.944   6.295
12417TIP3    H237195   5.031   5.081   6.278
12418TIP3   OH237196   5.512   3.298   1.341
12418TIP3    H137197   5.417   3.297   1.348
12418TIP3    H237198   5.530   3.338   1.256
12419TIP3   OH237199   4.822   4.331   5.508
12419TIP3    H137200   4.810   4.247   5.552
12419TIP3    H237201   4.805   4.396   5.576
12420TIP3   OH237202   5.018   7.803   2.143
12420TIP3    H137203   5.085   7.869   2.124
12420TIP3    H237204   5.065   7.720   2.141
12421TIP3   OH237205  -0.023   1.816   1.748
12421TIP3    H137206   0.000   1.876   1.677
12421TIP3    H237207  -0.073   1.869   1.810
12422TIP3   OH237208   3.359   4.141   0.055
12422TIP3    H137209   3.385   4.083   0.127
12422TIP3    H237210   3.426   4.209   0.054
12423TIP3   OH237211   2.319   3.667   3.860
12423TIP3    H137212   2.345   3.750   3.900
12423TIP3    H237213   2.236   3.645   3.902
12424TIP3   OH237214   0.775   5.739   0.920
12424TIP3    H137215   0.861   5.747   0.879
12424TIP3    H237216   0.787   5.673   0.988
12425TIP3   OH237217   6.308   1.541   2.417
12425TIP3    H137218   6.393   1.540   2.374
12425TIP3    H237219   6.302   1.627   2.458
12426TIP3   OH237220   1.266   0.555   1.709
12426TIP3    H137221   1.348   0.547   1.661
12426TIP3    H237222   1.264   0.646   1.740
12427TIP3   OH237223   8.072   7.063   1.181
12427TIP3    H137224   8.158   7.074   1.220
12427TIP3    H237225   8.030   7.148   1.192
12428TIP3   OH237226   0.441   0.420   6.148
12428TIP3    H137227   0.474   0.402   6.236
12428TIP3    H237228   0.505   0.478   6.108
12429TIP3   OH237229   3.846   7.397   2.842
12429TIP3    H137230   3.789   7.447   2.783
12429TIP3    H237231   3.934   7.414   2.809
12430TIP3   OH237232   4.582   2.658   6.660
12430TIP3    H137233   4.595   2.750   6.635
12430TIP3    H237234   4.627   2.649   6.744
12431TIP3   OH237235   5.930   4.427   6.346
12431TIP3    H137236   5.890   4.434   6.259
12431TIP3    H237237   5.982   4.507   6.354
12432TIP3   OH237238   7.124   3.530   2.217
12432TIP3    H137239   7.215   3.521   2.247
12432TIP3    H237240   7.077   3.458   2.260
12433TIP3   OH237241   4.944   7.134   2.416
12433TIP3    H137242   5.028   7.127   2.370
12433TIP3    H237243   4.954   7.212   2.471
12434TIP3   OH237244   2.288   3.449   0.440
12434TIP3    H137245   2.235   3.500   0.379
12434TIP3    H237246   2.236   3.371   0.457
12435TIP3   OH237247   6.099   2.781   4.241
12435TIP3    H137248   6.163   2.717   4.210
12435TIP3    H237249   6.019   2.731   4.253
12436TIP3   OH237250   5.993   5.677   0.495
12436TIP3    H137251   5.932   5.639   0.432
12436TIP3    H237252   6.026   5.603   0.546
12437TIP3   OH237253   1.714   5.570   4.144
12437TIP3    H137254   1.782   5.511   4.112
12437TIP3    H237255   1.700   5.631   4.072
12438TIP3   OH237256   0.103  -0.028   6.731
12438TIP3    H137257   0.146   0.034   6.672
12438TIP3    H237258   0.043  -0.077   6.676
12439TIP3   OH237259   3.669   2.124   1.252
12439TIP3    H137260   3.764   2.115   1.247
12439TIP3    H237261   3.653   2.167   1.336
12440TIP3   OH237262   7.460   1.697   5.686
12440TIP3    H137263   7.426   1.724   5.601
12440TIP3    H237264   7.387   1.650   5.727
12441TIP3   OH237265   1.467   6.237   2.974
12441TIP3    H137266   1.391   6.288   2.948
12441TIP3    H237267   1.432   6.152   2.999
12442TIP3   OH237268   2.107   7.031   1.517
12442TIP3    H137269   2.115   7.082   1.436
12442TIP3    H237270   2.184   6.974   1.517
12443TIP3   OH237271   4.830   1.464   5.094
12443TIP3    H137272   4.920   1.492   5.112
12443TIP3    H237273   4.783   1.478   5.176
12444TIP3   OH237274   7.333   3.207   4.734
12444TIP3    H137275   7.244   3.174   4.738
12444TIP3    H237276   7.383   3.150   4.793
12445TIP3   OH237277   6.931   4.813   5.002
12445TIP3    H137278   6.976   4.788   4.921
12445TIP3    H237279   6.922   4.908   4.996
12446TIP3   OH237280   6.655   3.892   5.805
12446TIP3    H137281   6.643   3.926   5.893
12446TIP3    H237282   6.672   3.798   5.818
12447TIP3   OH237283   6.457   4.949   3.565
12447TIP3    H137284   6.449   4.890   3.490
12447TIP3    H237285   6.528   4.912   3.617
12448TIP3   OH237286   4.997   0.368   1.175
12448TIP3    H137287   5.084   0.396   1.145
12448TIP3    H237288   5.014   0.297   1.236
12449TIP3   OH237289   0.816   3.953   0.595
12449TIP3    H137290   0.816   4.044   0.625
12449TIP3    H237291   0.887   3.949   0.531
12450TIP3   OH237292   7.259   3.411   2.863
12450TIP3    H137293   7.256   3.338   2.925
12450TIP3    H237294   7.282   3.371   2.780
12451TIP3   OH237295   3.068   5.337   1.531
12451TIP3    H137296   3.091   5.420   1.573
12451TIP3    H237297   2.973   5.333   1.536
12452TIP3   OH237298   3.787   5.273   3.384
12452TIP3    H137299   3.863   5.216   3.393
12452TIP3    H237300   3.793   5.332   3.460
12453TIP3   OH237301   7.758   5.694   0.703
12453TIP3    H137302   7.803   5.700   0.787
12453TIP3    H237303   7.808   5.627   0.655
12454TIP3   OH237304   5.151   3.939   4.288
12454TIP3    H137305   5.197   3.964   4.207
12454TIP3    H237306   5.133   3.846   4.277
12455TIP3   OH237307   3.374   5.430   6.162
12455TIP3    H137308   3.454   5.385   6.189
12455TIP3    H237309   3.377   5.514   6.209
12456TIP3   OH237310   3.020   2.415   5.327
12456TIP3    H137311   2.940   2.373   5.294
12456TIP3    H237312   3.054   2.352   5.391
12457TIP3   OH237313   1.879   3.232   6.742
12457TIP3    H137314   1.904   3.180   6.818
12457TIP3    H237315   1.893   3.173   6.667
12458TIP3   OH237316   3.376   1.224   3.689
12458TIP3    H137317   3.337   1.300   3.733
12458TIP3    H237318   3.304   1.161   3.683
12459TIP3   OH237319   5.018   7.191   0.024
12459TIP3    H137320   5.022   7.265  -0.036
12459TIP3    H237321   5.019   7.231   0.112
12460TIP3   OH237322   0.281   1.139   5.541
12460TIP3    H137323   0.367   1.166   5.571
12460TIP3    H237324   0.294   1.052   5.504
12461TIP3   OH237325   4.495   2.746   6.271
12461TIP3    H137326   4.548   2.718   6.346
12461TIP3    H237327   4.518   2.684   6.201
12462TIP3   OH237328   3.712   4.445   4.719
12462TIP3    H137329   3.653   4.519   4.737
12462TIP3    H237330   3.667   4.396   4.650
12463TIP3   OH237331   1.548   1.212   3.419
12463TIP3    H137332   1.560   1.159   3.340
12463TIP3    H237333   1.494   1.157   3.476
12464TIP3   OH237334   7.664   1.805   2.658
12464TIP3    H137335   7.623   1.820   2.572
12464TIP3    H237336   7.733   1.741   2.641
12465TIP3   OH237337   4.912   0.657   6.296
12465TIP3    H137338   4.986   0.595   6.293
12465TIP3    H237339   4.954   0.743   6.303
12466TIP3   OH237340   3.749   4.463   1.306
12466TIP3    H137341   3.800   4.385   1.330
12466TIP3    H237342   3.801   4.506   1.239
12467TIP3   OH237343   5.793   4.863   3.889
12467TIP3    H137344   5.724   4.928   3.871
12467TIP3    H237345   5.824   4.838   3.802
12468TIP3   OH237346   2.634   6.884   5.033
12468TIP3    H137347   2.669   6.811   5.084
12468TIP3    H237348   2.546   6.855   5.008
12469TIP3   OH237349   0.039   5.962   1.480
12469TIP3    H137350   0.096   6.022   1.528
12469TIP3    H237351   0.036   5.883   1.535
12470TIP3   OH237352   0.358   3.238   3.564
12470TIP3    H137353   0.313   3.321   3.553
12470TIP3    H237354   0.364   3.225   3.658
12471TIP3   OH237355   5.106   1.375   0.073
12471TIP3    H137356   5.077   1.356   0.162
12471TIP3    H237357   5.195   1.409   0.083
12472TIP3   OH237358   6.961   2.259   5.427
12472TIP3    H137359   6.994   2.311   5.500
12472TIP3    H237360   7.039   2.236   5.376
12473TIP3   OH237361   3.938   4.309   1.482
12473TIP3    H137362   3.864   4.269   1.527
12473TIP3    H237363   3.980   4.235   1.437
12474TIP3   OH237364   5.829   6.737   2.864
12474TIP3    H137365   5.829   6.689   2.781
12474TIP3    H237366   5.737   6.751   2.884
12475TIP3   OH237367   0.518   5.740   5.514
12475TIP3    H137368   0.600   5.731   5.465
12475TIP3    H237369   0.528   5.821   5.564
12476TIP3   OH237370   0.227   2.054   4.972
12476TIP3    H137371   0.252   2.091   4.887
12476TIP3    H237372   0.140   2.017   4.958
12477TIP3   OH237373   4.737   1.457   4.058
12477TIP3    H137374   4.757   1.482   3.968
12477TIP3    H237375   4.643   1.436   4.056
12478TIP3   OH237376   0.150   6.830   5.603
12478TIP3    H137377   0.073   6.850   5.550
12478TIP3    H237378   0.128   6.862   5.691
12479TIP3   OH237379   7.468   7.438   4.052
12479TIP3    H137380   7.488   7.375   3.983
12479TIP3    H237381   7.373   7.434   4.062
12480TIP3   OH237382   4.443   2.149   3.596
12480TIP3    H137383   4.369   2.096   3.565
12480TIP3    H237384   4.453   2.217   3.528
12481TIP3   OH237385   4.253   2.749   6.737
12481TIP3    H137386   4.232   2.820   6.798
12481TIP3    H237387   4.301   2.685   6.790
12482TIP3   OH237388   1.128   1.759   5.781
12482TIP3    H137389   1.165   1.701   5.715
12482TIP3    H237390   1.084   1.827   5.731
12483TIP3   OH237391   2.284   5.985   6.459
12483TIP3    H137392   2.218   6.027   6.404
12483TIP3    H237393   2.234   5.943   6.529
12484TIP3   OH237394   7.311   3.306   2.430
12484TIP3    H137395   7.279   3.293   2.341
12484TIP3    H237396   7.339   3.397   2.433
12485TIP3   OH237397   0.450   3.366   0.972
12485TIP3    H137398   0.506   3.403   1.040
12485TIP3    H237399   0.507   3.305   0.924
12486TIP3   OH237400   7.923   7.700   2.505
12486TIP3    H137401   7.889   7.732   2.588
12486TIP3    H237402   7.995   7.642   2.529
12487TIP3   OH237403   6.615   5.035   2.921
12487TIP3    H137404   6.549   5.103   2.909
12487TIP3    H237405   6.653   5.023   2.833
12488TIP3   OH237406   0.762   1.494   4.141
12488TIP3    H137407   0.687   1.538   4.100
12488TIP3    H237408   0.774   1.539   4.224
12489TIP3   OH237409   0.034   1.929   3.263
12489TIP3    H137410  -0.003   2.015   3.282
12489TIP3    H237411   0.120   1.947   3.226
12490TIP3   OH237412   5.476   3.386   2.152
12490TIP3    H137413   5.420   3.446   2.201
12490TIP3    H237414   5.487   3.428   2.067
12491TIP3   OH237415   8.030   2.845   6.668
12491TIP3    H137416   7.995   2.871   6.753
12491TIP3    H237417   8.029   2.926   6.616
12492TIP3   OH237418   1.305   4.325   5.312
12492TIP3    H137419   1.267   4.389   5.252
12492TIP3    H237420   1.231   4.298   5.368
12493TIP3   OH237421   0.697   7.163   1.242
12493TIP3    H137422   0.657   7.166   1.329
12493TIP3    H237423   0.698   7.254   1.213
12494TIP3   OH237424   1.701   0.571   5.599
12494TIP3    H137425   1.662   0.518   5.529
12494TIP3    H237426   1.666   0.659   5.584
12495TIP3   OH237427   6.558   6.294   4.217
12495TIP3    H137428   6.648   6.325   4.202
12495TIP3    H237429   6.503   6.368   4.193
12496TIP3   OH237430   1.945   0.208   5.832
12496TIP3    H137431   2.037   0.227   5.851
12496TIP3    H237432   1.938   0.211   5.737
12497TIP3   OH237433   6.812   3.518   1.944
12497TIP3    H137434   6.886   3.457   1.956
12497TIP3    H237435   6.848   3.588   1.890
12498TIP3   OH237436   6.973   5.178   4.421
12498TIP3    H137437   7.059   5.213   4.444
12498TIP3    H237438   6.992   5.092   4.384
12499TIP3   OH237439   0.154   6.361   1.312
12499TIP3    H137440   0.178   6.410   1.391
12499TIP3    H237441   0.162   6.425   1.241
12500TIP3   OH237442   6.511   7.083   4.386
12500TIP3    H137443   6.575   7.012   4.376
12500TIP3    H237444   6.518   7.108   4.479
12501TIP3   OH237445   0.162   1.718   1.519
12501TIP3    H137446   0.077   1.726   1.475
12501TIP3    H237447   0.175   1.624   1.530
12502TIP3   OH237448   2.140   7.018   2.726
12502TIP3    H137449   2.119   7.077   2.798
12502TIP3    H237450   2.093   6.937   2.747
12503TIP3   OH237451   3.338   0.822   1.867
12503TIP3    H137452   3.284   0.899   1.883
12503TIP3    H237453   3.395   0.846   1.794
12504TIP3   OH237454   3.327   3.695   2.169
12504TIP3    H137455   3.378   3.730   2.095
12504TIP3    H237456   3.371   3.614   2.193
12505TIP3   OH237457   7.962   2.631   1.314
12505TIP3    H137458   7.913   2.684   1.251
12505TIP3    H237459   8.034   2.688   1.342
12506TIP3   OH237460   1.072   0.444   5.758
12506TIP3    H137461   1.071   0.355   5.724
12506TIP3    H237462   1.002   0.489   5.712
12507TIP3   OH237463   7.246   3.216   5.800
12507TIP3    H137464   7.274   3.127   5.824
12507TIP3    H237465   7.277   3.271   5.872
12508TIP3   OH237466   7.992   6.537   5.403
12508TIP3    H137467   8.070   6.483   5.391
12508TIP3    H237468   8.010   6.617   5.354
12509TIP3   OH237469   1.649   4.128   2.963
12509TIP3    H137470   1.729   4.171   2.993
12509TIP3    H237471   1.643   4.150   2.870
12510TIP3   OH237472   7.851   6.454   5.626
12510TIP3    H137473   7.780   6.399   5.591
12510TIP3    H237474   7.894   6.489   5.549
12511TIP3   OH237475   4.391   6.756   2.319
12511TIP3    H137476   4.388   6.849   2.297
12511TIP3    H237477   4.437   6.752   2.403
12512TIP3   OH237478   0.575   6.780   0.098
12512TIP3    H137479   0.633   6.812   0.167
12512TIP3    H237480   0.619   6.703   0.063
12513TIP3   OH237481   4.795   2.466   0.424
12513TIP3    H137482   4.700   2.475   0.435
12513TIP3    H237483   4.830   2.549   0.456
12514TIP3   OH237484   1.050   0.146   2.068
12514TIP3    H137485   1.115   0.152   2.139
12514TIP3    H237486   1.064   0.225   2.016
12515TIP3   OH237487   1.707   2.366   2.603
12515TIP3    H137488   1.720   2.411   2.519
12515TIP3    H237489   1.628   2.313   2.590
12516TIP3   OH237490   0.353   0.258   2.974
12516TIP3    H137491   0.440   0.254   2.934
12516TIP3    H237492   0.362   0.320   3.046
12517TIP3   OH237493   0.679   5.340   4.568
12517TIP3    H137494   0.658   5.334   4.662
12517TIP3    H237495   0.746   5.409   4.563
12518TIP3   OH237496   1.095   2.969   2.478
12518TIP3    H137497   1.085   3.061   2.453
12518TIP3    H237498   1.061   2.965   2.568
12519TIP3   OH237499   4.221   2.096   6.039
12519TIP3    H137500   4.265   2.104   6.124
12519TIP3    H237501   4.277   2.038   5.988
12520TIP3   OH237502   4.964   1.356   5.834
12520TIP3    H137503   4.916   1.365   5.751
12520TIP3    H237504   5.056   1.369   5.810
12521TIP3   OH237505   1.139   5.474   4.413
12521TIP3    H137506   1.225   5.481   4.374
12521TIP3    H237507   1.129   5.380   4.433
12522TIP3   OH237508   5.192   4.230   5.990
12522TIP3    H137509   5.221   4.278   6.067
12522TIP3    H237510   5.211   4.139   6.009
12523TIP3   OH237511   5.427   6.041   5.941
12523TIP3    H137512   5.509   6.065   5.984
12523TIP3    H237513   5.360   6.058   6.007
12524TIP3   OH237514   0.919   4.711   4.601
12524TIP3    H137515   0.843   4.668   4.560
12524TIP3    H237516   0.888   4.738   4.687
12525TIP3   OH237517   5.792   6.032   3.119
12525TIP3    H137518   5.799   5.954   3.173
12525TIP3    H237519   5.874   6.034   3.069
12526TIP3   OH237520   7.635   0.515   6.057
12526TIP3    H137521   7.549   0.556   6.062
12526TIP3    H237522   7.642   0.465   6.138
12527TIP3   OH237523   5.795   2.110   1.390
12527TIP3    H137524   5.841   2.154   1.460
12527TIP3    H237525   5.825   2.153   1.310
12528TIP3   OH237526   0.054   0.555   1.128
12528TIP3    H137527   0.128   0.613   1.108
12528TIP3    H237528  -0.021   0.597   1.087
12529TIP3   OH237529   2.579   6.695   3.253
12529TIP3    H137530   2.564   6.675   3.345
12529TIP3    H237531   2.514   6.762   3.231
12530TIP3   OH237532   0.902   5.694   6.099
12530TIP3    H137533   0.871   5.724   6.185
12530TIP3    H237534   0.842   5.733   6.036
12531TIP3   OH237535   3.349   5.014   2.797
12531TIP3    H137536   3.336   5.105   2.822
12531TIP3    H237537   3.280   4.996   2.734
12532TIP3   OH237538   0.393   1.551   4.984
12532TIP3    H137539   0.456   1.591   4.925
12532TIP3    H237540   0.345   1.625   5.022
12533TIP3   OH237541   2.209   4.181   3.970
12533TIP3    H137542   2.202   4.236   4.048
12533TIP3    H237543   2.161   4.231   3.903
12534TIP3   OH237544   7.634   7.757   0.293
12534TIP3    H137545   7.546   7.730   0.318
12534TIP3    H237546   7.684   7.753   0.374
12535TIP3   OH237547   4.350   1.057   3.798
12535TIP3    H137548   4.278   1.116   3.816
12535TIP3    H237549   4.316   0.970   3.822
12536TIP3   OH237550   2.089   7.437   4.003
12536TIP3    H137551   2.080   7.524   4.042
12536TIP3    H237552   2.128   7.384   4.073
12537TIP3   OH237553   4.835   3.015   5.322
12537TIP3    H137554   4.859   3.042   5.233
12537TIP3    H237555   4.919   2.993   5.363
12538TIP3   OH237556   0.491   7.132   3.924
12538TIP3    H137557   0.448   7.110   4.007
12538TIP3    H237558   0.540   7.052   3.901
12539TIP3   OH237559   3.503   5.850   4.049
12539TIP3    H137560   3.552   5.771   4.026
12539TIP3    H237561   3.571   5.916   4.067
12540TIP3   OH237562   4.858   1.005   6.138
12540TIP3    H137563   4.783   1.010   6.198
12540TIP3    H237564   4.858   0.915   6.108
12541TIP3   OH237565   2.139   3.974   2.186
12541TIP3    H137566   2.211   3.930   2.229
12541TIP3    H237567   2.060   3.937   2.226
12542TIP3   OH237568   5.453   5.413   0.034
12542TIP3    H137569   5.525   5.430  -0.026
12542TIP3    H237570   5.410   5.335  -0.002
12543TIP3   OH237571   2.226   6.696   5.154
12543TIP3    H137572   2.265   6.610   5.168
12543TIP3    H237573   2.148   6.697   5.209
12544TIP3   OH237574   5.828   2.261   0.895
12544TIP3    H137575   5.880   2.195   0.849
12544TIP3    H237576   5.740   2.254   0.858
12545TIP3   OH237577   1.937   7.276   2.854
12545TIP3    H137578   2.007   7.341   2.865
12545TIP3    H237579   1.962   7.204   2.913
12546TIP3   OH237580   6.149   1.947   4.958
12546TIP3    H137581   6.189   2.029   4.987
12546TIP3    H237582   6.086   1.974   4.891
12547TIP3   OH237583   2.876   7.065   4.978
12547TIP3    H137584   2.967   7.040   4.969
12547TIP3    H237585   2.848   7.024   5.060
12548TIP3   OH237586   4.317   4.299   0.805
12548TIP3    H137587   4.318   4.351   0.885
12548TIP3    H237588   4.388   4.335   0.752
12549TIP3   OH237589   1.595   2.325   2.874
12549TIP3    H137590   1.659   2.344   2.805
12549TIP3    H237591   1.576   2.411   2.913
12550TIP3   OH237592   0.631   7.476   3.887
12550TIP3    H137593   0.592   7.425   3.817
12550TIP3    H237594   0.669   7.552   3.843
12551TIP3   OH237595   4.622   1.194   3.794
12551TIP3    H137596   4.528   1.188   3.812
12551TIP3    H237597   4.662   1.203   3.880
12552TIP3   OH237598   8.249   1.626   3.013
12552TIP3    H137599   8.214   1.628   3.102
12552TIP3    H237600   8.234   1.714   2.979
12553TIP3   OH237601   2.117   2.556   0.532
12553TIP3    H137602   2.131   2.461   0.533
12553TIP3    H237603   2.025   2.566   0.509
12554TIP3   OH237604   7.614   0.471   3.951
12554TIP3    H137605   7.566   0.389   3.966
12554TIP3    H237606   7.658   0.489   4.034
12555TIP3   OH237607   4.419   2.269   6.244
12555TIP3    H137608   4.351   2.331   6.269
12555TIP3    H237609   4.421   2.273   6.148
12556TIP3   OH237610   4.745   7.186   2.186
12556TIP3    H137611   4.712   7.203   2.274
12556TIP3    H237612   4.839   7.169   2.198
12557TIP3   OH237613   3.509   2.212   2.188
12557TIP3    H137614   3.545   2.124   2.198
12557TIP3    H237615   3.512   2.250   2.276
12558TIP3   OH237616   2.866   4.728   2.791
12558TIP3    H137617   2.828   4.800   2.741
12558TIP3    H237618   2.827   4.736   2.878
12559TIP3   OH237619   3.266   2.524   1.397
12559TIP3    H137620   3.358   2.526   1.422
12559TIP3    H237621   3.264   2.565   1.311
12560TIP3   OH237622   1.510   5.651   1.562
12560TIP3    H137623   1.447   5.590   1.523
12560TIP3    H237624   1.536   5.708   1.490
12561TIP3   OH237625   0.823   0.210   3.133
12561TIP3    H137626   0.813   0.207   3.228
12561TIP3    H237627   0.736   0.232   3.100
12562TIP3   OH237628   4.469   2.699   5.597
12562TIP3    H137629   4.520   2.679   5.519
12562TIP3    H237630   4.519   2.660   5.669
12563TIP3   OH237631   1.654   6.082   3.596
12563TIP3    H137632   1.598   6.016   3.555
12563TIP3    H237633   1.739   6.071   3.553
12564TIP3   OH237634   4.755   5.988   2.065
12564TIP3    H137635   4.803   6.021   2.141
12564TIP3    H237636   4.706   6.064   2.033
12565TIP3   OH237637   7.354   1.160   2.927
12565TIP3    H137638   7.434   1.140   2.977
12565TIP3    H237639   7.384   1.217   2.856
12566TIP3   OH237640   3.956   5.229   5.949
12566TIP3    H137641   3.989   5.167   5.883
12566TIP3    H237642   3.958   5.314   5.905
12567TIP3   OH237643   1.480   4.736   4.234
12567TIP3    H137644   1.572   4.726   4.260
12567TIP3    H237645   1.431   4.683   4.297
12568TIP3   OH237646   4.835   5.651   1.016
12568TIP3    H137647   4.809   5.733   1.058
12568TIP3    H237648   4.907   5.676   0.958
12569TIP3   OH237649   5.630   6.484   3.688
12569TIP3    H137650   5.640   6.578   3.674
12569TIP3    H237651   5.720   6.450   3.689
12570TIP3   OH237652   7.305   7.345   0.792
12570TIP3    H137653   7.379   7.292   0.761
12570TIP3    H237654   7.340   7.433   0.799
12571TIP3   OH237655   6.185   1.643   3.261
12571TIP3    H137656   6.245   1.683   3.198
12571TIP3    H237657   6.236   1.640   3.343
12572TIP3   OH237658   4.987   3.876   3.400
12572TIP3    H137659   5.011   3.804   3.458
12572TIP3    H237660   5.051   3.873   3.329
12573TIP3   OH237661   1.631   4.117   3.263
12573TIP3    H137662   1.605   4.155   3.179
12573TIP3    H237663   1.647   4.025   3.243
12574TIP3   OH237664   3.333   6.710   6.721
12574TIP3    H137665   3.276   6.696   6.646
12574TIP3    H237666   3.383   6.629   6.729
12575TIP3   OH237667   2.508   0.548   5.538
12575TIP3    H137668   2.534   0.475   5.594
12575TIP3    H237669   2.583   0.563   5.481
12576TIP3   OH237670   0.203   2.810   1.476
12576TIP3    H137671   0.110   2.826   1.491
12576TIP3    H237672   0.230   2.755   1.550
12577TIP3   OH237673   2.499   0.643   2.818
12577TIP3    H137674   2.423   0.679   2.773
12577TIP3    H237675   2.566   0.711   2.813
12578TIP3   OH237676   6.941   0.190   5.995
12578TIP3    H137677   6.945   0.118   6.058
12578TIP3    H237678   7.033   0.209   5.975
12579TIP3   OH237679   4.180   3.583   5.508
12579TIP3    H137680   4.187   3.556   5.600
12579TIP3    H237681   4.220   3.511   5.460
12580TIP3   OH237682   1.919   1.327   5.372
12580TIP3    H137683   1.982   1.273   5.326
12580TIP3    H237684   1.971   1.390   5.421
12581TIP3   OH237685   3.559   3.043   1.262
12581TIP3    H137686   3.479   3.045   1.314
12581TIP3    H237687   3.596   2.956   1.278
12582TIP3   OH237688   6.528   5.331   5.861
12582TIP3    H137689   6.613   5.371   5.845
12582TIP3    H237690   6.493   5.376   5.938
12583TIP3   OH237691   0.757   6.708   6.049
12583TIP3    H137692   0.704   6.768   5.996
12583TIP3    H237693   0.836   6.694   5.997
12584TIP3   OH237694   4.220   1.804   1.313
12584TIP3    H137695   4.313   1.785   1.326
12584TIP3    H237696   4.186   1.819   1.401
12585TIP3   OH237697   2.995   1.860   6.223
12585TIP3    H137698   2.948   1.778   6.237
12585TIP3    H237699   3.085   1.841   6.251
12586TIP3   OH237700   6.387   6.162   0.841
12586TIP3    H137701   6.415   6.247   0.807
12586TIP3    H237702   6.461   6.104   0.826
12587TIP3   OH237703   5.807   4.788   3.395
12587TIP3    H137704   5.801   4.786   3.300
12587TIP3    H237705   5.900   4.773   3.413
12588TIP3   OH237706   4.785   6.801   5.411
12588TIP3    H137707   4.795   6.774   5.319
12588TIP3    H237708   4.707   6.755   5.441
12589TIP3   OH237709   5.948   7.605   1.986
12589TIP3    H137710   5.935   7.511   1.979
12589TIP3    H237711   5.910   7.628   2.071
12590TIP3   OH237712   5.594   0.717   0.713
12590TIP3    H137713   5.533   0.701   0.786
12590TIP3    H237714   5.672   0.753   0.755
12591TIP3   OH237715   4.598   5.971   3.696
12591TIP3    H137716   4.673   5.998   3.643
12591TIP3    H237717   4.604   6.025   3.775
12592TIP3   OH237718   7.833   3.320   4.152
12592TIP3    H137719   7.899   3.388   4.166
12592TIP3    H237720   7.874   3.239   4.181
12593TIP3   OH237721   5.834   4.318   2.106
12593TIP3    H137722   5.844   4.238   2.055
12593TIP3    H237723   5.901   4.377   2.072
12594TIP3   OH237724   1.953   3.056   0.885
12594TIP3    H137725   1.902   3.000   0.944
12594TIP3    H237726   2.042   3.020   0.888
12595TIP3   OH237727   6.498   5.183   0.576
12595TIP3    H137728   6.458   5.191   0.662
12595TIP3    H237729   6.592   5.171   0.593
12596TIP3   OH237730   7.166   7.520   1.636
12596TIP3    H137731   7.134   7.546   1.722
12596TIP3    H237732   7.169   7.424   1.640
12597TIP3   OH237733   4.421   5.129   0.101
12597TIP3    H137734   4.453   5.216   0.078
12597TIP3    H237735   4.431   5.078   0.021
12598TIP3   OH237736   0.416   0.136   4.545
12598TIP3    H137737   0.397   0.229   4.541
12598TIP3    H237738   0.415   0.107   4.454
12599TIP3   OH237739   7.996   5.208   5.513
12599TIP3    H137740   8.006   5.126   5.464
12599TIP3    H237741   7.970   5.273   5.447
12600TIP3   OH237742   0.318   5.955   4.410
12600TIP3    H137743   0.391   5.892   4.409
12600TIP3    H237744   0.338   6.014   4.482
12601TIP3   OH237745   0.565   2.486   5.163
12601TIP3    H137746   0.552   2.523   5.251
12601TIP3    H237747   0.477   2.474   5.129
12602TIP3   OH237748   4.387   7.344   2.303
12602TIP3    H137749   4.334   7.264   2.306
12602TIP3    H237750   4.352   7.393   2.229
12603TIP3   OH237751   1.444   4.630   3.976
12603TIP3    H137752   1.462   4.658   4.066
12603TIP3    H237753   1.440   4.534   3.982
12604TIP3   OH237754   6.844   3.120   0.185
12604TIP3    H137755   6.876   3.077   0.264
12604TIP3    H237756   6.759   3.156   0.210
12605TIP3   OH237757   1.901   5.208   2.735
12605TIP3    H137758   1.928   5.265   2.663
12605TIP3    H237759   1.965   5.138   2.735
12606TIP3   OH237760   6.717   4.568   1.919
12606TIP3    H137761   6.767   4.627   1.976
12606TIP3    H237762   6.683   4.501   1.979
12607TIP3   OH237763   7.850   6.965   1.472
12607TIP3    H137764   7.809   7.026   1.534
12607TIP3    H237765   7.928   7.011   1.441
12608TIP3   OH237766   7.240   5.993   1.108
12608TIP3    H137767   7.194   5.912   1.128
12608TIP3    H237768   7.221   6.051   1.182
12609TIP3   OH237769   5.262   1.069   2.574
12609TIP3    H137770   5.273   1.010   2.648
12609TIP3    H237771   5.208   1.021   2.512
12610TIP3   OH237772   5.921   0.104   6.169
12610TIP3    H137773   5.996   0.093   6.109
12610TIP3    H237774   5.917   0.021   6.217
12611TIP3   OH237775   4.403   6.368   3.538
12611TIP3    H137776   4.339   6.384   3.607
12611TIP3    H237777   4.384   6.435   3.472
12612TIP3   OH237778   5.155   4.680   0.518
12612TIP3    H137779   5.147   4.666   0.424
12612TIP3    H237780   5.088   4.622   0.556
12613TIP3   OH237781   5.515   5.642   4.219
12613TIP3    H137782   5.435   5.665   4.267
12613TIP3    H237783   5.525   5.712   4.155
12614TIP3   OH237784   3.591   0.653   1.459
12614TIP3    H137785   3.619   0.714   1.390
12614TIP3    H237786   3.497   0.668   1.468
12615TIP3   OH237787   1.340   2.430   0.836
12615TIP3    H137788   1.394   2.353   0.855
12615TIP3    H237789   1.250   2.399   0.847
12616TIP3   OH237790   5.731   4.370   4.135
12616TIP3    H137791   5.732   4.276   4.115
12616TIP3    H237792   5.785   4.378   4.214
12617TIP3   OH237793   2.093   1.404   5.629
12617TIP3    H137794   2.047   1.423   5.711
12617TIP3    H237795   2.161   1.471   5.624
12618TIP3   OH237796   3.794   5.038   1.808
12618TIP3    H137797   3.806   4.974   1.879
12618TIP3    H237798   3.715   5.007   1.762
12619TIP3   OH237799   3.959   4.500   2.108
12619TIP3    H137800   4.029   4.436   2.097
12619TIP3    H237801   3.938   4.496   2.201
12620TIP3   OH237802   5.718   7.603   1.562
12620TIP3    H137803   5.752   7.518   1.533
12620TIP3    H237804   5.643   7.620   1.505
12621TIP3   OH237805   0.427   2.832   5.024
12621TIP3    H137806   0.517   2.828   5.058
12621TIP3    H237807   0.372   2.824   5.101
12622TIP3   OH237808   7.675   1.075   0.113
12622TIP3    H137809   7.617   1.151   0.114
12622TIP3    H237810   7.618   1.001   0.133
12623TIP3   OH237811   7.075   2.091   0.718
12623TIP3    H137812   7.026   2.137   0.787
12623TIP3    H237813   7.024   2.107   0.639
12624TIP3   OH237814   3.459   6.377   2.940
12624TIP3    H137815   3.528   6.427   2.984
12624TIP3    H237816   3.506   6.316   2.883
12625TIP3   OH237817   4.003   3.781   4.171
12625TIP3    H137818   3.993   3.825   4.087
12625TIP3    H237819   4.029   3.692   4.149
12626TIP3   OH237820   5.030   5.448   6.347
12626TIP3    H137821   4.943   5.450   6.308
12626TIP3    H237822   5.075   5.377   6.300
12627TIP3   OH237823   1.804   3.901   5.539
12627TIP3    H137824   1.775   3.919   5.450
12627TIP3    H237825   1.788   3.807   5.551
12628TIP3   OH237826   5.472   6.035   1.844
12628TIP3    H137827   5.405   5.995   1.790
12628TIP3    H237828   5.554   6.020   1.796
12629TIP3   OH237829   7.047   5.726   3.883
12629TIP3    H137830   7.047   5.739   3.978
12629TIP3    H237831   7.015   5.808   3.847
12630TIP3   OH237832   1.808   1.549   1.597
12630TIP3    H137833   1.812   1.523   1.690
12630TIP3    H237834   1.878   1.614   1.588
12631TIP3   OH237835   1.510   3.567   0.872
12631TIP3    H137836   1.503   3.655   0.909
12631TIP3    H237837   1.420   3.538   0.861
12632TIP3   OH237838   6.210   7.027   0.624
12632TIP3    H137839   6.213   7.012   0.529
12632TIP3    H237840   6.147   6.963   0.657
12633TIP3   OH237841   1.779   5.543   0.133
12633TIP3    H137842   1.747   5.571   0.218
12633TIP3    H237843   1.793   5.449   0.142
12634TIP3   OH237844   1.479   1.546   6.532
12634TIP3    H137845   1.549   1.541   6.467
12634TIP3    H237846   1.524   1.551   6.616
12635TIP3   OH237847   4.981   6.038   5.509
12635TIP3    H137848   4.898   6.083   5.525
12635TIP3    H237849   5.032   6.100   5.457
12636TIP3   OH237850   0.523   6.676   0.349
12636TIP3    H137851   0.483   6.712   0.428
12636TIP3    H237852   0.470   6.711   0.277
12637TIP3   OH237853   6.639   7.051   2.417
12637TIP3    H137854   6.612   6.995   2.344
12637TIP3    H237855   6.600   7.137   2.397
12638TIP3   OH237856   4.755   6.908   2.404
12638TIP3    H137857   4.784   6.888   2.316
12638TIP3    H237858   4.836   6.927   2.452
12639TIP3   OH237859   0.624   6.263   2.936
12639TIP3    H137860   0.601   6.247   3.027
12639TIP3    H237861   0.556   6.324   2.905
12640TIP3   OH237862   5.016   0.462   5.102
12640TIP3    H137863   5.013   0.374   5.064
12640TIP3    H237864   4.924   0.489   5.107
12641TIP3   OH237865   0.201   2.007   0.514
12641TIP3    H137866   0.282   2.042   0.477
12641TIP3    H237867   0.227   1.922   0.550
12642TIP3   OH237868   7.242   6.018   5.366
12642TIP3    H137869   7.269   6.032   5.275
12642TIP3    H237870   7.275   5.931   5.388
12643TIP3   OH237871   6.127   6.757   5.851
12643TIP3    H137872   6.194   6.796   5.906
12643TIP3    H237873   6.080   6.698   5.910
12644TIP3   OH237874   6.171   6.958   4.360
12644TIP3    H137875   6.118   6.879   4.372
12644TIP3    H237876   6.180   6.995   4.448
12645TIP3   OH237877   6.492   3.107   4.949
12645TIP3    H137878   6.565   3.164   4.971
12645TIP3    H237879   6.525   3.018   4.963
12646TIP3   OH237880   0.380   0.540   1.234
12646TIP3    H137881   0.459   0.499   1.269
12646TIP3    H237882   0.364   0.614   1.293
12647TIP3   OH237883   4.240   5.794   5.735
12647TIP3    H137884   4.194   5.751   5.807
12647TIP3    H237885   4.218   5.887   5.745
12648TIP3   OH237886   3.678   1.712   0.227
12648TIP3    H137887   3.635   1.627   0.239
12648TIP3    H237888   3.618   1.761   0.170
12649TIP3   OH237889   8.144   4.210   3.036
12649TIP3    H137890   8.164   4.138   2.976
12649TIP3    H237891   8.054   4.234   3.016
12650TIP3   OH237892   3.454   1.924   1.573
12650TIP3    H137893   3.436   1.906   1.665
12650TIP3    H237894   3.448   2.019   1.565
12651TIP3   OH237895   4.947   6.416   4.380
12651TIP3    H137896   4.898   6.446   4.304
12651TIP3    H237897   4.963   6.495   4.431
12652TIP3   OH237898   1.161   7.169   3.542
12652TIP3    H137899   1.073   7.186   3.575
12652TIP3    H237900   1.158   7.079   3.510
12653TIP3   OH237901   6.536   6.001   2.730
12653TIP3    H137902   6.450   5.976   2.694
12653TIP3    H237903   6.539   5.957   2.815
12654TIP3   OH237904   3.686   5.890   2.130
12654TIP3    H137905   3.780   5.885   2.111
12654TIP3    H237906   3.659   5.974   2.094
12655TIP3   OH237907   7.970   3.894   3.472
12655TIP3    H137908   8.002   3.952   3.403
12655TIP3    H237909   7.959   3.951   3.548
12656TIP3   OH237910   7.351   4.438   3.266
12656TIP3    H137911   7.422   4.401   3.214
12656TIP3    H237912   7.273   4.390   3.239
12657TIP3   OH237913   5.505   7.573   1.859
12657TIP3    H137914   5.488   7.598   1.768
12657TIP3    H237915   5.588   7.614   1.880
12658TIP3   OH237916   0.355   6.659   2.669
12658TIP3    H137917   0.335   6.655   2.576
12658TIP3    H237918   0.362   6.753   2.688
12659TIP3   OH237919   7.502   1.996   0.728
12659TIP3    H137920   7.589   1.964   0.751
12659TIP3    H237921   7.442   1.944   0.782
12660TIP3   OH237922   4.753   1.596   6.450
12660TIP3    H137923   4.713   1.611   6.364
12660TIP3    H237924   4.686   1.626   6.512
12661TIP3   OH237925   7.778   3.865   1.362
12661TIP3    H137926   7.791   3.798   1.295
12661TIP3    H237927   7.833   3.938   1.334
12662TIP3   OH237928   5.185   0.105   0.835
12662TIP3    H137929   5.162   0.170   0.768
12662TIP3    H237930   5.241   0.043   0.789
12663TIP3   OH237931   3.634   4.780   4.561
12663TIP3    H137932   3.637   4.788   4.466
12663TIP3    H237933   3.577   4.704   4.577
12664TIP3   OH237934   7.235   1.880   3.087
12664TIP3    H137935   7.304   1.872   3.022
12664TIP3    H237936   7.203   1.970   3.078
12665TIP3   OH237937   3.970   3.331   6.279
12665TIP3    H137938   3.952   3.375   6.362
12665TIP3    H237939   3.907   3.368   6.218
12666TIP3   OH237940   4.262   6.916   5.936
12666TIP3    H137941   4.338   6.884   5.888
12666TIP3    H237942   4.193   6.851   5.919
12667TIP3   OH237943   4.954   5.387   3.767
12667TIP3    H137944   4.940   5.303   3.811
12667TIP3    H237945   5.035   5.420   3.804
12668TIP3   OH237946   4.800   5.770   4.216
12668TIP3    H137947   4.816   5.804   4.128
12668TIP3    H237948   4.846   5.830   4.274
12669TIP3   OH237949   7.341   6.359   2.041
12669TIP3    H137950   7.259   6.386   2.001
12669TIP3    H237951   7.331   6.265   2.055
12670TIP3   OH237952   4.992   7.398   2.510
12670TIP3    H137953   4.959   7.431   2.594
12670TIP3    H237954   4.952   7.455   2.445
12671TIP3   OH237955   5.734   6.755   6.279
12671TIP3    H137956   5.715   6.775   6.371
12671TIP3    H237957   5.648   6.752   6.237
12672TIP3   OH237958   7.702   7.707   3.479
12672TIP3    H137959   7.735   7.697   3.390
12672TIP3    H237960   7.779   7.733   3.530
12673TIP3   OH237961   2.775   0.567   5.374
12673TIP3    H137962   2.753   0.626   5.302
12673TIP3    H237963   2.775   0.480   5.335
12674TIP3   OH237964   3.475   4.785   2.667
12674TIP3    H137965   3.444   4.857   2.722
12674TIP3    H237966   3.531   4.733   2.725
12675TIP3   OH237967   5.563   5.349   1.047
12675TIP3    H137968   5.575   5.424   0.988
12675TIP3    H237969   5.650   5.312   1.058
12676TIP3   OH237970   6.829   2.664   4.032
12676TIP3    H137971   6.759   2.720   4.063
12676TIP3    H237972   6.802   2.636   3.944
12677TIP3   OH237973   3.789   7.138   4.390
12677TIP3    H137974   3.771   7.212   4.332
12677TIP3    H237975   3.714   7.135   4.450
12678TIP3   OH237976   6.271   7.713   3.647
12678TIP3    H137977   6.239   7.632   3.684
12678TIP3    H237978   6.279   7.773   3.721
12679TIP3   OH237979   2.030   6.285   4.933
12679TIP3    H137980   2.098   6.218   4.943
12679TIP3    H237981   2.007   6.282   4.840
12680TIP3   OH237982   1.340   1.947   1.220
12680TIP3    H137983   1.356   1.864   1.265
12680TIP3    H237984   1.424   1.992   1.223
12681TIP3   OH237985   4.526   2.629   1.583
12681TIP3    H137986   4.440   2.610   1.619
12681TIP3    H237987   4.512   2.633   1.488
12682TIP3   OH237988   6.619   4.863   4.570
12682TIP3    H137989   6.585   4.849   4.659
12682TIP3    H237990   6.696   4.919   4.582
12683TIP3   OH237991   2.248   2.802  -0.017
12683TIP3    H137992   2.174   2.757   0.023
12683TIP3    H237993   2.242   2.892   0.016
12684TIP3   OH237994   4.051   4.616   1.853
12684TIP3    H137995   3.989   4.571   1.910
12684TIP3    H237996   4.132   4.622   1.905
12685TIP3   OH237997   0.290   0.881   1.200
12685TIP3    H137998   0.342   0.918   1.271
12685TIP3    H237999   0.309   0.938   1.125
12686TIP3   OH238000   7.203   3.773   6.478
12686TIP3    H138001   7.248   3.701   6.523
12686TIP3    H238002   7.127   3.792   6.532
12687TIP3   OH238003   7.731   0.886   0.535
12687TIP3    H138004   7.747   0.925   0.449
12687TIP3    H238005   7.763   0.796   0.526
12688TIP3   OH238006   5.617   6.547   4.196
12688TIP3    H138007   5.572   6.562   4.112
12688TIP3    H238008   5.560   6.485   4.242
12689TIP3   OH238009   3.265   0.837   2.621
12689TIP3    H138010   3.347   0.808   2.582
12689TIP3    H238011   3.205   0.763   2.612
12690TIP3   OH238012   3.967   6.037   6.062
12690TIP3    H138013   4.028   5.964   6.048
12690TIP3    H238014   3.971   6.054   6.156
12691TIP3   OH238015   6.810   0.129   3.469
12691TIP3    H138016   6.891   0.077   3.470
12691TIP3    H238017   6.753   0.087   3.533
12692TIP3   OH238018   7.643   2.548   4.092
12692TIP3    H138019   7.675   2.464   4.124
12692TIP3    H238020   7.636   2.536   3.997
12693TIP3   OH238021   5.539   1.020   3.675
12693TIP3    H138022   5.588   1.020   3.592
12693TIP3    H238023   5.604   1.043   3.741
12694TIP3   OH238024   4.814   5.146   0.018
12694TIP3    H138025   4.801   5.081  -0.050
12694TIP3    H238026   4.779   5.106   0.097
12695TIP3   OH238027   1.619   6.193   5.383
12695TIP3    H138028   1.704   6.235   5.374
12695TIP3    H238029   1.556   6.257   5.349
12696TIP3   OH238030   7.569   2.393   1.815
12696TIP3    H138031   7.485   2.395   1.861
12696TIP3    H238032   7.546   2.391   1.723
12697TIP3   OH238033   7.645   6.603   2.552
12697TIP3    H138034   7.559   6.640   2.532
12697TIP3    H238035   7.628   6.510   2.568
12698TIP3   OH238036   3.560   1.066   5.874
12698TIP3    H138037   3.592   1.140   5.822
12698TIP3    H238038   3.492   1.026   5.819
12699TIP3   OH238039   3.027   1.986   2.389
12699TIP3    H138040   2.968   1.973   2.314
12699TIP3    H238041   2.974   2.032   2.453
12700TIP3   OH238042   6.695   4.124   0.141
12700TIP3    H138043   6.776   4.081   0.170
12700TIP3    H238044   6.629   4.097   0.205
12701TIP3   OH238045   5.561   6.371   0.846
12701TIP3    H138046   5.514   6.427   0.784
12701TIP3    H238047   5.653   6.389   0.829
12702TIP3   OH238048   7.200   3.201   3.053
12702TIP3    H138049   7.133   3.141   3.086
12702TIP3    H238050   7.281   3.170   3.093
12703TIP3   OH238051   1.169   6.013   1.898
12703TIP3    H138052   1.103   6.033   1.833
12703TIP3    H238053   1.127   6.033   1.982
12704TIP3   OH238054   1.914   6.186   1.318
12704TIP3    H138055   1.944   6.255   1.377
12704TIP3    H238056   1.922   6.224   1.230
12705TIP3   OH238057   0.220   5.505   2.275
12705TIP3    H138058   0.304   5.525   2.315
12705TIP3    H238059   0.207   5.411   2.292
12706TIP3   OH238060   4.545   5.227   6.455
12706TIP3    H138061   4.633   5.212   6.489
12706TIP3    H238062   4.560   5.266   6.369
12707TIP3   OH238063   4.375   3.332   3.443
12707TIP3    H138064   4.405   3.253   3.489
12707TIP3    H238065   4.286   3.311   3.416
12708TIP3   OH238066   6.097   0.544   4.744
12708TIP3    H138067   6.030   0.475   4.744
12708TIP3    H238068   6.144   0.531   4.661
12709TIP3   OH238069   3.832   1.820   1.225
12709TIP3    H138070   3.829   1.824   1.320
12709TIP3    H238071   3.761   1.877   1.196
12710TIP3   OH238072   7.822   6.925   3.343
12710TIP3    H138073   7.728   6.932   3.358
12710TIP3    H238074   7.833   6.845   3.292
12711TIP3   OH238075   2.713   3.945   1.996
12711TIP3    H138076   2.717   3.893   2.076
12711TIP3    H238077   2.794   3.923   1.949
12712TIP3   OH238078   7.489   6.372   1.549
12712TIP3    H138079   7.576   6.365   1.588
12712TIP3    H238080   7.478   6.291   1.499
12713TIP3   OH238081   4.254   6.542   0.236
12713TIP3    H138082   4.254   6.610   0.168
12713TIP3    H238083   4.184   6.482   0.210
12714TIP3   OH238084   2.306   3.959   1.728
12714TIP3    H138085   2.282   4.028   1.665
12714TIP3    H238086   2.225   3.912   1.744
12715TIP3   OH238087   6.727   3.602   5.798
12715TIP3    H138088   6.675   3.527   5.827
12715TIP3    H238089   6.771   3.572   5.719
12716TIP3   OH238090   2.912   3.303   0.634
12716TIP3    H138091   2.882   3.237   0.571
12716TIP3    H238092   3.003   3.280   0.650
12717TIP3   OH238093   4.470   1.058   1.080
12717TIP3    H138094   4.516   1.114   1.018
12717TIP3    H238095   4.386   1.102   1.093
12718TIP3   OH238096   6.441   5.597   2.207
12718TIP3    H138097   6.420   5.529   2.272
12718TIP3    H238098   6.462   5.548   2.128
12719TIP3   OH238099   5.192   3.433   5.259
12719TIP3    H138100   5.196   3.474   5.345
12719TIP3    H238101   5.176   3.505   5.199
12720TIP3   OH238102   8.238   3.936   0.582
12720TIP3    H138103   8.290   4.003   0.626
12720TIP3    H238104   8.215   3.975   0.498
12721TIP3   OH238105   5.176   1.634   3.584
12721TIP3    H138106   5.193   1.666   3.673
12721TIP3    H238107   5.083   1.650   3.570
12722TIP3   OH238108   7.705   5.484   0.990
12722TIP3    H138109   7.743   5.483   1.077
12722TIP3    H238110   7.779   5.497   0.931
12723TIP3   OH238111   3.886   1.810   4.824
12723TIP3    H138112   3.898   1.720   4.794
12723TIP3    H238113   3.966   1.855   4.797
12724TIP3   OH238114   3.475   3.312   4.833
12724TIP3    H138115   3.395   3.259   4.824
12724TIP3    H238116   3.456   3.391   4.783
12725TIP3   OH238117   2.842   1.488   4.496
12725TIP3    H138118   2.788   1.423   4.452
12725TIP3    H238119   2.851   1.559   4.432
12726TIP3   OH238120   5.374   5.116   4.374
12726TIP3    H138121   5.312   5.189   4.375
12726TIP3    H238122   5.332   5.049   4.428
12727TIP3   OH238123   1.861   5.234   4.908
12727TIP3    H138124   1.793   5.283   4.954
12727TIP3    H238125   1.851   5.257   4.816
12728TIP3   OH238126   7.209   6.761   2.718
12728TIP3    H138127   7.298   6.788   2.699
12728TIP3    H238128   7.175   6.728   2.635
12729TIP3   OH238129   7.952   4.344   3.660
12729TIP3    H138130   7.982   4.413   3.721
12729TIP3    H238131   7.861   4.367   3.641
12730TIP3   OH238132   5.316   3.172   3.090
12730TIP3    H138133   5.330   3.133   3.176
12730TIP3    H238134   5.285   3.099   3.036
12731TIP3   OH238135   5.279   2.846   4.179
12731TIP3    H138136   5.189   2.871   4.159
12731TIP3    H238137   5.288   2.860   4.274
12732TIP3   OH238138   1.915   3.383  -0.029
12732TIP3    H138139   2.006   3.369  -0.004
12732TIP3    H238140   1.866   3.372   0.053
12733TIP3   OH238141   6.261   3.062   3.947
12733TIP3    H138142   6.205   3.057   4.025
12733TIP3    H238143   6.268   3.156   3.929
12734TIP3   OH238144   2.317   1.918   2.284
12734TIP3    H138145   2.384   1.849   2.289
12734TIP3    H238146   2.336   1.975   2.359
12735TIP3   OH238147   0.669   6.241   6.284
12735TIP3    H138148   0.631   6.299   6.349
12735TIP3    H238149   0.600   6.230   6.218
12736TIP3   OH238150   4.640   5.452   1.437
12736TIP3    H138151   4.692   5.375   1.461
12736TIP3    H238152   4.706   5.519   1.415
12737TIP3   OH238153   3.215   7.350   1.509
12737TIP3    H138154   3.280   7.403   1.463
12737TIP3    H238155   3.240   7.260   1.490
12738TIP3   OH238156   2.076   6.021   1.615
12738TIP3    H138157   2.062   5.944   1.670
12738TIP3    H238158   1.992   6.067   1.616
12739TIP3   OH238159   7.246   3.422   3.243
12739TIP3    H138160   7.341   3.438   3.238
12739TIP3    H238161   7.229   3.363   3.170
12740TIP3   OH238162   0.022   4.370   1.055
12740TIP3    H138163  -0.009   4.440   1.111
12740TIP3    H238164   0.084   4.413   0.995
12741TIP3   OH238165   2.829   6.745   1.731
12741TIP3    H138166   2.808   6.796   1.810
12741TIP3    H238167   2.908   6.696   1.754
12742TIP3   OH238168   4.172   7.243   5.160
12742TIP3    H138169   4.111   7.214   5.227
12742TIP3    H238170   4.211   7.323   5.196
12743TIP3   OH238171   3.539   4.295   2.688
12743TIP3    H138172   3.577   4.253   2.765
12743TIP3    H238173   3.476   4.358   2.724
12744TIP3   OH238174   2.492   4.071   6.423
12744TIP3    H138175   2.454   3.985   6.404
12744TIP3    H238176   2.476   4.084   6.517
12745TIP3   OH238177   1.526   0.546   6.372
12745TIP3    H138178   1.608   0.595   6.368
12745TIP3    H238179   1.498   0.538   6.281
12746TIP3   OH238180   0.999   3.710   4.504
12746TIP3    H138181   0.987   3.684   4.596
12746TIP3    H238182   0.977   3.803   4.502
12747TIP3   OH238183   0.818   0.538   5.672
12747TIP3    H138184   0.849   0.515   5.584
12747TIP3    H238185   0.815   0.634   5.672
12748TIP3   OH238186   5.664   5.897   3.354
12748TIP3    H138187   5.691   5.833   3.420
12748TIP3    H238188   5.617   5.964   3.402
12749TIP3   OH238189   6.282   0.103   1.516
12749TIP3    H138190   6.326   0.131   1.436
12749TIP3    H238191   6.351   0.101   1.582
12750TIP3   OH238192   4.651   6.763   1.440
12750TIP3    H138193   4.669   6.732   1.351
12750TIP3    H238194   4.731   6.742   1.489
12751TIP3   OH238195   7.006   5.026   6.505
12751TIP3    H138196   6.966   4.976   6.434
12751TIP3    H238197   6.975   4.983   6.585
12752TIP3   OH238198   0.159   4.668   4.226
12752TIP3    H138199   0.108   4.619   4.161
12752TIP3    H238200   0.233   4.611   4.246
12753TIP3   OH238201   7.401   2.019   1.358
12753TIP3    H138202   7.455   2.096   1.346
12753TIP3    H238203   7.318   2.041   1.316
12754TIP3   OH238204   5.095   6.151   0.590
12754TIP3    H138205   5.108   6.097   0.668
12754TIP3    H238206   5.163   6.218   0.596
12755TIP3   OH238207   7.651   1.834   2.098
12755TIP3    H138208   7.622   1.877   2.179
12755TIP3    H238209   7.627   1.742   2.111
12756TIP3   OH238210   7.452   6.627   5.802
12756TIP3    H138211   7.471   6.553   5.745
12756TIP3    H238212   7.407   6.690   5.745
12757TIP3   OH238213   6.575   7.324   4.788
12757TIP3    H138214   6.621   7.406   4.775
12757TIP3    H238215   6.502   7.346   4.846
12758TIP3   OH238216   4.886   5.041   2.122
12758TIP3    H138217   4.892   5.097   2.045
12758TIP3    H238218   4.976   5.012   2.138
12759TIP3   OH238219   4.861  -0.003   2.376
12759TIP3    H138220   4.785   0.026   2.325
12759TIP3    H238221   4.823  -0.032   2.459
12760TIP3   OH238222   6.929   2.715   6.541
12760TIP3    H138223   6.866   2.775   6.501
12760TIP3    H238224   6.992   2.696   6.471
12761TIP3   OH238225   5.026   1.346   6.311
12761TIP3    H138226   4.962   1.342   6.240
12761TIP3    H238227   4.982   1.304   6.385
12762TIP3   OH238228   5.886   1.595   1.118
12762TIP3    H138229   5.815   1.605   1.182
12762TIP3    H238230   5.963   1.629   1.163
12763TIP3   OH238231   6.357   3.236   4.322
12763TIP3    H138232   6.333   3.223   4.414
12763TIP3    H238233   6.281   3.203   4.273
12764TIP3   OH238234   2.704   1.329   5.188
12764TIP3    H138235   2.751   1.341   5.106
12764TIP3    H238236   2.679   1.236   5.189
12765TIP3   OH238237   4.841   7.603   1.946
12765TIP3    H138238   4.783   7.527   1.951
12765TIP3    H238239   4.929   7.567   1.955
12766TIP3   OH238240   3.621   5.786   1.620
12766TIP3    H138241   3.617   5.692   1.599
12766TIP3    H238242   3.710   5.799   1.652
12767TIP3   OH238243   1.780   0.164   6.412
12767TIP3    H138244   1.803   0.210   6.492
12767TIP3    H238245   1.805   0.225   6.342
12768TIP3   OH238246   1.947   4.476   5.385
12768TIP3    H138247   1.861   4.473   5.428
12768TIP3    H238248   2.002   4.418   5.437
12769TIP3   OH238249   5.457   1.560   2.447
12769TIP3    H138250   5.365   1.533   2.444
12769TIP3    H238251   5.472   1.582   2.539
12770TIP3   OH238252   4.775   0.268   5.441
12770TIP3    H138253   4.808   0.357   5.427
12770TIP3    H238254   4.694   0.264   5.392
12771TIP3   OH238255   2.630   5.014   4.462
12771TIP3    H138256   2.578   4.989   4.539
12771TIP3    H238257   2.585   4.973   4.388
12772TIP3   OH238258   6.059   2.595   5.141
12772TIP3    H138259   6.124   2.622   5.207
12772TIP3    H238260   6.085   2.640   5.061
12773TIP3   OH238261   5.956   2.217   6.274
12773TIP3    H138262   5.998   2.152   6.331
12773TIP3    H238263   5.874   2.238   6.319
12774TIP3   OH238264   5.241   6.263   0.019
12774TIP3    H138265   5.223   6.248   0.112
12774TIP3    H238266   5.155   6.282  -0.018
12775TIP3   OH238267   5.585   1.442   5.025
12775TIP3    H138268   5.665   1.406   4.988
12775TIP3    H238269   5.522   1.370   5.022
12776TIP3   OH238270   2.208   0.732   2.064
12776TIP3    H138271   2.265   0.758   1.992
12776TIP3    H238272   2.244   0.650   2.096
12777TIP3   OH238273   2.198   4.096   1.505
12777TIP3    H138274   2.105   4.087   1.526
12777TIP3    H238275   2.200   4.162   1.436
12778TIP3   OH238276   5.015   6.710   3.263
12778TIP3    H138277   5.073   6.648   3.307
12778TIP3    H238278   4.937   6.714   3.319
12779TIP3   OH238279   1.943   6.407   6.188
12779TIP3    H138280   1.871   6.454   6.146
12779TIP3    H238281   1.902   6.330   6.227
12780TIP3   OH238282   6.188   5.082   3.379
12780TIP3    H138283   6.260   5.107   3.322
12780TIP3    H238284   6.129   5.032   3.322
12781TIP3   OH238285   3.936   4.331   6.603
12781TIP3    H138286   3.865   4.324   6.539
12781TIP3    H238287   4.008   4.280   6.564
12782TIP3   OH238288   6.828   5.737   6.006
12782TIP3    H138289   6.796   5.739   5.916
12782TIP3    H238290   6.749   5.741   6.060
12783TIP3   OH238291   7.563   0.085   6.231
12783TIP3    H138292   7.582   0.052   6.319
12783TIP3    H238293   7.607   0.023   6.172
12784TIP3   OH238294   5.841   1.611   6.591
12784TIP3    H138295   5.794   1.528   6.586
12784TIP3    H238296   5.905   1.598   6.661
12785TIP3   OH238297   3.248   6.461   3.179
12785TIP3    H138298   3.244   6.378   3.131
12785TIP3    H238299   3.156   6.488   3.188
12786TIP3   OH238300   0.907   1.010   2.250
12786TIP3    H138301   0.880   0.921   2.275
12786TIP3    H238302   0.934   1.051   2.332
12787TIP3   OH238303   5.204   6.402   2.772
12787TIP3    H138304   5.239   6.368   2.854
12787TIP3    H238305   5.276   6.451   2.733
12788TIP3   OH238306   5.520   6.703   1.418
12788TIP3    H138307   5.591   6.683   1.357
12788TIP3    H238308   5.538   6.650   1.495
12789TIP3   OH238309   5.533   4.090   6.598
12789TIP3    H138310   5.522   4.169   6.650
12789TIP3    H238311   5.577   4.120   6.518
12790TIP3   OH238312   5.061   0.577   3.117
12790TIP3    H138313   4.977   0.546   3.150
12790TIP3    H238314   5.042   0.608   3.028
12791TIP3   OH238315   1.775   1.796   6.537
12791TIP3    H138316   1.769   1.740   6.615
12791TIP3    H238317   1.723   1.750   6.471
12792TIP3   OH238318   1.113   4.255   0.182
12792TIP3    H138319   1.032   4.221   0.145
12792TIP3    H238320   1.154   4.179   0.222
12793TIP3   OH238321   1.627   7.344   3.724
12793TIP3    H138322   1.593   7.377   3.641
12793TIP3    H238323   1.720   7.365   3.722
12794TIP3   OH238324   3.471   3.606   3.886
12794TIP3    H138325   3.539   3.590   3.952
12794TIP3    H238326   3.506   3.567   3.806
12795TIP3   OH238327   5.524   6.150   4.460
12795TIP3    H138328   5.524   6.061   4.496
12795TIP3    H238329   5.601   6.192   4.498
12796TIP3   OH238330   2.805   5.714   2.903
12796TIP3    H138331   2.807   5.782   2.970
12796TIP3    H238332   2.891   5.672   2.909
12797TIP3   OH238333   7.076   2.940   2.220
12797TIP3    H138334   7.062   2.947   2.315
12797TIP3    H238335   7.044   3.022   2.184
12798TIP3   OH238336   2.304   4.095   1.984
12798TIP3    H138337   2.238   4.069   2.049
12798TIP3    H238338   2.296   4.029   1.915
12799TIP3   OH238339   7.688   2.696   3.701
12799TIP3    H138340   7.773   2.667   3.666
12799TIP3    H238341   7.658   2.622   3.753
12800TIP3   OH238342   1.150   0.222   5.596
12800TIP3    H138343   1.107   0.228   5.511
12800TIP3    H238344   1.243   0.235   5.576
12801TIP3   OH238345   5.511   0.116   1.533
12801TIP3    H138346   5.556   0.128   1.449
12801TIP3    H238347   5.576   0.141   1.598
12802TIP3   OH238348   5.409   6.560   2.276
12802TIP3    H138349   5.382   6.651   2.294
12802TIP3    H238350   5.498   6.554   2.312
12803TIP3   OH238351   7.164   3.914   4.806
12803TIP3    H138352   7.194   3.841   4.753
12803TIP3    H238353   7.244   3.964   4.825
12804TIP3   OH238354   5.366   2.686   3.584
12804TIP3    H138355   5.440   2.670   3.642
12804TIP3    H238356   5.289   2.656   3.634
12805TIP3   OH238357   4.545   1.399   3.018
12805TIP3    H138358   4.554   1.479   2.965
12805TIP3    H238359   4.630   1.388   3.059
12806TIP3   OH238360   4.443   2.734   3.684
12806TIP3    H138361   4.353   2.707   3.668
12806TIP3    H238362   4.489   2.654   3.709
12807TIP3   OH238363   3.347   5.848   5.519
12807TIP3    H138364   3.255   5.871   5.531
12807TIP3    H238365   3.347   5.781   5.451
12808TIP3   OH238366   5.956   1.621   0.483
12808TIP3    H138367   5.952   1.551   0.547
12808TIP3    H238368   5.926   1.581   0.401
12809TIP3   OH238369   4.172   7.098   3.861
12809TIP3    H138370   4.151   7.152   3.937
12809TIP3    H238371   4.204   7.016   3.898
12810TIP3   OH238372   1.368   3.629   4.323
12810TIP3    H138373   1.317   3.695   4.275
12810TIP3    H238374   1.452   3.625   4.277
12811TIP3   OH238375   5.328   4.503   2.058
12811TIP3    H138376   5.333   4.583   2.006
12811TIP3    H238377   5.411   4.459   2.043
12812TIP3   OH238378   4.268   2.970   5.776
12812TIP3    H138379   4.339   2.943   5.834
12812TIP3    H238380   4.197   2.908   5.794
12813TIP3   OH238381   4.624   4.941   3.365
12813TIP3    H138382   4.677   5.013   3.398
12813TIP3    H238383   4.545   4.983   3.330
12814TIP3   OH238384   8.102   5.188   3.122
12814TIP3    H138385   8.180   5.209   3.174
12814TIP3    H238386   8.067   5.109   3.164
12815TIP3   OH238387   3.846   5.863   2.452
12815TIP3    H138388   3.937   5.831   2.448
12815TIP3    H238389   3.812   5.826   2.533
12816TIP3   OH238390   0.940   6.397   0.083
12816TIP3    H138391   0.948   6.413   0.177
12816TIP3    H238392   0.972   6.307   0.072
12817TIP3   OH238393   5.573   1.232   5.579
12817TIP3    H138394   5.618   1.315   5.564
12817TIP3    H238395   5.573   1.221   5.674
12818TIP3   OH238396   0.127   5.541   1.222
12818TIP3    H138397   0.093   5.553   1.310
12818TIP3    H238398   0.218   5.514   1.234
12819TIP3   OH238399   6.605   0.706   2.315
12819TIP3    H138400   6.517   0.676   2.291
12819TIP3    H238401   6.641   0.742   2.234
12820TIP3   OH238402   2.450   6.264   1.087
12820TIP3    H138403   2.470   6.357   1.090
12820TIP3    H238404   2.476   6.231   1.173
12821TIP3   OH238405   4.921   1.854   6.007
12821TIP3    H138406   4.877   1.859   6.092
12821TIP3    H238407   4.893   1.933   5.961
12822TIP3   OH238408   6.357   4.657   0.453
12822TIP3    H138409   6.440   4.650   0.499
12822TIP3    H238410   6.381   4.666   0.361
12823TIP3   OH238411   5.850   6.752   1.447
12823TIP3    H138412   5.836   6.819   1.380
12823TIP3    H238413   5.940   6.764   1.476
12824TIP3   OH238414   7.744   2.200   3.876
12824TIP3    H138415   7.805   2.274   3.882
12824TIP3    H238416   7.798   2.127   3.847
12825TIP3   OH238417   2.248   0.632   1.425
12825TIP3    H138418   2.250   0.537   1.427
12825TIP3    H238419   2.263   0.659   1.515
12826TIP3   OH238420   0.336   1.539   3.152
12826TIP3    H138421   0.267   1.527   3.217
12826TIP3    H238422   0.417   1.530   3.202
12827TIP3   OH238423   4.293   4.422   3.107
12827TIP3    H138424   4.376   4.440   3.151
12827TIP3    H238425   4.318   4.372   3.029
12828TIP3   OH238426   5.687   1.815   5.046
12828TIP3    H138427   5.758   1.807   5.110
12828TIP3    H238428   5.613   1.849   5.096
12829TIP3   OH238429   2.165   6.281   1.906
12829TIP3    H138430   2.177   6.315   1.994
12829TIP3    H238431   2.077   6.309   1.882
12830TIP3   OH238432   6.939   2.829   6.795
12830TIP3    H138433   6.960   2.762   6.730
12830TIP3    H238434   7.019   2.839   6.846
12831TIP3   OH238435   5.367   3.047   6.707
12831TIP3    H138436   5.420   3.065   6.784
12831TIP3    H238437   5.406   3.100   6.638
12832TIP3   OH238438   6.454   6.387   1.068
12832TIP3    H138439   6.465   6.471   1.111
12832TIP3    H238440   6.366   6.389   1.032
12833TIP3   OH238441   7.283   2.403   5.062
12833TIP3    H138442   7.348   2.418   4.993
12833TIP3    H238443   7.327   2.344   5.123
12834TIP3   OH238444   7.443   4.098   4.528
12834TIP3    H138445   7.481   4.179   4.494
12834TIP3    H238446   7.492   4.081   4.608
12835TIP3   OH238447   0.835   2.827   2.332
12835TIP3    H138448   0.818   2.864   2.419
12835TIP3    H238449   0.756   2.777   2.312
12836TIP3   OH238450   4.554   4.932   6.351
12836TIP3    H138451   4.633   4.948   6.402
12836TIP3    H238452   4.579   4.951   6.261
12837TIP3   OH238453   3.628   0.139   2.648
12837TIP3    H138454   3.538   0.110   2.658
12837TIP3    H238455   3.659   0.095   2.569
12838TIP3   OH238456   6.763   7.152   6.742
12838TIP3    H138457   6.687   7.170   6.798
12838TIP3    H238458   6.838   7.177   6.795
12839TIP3   OH238459   7.745   6.150   3.174
12839TIP3    H138460   7.732   6.068   3.125
12839TIP3    H238461   7.674   6.152   3.237
12840TIP3   OH238462   7.472   0.841   4.002
12840TIP3    H138463   7.525   0.829   4.081
12840TIP3    H238464   7.389   0.876   4.035
12841TIP3   OH238465   4.548   1.789   2.745
12841TIP3    H138466   4.577   1.698   2.740
12841TIP3    H238467   4.576   1.817   2.832
12842TIP3   OH238468   1.044   4.775   1.286
12842TIP3    H138469   1.112   4.734   1.340
12842TIP3    H238470   1.035   4.716   1.211
12843TIP3   OH238471   5.585   6.154   1.614
12843TIP3    H138472   5.513   6.194   1.664
12843TIP3    H238473   5.642   6.228   1.593
12844TIP3   OH238474   3.305   1.198   4.058
12844TIP3    H138475   3.247   1.169   3.988
12844TIP3    H238476   3.296   1.132   4.126
12845TIP3   OH238477   7.352   0.654   2.098
12845TIP3    H138478   7.408   0.577   2.090
12845TIP3    H238479   7.263   0.619   2.100
12846TIP3   OH238480   7.120   6.605   2.942
12846TIP3    H138481   7.157   6.639   3.023
12846TIP3    H238482   7.167   6.649   2.872
12847TIP3   OH238483   1.780   7.667   6.461
12847TIP3    H138484   1.758   7.733   6.396
12847TIP3    H238485   1.817   7.594   6.411
12848TIP3   OH238486   0.171   7.384   5.657
12848TIP3    H138487   0.212   7.385   5.743
12848TIP3    H238488   0.193   7.298   5.620
12849TIP3   OH238489   8.273   6.912   3.518
12849TIP3    H138490   8.185   6.940   3.540
12849TIP3    H238491   8.279   6.923   3.423
12850TIP3   OH238492   6.182   0.545   4.193
12850TIP3    H138493   6.096   0.504   4.203
12850TIP3    H238494   6.164   0.639   4.195
12851TIP3   OH238495   6.966   7.594   1.452
12851TIP3    H138496   7.032   7.570   1.517
12851TIP3    H238497   7.015   7.642   1.385
12852TIP3   OH238498   6.269   5.992   5.018
12852TIP3    H138499   6.186   5.949   5.037
12852TIP3    H238500   6.243   6.072   4.971
12853TIP3   OH238501   6.029   0.900   0.399
12853TIP3    H138502   6.034   0.880   0.306
12853TIP3    H238503   6.077   0.982   0.409
12854TIP3   OH238504   6.962   7.512   3.409
12854TIP3    H138505   6.913   7.527   3.490
12854TIP3    H238506   6.994   7.598   3.384
12855TIP3   OH238507   5.220   7.752   1.863
12855TIP3    H138508   5.288   7.723   1.924
12855TIP3    H238509   5.234   7.847   1.855
12856TIP3   OH238510   0.834   5.773   1.696
12856TIP3    H138511   0.816   5.865   1.679
12856TIP3    H238512   0.750   5.737   1.724
12857TIP3   OH238513   5.664   1.925   4.646
12857TIP3    H138514   5.578   1.895   4.619
12857TIP3    H238515   5.652   2.017   4.669
12858TIP3   OH238516   3.773   3.177   3.793
12858TIP3    H138517   3.721   3.110   3.748
12858TIP3    H238518   3.811   3.229   3.722
12859TIP3   OH238519   5.615   4.083   0.037
12859TIP3    H138520   5.672   4.107   0.110
12859TIP3    H238521   5.539   4.140   0.046
12860TIP3   OH238522   5.414   0.388   2.133
12860TIP3    H138523   5.351   0.374   2.063
12860TIP3    H238524   5.386   0.329   2.203
12861TIP3   OH238525   0.987   3.397   3.260
12861TIP3    H138526   1.074   3.370   3.288
12861TIP3    H238527   0.937   3.407   3.341
12862TIP3   OH238528   1.804   4.693   6.692
12862TIP3    H138529   1.853   4.622   6.651
12862TIP3    H238530   1.731   4.709   6.632
12863TIP3   OH238531   5.825   0.715   2.486
12863TIP3    H138532   5.739   0.677   2.473
12863TIP3    H238533   5.829   0.789   2.425
12864TIP3   OH238534   2.592   6.359   5.973
12864TIP3    H138535   2.594   6.268   6.003
12864TIP3    H238536   2.603   6.353   5.878
12865TIP3   OH238537   0.843   4.821   1.020
12865TIP3    H138538   0.783   4.764   0.972
12865TIP3    H238539   0.791   4.900   1.039
12866TIP3   OH238540   4.999   7.229   3.858
12866TIP3    H138541   4.951   7.266   3.932
12866TIP3    H238542   4.935   7.175   3.812
12867TIP3   OH238543   5.563   0.634   5.360
12867TIP3    H138544   5.474   0.626   5.326
12867TIP3    H238545   5.619   0.617   5.283
12868TIP3   OH238546   7.670   6.278   4.419
12868TIP3    H138547   7.752   6.275   4.369
12868TIP3    H238548   7.636   6.189   4.414
12869TIP3   OH238549   5.570   3.809   4.642
12869TIP3    H138550   5.608   3.726   4.614
12869TIP3    H238551   5.478   3.805   4.614
12870TIP3   OH238552   2.670   1.246   1.327
12870TIP3    H138553   2.737   1.199   1.278
12870TIP3    H238554   2.711   1.329   1.350
12871TIP3   OH238555   7.441   0.457   1.792
12871TIP3    H138556   7.482   0.530   1.747
12871TIP3    H238557   7.456   0.381   1.735
12872TIP3   OH238558   8.167   6.131   3.531
12872TIP3    H138559   8.089   6.146   3.585
12872TIP3    H238560   8.210   6.216   3.526
12873TIP3   OH238561   3.959   1.174   6.546
12873TIP3    H138562   3.877   1.187   6.498
12873TIP3    H238563   3.941   1.101   6.605
12874TIP3   OH238564   6.824   4.016   1.705
12874TIP3    H138565   6.739   4.012   1.748
12874TIP3    H238566   6.882   4.055   1.771
12875TIP3   OH238567   2.766   2.886   2.419
12875TIP3    H138568   2.688   2.830   2.417
12875TIP3    H238569   2.767   2.923   2.507
12876TIP3   OH238570   0.182   3.527   0.383
12876TIP3    H138571   0.224   3.613   0.389
12876TIP3    H238572   0.110   3.531   0.445
12877TIP3   OH238573   6.307   6.102   6.163
12877TIP3    H138574   6.399   6.118   6.140
12877TIP3    H238575   6.309   6.017   6.208
12878TIP3   OH238576   6.524   4.956   4.841
12878TIP3    H138577   6.548   5.009   4.917
12878TIP3    H238578   6.430   4.970   4.830
12879TIP3   OH238579   4.296   5.266   4.807
12879TIP3    H138580   4.330   5.355   4.806
12879TIP3    H238581   4.204   5.275   4.830
12880TIP3   OH238582   2.057   3.422   5.754
12880TIP3    H138583   2.062   3.513   5.722
12880TIP3    H238584   2.115   3.373   5.695
12881TIP3   OH238585   6.085   2.249   3.332
12881TIP3    H138586   6.140   2.176   3.302
12881TIP3    H238587   6.117   2.325   3.283
12882TIP3   OH238588   3.859   7.083   6.638
12882TIP3    H138589   3.921   7.053   6.571
12882TIP3    H238590   3.782   7.027   6.626
12883TIP3   OH238591   0.001   4.133   5.918
12883TIP3    H138592  -0.073   4.112   5.861
12883TIP3    H238593   0.071   4.075   5.888
12884TIP3   OH238594   6.778   4.531   0.228
12884TIP3    H138595   6.806   4.546   0.138
12884TIP3    H238596   6.784   4.617   0.270
12885TIP3   OH238597   5.624   2.049   6.498
12885TIP3    H138598   5.712   2.013   6.512
12885TIP3    H238599   5.569   2.004   6.561
12886TIP3   OH238600   6.846   6.912   3.350
12886TIP3    H138601   6.806   6.868   3.275
12886TIP3    H238602   6.866   7.000   3.318
12887TIP3   OH238603   2.174   0.889   1.243
12887TIP3    H138604   2.247   0.920   1.189
12887TIP3    H238605   2.216   0.834   1.309
12888TIP3   OH238606   7.697   7.774   5.771
12888TIP3    H138607   7.761   7.734   5.712
12888TIP3    H238608   7.728   7.863   5.783
12889TIP3   OH238609   2.528   2.339   2.992
12889TIP3    H138610   2.533   2.259   3.043
12889TIP3    H238611   2.585   2.401   3.038
12890TIP3   OH238612   6.139   6.414   5.718
12890TIP3    H138613   6.157   6.507   5.735
12890TIP3    H238614   6.147   6.372   5.804
12891TIP3   OH238615   7.721   7.620   6.661
12891TIP3    H138616   7.681   7.538   6.632
12891TIP3    H238617   7.785   7.594   6.727
12892TIP3   OH238618   0.973   3.530   1.360
12892TIP3    H138619   0.915   3.457   1.338
12892TIP3    H238620   1.061   3.498   1.341
12893TIP3   OH238621   6.831   0.463   4.946
12893TIP3    H138622   6.742   0.478   4.914
12893TIP3    H238623   6.853   0.376   4.914
12894TIP3   OH238624   1.565   2.928   1.569
12894TIP3    H138625   1.654   2.931   1.534
12894TIP3    H238626   1.570   2.979   1.651
12895TIP3   OH238627   7.473   4.549   6.613
12895TIP3    H138628   7.479   4.606   6.690
12895TIP3    H238629   7.465   4.609   6.539
12896TIP3   OH238630   3.781   0.380   2.568
12896TIP3    H138631   3.875   0.391   2.575
12896TIP3    H238632   3.767   0.286   2.575
12897TIP3   OH238633   4.850   1.291   6.073
12897TIP3    H138634   4.890   1.297   5.986
12897TIP3    H238635   4.883   1.208   6.109
12898TIP3   OH238636   1.947   0.533   1.985
12898TIP3    H138637   1.996   0.611   2.013
12898TIP3    H238638   1.961   0.529   1.890
12899TIP3   OH238639   5.719   2.304   6.444
12899TIP3    H138640   5.802   2.322   6.488
12899TIP3    H238641   5.672   2.245   6.503
12900TIP3   OH238642   6.302   2.451   2.106
12900TIP3    H138643   6.224   2.404   2.075
12900TIP3    H238644   6.349   2.474   2.026
12901TIP3   OH238645   5.353   0.289   4.879
12901TIP3    H138646   5.259   0.276   4.864
12901TIP3    H238647   5.380   0.214   4.931
12902TIP3   OH238648   5.525   1.314   6.076
12902TIP3    H138649   5.510   1.408   6.072
12902TIP3    H238650   5.445   1.279   6.116
12903TIP3   OH238651   4.519   0.312   1.718
12903TIP3    H138652   4.586   0.331   1.653
12903TIP3    H238653   4.454   0.381   1.706
12904TIP3   OH238654   3.852   1.593   2.745
12904TIP3    H138655   3.903   1.514   2.761
12904TIP3    H238656   3.907   1.664   2.778
12905TIP3   OH238657   4.045   3.534   3.385
12905TIP3    H138658   4.043   3.589   3.307
12905TIP3    H238659   3.980   3.573   3.444
12906TIP3   OH238660   0.179   6.418   0.109
12906TIP3    H138661   0.248   6.418   0.175
12906TIP3    H238662   0.106   6.464   0.151
12907TIP3   OH238663   0.629   5.554   1.718
12907TIP3    H138664   0.657   5.599   1.638
12907TIP3    H238665   0.648   5.462   1.702
12908TIP3   OH238666   8.184   7.105   4.797
12908TIP3    H138667   8.168   7.032   4.857
12908TIP3    H238668   8.175   7.183   4.851
12909TIP3   OH238669   2.954   3.968   0.807
12909TIP3    H138670   2.989   3.879   0.796
12909TIP3    H238671   3.012   4.023   0.755
12910TIP3   OH238672   1.672   3.893   0.475
12910TIP3    H138673   1.699   3.968   0.423
12910TIP3    H238674   1.586   3.870   0.441
12911TIP3   OH238675   0.400   0.907   4.671
12911TIP3    H138676   0.323   0.877   4.719
12911TIP3    H238677   0.466   0.922   4.739
12912TIP3   OH238678   7.746   3.447   3.781
12912TIP3    H138679   7.729   3.359   3.747
12912TIP3    H238680   7.824   3.437   3.835
12913TIP3   OH238681   3.995   6.343   5.075
12913TIP3    H138682   4.059   6.274   5.093
12913TIP3    H238683   4.038   6.423   5.102
12914TIP3   OH238684   6.893   2.734  -0.025
12914TIP3    H138685   6.937   2.817  -0.005
12914TIP3    H238686   6.908   2.680   0.053
12915TIP3   OH238687   6.176   3.816   5.222
12915TIP3    H138688   6.117   3.888   5.199
12915TIP3    H238689   6.255   3.860   5.254
12916TIP3   OH238690   6.919   2.144   3.143
12916TIP3    H138691   6.884   2.183   3.223
12916TIP3    H238692   6.895   2.206   3.074
12917TIP3   OH238693   7.352   4.606   1.476
12917TIP3    H138694   7.422   4.630   1.416
12917TIP3    H238695   7.278   4.584   1.420
12918TIP3   OH238696   1.233   6.829   5.408
12918TIP3    H138697   1.276   6.748   5.436
12918TIP3    H238698   1.240   6.887   5.483
12919TIP3   OH238699   8.082   2.989   2.594
12919TIP3    H138700   8.134   2.918   2.557
12919TIP3    H238701   8.076   3.053   2.523
12920TIP3   OH238702   5.993   5.986   0.169
12920TIP3    H138703   6.042   5.956   0.246
12920TIP3    H238704   6.004   5.917   0.105
12921TIP3   OH238705   0.610   0.124   5.194
12921TIP3    H138706   0.561   0.142   5.274
12921TIP3    H238707   0.655   0.206   5.174
12922TIP3   OH238708   0.771   4.792   1.357
12922TIP3    H138709   0.865   4.793   1.341
12922TIP3    H238710   0.751   4.700   1.375
12923TIP3   OH238711   0.100   2.075   1.739
12923TIP3    H138712   0.183   2.052   1.697
12923TIP3    H238713   0.069   2.151   1.689
12924TIP3   OH238714   3.917   1.197   2.231
12924TIP3    H138715   3.822   1.194   2.240
12924TIP3    H238716   3.947   1.111   2.259
12925TIP3   OH238717   1.486   5.705   1.812
12925TIP3    H138718   1.466   5.798   1.824
12925TIP3    H238719   1.475   5.689   1.719
12926TIP3   OH238720   5.225   6.156   0.288
12926TIP3    H138721   5.136   6.125   0.305
12926TIP3    H238722   5.279   6.077   0.288
12927TIP3   OH238723   2.701   1.894   4.332
12927TIP3    H138724   2.785   1.862   4.368
12927TIP3    H238725   2.726   1.941   4.253
12928TIP3   OH238726   3.966   3.119   3.558
12928TIP3    H138727   3.924   3.035   3.542
12928TIP3    H238728   4.020   3.104   3.636
12929TIP3   OH238729   1.456   5.722   0.945
12929TIP3    H138730   1.379   5.694   0.994
12929TIP3    H238731   1.528   5.671   0.983
12930TIP3   OH238732   6.598   1.609   4.972
12930TIP3    H138733   6.591   1.602   5.068
12930TIP3    H238734   6.537   1.542   4.939
12931TIP3   OH238735   7.587   3.358   2.955
12931TIP3    H138736   7.582   3.269   2.920
12931TIP3    H238737   7.680   3.380   2.949
12932TIP3   OH238738   3.508   3.053   0.629
12932TIP3    H138739   3.414   3.040   0.614
12932TIP3    H238740   3.548   2.970   0.605
12933TIP3   OH238741   4.970   7.476   2.761
12933TIP3    H138742   4.987   7.564   2.725
12933TIP3    H238743   5.028   7.469   2.836
12934TIP3   OH238744   0.758   4.491   2.647
12934TIP3    H138745   0.727   4.540   2.723
12934TIP3    H238746   0.687   4.430   2.628
12935TIP3   OH238747   3.695   7.246   3.323
12935TIP3    H138748   3.610   7.226   3.285
12935TIP3    H238749   3.733   7.311   3.264
12936TIP3   OH238750   5.045   4.535   1.979
12936TIP3    H138751   5.000   4.560   1.898
12936TIP3    H238752   5.041   4.440   1.980
12937TIP3   OH238753   4.313   0.282   5.724
12937TIP3    H138754   4.221   0.255   5.730
12937TIP3    H238755   4.312   0.359   5.667
12938TIP3   OH238756   6.819   4.652   5.392
12938TIP3    H138757   6.798   4.677   5.482
12938TIP3    H238758   6.756   4.585   5.369
12939TIP3   OH238759   2.855   3.651   0.254
12939TIP3    H138760   2.834   3.744   0.253
12939TIP3    H238761   2.824   3.621   0.339
12940TIP3   OH238762   5.575   2.995   3.305
12940TIP3    H138763   5.583   2.924   3.241
12940TIP3    H238764   5.491   2.978   3.349
12941TIP3   OH238765   0.518   3.769   5.563
12941TIP3    H138766   0.571   3.813   5.497
12941TIP3    H238767   0.501   3.837   5.628
12942TIP3   OH238768   0.683   6.779   1.726
12942TIP3    H138769   0.680   6.843   1.798
12942TIP3    H238770   0.610   6.803   1.669
12943TIP3   OH238771   6.488   5.521   2.938
12943TIP3    H138772   6.490   5.610   2.974
12943TIP3    H238773   6.539   5.469   3.000
12944TIP3   OH238774   7.058   2.026   4.202
12944TIP3    H138775   7.057   2.082   4.280
12944TIP3    H238776   7.109   2.075   4.138
12945TIP3   OH238777   0.861   5.717   1.375
12945TIP3    H138778   0.869   5.805   1.340
12945TIP3    H238779   0.767   5.708   1.395
12946TIP3   OH238780   4.107   6.237   2.561
12946TIP3    H138781   4.068   6.152   2.583
12946TIP3    H238782   4.088   6.249   2.468
12947TIP3   OH238783   4.986   7.319   1.948
12947TIP3    H138784   4.913   7.328   1.886
12947TIP3    H238785   4.964   7.241   2.000
12948TIP3   OH238786   4.190   5.588   1.286
12948TIP3    H138787   4.247   5.518   1.318
12948TIP3    H238788   4.248   5.647   1.239
12949TIP3   OH238789   0.538   7.077   3.304
12949TIP3    H138790   0.533   7.101   3.211
12949TIP3    H238791   0.527   7.159   3.351
12950TIP3   OH238792   4.214   5.543   1.634
12950TIP3    H138793   4.171   5.512   1.713
12950TIP3    H238794   4.154   5.608   1.597
12951TIP3   OH238795   7.106   7.726   4.521
12951TIP3    H138796   7.178   7.787   4.505
12951TIP3    H238797   7.139   7.641   4.492
12952TIP3   OH238798   1.007   3.988   2.917
12952TIP3    H138799   1.051   4.036   2.847
12952TIP3    H238800   1.073   3.927   2.949
12953TIP3   OH238801   3.170   5.979   0.067
12953TIP3    H138802   3.079   6.008   0.075
12953TIP3    H238803   3.214   6.050   0.020
12954TIP3   OH238804   0.254   6.538   5.543
12954TIP3    H138805   0.251   6.633   5.552
12954TIP3    H238806   0.187   6.506   5.604
12955TIP3   OH238807   0.121   4.438   1.437
12955TIP3    H138808   0.067   4.382   1.381
12955TIP3    H238809   0.152   4.379   1.506
12956TIP3   OH238810   2.544   5.741   2.205
12956TIP3    H138811   2.483   5.803   2.166
12956TIP3    H238812   2.615   5.795   2.239
12957TIP3   OH238813   6.369   2.970   4.731
12957TIP3    H138814   6.333   3.045   4.684
12957TIP3    H238815   6.410   3.007   4.809
12958TIP3   OH238816   0.271   4.795   6.598
12958TIP3    H138817   0.323   4.717   6.579
12958TIP3    H238818   0.211   4.802   6.524
12959TIP3   OH238819   5.617   1.339   1.082
12959TIP3    H138820   5.689   1.322   1.143
12959TIP3    H238821   5.659   1.379   1.006
12960TIP3   OH238822   5.878   7.557   3.845
12960TIP3    H138823   5.902   7.542   3.936
12960TIP3    H238824   5.803   7.616   3.849
12961TIP3   OH238825   2.791   3.545   5.978
12961TIP3    H138826   2.847   3.604   6.028
12961TIP3    H238827   2.759   3.598   5.905
12962TIP3   OH238828   5.376   1.817   2.296
12962TIP3    H138829   5.362   1.734   2.250
12962TIP3    H238830   5.470   1.816   2.318
12963TIP3   OH238831   3.590   6.912   6.267
12963TIP3    H138832   3.564   6.843   6.206
12963TIP3    H238833   3.559   6.993   6.226
12964TIP3   OH238834   6.550   2.865   5.645
12964TIP3    H138835   6.592   2.857   5.560
12964TIP3    H238836   6.462   2.898   5.626
12965TIP3   OH238837   2.417   6.849   4.011
12965TIP3    H138838   2.378   6.762   4.018
12965TIP3    H238839   2.343   6.907   3.993
12966TIP3   OH238840   0.260   3.947   5.487
12966TIP3    H138841   0.208   3.911   5.415
12966TIP3    H238842   0.317   4.012   5.446
12967TIP3   OH238843   7.939   0.817   0.793
12967TIP3    H138844   7.942   0.908   0.820
12967TIP3    H238845   7.975   0.818   0.704
12968TIP3   OH238846   0.531   1.419   5.350
12968TIP3    H138847   0.546   1.509   5.322
12968TIP3    H238848   0.460   1.388   5.293
12969TIP3   OH238849   2.443   2.235   0.936
12969TIP3    H138850   2.435   2.177   1.012
12969TIP3    H238851   2.533   2.267   0.939
12970TIP3   OH238852   3.926   6.410   0.847
12970TIP3    H138853   3.905   6.483   0.789
12970TIP3    H238854   3.960   6.342   0.789
12971TIP3   OH238855   4.786   0.343   3.374
12971TIP3    H138856   4.850   0.411   3.395
12971TIP3    H238857   4.838   0.264   3.363
12972TIP3   OH238858   2.536   3.749   6.158
12972TIP3    H138859   2.453   3.770   6.203
12972TIP3    H238860   2.534   3.802   6.079
12973TIP3   OH238861   4.991   4.315   2.360
12973TIP3    H138862   5.041   4.374   2.304
12973TIP3    H238863   4.935   4.372   2.412
12974TIP3   OH238864   4.730   3.523   2.228
12974TIP3    H138865   4.785   3.468   2.172
12974TIP3    H238866   4.773   3.608   2.228
12975TIP3   OH238867   2.158   1.375   1.271
12975TIP3    H138868   2.071   1.406   1.295
12975TIP3    H238869   2.183   1.430   1.196
12976TIP3   OH238870   6.923   7.753   5.880
12976TIP3    H138871   6.875   7.713   5.807
12976TIP3    H238872   6.909   7.694   5.953
12977TIP3   OH238873   7.910   5.980   3.424
12977TIP3    H138874   7.832   5.985   3.479
12977TIP3    H238875   7.952   6.066   3.433
12978TIP3   OH238876   3.569   1.353   0.025
12978TIP3    H138877   3.556   1.376  -0.067
12978TIP3    H238878   3.481   1.354   0.063
12979TIP3   OH238879   2.581   1.785   2.345
12979TIP3    H138880   2.552   1.724   2.413
12979TIP3    H238881   2.653   1.740   2.302
12980TIP3   OH238882   6.738   6.919   6.048
12980TIP3    H138883   6.775   6.922   6.136
12980TIP3    H238884   6.810   6.945   5.991
12981TIP3   OH238885   2.092   4.116   4.395
12981TIP3    H138886   2.033   4.133   4.468
12981TIP3    H238887   2.131   4.031   4.414
12982TIP3   OH238888   4.180   4.476   4.341
12982TIP3    H138889   4.202   4.531   4.415
12982TIP3    H238890   4.085   4.485   4.331
12983TIP3   OH238891   0.050   4.301   0.452
12983TIP3    H138892  -0.043   4.288   0.434
12983TIP3    H238893   0.088   4.213   0.448
12984TIP3   OH238894   0.754   6.076   3.535
12984TIP3    H138895   0.816   6.031   3.478
12984TIP3    H238896   0.668   6.043   3.508
12985TIP3   OH238897   6.335   4.637   0.150
12985TIP3    H138898   6.354   4.544   0.152
12985TIP3    H238899   6.246   4.643   0.116
12986TIP3   OH238900   1.585   6.826   0.258
12986TIP3    H138901   1.527   6.849   0.330
12986TIP3    H238902   1.636   6.906   0.242
12987TIP3   OH238903   6.859   5.069   4.932
12987TIP3    H138904   6.900   5.155   4.927
12987TIP3    H238905   6.766   5.088   4.940
12988TIP3   OH238906   2.830   4.262   3.845
12988TIP3    H138907   2.858   4.326   3.911
12988TIP3    H238908   2.912   4.228   3.808
12989TIP3   OH238909   4.275   7.665   1.314
12989TIP3    H138910   4.275   7.761   1.325
12989TIP3    H238911   4.326   7.650   1.235
12990TIP3   OH238912   3.189   5.934   0.327
12990TIP3    H138913   3.103   5.920   0.368
12990TIP3    H238914   3.174   5.918   0.234
12991TIP3   OH238915   8.019   7.421   5.336
12991TIP3    H138916   8.075   7.435   5.412
12991TIP3    H238917   7.946   7.369   5.370
12992TIP3   OH238918   2.494   7.277   0.197
12992TIP3    H138919   2.562   7.239   0.253
12992TIP3    H238920   2.412   7.238   0.229
12993TIP3   OH238921   3.465   4.629   5.762
12993TIP3    H138922   3.413   4.690   5.710
12993TIP3    H238923   3.526   4.591   5.699
12994TIP3   OH238924   6.290   7.305   2.905
12994TIP3    H138925   6.219   7.245   2.883
12994TIP3    H238926   6.318   7.341   2.821
12995TIP3   OH238927   7.982   2.505   5.718
12995TIP3    H138928   8.025   2.491   5.633
12995TIP3    H238929   8.044   2.558   5.768
12996TIP3   OH238930   2.820   7.546   0.914
12996TIP3    H138931   2.876   7.518   0.842
12996TIP3    H238932   2.851   7.496   0.989
12997TIP3   OH238933   1.266   5.830   4.059
12997TIP3    H138934   1.287   5.854   4.149
12997TIP3    H238935   1.300   5.741   4.049
12998TIP3   OH238936   4.559   2.279   1.579
12998TIP3    H138937   4.496   2.302   1.648
12998TIP3    H238938   4.505   2.253   1.505
12999TIP3   OH238939   7.782   6.285   5.299
12999TIP3    H138940   7.741   6.364   5.333
12999TIP3    H238941   7.748   6.215   5.354
13000TIP3   OH238942   7.442   5.615   1.450
13000TIP3    H138943   7.394   5.681   1.501
13000TIP3    H238944   7.399   5.616   1.364
13001TIP3   OH238945   5.285   2.365   3.389
13001TIP3    H138946   5.329   2.344   3.472
13001TIP3    H238947   5.308   2.456   3.373
13002TIP3   OH238948   7.100   2.820   1.559
13002TIP3    H138949   7.109   2.726   1.543
13002TIP3    H238950   7.184   2.857   1.533
13003TIP3   OH238951   0.599   5.084   4.465
13003TIP3    H138952   0.623   5.159   4.519
13003TIP3    H238953   0.683   5.052   4.430
13004TIP3   OH238954   5.830   5.955   4.107
13004TIP3    H138955   5.826   5.955   4.203
13004TIP3    H238956   5.748   5.996   4.080
13005TIP3   OH238957   4.493   0.228   5.405
13005TIP3    H138958   4.469   0.150   5.456
13005TIP3    H238959   4.463   0.208   5.316
13006TIP3   OH238960   1.110   5.769   4.497
13006TIP3    H138961   1.069   5.783   4.582
13006TIP3    H238962   1.095   5.676   4.478
13007TIP3   OH238963   2.779   2.388   5.998
13007TIP3    H138964   2.685   2.404   5.994
13007TIP3    H238965   2.794   2.314   5.939
13008TIP3   OH238966   5.096   2.073   0.791
13008TIP3    H138967   5.114   2.151   0.843
13008TIP3    H238968   5.167   2.013   0.813
13009TIP3   OH238969   2.588   1.299   3.423
13009TIP3    H138970   2.669   1.285   3.473
13009TIP3    H238971   2.575   1.394   3.425
13010TIP3   OH238972   6.132   4.819   2.923
13010TIP3    H138973   6.203   4.884   2.920
13010TIP3    H238974   6.055   4.866   2.891
13011TIP3   OH238975   3.512   7.239   6.467
13011TIP3    H138976   3.539   7.194   6.388
13011TIP3    H238977   3.416   7.245   6.461
13012TIP3   OH238978   6.145   1.533   1.718
13012TIP3    H138979   6.221   1.587   1.694
13012TIP3    H238980   6.179   1.470   1.781
13013TIP3   OH238981   4.706   4.980   0.208
13013TIP3    H138982   4.726   5.034   0.284
13013TIP3    H238983   4.642   4.916   0.240
13014TIP3   OH238984   1.868   3.110   6.218
13014TIP3    H138985   1.880   3.197   6.178
13014TIP3    H238986   1.957   3.079   6.234
13015TIP3   OH238987   5.547   1.328   2.342
13015TIP3    H138988   5.642   1.329   2.352
13015TIP3    H238989   5.523   1.420   2.330
13016TIP3   OH238990   7.035   2.137   2.832
13016TIP3    H138991   7.018   2.175   2.746
13016TIP3    H238992   7.119   2.174   2.859
13017TIP3   OH238993   6.022   4.029   5.513
13017TIP3    H138994   6.095   4.046   5.454
13017TIP3    H238995   6.021   3.934   5.522
13018TIP3   OH238996   2.909   7.588   5.747
13018TIP3    H138997   2.963   7.626   5.816
13018TIP3    H238998   2.820   7.592   5.782
13019TIP3   OH238999   8.049   3.268   5.075
13019TIP3    H139000   8.065   3.326   5.000
13019TIP3    H239001   7.954   3.272   5.089
13020TIP3   OH239002   0.704   5.827   3.156
13020TIP3    H139003   0.674   5.736   3.163
13020TIP3    H239004   0.665   5.858   3.074
13021TIP3   OH239005   0.957   3.735   2.256
13021TIP3    H139006   0.944   3.819   2.299
13021TIP3    H239007   1.052   3.725   2.252
13022TIP3   OH239008   3.530   3.027   0.249
13022TIP3    H139009   3.622   3.027   0.225
13022TIP3    H239010   3.529   3.006   0.342
13023TIP3   OH239011   0.203   3.464   3.504
13023TIP3    H139012   0.235   3.549   3.472
13023TIP3    H239013   0.120   3.451   3.458
13024TIP3   OH239014   6.383   5.205   0.317
13024TIP3    H139015   6.331   5.282   0.339
13024TIP3    H239016   6.425   5.180   0.399
13025TIP3   OH239017   0.939   2.341   4.990
13025TIP3    H139018   1.007   2.400   5.024
13025TIP3    H239019   0.987   2.265   4.957
13026TIP3   OH239020   7.250   0.828   0.322
13026TIP3    H139021   7.184   0.844   0.390
13026TIP3    H239022   7.233   0.739   0.292
13027TIP3   OH239023   0.999   4.369   5.099
13027TIP3    H139024   1.020   4.301   5.163
13027TIP3    H239025   0.970   4.322   5.021
13028TIP3   OH239026   2.310   1.456   3.469
13028TIP3    H139027   2.285   1.420   3.384
13028TIP3    H239028   2.302   1.551   3.459
13029TIP3   OH239029   2.448   2.101   1.662
13029TIP3    H139030   2.514   2.063   1.720
13029TIP3    H239031   2.472   2.193   1.657
13030TIP3   OH239032   3.159   4.049   4.075
13030TIP3    H139033   3.173   4.136   4.037
13030TIP3    H239034   3.227   4.040   4.142
13031TIP3   OH239035   6.636   7.552   5.969
13031TIP3    H139036   6.722   7.553   6.011
13031TIP3    H239037   6.621   7.460   5.947
13032TIP3   OH239038   7.725   2.024   5.205
13032TIP3    H139039   7.797   2.042   5.265
13032TIP3    H239040   7.758   1.955   5.148
13033TIP3   OH239041   4.623   5.877   6.511
13033TIP3    H139042   4.546   5.850   6.461
13033TIP3    H239043   4.622   5.820   6.589
13034TIP3   OH239044   5.440   2.918   1.217
13034TIP3    H139045   5.486   2.867   1.283
13034TIP3    H239046   5.502   2.924   1.144
13035TIP3   OH239047   1.913   0.104   4.199
13035TIP3    H139048   1.951   0.115   4.112
13035TIP3    H239049   1.821   0.080   4.183
13036TIP3   OH239050   0.976   0.074   5.727
13036TIP3    H139051   0.962   0.005   5.662
13036TIP3    H239052   1.052   0.122   5.695
13037TIP3   OH239053   2.512   0.290   2.979
13037TIP3    H139054   2.486   0.322   3.066
13037TIP3    H239055   2.432   0.252   2.943
13038TIP3   OH239056   2.618   7.205   0.475
13038TIP3    H139057   2.655   7.121   0.450
13038TIP3    H239058   2.523   7.191   0.473
13039TIP3   OH239059   4.337   1.595   3.813
13039TIP3    H139060   4.385   1.577   3.732
13039TIP3    H239061   4.311   1.687   3.806
13040TIP3   OH239062   6.059   6.292   1.445
13040TIP3    H139063   6.136   6.342   1.418
13040TIP3    H239064   6.094   6.222   1.500
13041TIP3   OH239065   3.372   0.840   5.103
13041TIP3    H139066   3.415   0.760   5.074
13041TIP3    H239067   3.407   0.908   5.045
13042TIP3   OH239068   7.280   6.770   5.077
13042TIP3    H139069   7.350   6.721   5.033
13042TIP3    H239070   7.286   6.858   5.041
13043TIP3   OH239071   5.589   2.030   2.544
13043TIP3    H139072   5.657   2.086   2.580
13043TIP3    H239073   5.530   2.013   2.618
13044TIP3   OH239074   2.222   2.302   0.594
13044TIP3    H139075   2.303   2.331   0.637
13044TIP3    H239076   2.160   2.292   0.666
13045TIP3   OH239077   7.411   7.646   1.536
13045TIP3    H139078   7.326   7.605   1.550
13045TIP3    H239079   7.427   7.696   1.617
13046TIP3   OH239080   1.723   5.617   3.243
13046TIP3    H139081   1.755   5.562   3.315
13046TIP3    H239082   1.802   5.646   3.198
13047TIP3   OH239083  -0.001   6.505   0.831
13047TIP3    H139084   0.077   6.450   0.818
13047TIP3    H239085  -0.018   6.543   0.745
13048TIP3   OH239086   7.460   5.933   1.555
13048TIP3    H139087   7.483   5.896   1.640
13048TIP3    H239088   7.417   6.016   1.576
13049TIP3   OH239089   0.818   6.804   0.273
13049TIP3    H139090   0.862   6.832   0.353
13049TIP3    H239091   0.833   6.709   0.270
13050TIP3   OH239092   0.604   5.115  -0.015
13050TIP3    H139093   0.570   5.108   0.074
13050TIP3    H239094   0.661   5.039  -0.025
13051TIP3   OH239095   7.121   3.261   1.005
13051TIP3    H139096   7.137   3.353   0.984
13051TIP3    H239097   7.187   3.214   0.956
13052TIP3   OH239098   0.732   2.033   1.019
13052TIP3    H139099   0.681   2.111   1.043
13052TIP3    H239100   0.713   1.970   1.088
13053TIP3   OH239101   7.393   1.598   2.827
13053TIP3    H139102   7.306   1.558   2.827
13053TIP3    H239103   7.414   1.611   2.735
13054TIP3   OH239104   8.038   6.638   0.918
13054TIP3    H139105   8.104   6.572   0.902
13054TIP3    H239106   8.086   6.712   0.954
13055TIP3   OH239107   2.257   3.273   6.034
13055TIP3    H139108   2.336   3.317   6.064
13055TIP3    H239109   2.229   3.220   6.110
13056TIP3   OH239110   1.435   5.993   3.807
13056TIP3    H139111   1.530   5.989   3.800
13056TIP3    H239112   1.408   5.901   3.814
13057TIP3   OH239113   6.321   4.199   4.472
13057TIP3    H139114   6.266   4.261   4.519
13057TIP3    H239115   6.383   4.167   4.537
13058TIP3   OH239116  -0.023   2.122   2.977
13058TIP3    H139117  -0.017   2.141   3.070
13058TIP3    H239118   0.063   2.149   2.942
13059TIP3   OH239119   5.187   5.984   5.110
13059TIP3    H139120   5.179   5.929   5.188
13059TIP3    H239121   5.250   5.937   5.054
13060TIP3   OH239122   7.208   1.764   2.393
13060TIP3    H139123   7.255   1.842   2.362
13060TIP3    H239124   7.274   1.715   2.443
13061TIP3   OH239125   2.723   5.876   0.716
13061TIP3    H139126   2.814   5.850   0.698
13061TIP3    H239127   2.708   5.850   0.807
13062TIP3   OH239128   8.299   0.722   3.592
13062TIP3    H139129   8.271   0.635   3.618
13062TIP3    H239130   8.218   0.772   3.581
13063TIP3   OH239131   8.145   7.540   4.124
13063TIP3    H139132   8.141   7.444   4.126
13063TIP3    H239133   8.155   7.562   4.031
13064TIP3   OH239134   6.364   5.475   1.799
13064TIP3    H139135   6.442   5.518   1.834
13064TIP3    H239136   6.393   5.385   1.782
13065TIP3   OH239137   3.017   5.539   3.014
13065TIP3    H139138   3.094   5.588   2.985
13065TIP3    H239139   3.037   5.513   3.103
13066TIP3   OH239140   5.248   2.489   5.878
13066TIP3    H139141   5.304   2.476   5.801
13066TIP3    H239142   5.296   2.448   5.950
13067TIP3   OH239143   5.777   2.616   0.710
13067TIP3    H139144   5.794   2.696   0.660
13067TIP3    H239145   5.711   2.640   0.774
13068TIP3   OH239146   7.840   3.013   5.469
13068TIP3    H139147   7.854   3.097   5.424
13068TIP3    H239148   7.870   2.947   5.407
13069TIP3   OH239149   3.086   1.189   3.825
13069TIP3    H139150   3.042   1.261   3.870
13069TIP3    H239151   3.025   1.116   3.831
13070TIP3   OH239152   6.177   6.336   6.406
13070TIP3    H139153   6.123   6.326   6.327
13070TIP3    H239154   6.258   6.289   6.386
13071TIP3   OH239155   0.836   3.669   3.577
13071TIP3    H139156   0.793   3.716   3.649
13071TIP3    H239157   0.892   3.735   3.535
13072TIP3   OH239158   2.289   0.918   4.209
13072TIP3    H139159   2.216   0.968   4.244
13072TIP3    H239160   2.250   0.836   4.178
13073TIP3   OH239161   1.538   5.064   4.947
13073TIP3    H139162   1.607   5.118   4.907
13073TIP3    H239163   1.581   4.982   4.970
13074TIP3   OH239164   0.098   6.897   5.886
13074TIP3    H139165   0.112   6.918   5.978
13074TIP3    H239166   0.007   6.865   5.882
13075TIP3   OH239167   1.369   7.423   4.137
13075TIP3    H139168   1.444   7.447   4.082
13075TIP3    H239169   1.300   7.399   4.074
13076TIP3   OH239170   6.616   2.794   0.098
13076TIP3    H139171   6.625   2.783   0.193
13076TIP3    H239172   6.636   2.708   0.062
13077TIP3   OH239173   0.173   5.455   3.288
13077TIP3    H139174   0.118   5.444   3.211
13077TIP3    H239175   0.180   5.367   3.326
13078TIP3   OH239176   6.189   0.339   3.849
13078TIP3    H139177   6.123   0.282   3.811
13078TIP3    H239178   6.259   0.343   3.783
13079TIP3   OH239179   7.534   5.248   0.045
13079TIP3    H139180   7.530   5.222   0.137
13079TIP3    H239181   7.561   5.340   0.046
13080TIP3   OH239182   8.090   5.624   2.038
13080TIP3    H139183   8.135   5.603   1.957
13080TIP3    H239184   8.150   5.596   2.107
13081TIP3   OH239185   7.732   2.541   1.572
13081TIP3    H139186   7.797   2.549   1.502
13081TIP3    H239187   7.733   2.447   1.594
13082TIP3   OH239188   7.514   4.359   1.178
13082TIP3    H139189   7.568   4.402   1.244
13082TIP3    H239190   7.576   4.333   1.110
13083TIP3   OH239191   3.004   3.174   1.992
13083TIP3    H139192   3.093   3.202   2.011
13083TIP3    H239193   3.000   3.170   1.897
13084TIP3   OH239194   7.431   1.876   2.865
13084TIP3    H139195   7.455   1.786   2.843
13084TIP3    H239196   7.393   1.911   2.784
13085TIP3   OH239197   3.483   5.632   1.906
13085TIP3    H139198   3.549   5.702   1.913
13085TIP3    H239199   3.478   5.613   1.813
13086TIP3   OH239200   6.044   6.547   6.012
13086TIP3    H139201   5.984   6.571   6.083
13086TIP3    H239202   6.059   6.453   6.024
13087TIP3   OH239203   4.404   6.549   0.558
13087TIP3    H139204   4.317   6.526   0.528
13087TIP3    H239205   4.458   6.549   0.479
13088TIP3   OH239206   0.403   0.851   1.955
13088TIP3    H139207   0.416   0.758   1.972
13088TIP3    H239208   0.413   0.893   2.040
13089TIP3   OH239209   3.855   2.718   5.444
13089TIP3    H139210   3.840   2.625   5.457
13089TIP3    H239211   3.909   2.723   5.365
13090TIP3   OH239212   0.590   5.440   6.384
13090TIP3    H139213   0.575   5.350   6.356
13090TIP3    H239214   0.643   5.478   6.313
13091TIP3   OH239215   6.487   4.150   2.053
13091TIP3    H139216   6.468   4.135   2.146
13091TIP3    H239217   6.406   4.183   2.016
13092TIP3   OH239218   0.258   7.191   3.575
13092TIP3    H139219   0.274   7.098   3.590
13092TIP3    H239220   0.174   7.194   3.530
13093TIP3   OH239221   0.250   2.792   1.032
13093TIP3    H139222   0.238   2.851   1.107
13093TIP3    H239223   0.177   2.730   1.039
13094TIP3   OH239224   6.737   6.786   2.167
13094TIP3    H139225   6.648   6.817   2.187
13094TIP3    H239226   6.782   6.789   2.252
13095TIP3   OH239227   2.328   6.090   6.101
13095TIP3    H139228   2.422   6.103   6.087
13095TIP3    H239229   2.288   6.169   6.066
13096TIP3   OH239230   4.531   3.009   2.628
13096TIP3    H139231   4.467   2.943   2.603
13096TIP3    H239232   4.587   3.019   2.551
13097TIP3   OH239233   3.217   0.841   3.588
13097TIP3    H139234   3.212   0.897   3.510
13097TIP3    H239235   3.237   0.754   3.555
13098TIP3   OH239236   3.793   6.702   1.903
13098TIP3    H139237   3.753   6.630   1.951
13098TIP3    H239238   3.840   6.752   1.969
13099TIP3   OH239239   4.946   4.975   2.955
13099TIP3    H139240   4.979   5.046   2.900
13099TIP3    H239241   4.957   5.008   3.045
13100TIP3   OH239242   3.491   0.370   0.695
13100TIP3    H139243   3.483   0.407   0.783
13100TIP3    H239244   3.409   0.324   0.681
13101TIP3   OH239245   6.479   6.726   0.436
13101TIP3    H139246   6.504   6.634   0.423
13101TIP3    H239247   6.399   6.721   0.489
13102TIP3   OH239248   3.002   2.444   4.381
13102TIP3    H139249   3.045   2.530   4.383
13102TIP3    H239250   3.049   2.392   4.445
13103TIP3   OH239251   5.956   0.767   2.122
13103TIP3    H139252   5.902   0.812   2.187
13103TIP3    H239253   6.032   0.824   2.110
13104TIP3   OH239254   5.150   7.656   4.814
13104TIP3    H139255   5.211   7.604   4.864
13104TIP3    H239256   5.204   7.723   4.772
13105TIP3   OH239257   2.618   3.660   3.069
13105TIP3    H139258   2.611   3.750   3.100
13105TIP3    H239259   2.692   3.624   3.118
13106TIP3   OH239260   3.611   2.840   3.321
13106TIP3    H139261   3.524   2.847   3.282
13106TIP3    H239262   3.602   2.774   3.390
13107TIP3   OH239263   1.482   6.441   5.241
13107TIP3    H139264   1.489   6.496   5.319
13107TIP3    H239265   1.531   6.488   5.174
13108TIP3   OH239266   4.823   1.864   2.599
13108TIP3    H139267   4.879   1.788   2.580
13108TIP3    H239268   4.734   1.832   2.587
13109TIP3   OH239269   3.569   2.296   4.538
13109TIP3    H139270   3.555   2.384   4.573
13109TIP3    H239271   3.490   2.278   4.486
13110TIP3   OH239272   6.458   6.507   0.181
13110TIP3    H139273   6.375   6.554   0.169
13110TIP3    H239274   6.524   6.566   0.145
13111TIP3   OH239275   1.158   2.900   0.949
13111TIP3    H139276   1.102   2.957   1.001
13111TIP3    H239277   1.114   2.893   0.864
13112TIP3   OH239278   8.087   7.539   4.596
13112TIP3    H139279   8.010   7.536   4.654
13112TIP3    H239280   8.055   7.505   4.513
13113TIP3   OH239281   2.479   7.022   2.304
13113TIP3    H139282   2.485   6.993   2.395
13113TIP3    H239283   2.482   6.941   2.253
13114TIP3   OH239284   7.484   3.975   2.305
13114TIP3    H139285   7.509   3.974   2.397
13114TIP3    H239286   7.394   3.944   2.304
13115TIP3   OH239287   3.874   4.617   0.700
13115TIP3    H139288   3.938   4.547   0.710
13115TIP3    H239289   3.819   4.611   0.778
13116TIP3   OH239290   6.984   5.283   2.159
13116TIP3    H139291   6.990   5.370   2.121
13116TIP3    H239292   7.044   5.230   2.107
13117TIP3   OH239293   3.780   2.676   4.549
13117TIP3    H139294   3.769   2.647   4.640
13117TIP3    H239295   3.787   2.771   4.554
13118TIP3   OH239296   2.641   7.133   6.718
13118TIP3    H139297   2.668   7.116   6.808
13118TIP3    H239298   2.615   7.225   6.717
13119TIP3   OH239299   7.136   6.714   4.423
13119TIP3    H139300   7.116   6.729   4.330
13119TIP3    H239301   7.057   6.674   4.459
13120TIP3   OH239302   5.856   7.649   3.211
13120TIP3    H139303   5.870   7.711   3.140
13120TIP3    H239304   5.944   7.620   3.235
13121TIP3   OH239305   2.460   1.519   5.065
13121TIP3    H139306   2.506   1.436   5.053
13121TIP3    H239307   2.395   1.520   4.995
13122TIP3   OH239308   8.204   0.849   6.793
13122TIP3    H139309   8.186   0.842   6.699
13122TIP3    H239310   8.280   0.906   6.799
13123TIP3   OH239311   3.960   2.208   0.961
13123TIP3    H139312   4.026   2.145   0.988
13123TIP3    H239313   3.876   2.165   0.977
13124TIP3   OH239314   0.419   7.531   2.330
13124TIP3    H139315   0.366   7.493   2.400
13124TIP3    H239316   0.377   7.502   2.249
13125TIP3   OH239317   0.500   1.312   0.390
13125TIP3    H139318   0.560   1.363   0.444
13125TIP3    H239319   0.507   1.222   0.424
13126TIP3   OH239320   6.432   3.182   5.904
13126TIP3    H139321   6.376   3.142   5.838
13126TIP3    H239322   6.405   3.143   5.986
13127TIP3   OH239323   6.233   1.677   6.153
13127TIP3    H139324   6.285   1.757   6.153
13127TIP3    H239325   6.147   1.704   6.120
13128TIP3   OH239326   5.661   2.765   2.362
13128TIP3    H139327   5.599   2.806   2.302
13128TIP3    H239328   5.659   2.672   2.339
13129TIP3   OH239329   3.404   0.313   0.185
13129TIP3    H139330   3.465   0.266   0.128
13129TIP3    H239331   3.436   0.296   0.274
13130TIP3   OH239332   5.048   6.905   5.482
13130TIP3    H139333   4.959   6.905   5.447
13130TIP3    H239334   5.052   6.827   5.537
13131TIP3   OH239335   4.514   5.581   5.392
13131TIP3    H139336   4.507   5.556   5.484
13131TIP3    H239337   4.480   5.506   5.344
13132TIP3   OH239338   8.024   5.422   4.758
13132TIP3    H139339   7.964   5.348   4.760
13132TIP3    H239340   8.091   5.397   4.695
13133TIP3   OH239341   4.555   4.055   3.021
13133TIP3    H139342   4.544   4.137   2.972
13133TIP3    H239343   4.492   4.061   3.092
13134TIP3   OH239344   7.369   4.462   2.099
13134TIP3    H139345   7.318   4.463   2.180
13134TIP3    H239346   7.411   4.548   2.095
13135TIP3   OH239347   7.197   2.742   6.677
13135TIP3    H139348   7.171   2.728   6.586
13135TIP3    H239349   7.157   2.669   6.724
13136TIP3   OH239350   7.313   5.819   2.146
13136TIP3    H139351   7.317   5.731   2.108
13136TIP3    H239352   7.353   5.810   2.232
13137TIP3   OH239353   1.305   7.702   0.339
13137TIP3    H139354   1.360   7.779   0.347
13137TIP3    H239355   1.291   7.673   0.430
13138TIP3   OH239356   4.936   7.688   1.279
13138TIP3    H139357   4.984   7.716   1.201
13138TIP3    H239358   4.855   7.738   1.277
13139TIP3   OH239359   3.272   6.282   3.980
13139TIP3    H139360   3.364   6.299   3.960
13139TIP3    H239361   3.263   6.308   4.072
13140TIP3   OH239362   0.133   5.729   2.490
13140TIP3    H139363   0.135   5.779   2.408
13140TIP3    H239364   0.213   5.677   2.488
13141TIP3   OH239365   2.082   3.920   4.782
13141TIP3    H139366   2.118   4.008   4.774
13141TIP3    H239367   2.002   3.931   4.834
13142TIP3   OH239368   7.779   4.110   6.156
13142TIP3    H139369   7.865   4.151   6.160
13142TIP3    H239370   7.781   4.057   6.076
13143TIP3   OH239371   1.523   1.614   0.775
13143TIP3    H139372   1.553   1.526   0.755
13143TIP3    H239373   1.471   1.641   0.699
13144TIP3   OH239374   6.734   2.957   4.584
13144TIP3    H139375   6.799   2.938   4.516
13144TIP3    H239376   6.670   3.014   4.541
13145TIP3   OH239377   7.592   6.518   5.338
13145TIP3    H139378   7.536   6.537   5.413
13145TIP3    H239379   7.640   6.599   5.323
13146TIP3   OH239380   7.827   6.591   1.979
13146TIP3    H139381   7.834   6.682   1.952
13146TIP3    H239382   7.754   6.556   1.928
13147TIP3   OH239383   0.752   6.640   3.018
13147TIP3    H139384   0.693   6.710   3.047
13147TIP3    H239385   0.815   6.685   2.961
13148TIP3   OH239386   3.070   5.180   3.452
13148TIP3    H139387   2.997   5.217   3.503
13148TIP3    H239388   3.070   5.087   3.476
13149TIP3   OH239389   5.400   1.946   4.611
13149TIP3    H139390   5.350   1.902   4.680
13149TIP3    H239391   5.383   2.039   4.626
13150TIP3   OH239392   5.865   4.899   2.867
13150TIP3    H139393   5.860   4.868   2.776
13150TIP3    H239394   5.821   4.984   2.866
13151TIP3   OH239395   1.485   4.732   5.577
13151TIP3    H139396   1.419   4.798   5.558
13151TIP3    H239397   1.513   4.750   5.666
13152TIP3   OH239398   7.837   7.264   5.459
13152TIP3    H139399   7.867   7.174   5.448
13152TIP3    H239400   7.791   7.264   5.543
13153TIP3   OH239401   5.794   7.325   1.528
13153TIP3    H139402   5.721   7.345   1.585
13153TIP3    H239403   5.754   7.281   1.452
13154TIP3   OH239404   3.171   1.031   1.602
13154TIP3    H139405   3.188   0.944   1.567
13154TIP3    H239406   3.144   1.083   1.526
13155TIP3   OH239407   5.800   0.606   5.218
13155TIP3    H139408   5.767   0.602   5.128
13155TIP3    H239409   5.810   0.514   5.243
13156TIP3   OH239410   5.510   4.514   5.952
13156TIP3    H139411   5.585   4.550   5.904
13156TIP3    H239412   5.444   4.498   5.884
13157TIP3   OH239413   5.916   3.423   3.938
13157TIP3    H139414   5.927   3.340   3.891
13157TIP3    H239415   5.825   3.448   3.922
13158TIP3   OH239416   7.324   5.329   3.947
13158TIP3    H139417   7.374   5.353   4.024
13158TIP3    H239418   7.236   5.310   3.980
13159TIP3   OH239419   1.082   2.838   0.709
13159TIP3    H139420   1.123   2.786   0.640
13159TIP3    H239421   0.988   2.822   0.698
13160TIP3   OH239422   4.335   6.883   4.582
13160TIP3    H139423   4.389   6.962   4.592
13160TIP3    H239424   4.277   6.884   4.658
13161TIP3   OH239425   7.788   3.506   5.471
13161TIP3    H139426   7.819   3.580   5.523
13161TIP3    H239427   7.695   3.526   5.455
13162TIP3   OH239428   3.217   1.374   0.637
13162TIP3    H139429   3.281   1.372   0.708
13162TIP3    H239430   3.269   1.374   0.557
13163TIP3   OH239431   1.382   2.577   1.257
13163TIP3    H139432   1.426   2.658   1.232
13163TIP3    H239433   1.332   2.599   1.335
13164TIP3   OH239434   2.800   3.666   5.066
13164TIP3    H139435   2.767   3.710   4.987
13164TIP3    H239436   2.781   3.573   5.052
13165TIP3   OH239437   1.260   4.101   4.733
13165TIP3    H139438   1.277   4.122   4.641
13165TIP3    H239439   1.347   4.096   4.773
13166TIP3   OH239440   0.474   1.885   1.317
13166TIP3    H139441   0.406   1.847   1.261
13166TIP3    H239442   0.473   1.978   1.295
13167TIP3   OH239443   6.026   1.279   4.947
13167TIP3    H139444   6.078   1.345   4.992
13167TIP3    H239445   6.088   1.208   4.929
13168TIP3   OH239446   2.841   3.191   1.650
13168TIP3    H139447   2.930   3.224   1.658
13168TIP3    H239448   2.851   3.107   1.605
13169TIP3   OH239449   6.836   4.681   3.549
13169TIP3    H139450   6.923   4.656   3.581
13169TIP3    H239451   6.777   4.614   3.584
13170TIP3   OH239452   5.204   7.665   2.446
13170TIP3    H139453   5.254   7.743   2.422
13170TIP3    H239454   5.128   7.699   2.494
13171TIP3   OH239455   2.927   4.852   4.218
13171TIP3    H139456   2.967   4.909   4.284
13171TIP3    H239457   2.856   4.904   4.181
13172TIP3   OH239458   4.025   5.705   1.075
13172TIP3    H139459   3.933   5.697   1.048
13172TIP3    H239460   4.021   5.724   1.169
13173TIP3   OH239461   2.688   5.331   0.842
13173TIP3    H139462   2.692   5.337   0.747
13173TIP3    H239463   2.735   5.251   0.864
13174TIP3   OH239464   1.668   1.596   6.344
13174TIP3    H139465   1.623   1.657   6.285
13174TIP3    H239466   1.749   1.574   6.298
13175TIP3   OH239467   4.957   1.327   4.869
13175TIP3    H139468   4.920   1.409   4.902
13175TIP3    H239469   4.922   1.260   4.927
13176TIP3   OH239470   2.842   1.802   2.563
13176TIP3    H139471   2.754   1.832   2.539
13176TIP3    H239472   2.900   1.871   2.532
13177TIP3   OH239473   1.663   5.874   2.632
13177TIP3    H139474   1.593   5.891   2.569
13177TIP3    H239475   1.645   5.935   2.704
13178TIP3   OH239476   7.231   2.162   2.450
13178TIP3    H139477   7.210   2.130   2.538
13178TIP3    H239478   7.147   2.192   2.415
13179TIP3   OH239479   8.167   4.400   2.766
13179TIP3    H139480   8.102   4.334   2.743
13179TIP3    H239481   8.117   4.467   2.813
13180TIP3   OH239482   5.182   5.221   3.898
13180TIP3    H139483   5.220   5.147   3.945
13180TIP3    H239484   5.170   5.289   3.964
13181TIP3   OH239485   7.678   2.506   5.790
13181TIP3    H139486   7.772   2.518   5.806
13181TIP3    H239487   7.640   2.495   5.877
13182TIP3   OH239488   3.007   4.118   3.233
13182TIP3    H139489   3.072   4.109   3.163
13182TIP3    H239490   3.008   4.033   3.277
13183TIP3   OH239491   6.031   1.686   0.823
13183TIP3    H139492   5.983   1.756   0.779
13183TIP3    H239493   6.060   1.724   0.906
13184TIP3   OH239494   2.028   2.612   6.348
13184TIP3    H139495   2.025   2.520   6.376
13184TIP3    H239496   2.060   2.659   6.425
13185TIP3   OH239497   4.089   1.006   3.262
13185TIP3    H139498   4.046   0.924   3.238
13185TIP3    H239499   4.035   1.074   3.223
13186TIP3   OH239500   1.395   7.605   0.103
13186TIP3    H139501   1.330   7.665   0.139
13186TIP3    H239502   1.359   7.518   0.118
13187TIP3   OH239503   3.398   0.948   2.098
13187TIP3    H139504   3.461   0.880   2.073
13187TIP3    H239505   3.395   1.006   2.023
13188TIP3   OH239506   0.434   5.678   0.999
13188TIP3    H139507   0.370   5.725   1.053
13188TIP3    H239508   0.411   5.586   1.009
13189TIP3   OH239509   1.515   6.069   6.580
13189TIP3    H139510   1.609   6.082   6.591
13189TIP3    H239511   1.502   5.975   6.593
13190TIP3   OH239512   5.091   1.018   2.351
13190TIP3    H139513   5.066   1.093   2.296
13190TIP3    H239514   5.105   0.947   2.288
13191TIP3   OH239515   0.864   7.473   1.821
13191TIP3    H139516   0.871   7.441   1.911
13191TIP3    H239517   0.772   7.498   1.811
13192TIP3   OH239518   5.286   6.700   5.372
13192TIP3    H139519   5.279   6.661   5.459
13192TIP3    H239520   5.196   6.701   5.340
13193TIP3   OH239521   4.923   6.769   1.526
13193TIP3    H139522   5.019   6.766   1.519
13193TIP3    H239523   4.893   6.779   1.435
13194TIP3   OH239524   3.289   2.328   0.514
13194TIP3    H139525   3.261   2.292   0.430
13194TIP3    H239526   3.247   2.273   0.579
13195TIP3   OH239527   3.609   1.346   4.524
13195TIP3    H139528   3.636   1.332   4.433
13195TIP3    H239529   3.573   1.435   4.525
13196TIP3   OH239530   5.270   2.104   2.999
13196TIP3    H139531   5.186   2.078   3.037
13196TIP3    H239532   5.335   2.060   3.054
13197TIP3   OH239533   3.634   3.719   6.597
13197TIP3    H139534   3.588   3.640   6.624
13197TIP3    H239535   3.717   3.688   6.562
13198TIP3   OH239536   2.459   0.709   4.216
13198TIP3    H139537   2.425   0.778   4.159
13198TIP3    H239538   2.431   0.735   4.304
13199TIP3   OH239539   4.380   7.279   6.131
13199TIP3    H139540   4.320   7.242   6.066
13199TIP3    H239541   4.464   7.237   6.112
13200TIP3   OH239542   1.800   3.852   2.860
13200TIP3    H139543   1.830   3.925   2.807
13200TIP3    H239544   1.879   3.815   2.898
13201TIP3   OH239545   2.139   4.392   1.852
13201TIP3    H139546   2.168   4.346   1.932
13201TIP3    H239547   2.084   4.464   1.884
13202TIP3   OH239548   6.894   1.756   0.923
13202TIP3    H139549   6.823   1.805   0.882
13202TIP3    H239550   6.850   1.688   0.973
13203TIP3   OH239551   2.832   4.388   3.368
13203TIP3    H139552   2.776   4.391   3.446
13203TIP3    H239553   2.918   4.362   3.402
13204TIP3   OH239554   5.497   2.553   4.735
13204TIP3    H139555   5.519   2.571   4.644
13204TIP3    H239556   5.407   2.523   4.733
13205TIP3   OH239557   3.814   5.130   6.147
13205TIP3    H139558   3.858   5.170   6.072
13205TIP3    H239559   3.885   5.113   6.210
13206TIP3   OH239560   5.883   4.799   6.490
13206TIP3    H139561   5.919   4.886   6.468
13206TIP3    H239562   5.863   4.760   6.405
13207TIP3   OH239563   6.354   0.679   2.214
13207TIP3    H139564   6.328   0.622   2.142
13207TIP3    H239565   6.311   0.642   2.292
13208TIP3   OH239566   2.854   1.032   5.027
13208TIP3    H139567   2.805   0.988   5.097
13208TIP3    H239568   2.944   1.035   5.060
13209TIP3   OH239569   0.698   6.402   0.930
13209TIP3    H139570   0.768   6.356   0.884
13209TIP3    H239571   0.734   6.489   0.948
13210TIP3   OH239572   3.326   6.670   0.417
13210TIP3    H139573   3.260   6.689   0.350
13210TIP3    H239574   3.403   6.642   0.368
13211TIP3   OH239575  -0.009   4.848   5.900
13211TIP3    H139576   0.058   4.837   5.967
13211TIP3    H239577   0.037   4.888   5.826
13212TIP3   OH239578   1.803   6.987   4.914
13212TIP3    H139579   1.756   7.006   4.995
13212TIP3    H239580   1.767   7.048   4.850
13213TIP3   OH239581   6.431   1.152   6.674
13213TIP3    H139582   6.387   1.230   6.640
13213TIP3    H239583   6.379   1.078   6.642
13214TIP3   OH239584   7.671   7.460   2.627
13214TIP3    H139585   7.706   7.436   2.541
13214TIP3    H239586   7.578   7.435   2.623
13215TIP3   OH239587   0.273   1.763   1.147
13215TIP3    H139588   0.206   1.827   1.174
13215TIP3    H239589   0.306   1.797   1.064
13216TIP3   OH239590   2.283   5.905   1.780
13216TIP3    H139591   2.226   5.828   1.786
13216TIP3    H239592   2.222   5.978   1.767
13217TIP3   OH239593   1.474   4.200   6.331
13217TIP3    H139594   1.530   4.208   6.254
13217TIP3    H239595   1.386   4.184   6.295
13218TIP3   OH239596   7.584   1.076   3.610
13218TIP3    H139597   7.519   1.035   3.553
13218TIP3    H239598   7.640   1.126   3.550
13219TIP3   OH239599   4.783   7.086   3.786
13219TIP3    H139600   4.838   7.019   3.745
13219TIP3    H239601   4.708   7.036   3.821
13220TIP3   OH239602   7.077   2.436   4.160
13220TIP3    H139603   7.004   2.420   4.100
13220TIP3    H239604   7.152   2.392   4.120
13221TIP3   OH239605   1.748   5.698   5.067
13221TIP3    H139606   1.713   5.785   5.085
13221TIP3    H239607   1.764   5.697   4.973
13222TIP3   OH239608   4.105   1.356   3.033
13222TIP3    H139609   4.080   1.312   3.114
13222TIP3    H239610   4.074   1.446   3.045
13223TIP3   OH239611   7.275   4.256   1.571
13223TIP3    H139612   7.361   4.297   1.567
13223TIP3    H239613   7.286   4.183   1.632
13224TIP3   OH239614   1.110   5.659   1.676
13224TIP3    H139615   1.020   5.691   1.671
13224TIP3    H239616   1.134   5.666   1.768
13225TIP3   OH239617   2.543   1.793   5.948
13225TIP3    H139618   2.625   1.750   5.924
13225TIP3    H239619   2.537   1.869   5.889
13226TIP3   OH239620   7.244   7.693   4.968
13226TIP3    H139621   7.157   7.660   4.945
13226TIP3    H239622   7.295   7.685   4.888
13227TIP3   OH239623   0.666   5.360   4.838
13227TIP3    H139624   0.734   5.425   4.855
13227TIP3    H239625   0.611   5.361   4.917
13228TIP3   OH239626   3.789   2.169   1.733
13228TIP3    H139627   3.761   2.115   1.807
13228TIP3    H239628   3.833   2.244   1.773
13229TIP3   OH239629   3.383   7.683   6.247
13229TIP3    H139630   3.373   7.705   6.155
13229TIP3    H239631   3.471   7.646   6.254
13230TIP3   OH239632   7.185   3.522   0.967
13230TIP3    H139633   7.121   3.573   0.917
13230TIP3    H239634   7.232   3.587   1.019
13231TIP3   OH239635   4.989   5.756   5.524
13231TIP3    H139636   5.036   5.783   5.603
13231TIP3    H239637   4.956   5.839   5.488
13232TIP3   OH239638   3.989   2.684   5.206
13232TIP3    H139639   4.003   2.760   5.150
13232TIP3    H239640   3.944   2.620   5.151
13233TIP3   OH239641   8.089   2.696   5.095
13233TIP3    H139642   8.083   2.716   5.001
13233TIP3    H239643   8.124   2.607   5.098
13234TIP3   OH239644   5.069   3.845   4.727
13234TIP3    H139645   5.048   3.929   4.769
13234TIP3    H239646   4.992   3.824   4.675
13235TIP3   OH239647   0.552   2.640   3.363
13235TIP3    H139648   0.593   2.726   3.365
13235TIP3    H239649   0.475   2.648   3.419
13236TIP3   OH239650   1.875   1.935   1.604
13236TIP3    H139651   1.873   1.843   1.576
13236TIP3    H239652   1.792   1.971   1.575
13237TIP3   OH239653   0.706   3.079   2.213
13237TIP3    H139654   0.719   3.003   2.158
13237TIP3    H239655   0.679   3.043   2.298
13238TIP3   OH239656   2.252   3.387   5.054
13238TIP3    H139657   2.335   3.433   5.042
13238TIP3    H239658   2.244   3.375   5.149
13239TIP3   OH239659   6.093   1.948   6.050
13239TIP3    H139660   6.046   1.930   6.132
13239TIP3    H239661   6.062   1.880   5.990
13240TIP3   OH239662   4.145   1.584   5.933
13240TIP3    H139663   4.069   1.585   5.992
13240TIP3    H239664   4.204   1.652   5.969
13241TIP3   OH239665   1.449   1.394   0.031
13241TIP3    H139666   1.536   1.425   0.009
13241TIP3    H239667   1.453   1.299   0.019
13242TIP3   OH239668   8.245   1.453   3.768
13242TIP3    H139669   8.338   1.430   3.781
13242TIP3    H239670   8.216   1.482   3.854
13243TIP3   OH239671   7.636   6.460   4.189
13243TIP3    H139672   7.710   6.446   4.130
13243TIP3    H239673   7.652   6.400   4.262
13244TIP3   OH239674   5.891   1.155   0.494
13244TIP3    H139675   5.847   1.077   0.530
13244TIP3    H239676   5.909   1.132   0.403
13245TIP3   OH239677   1.190   1.367   4.707
13245TIP3    H139678   1.222   1.392   4.621
13245TIP3    H239679   1.217   1.438   4.765
13246TIP3   OH239680   5.684   2.895   0.675
13246TIP3    H139681   5.598   2.859   0.650
13246TIP3    H239682   5.743   2.862   0.608
13247TIP3   OH239683   3.198   5.839   2.092
13247TIP3    H139684   3.268   5.790   2.049
13247TIP3    H239685   3.204   5.927   2.053
13248TIP3   OH239686   4.476   6.005   1.769
13248TIP3    H139687   4.547   6.067   1.788
13248TIP3    H239688   4.469   5.952   1.848
13249TIP3   OH239689   2.062   2.875   0.451
13249TIP3    H139690   2.022   2.789   0.436
13249TIP3    H239691   2.001   2.920   0.509
13250TIP3   OH239692   2.375   1.394   0.574
13250TIP3    H139693   2.376   1.450   0.497
13250TIP3    H239694   2.462   1.355   0.577
13251TIP3   OH239695   3.197   5.030   0.899
13251TIP3    H139696   3.136   5.090   0.856
13251TIP3    H239697   3.230   4.975   0.829
13252TIP3   OH239698   7.029   7.291   4.880
13252TIP3    H139699   6.961   7.224   4.889
13252TIP3    H239700   7.078   7.287   4.962
13253TIP3   OH239701   6.511   6.212   0.041
13253TIP3    H139702   6.555   6.155   0.105
13253TIP3    H239703   6.492   6.292   0.089
13254TIP3   OH239704   1.617   6.234   5.104
13254TIP3    H139705   1.569   6.234   5.022
13254TIP3    H239706   1.572   6.299   5.158
13255TIP3   OH239707   7.128   5.574   3.044
13255TIP3    H139708   7.207   5.625   3.060
13255TIP3    H239709   7.161   5.485   3.027
13256TIP3   OH239710   4.225   0.124   6.633
13256TIP3    H139711   4.215   0.040   6.589
13256TIP3    H239712   4.146   0.173   6.610
13257TIP3   OH239713   6.360   4.091   0.085
13257TIP3    H139714   6.372   4.020   0.148
13257TIP3    H239715   6.286   4.063   0.031
13258TIP3   OH239716   2.693   5.319   0.542
13258TIP3    H139717   2.745   5.239   0.538
13258TIP3    H239718   2.602   5.288   0.547
13259TIP3   OH239719   1.505   0.290   4.244
13259TIP3    H139720   1.595   0.290   4.278
13259TIP3    H239721   1.515   0.285   4.149
13260TIP3   OH239722   7.801   4.278   2.592
13260TIP3    H139723   7.821   4.280   2.685
13260TIP3    H239724   7.711   4.311   2.585
13261TIP3   OH239725   7.469   1.587   2.501
13261TIP3    H139726   7.454   1.670   2.456
13261TIP3    H239727   7.430   1.521   2.444
13262TIP3   OH239728   6.767   2.028   2.367
13262TIP3    H139729   6.815   1.946   2.376
13262TIP3    H239730   6.715   2.035   2.447
13263TIP3   OH239731   5.414   0.700   4.687
13263TIP3    H139732   5.410   0.727   4.779
13263TIP3    H239733   5.323   0.700   4.658
13264TIP3   OH239734   7.732   2.968   6.658
13264TIP3    H139735   7.768   2.901   6.601
13264TIP3    H239736   7.670   3.017   6.603
13265TIP3   OH239737   1.161   5.839   0.583
13265TIP3    H139738   1.150   5.934   0.596
13265TIP3    H239739   1.204   5.809   0.663
13266TIP3   OH239740   4.671   3.537   0.658
13266TIP3    H139741   4.620   3.457   0.651
13266TIP3    H239742   4.644   3.576   0.742
13267TIP3   OH239743   6.417   3.451   6.575
13267TIP3    H139744   6.396   3.487   6.489
13267TIP3    H239745   6.497   3.400   6.562
13268TIP3   OH239746   1.837   1.188   4.622
13268TIP3    H139747   1.816   1.246   4.549
13268TIP3    H239748   1.933   1.188   4.625
13269TIP3   OH239749   1.587   3.091   1.807
13269TIP3    H139750   1.526   3.161   1.831
13269TIP3    H239751   1.588   3.033   1.882
13270TIP3   OH239752   0.093   0.389   6.671
13270TIP3    H139753   0.118   0.458   6.733
13270TIP3    H239754   0.004   0.412   6.645
13271TIP3   OH239755   6.148   7.283   6.315
13271TIP3    H139756   6.110   7.292   6.403
13271TIP3    H239757   6.147   7.372   6.280
13272TIP3   OH239758   1.355   7.085   0.779
13272TIP3    H139759   1.272   7.040   0.794
13272TIP3    H239760   1.422   7.018   0.792
13273TIP3   OH239761   1.458   4.939  -0.032
13273TIP3    H139762   1.545   4.913   0.001
13273TIP3    H239763   1.406   4.952   0.047
13274TIP3   OH239764   3.385   2.683   1.195
13274TIP3    H139765   3.476   2.667   1.168
13274TIP3    H239766   3.349   2.736   1.124
13275TIP3   OH239767   2.655   5.013   4.112
13275TIP3    H139768   2.681   5.104   4.123
13275TIP3    H239769   2.577   5.003   4.166
13276TIP3   OH239770   4.658   2.352   4.945
13276TIP3    H139771   4.598   2.391   5.009
13276TIP3    H239772   4.686   2.270   4.986
13277TIP3   OH239773   4.053   6.389   4.615
13277TIP3    H139774   4.075   6.479   4.639
13277TIP3    H239775   3.967   6.373   4.653
13278TIP3   OH239776   2.095   5.004   5.637
13278TIP3    H139777   2.095   5.063   5.562
13278TIP3    H239778   2.055   5.055   5.707
13279TIP3   OH239779   4.548   7.162   1.652
13279TIP3    H139780   4.561   7.089   1.592
13279TIP3    H239781   4.512   7.232   1.598
13280TIP3   OH239782   4.287   6.896   2.855
13280TIP3    H139783   4.252   6.838   2.787
13280TIP3    H239784   4.235   6.875   2.933
13281TIP3   OH239785   7.091   4.599   5.521
13281TIP3    H139786   7.098   4.631   5.432
13281TIP3    H239787   7.090   4.678   5.576
13282TIP3   OH239788   1.350   1.635   0.510
13282TIP3    H139789   1.321   1.725   0.526
13282TIP3    H239790   1.357   1.630   0.414
13283TIP3   OH239791   4.743   6.085   1.563
13283TIP3    H139792   4.667   6.127   1.604
13283TIP3    H239793   4.746   5.997   1.600
13284TIP3   OH239794   7.158   6.935   2.491
13284TIP3    H139795   7.100   6.918   2.566
13284TIP3    H239796   7.113   7.005   2.443
13285TIP3   OH239797   5.520   4.186   3.652
13285TIP3    H139798   5.444   4.200   3.595
13285TIP3    H239799   5.542   4.094   3.640
13286TIP3   OH239800   8.070   2.273   2.855
13286TIP3    H139801   8.131   2.230   2.915
13286TIP3    H239802   8.116   2.277   2.772
13287TIP3   OH239803   1.662   3.204   4.783
13287TIP3    H139804   1.620   3.260   4.849
13287TIP3    H239805   1.594   3.192   4.717
13288TIP3   OH239806   3.765   2.145   2.418
13288TIP3    H139807   3.781   2.078   2.484
13288TIP3    H239808   3.760   2.227   2.467
13289TIP3   OH239809   4.609   3.105   2.866
13289TIP3    H139810   4.571   3.077   2.782
13289TIP3    H239811   4.544   3.165   2.903
13290TIP3   OH239812   7.760   7.192   4.258
13290TIP3    H139813   7.759   7.242   4.176
13290TIP3    H239814   7.687   7.229   4.309
13291TIP3   OH239815   2.080   7.786   5.270
13291TIP3    H139816   2.096   7.783   5.364
13291TIP3    H239817   1.996   7.741   5.259
13292TIP3   OH239818   0.176   6.178   6.292
13292TIP3    H139819   0.119   6.202   6.219
13292TIP3    H239820   0.253   6.233   6.283
13293TIP3   OH239821   4.776   5.041   0.511
13293TIP3    H139822   4.800   5.133   0.518
13293TIP3    H239823   4.699   5.031   0.567
13294TIP3   OH239824   5.741   5.185   3.104
13294TIP3    H139825   5.717   5.093   3.098
13294TIP3    H239826   5.735   5.218   3.014
13295TIP3   OH239827   3.233   7.441   6.650
13295TIP3    H139828   3.142   7.464   6.633
13295TIP3    H239829   3.251   7.369   6.590
13296TIP3   OH239830   8.070   6.587   3.583
13296TIP3    H139831   8.029   6.674   3.592
13296TIP3    H239832   8.022   6.546   3.511
13297TIP3   OH239833   0.203   2.615   2.318
13297TIP3    H139834   0.245   2.615   2.404
13297TIP3    H239835   0.267   2.574   2.260
13298TIP3   OH239836   0.998   1.642   0.595
13298TIP3    H139837   1.043   1.714   0.640
13298TIP3    H239838   0.925   1.620   0.653
13299TIP3   OH239839   4.514   6.600   4.210
13299TIP3    H139840   4.420   6.599   4.228
13299TIP3    H239841   4.527   6.526   4.151
13300TIP3   OH239842   0.477   3.427   4.011
13300TIP3    H139843   0.543   3.419   3.942
13300TIP3    H239844   0.405   3.372   3.982
13301TIP3   OH239845   5.081   4.755   4.840
13301TIP3    H139846   5.019   4.756   4.913
13301TIP3    H239847   5.167   4.751   4.883
13302TIP3   OH239848   0.936   0.142   3.400
13302TIP3    H139849   0.913   0.062   3.354
13302TIP3    H239850   1.018   0.170   3.359
13303TIP3   OH239851   4.380   2.093   2.881
13303TIP3    H139852   4.362   2.118   2.791
13303TIP3    H239853   4.437   2.017   2.874
13304TIP3   OH239854   3.397   5.931   6.613
13304TIP3    H139855   3.480   5.948   6.656
13304TIP3    H239856   3.354   5.866   6.668
13305TIP3   OH239857   2.002   5.609   1.170
13305TIP3    H139858   2.090   5.587   1.140
13305TIP3    H239859   1.986   5.549   1.242
13306TIP3   OH239860   4.948   2.216   3.068
13306TIP3    H139861   4.966   2.294   3.015
13306TIP3    H239862   4.975   2.241   3.157
13307TIP3   OH239863   1.513   2.223   4.229
13307TIP3    H139864   1.422   2.207   4.203
13307TIP3    H239865   1.544   2.139   4.261
13308TIP3   OH239866   0.826   4.727   1.628
13308TIP3    H139867   0.844   4.816   1.598
13308TIP3    H239868   0.845   4.730   1.722
13309TIP3   OH239869   0.744   6.640   2.294
13309TIP3    H139870   0.676   6.617   2.231
13309TIP3    H239871   0.742   6.735   2.299
13310TIP3   OH239872   7.245   4.159   0.481
13310TIP3    H139873   7.338   4.137   0.484
13310TIP3    H239874   7.225   4.195   0.567
13311TIP3   OH239875   6.544   7.371   0.656
13311TIP3    H139876   6.615   7.377   0.591
13311TIP3    H239877   6.464   7.373   0.604
13312TIP3   OH239878   2.584   6.228   5.332
13312TIP3    H139879   2.532   6.243   5.411
13312TIP3    H239880   2.664   6.186   5.364
13313TIP3   OH239881   0.431   1.954   0.153
13313TIP3    H139882   0.497   1.999   0.205
13313TIP3    H239883   0.394   1.888   0.212
13314TIP3   OH239884   3.236   2.706   5.867
13314TIP3    H139885   3.298   2.777   5.879
13314TIP3    H239886   3.157   2.747   5.832
13315TIP3   OH239887   1.410   5.697   3.765
13315TIP3    H139888   1.400   5.639   3.690
13315TIP3    H239889   1.366   5.651   3.837
13316TIP3   OH239890   5.969   3.856   0.218
13316TIP3    H139891   6.058   3.822   0.206
13316TIP3    H239892   5.933   3.802   0.288
13317TIP3   OH239893   1.041   7.490   3.054
13317TIP3    H139894   1.038   7.542   3.135
13317TIP3    H239895   1.098   7.540   2.996
13318TIP3   OH239896   7.738   2.268   6.302
13318TIP3    H139897   7.676   2.224   6.360
13318TIP3    H239898   7.732   2.219   6.220
13319TIP3   OH239899   5.250   3.806   2.529
13319TIP3    H139900   5.241   3.712   2.541
13319TIP3    H239901   5.257   3.841   2.618
13320TIP3   OH239902   3.200   0.854   4.751
13320TIP3    H139903   3.223   0.891   4.837
13320TIP3    H239904   3.216   0.760   4.761
13321TIP3   OH239905   5.507   7.706   4.199
13321TIP3    H139906   5.554   7.700   4.282
13321TIP3    H239907   5.431   7.761   4.219
13322TIP3   OH239908   2.435   4.415   2.384
13322TIP3    H139909   2.478   4.397   2.301
13322TIP3    H239910   2.446   4.509   2.397
13323TIP3   OH239911   3.233   7.248   6.442
13323TIP3    H139912   3.212   7.177   6.382
13323TIP3    H239913   3.192   7.325   6.403
13324TIP3   OH239914   1.987   2.646   3.626
13324TIP3    H139915   2.025   2.607   3.705
13324TIP3    H239916   2.059   2.652   3.564
13325TIP3   OH239917   0.271   4.028   2.047
13325TIP3    H139918   0.356   4.069   2.062
13325TIP3    H239919   0.275   3.945   2.096
13326TIP3   OH239920   0.183   3.058   3.770
13326TIP3    H139921   0.110   2.997   3.785
13326TIP3    H239922   0.150   3.117   3.702
13327TIP3   OH239923   6.544   7.662   5.498
13327TIP3    H139924   6.535   7.623   5.411
13327TIP3    H239925   6.497   7.601   5.555
13328TIP3   OH239926   1.179   1.756   5.113
13328TIP3    H139927   1.156   1.731   5.202
13328TIP3    H239928   1.108   1.721   5.059
13329TIP3   OH239929   4.166   2.416   6.274
13329TIP3    H139930   4.160   2.428   6.369
13329TIP3    H239931   4.079   2.388   6.248
13330TIP3   OH239932   7.504   1.638   6.708
13330TIP3    H139933   7.475   1.561   6.658
13330TIP3    H239934   7.453   1.634   6.788
13331TIP3   OH239935   4.702   3.351   3.078
13331TIP3    H139936   4.632   3.288   3.098
13331TIP3    H239937   4.780   3.297   3.067
13332TIP3   OH239938   4.858   1.640   3.228
13332TIP3    H139939   4.821   1.645   3.140
13332TIP3    H239940   4.952   1.657   3.216
13333TIP3   OH239941   1.948   6.555   3.857
13333TIP3    H139942   2.014   6.496   3.894
13333TIP3    H239943   1.960   6.637   3.904
13334TIP3   OH239944   6.536   1.986   2.087
13334TIP3    H139945   6.563   2.036   2.165
13334TIP3    H239946   6.611   1.929   2.069
13335TIP3   OH239947   2.933   2.923   5.354
13335TIP3    H139948   2.968   2.842   5.390
13335TIP3    H239949   2.857   2.895   5.303
13336TIP3   OH239950   1.261   6.645   1.345
13336TIP3    H139951   1.352   6.630   1.367
13336TIP3    H239952   1.248   6.739   1.359
13337TIP3   OH239953   7.013   2.737   0.634
13337TIP3    H139954   6.948   2.772   0.695
13337TIP3    H239955   6.962   2.694   0.565
13338TIP3   OH239956   5.879   2.627   5.812
13338TIP3    H139957   5.834   2.611   5.895
13338TIP3    H239958   5.830   2.578   5.747
13339TIP3   OH239959   5.201   7.358   1.169
13339TIP3    H139960   5.283   7.308   1.164
13339TIP3    H239961   5.144   7.306   1.226
13340TIP3   OH239962   0.142   4.785   2.679
13340TIP3    H139963   0.139   4.726   2.604
13340TIP3    H239964   0.056   4.829   2.678
13341TIP3   OH239965   7.301   3.208   2.680
13341TIP3    H139966   7.364   3.136   2.680
13341TIP3    H239967   7.295   3.234   2.588
13342TIP3   OH239968   3.986   4.661   2.766
13342TIP3    H139969   3.984   4.584   2.709
13342TIP3    H239970   4.065   4.650   2.818
13343TIP3   OH239971   3.355   6.947   3.623
13343TIP3    H139972   3.372   6.855   3.600
13343TIP3    H239973   3.352   6.992   3.538
13344TIP3   OH239974   1.378   5.616   5.794
13344TIP3    H139975   1.425   5.599   5.712
13344TIP3    H239976   1.368   5.711   5.797
13345TIP3   OH239977   7.683   2.084   4.249
13345TIP3    H139978   7.760   2.092   4.304
13345TIP3    H239979   7.636   2.167   4.261
13346TIP3   OH239980   0.888   3.446   6.772
13346TIP3    H139981   0.841   3.450   6.689
13346TIP3    H239982   0.840   3.506   6.829
13347TIP3   OH239983   3.496   5.767   3.570
13347TIP3    H139984   3.440   5.834   3.530
13347TIP3    H239985   3.489   5.692   3.511
13348TIP3   OH239986   7.485   1.347   6.651
13348TIP3    H139987   7.530   1.266   6.674
13348TIP3    H239988   7.399   1.319   6.620
13349TIP3   OH239989   0.104   1.768   5.276
13349TIP3    H139990   0.083   1.680   5.309
13349TIP3    H239991   0.108   1.757   5.181
13350TIP3   OH239992   0.089   0.858   2.486
13350TIP3    H139993   0.167   0.814   2.518
13350TIP3    H239994   0.046   0.890   2.566
13351TIP3   OH239995   3.358   2.261   4.369
13351TIP3    H139996   3.303   2.220   4.302
13351TIP3    H239997   3.296   2.296   4.433
13352TIP3   OH239998   0.833   3.192   6.535
13352TIP3    H139999   0.764   3.133   6.504
13352TIP3    H240000   0.911   3.136   6.541
13353TIP3   OH240001   1.680   2.078   5.735
13353TIP3    H140002   1.663   2.161   5.690
13353TIP3    H240003   1.696   2.016   5.664
13354TIP3   OH240004   7.096   5.277   4.088
13354TIP3    H140005   7.093   5.366   4.123
13354TIP3    H240006   7.104   5.221   4.165
13355TIP3   OH240007   6.283   7.621   4.755
13355TIP3    H140008   6.341   7.696   4.738
13355TIP3    H240009   6.343   7.546   4.763
13356TIP3   OH240010   2.397   3.808   2.203
13356TIP3    H140011   2.408   3.811   2.108
13356TIP3    H240012   2.421   3.719   2.227
13357TIP3   OH240013   8.245   6.542   1.136
13357TIP3    H140014   8.237   6.637   1.130
13357TIP3    H240015   8.336   6.524   1.109
13358TIP3   OH240016   4.855   6.867   0.394
13358TIP3    H140017   4.879   6.943   0.448
13358TIP3    H240018   4.808   6.904   0.320
13359TIP3   OH240019   3.566   0.329   5.433
13359TIP3    H140020   3.544   0.244   5.394
13359TIP3    H240021   3.622   0.371   5.368
13360TIP3   OH240022   5.691   5.923   2.084
13360TIP3    H140023   5.751   5.976   2.032
13360TIP3    H240024   5.638   5.986   2.132
13361TIP3   OH240025   6.055   2.636   2.931
13361TIP3    H140026   6.042   2.611   3.022
13361TIP3    H240027   5.971   2.671   2.903
13362TIP3   OH240028   2.829   0.396   3.237
13362TIP3    H140029   2.765   0.338   3.278
13362TIP3    H240030   2.820   0.379   3.143
13363TIP3   OH240031   4.986   2.403   4.982
13363TIP3    H140032   5.051   2.346   5.023
13363TIP3    H240033   4.902   2.363   5.005
13364TIP3   OH240034   7.832   1.800   5.084
13364TIP3    H140035   7.867   1.777   5.170
13364TIP3    H240036   7.849   1.723   5.030
13365TIP3   OH240037   5.173   5.626   1.165
13365TIP3    H140038   5.190   5.670   1.082
13365TIP3    H240039   5.143   5.695   1.224
13366TIP3   OH240040   6.552   4.405   0.311
13366TIP3    H140041   6.629   4.438   0.265
13366TIP3    H240042   6.483   4.405   0.244
13367TIP3   OH240043   7.452   4.812   2.343
13367TIP3    H140044   7.529   4.757   2.328
13367TIP3    H240045   7.395   4.758   2.398
13368TIP3   OH240046   4.463   4.196   6.558
13368TIP3    H140047   4.514   4.175   6.479
13368TIP3    H240048   4.410   4.117   6.573
13369TIP3   OH240049   5.038   7.611   4.247
13369TIP3    H140050   5.073   7.700   4.246
13369TIP3    H240051   4.944   7.622   4.240
13370TIP3   OH240052   5.955   0.175   0.272
13370TIP3    H140053   5.911   0.091   0.258
13370TIP3    H240054   5.883   0.238   0.279
13371TIP3   OH240055   5.774   6.098   6.272
13371TIP3    H140056   5.764   6.190   6.297
13371TIP3    H240057   5.868   6.086   6.261
13372TIP3   OH240058   0.283   1.156   5.177
13372TIP3    H140059   0.188   1.151   5.168
13372TIP3    H240060   0.314   1.068   5.156
13373TIP3   OH240061   4.826   1.058   2.476
13373TIP3    H140062   4.913   1.031   2.448
13373TIP3    H240063   4.791   0.982   2.522
13374TIP3   OH240064   0.899   4.472   1.591
13374TIP3    H140065   0.994   4.482   1.603
13374TIP3    H240066   0.864   4.560   1.603
13375TIP3   OH240067   1.219   3.127   0.312
13375TIP3    H140068   1.258   3.129   0.224
13375TIP3    H240069   1.181   3.039   0.319
13376TIP3   OH240070   1.217   0.559   0.388
13376TIP3    H140071   1.274   0.597   0.322
13376TIP3    H240072   1.277   0.524   0.455
13377TIP3   OH240073   1.267   1.182   2.597
13377TIP3    H140074   1.360   1.190   2.577
13377TIP3    H240075   1.264   1.160   2.690
13378TIP3   OH240076   8.124   2.065   4.300
13378TIP3    H140077   8.041   2.052   4.346
13378TIP3    H240078   8.110   2.026   4.213
13379TIP3   OH240079   1.424   2.568   3.625
13379TIP3    H140080   1.419   2.538   3.715
13379TIP3    H240081   1.398   2.493   3.572
13380TIP3   OH240082   0.956   3.142   4.167
13380TIP3    H140083   0.891   3.072   4.157
13380TIP3    H240084   0.916   3.204   4.228
13381TIP3   OH240085   7.553   0.806   5.862
13381TIP3    H140086   7.612   0.875   5.832
13381TIP3    H240087   7.608   0.728   5.869
13382TIP3   OH240088   6.517   7.716   3.795
13382TIP3    H140089   6.589   7.739   3.736
13382TIP3    H240090   6.443   7.700   3.737
13383TIP3   OH240091   2.680   7.330   5.143
13383TIP3    H140092   2.688   7.346   5.237
13383TIP3    H240093   2.718   7.243   5.130
13384TIP3   OH240094   0.495   2.926   1.053
13384TIP3    H140095   0.452   2.960   1.131
13384TIP3    H240096   0.435   2.858   1.021
13385TIP3   OH240097   5.745   4.992   4.300
13385TIP3    H140098   5.752   5.081   4.266
13385TIP3    H240099   5.684   4.999   4.373
13386TIP3   OH240100   6.242   6.776   5.244
13386TIP3    H140101   6.240   6.848   5.307
13386TIP3    H240102   6.183   6.710   5.280
13387TIP3   OH240103   1.015   0.247   4.474
13387TIP3    H140104   0.969   0.182   4.421
13387TIP3    H240105   0.978   0.238   4.561
13388TIP3   OH240106   6.857   7.800   3.129
13388TIP3    H140107   6.798   7.770   3.197
13388TIP3    H240108   6.818   7.768   3.047
13389TIP3   OH240109   7.891   1.079   4.950
13389TIP3    H140110   7.827   1.039   4.891
13389TIP3    H240111   7.853   1.164   4.972
13390TIP3   OH240112   4.407   7.438   6.566
13390TIP3    H140113   4.475   7.449   6.500
13390TIP3    H240114   4.444   7.479   6.645
13391TIP3   OH240115   3.656   4.479   4.338
13391TIP3    H140116   3.655   4.393   4.379
13391TIP3    H240117   3.565   4.495   4.314
13392TIP3   OH240118   6.574   0.277   1.923
13392TIP3    H140119   6.617   0.284   2.008
13392TIP3    H240120   6.644   0.290   1.859
13393TIP3   OH240121   3.706   3.647   6.205
13393TIP3    H140122   3.731   3.632   6.296
13393TIP3    H240123   3.720   3.563   6.162
13394TIP3   OH240124   6.100   7.342   6.573
13394TIP3    H140125   6.093   7.434   6.599
13394TIP3    H240126   6.011   7.316   6.553
13395TIP3   OH240127   6.332   1.997   5.208
13395TIP3    H140128   6.350   2.065   5.143
13395TIP3    H240129   6.316   2.045   5.289
13396TIP3   OH240130   2.254   1.991   5.308
13396TIP3    H140131   2.217   2.052   5.372
13396TIP3    H240132   2.285   2.048   5.237
13397TIP3   OH240133   5.049   1.356   1.094
13397TIP3    H140134   5.116   1.401   1.044
13397TIP3    H240135   4.970   1.409   1.081
13398TIP3   OH240136   8.180   1.023   5.572
13398TIP3    H140137   8.090   1.053   5.557
13398TIP3    H240138   8.220   1.095   5.621
13399TIP3   OH240139   2.195   7.331   4.233
13399TIP3    H140140   2.169   7.342   4.324
13399TIP3    H240141   2.291   7.335   4.234
13400TIP3   OH240142   2.425   1.834   4.398
13400TIP3    H140143   2.505   1.880   4.373
13400TIP3    H240144   2.446   1.796   4.484
13401TIP3   OH240145   7.244   6.088   4.380
13401TIP3    H140146   7.180   6.127   4.440
13401TIP3    H240147   7.254   6.152   4.310
13402TIP3   OH240148   2.008   6.142   2.654
13402TIP3    H140149   2.002   6.074   2.720
13402TIP3    H240150   1.924   6.187   2.656
13403TIP3   OH240151   5.271   4.585   6.725
13403TIP3    H140152   5.308   4.655   6.779
13403TIP3    H240153   5.233   4.631   6.650
13404TIP3   OH240154   0.712   3.012   4.757
13404TIP3    H140155   0.791   3.047   4.717
13404TIP3    H240156   0.743   2.946   4.819
13405TIP3   OH240157   7.074   5.412   0.217
13405TIP3    H140158   7.133   5.461   0.274
13405TIP3    H240159   7.126   5.392   0.139
13406TIP3   OH240160   7.333   0.182   1.970
13406TIP3    H140161   7.301   0.235   1.897
13406TIP3    H240162   7.267   0.115   1.984
13407TIP3   OH240163   6.636   3.231   5.712
13407TIP3    H140164   6.582   3.291   5.661
13407TIP3    H240165   6.574   3.173   5.755
13408TIP3   OH240166   3.052   6.181   1.740
13408TIP3    H140167   3.038   6.228   1.822
13408TIP3    H240168   2.982   6.212   1.682
13409TIP3   OH240169   2.087   4.139   5.961
13409TIP3    H140170   2.050   4.052   5.945
13409TIP3    H240171   2.171   4.122   6.003
13410TIP3   OH240172   4.370   4.440   1.593
13410TIP3    H140173   4.334   4.403   1.674
13410TIP3    H240174   4.297   4.438   1.531
13411TIP3   OH240175   6.978   6.397   6.050
13411TIP3    H140176   6.959   6.419   5.959
13411TIP3    H240177   7.051   6.454   6.074
13412TIP3   OH240178   3.735   2.149   5.454
13412TIP3    H140179   3.650   2.118   5.423
13412TIP3    H240180   3.781   2.069   5.482
13413TIP3   OH240181   2.524   4.943   4.729
13413TIP3    H140182   2.520   4.857   4.771
13413TIP3    H240183   2.433   4.973   4.728
13414TIP3   OH240184   2.864   6.301   3.778
13414TIP3    H140185   2.951   6.329   3.750
13414TIP3    H240186   2.877   6.212   3.811
13415TIP3   OH240187   5.143   1.277   1.783
13415TIP3    H140188   5.128   1.207   1.720
13415TIP3    H240189   5.193   1.342   1.734
13416TIP3   OH240190   2.138   5.888   1.084
13416TIP3    H140191   2.140   5.907   1.178
13416TIP3    H240192   2.190   5.809   1.073
13417TIP3   OH240193   5.054   5.306   3.393
13417TIP3    H140194   4.978   5.326   3.447
13417TIP3    H240195   5.019   5.253   3.322
13418TIP3   OH240196   7.158   0.529   0.859
13418TIP3    H140197   7.156   0.484   0.774
13418TIP3    H240198   7.216   0.603   0.846
13419TIP3   OH240199   1.894   7.357   1.429
13419TIP3    H140200   1.961   7.368   1.496
13419TIP3    H240201   1.854   7.443   1.420
13420TIP3   OH240202   7.035   2.517   5.101
13420TIP3    H140203   6.987   2.445   5.061
13420TIP3    H240204   7.122   2.482   5.119
13421TIP3   OH240205   5.767   6.169   2.653
13421TIP3    H140206   5.740   6.083   2.621
13421TIP3    H240207   5.855   6.155   2.689
13422TIP3   OH240208   6.927   5.299   6.231
13422TIP3    H140209   7.008   5.295   6.282
13422TIP3    H240210   6.915   5.393   6.213
13423TIP3   OH240211   7.985   2.349   1.310
13423TIP3    H140212   8.041   2.326   1.384
13423TIP3    H240213   7.959   2.440   1.328
13424TIP3   OH240214   2.999   0.289   2.579
13424TIP3    H140215   3.085   0.249   2.594
13424TIP3    H240216   2.943   0.217   2.553
13425TIP3   OH240217   1.335   1.638   1.654
13425TIP3    H140218   1.399   1.567   1.651
13425TIP3    H240219   1.343   1.673   1.743
13426TIP3   OH240220   5.328   0.756   2.492
13426TIP3    H140221   5.250   0.705   2.511
13426TIP3    H240222   5.385   0.743   2.568
13427TIP3   OH240223   2.050   1.399   5.913
13427TIP3    H140224   1.999   1.326   5.876
13427TIP3    H240225   2.054   1.381   6.007
13428TIP3   OH240226   2.592   1.037   2.318
13428TIP3    H140227   2.607   0.956   2.367
13428TIP3    H240228   2.668   1.045   2.261
13429TIP3   OH240229   0.693   7.787   0.374
13429TIP3    H140230   0.621   7.844   0.347
13429TIP3    H240231   0.759   7.847   0.409
13430TIP3   OH240232   3.348   6.656   1.097
13430TIP3    H140233   3.398   6.583   1.135
13430TIP3    H240234   3.396   6.734   1.123
13431TIP3   OH240235   0.479   5.083   2.149
13431TIP3    H140236   0.555   5.032   2.177
13431TIP3    H240237   0.513   5.144   2.084
13432TIP3   OH240238   3.927   1.441   1.579
13432TIP3    H140239   3.912   1.506   1.511
13432TIP3    H240240   4.009   1.468   1.620
13433TIP3   OH240241   7.073   4.748   2.354
13433TIP3    H140242   7.088   4.823   2.412
13433TIP3    H240243   7.065   4.786   2.267
13434TIP3   OH240244   4.020   6.720   6.692
13434TIP3    H140245   3.935   6.718   6.737
13434TIP3    H240246   4.030   6.632   6.656
13435TIP3   OH240247   0.015   3.740   4.148
13435TIP3    H140248  -0.062   3.796   4.150
13435TIP3    H240249  -0.001   3.680   4.075
13436TIP3   OH240250   4.858   2.263   2.049
13436TIP3    H140251   4.849   2.233   2.140
13436TIP3    H240252   4.769   2.260   2.014
13437TIP3   OH240253   7.644   1.890   5.950
13437TIP3    H140254   7.553   1.874   5.972
13437TIP3    H240255   7.658   1.841   5.868
13438TIP3   OH240256   5.416   6.456   6.061
13438TIP3    H140257   5.344   6.406   6.023
13438TIP3    H240258   5.419   6.429   6.152
13439TIP3   OH240259   7.259   2.295   2.846
13439TIP3    H140260   7.277   2.388   2.830
13439TIP3    H240261   7.335   2.264   2.895
13440TIP3   OH240262   2.566   5.923   4.089
13440TIP3    H140263   2.504   5.917   4.016
13440TIP3    H240264   2.641   5.870   4.062
13441TIP3   OH240265   1.312   7.647   1.800
13441TIP3    H140266   1.319   7.618   1.891
13441TIP3    H240267   1.357   7.732   1.798
13442TIP3   OH240268   2.932   3.384   2.875
13442TIP3    H140269   2.956   3.437   2.951
13442TIP3    H240270   2.997   3.407   2.808
13443TIP3   OH240271   5.229   3.178   2.059
13443TIP3    H140272   5.287   3.171   2.136
13443TIP3    H240273   5.289   3.189   1.985
13444TIP3   OH240274   5.728   1.288   3.180
13444TIP3    H140275   5.766   1.299   3.092
13444TIP3    H240276   5.680   1.370   3.195
13445TIP3   OH240277   5.122   1.261   1.352
13445TIP3    H140278   5.040   1.213   1.367
13445TIP3    H240279   5.101   1.322   1.281
13446TIP3   OH240280   7.241   5.218   1.836
13446TIP3    H140281   7.297   5.141   1.846
13446TIP3    H240282   7.214   5.216   1.744
13447TIP3   OH240283   4.927   1.739   0.847
13447TIP3    H140284   4.900   1.693   0.926
13447TIP3    H240285   4.883   1.824   0.852
13448TIP3   OH240286   0.153   1.165   4.269
13448TIP3    H140287   0.179   1.077   4.297
13448TIP3    H240288   0.237   1.209   4.251
13449TIP3   OH240289   4.862   5.546   1.317
13449TIP3    H140290   4.889   5.632   1.286
13449TIP3    H240291   4.850   5.494   1.237
13450TIP3   OH240292   0.883   5.925   2.831
13450TIP3    H140293   0.927   5.857   2.881
13450TIP3    H240294   0.799   5.886   2.806
13451TIP3   OH240295   2.633   7.499   0.522
13451TIP3    H140296   2.567   7.472   0.458
13451TIP3    H240297   2.685   7.421   0.538
13452TIP3   OH240298   5.357   5.019   2.840
13452TIP3    H140299   5.357   4.959   2.914
13452TIP3    H240300   5.405   5.095   2.870
13453TIP3   OH240301   3.033   2.864   1.725
13453TIP3    H140302   3.014   2.888   1.634
13453TIP3    H240303   3.057   2.771   1.720
13454TIP3   OH240304   8.001   7.297   2.521
13454TIP3    H140305   8.031   7.234   2.455
13454TIP3    H240306   8.073   7.303   2.583
13455TIP3   OH240307   3.806   2.237   2.061
13455TIP3    H140308   3.739   2.206   2.122
13455TIP3    H240309   3.776   2.324   2.033
13456TIP3   OH240310   4.994   5.448   2.435
13456TIP3    H140311   5.024   5.534   2.404
13456TIP3    H240312   5.005   5.391   2.359
13457TIP3   OH240313   0.224   7.134   5.595
13457TIP3    H140314   0.190   7.087   5.519
13457TIP3    H240315   0.318   7.138   5.580
13458TIP3   OH240316   2.341   2.292   2.229
13458TIP3    H140317   2.270   2.340   2.187
13458TIP3    H240318   2.405   2.360   2.252
13459TIP3   OH240319   5.928   2.292   4.185
13459TIP3    H140320   5.907   2.223   4.248
13459TIP3    H240321   5.911   2.373   4.233
13460TIP3   OH240322   5.007   6.183   3.918
13460TIP3    H140323   4.994   6.247   3.848
13460TIP3    H240324   5.091   6.142   3.898
13461TIP3   OH240325   2.845   3.374   6.317
13461TIP3    H140326   2.927   3.400   6.359
13461TIP3    H240327   2.793   3.455   6.314
13462TIP3   OH240328   4.850   1.000   2.183
13462TIP3    H140329   4.847   1.075   2.242
13462TIP3    H240330   4.923   1.019   2.124
13463TIP3   OH240331   6.313   3.108   3.393
13463TIP3    H140332   6.266   3.027   3.411
13463TIP3    H240333   6.279   3.170   3.457
13464TIP3   OH240334   5.727   5.055   5.003
13464TIP3    H140335   5.801   5.080   4.947
13464TIP3    H240336   5.728   4.960   5.003
13465TIP3   OH240337   1.780   7.765   4.563
13465TIP3    H140338   1.699   7.721   4.586
13465TIP3    H240339   1.797   7.824   4.637
13466TIP3   OH240340   6.648   6.173   1.809
13466TIP3    H140341   6.568   6.182   1.758
13466TIP3    H240342   6.717   6.204   1.750
13467TIP3   OH240343   6.049   3.028   2.699
13467TIP3    H140344   6.065   3.095   2.632
13467TIP3    H240345   6.009   3.077   2.771
13468TIP3   OH240346   7.732   4.298   2.323
13468TIP3    H140347   7.745   4.222   2.267
13468TIP3    H240348   7.765   4.271   2.409
13469TIP3   OH240349   4.338   3.436   0.796
13469TIP3    H140350   4.357   3.368   0.860
13469TIP3    H240351   4.405   3.503   0.809
13470TIP3   OH240352   5.571   0.482   1.269
13470TIP3    H140353   5.514   0.407   1.287
13470TIP3    H240354   5.539   0.550   1.327
13471TIP3   OH240355   6.568   3.688   6.665
13471TIP3    H140356   6.539   3.599   6.648
13471TIP3    H240357   6.593   3.688   6.757
13472TIP3   OH240358   3.818   4.814   4.785
13472TIP3    H140359   3.748   4.795   4.722
13472TIP3    H240360   3.779   4.794   4.870
13473TIP3   OH240361   1.523   3.926   5.995
13473TIP3    H140362   1.574   3.977   5.932
13473TIP3    H240363   1.443   3.902   5.949
13474TIP3   OH240364   1.670   5.636   4.518
13474TIP3    H140365   1.677   5.621   4.612
13474TIP3    H240366   1.660   5.730   4.508
13475TIP3   OH240367   4.960   7.270   5.256
13475TIP3    H140368   4.952   7.194   5.198
13475TIP3    H240369   4.967   7.233   5.344
13476TIP3   OH240370   7.026   7.244   3.382
13476TIP3    H140371   7.007   7.337   3.388
13476TIP3    H240372   7.115   7.240   3.347
13477TIP3   OH240373   4.161   2.913   2.008
13477TIP3    H140374   4.255   2.898   2.024
13477TIP3    H240375   4.137   2.844   1.946
13478TIP3   OH240376   5.300   2.974   6.251
13478TIP3    H140377   5.319   2.935   6.166
13478TIP3    H240378   5.375   3.032   6.268
13479TIP3   OH240379   2.848   5.235   5.175
13479TIP3    H140380   2.887   5.259   5.091
13479TIP3    H240381   2.868   5.309   5.233
13480TIP3   OH240382   2.734   5.539   1.017
13480TIP3    H140383   2.664   5.603   1.003
13480TIP3    H240384   2.724   5.476   0.946
13481TIP3   OH240385   4.539   6.690   5.470
13481TIP3    H140386   4.483   6.648   5.404
13481TIP3    H240387   4.507   6.655   5.553
13482TIP3   OH240388   7.421   3.951   0.226
13482TIP3    H140389   7.332   3.981   0.205
13482TIP3    H240390   7.444   3.890   0.155
13483TIP3   OH240391   7.691   5.963   1.152
13483TIP3    H140392   7.645   5.899   1.098
13483TIP3    H240393   7.687   6.045   1.102
13484TIP3   OH240394   3.175   0.851   0.011
13484TIP3    H140395   3.185   0.843  -0.084
13484TIP3    H240396   3.101   0.794   0.032
13485TIP3   OH240397   3.474   5.230   5.136
13485TIP3    H140398   3.488   5.225   5.231
13485TIP3    H240399   3.414   5.158   5.117
13486TIP3   OH240400   3.691   2.915   3.666
13486TIP3    H140401   3.745   2.868   3.603
13486TIP3    H240402   3.627   2.962   3.612
13487TIP3   OH240403   7.842   6.507   1.177
13487TIP3    H140404   7.818   6.532   1.087
13487TIP3    H240405   7.824   6.585   1.229
13488TIP3   OH240406   0.138   3.401   1.179
13488TIP3    H140407   0.078   3.476   1.177
13488TIP3    H240408   0.174   3.397   1.090
13489TIP3   OH240409   4.947   2.207   5.460
13489TIP3    H140410   4.974   2.280   5.404
13489TIP3    H240411   4.982   2.229   5.547
13490TIP3   OH240412   5.946   4.477   2.902
13490TIP3    H140413   6.010   4.517   2.961
13490TIP3    H240414   5.862   4.516   2.927
13491TIP3   OH240415   3.515   0.653   4.915
13491TIP3    H140416   3.522   0.631   4.822
13491TIP3    H240417   3.523   0.569   4.960
13492TIP3   OH240418   7.675   2.908   1.360
13492TIP3    H140419   7.611   2.861   1.414
13492TIP3    H240420   7.691   2.990   1.407
13493TIP3   OH240421   3.581   3.461   4.414
13493TIP3    H140422   3.524   3.517   4.468
13493TIP3    H240423   3.618   3.520   4.349
13494TIP3   OH240424   1.065   5.281   3.728
13494TIP3    H140425   1.080   5.241   3.813
13494TIP3    H240426   1.113   5.226   3.666
13495TIP3   OH240427   0.847   5.428   1.522
13495TIP3    H140428   0.779   5.383   1.472
13495TIP3    H240429   0.853   5.514   1.482
13496TIP3   OH240430   5.350   3.151   0.212
13496TIP3    H140431   5.423   3.124   0.268
13496TIP3    H240432   5.290   3.077   0.214
13497TIP3   OH240433   1.456   5.011   6.463
13497TIP3    H140434   1.415   5.095   6.440
13497TIP3    H240435   1.510   4.990   6.387
13498TIP3   OH240436   6.986   3.342   4.406
13498TIP3    H140437   7.081   3.352   4.399
13498TIP3    H240438   6.951   3.430   4.393
13499TIP3   OH240439   2.487   3.224   1.055
13499TIP3    H140440   2.425   3.282   1.099
13499TIP3    H240441   2.471   3.238   0.962
13500TIP3   OH240442   4.740   1.071   5.194
13500TIP3    H140443   4.748   0.979   5.219
13500TIP3    H240444   4.704   1.069   5.106
13501TIP3   OH240445   3.638   3.533   5.771
13501TIP3    H140446   3.695   3.511   5.845
13501TIP3    H240447   3.677   3.487   5.696
13502TIP3   OH240448   4.073   5.405   5.363
13502TIP3    H140449   4.046   5.484   5.409
13502TIP3    H240450   4.110   5.437   5.281
13503TIP3   OH240451   5.878   5.819   2.325
13503TIP3    H140452   5.950   5.779   2.374
13503TIP3    H240453   5.848   5.751   2.266
13504TIP3   OH240454   5.926   7.280   4.895
13504TIP3    H140455   6.010   7.237   4.911
13504TIP3    H240456   5.874   7.214   4.849
13505TIP3   OH240457   0.841   5.359   1.000
13505TIP3    H140458   0.755   5.394   0.978
13505TIP3    H240459   0.826   5.308   1.080
13506TIP3   OH240460   3.192   5.519   6.449
13506TIP3    H140461   3.228   5.430   6.454
13506TIP3    H240462   3.211   5.557   6.534
13507TIP3   OH240463   6.391   5.112   5.783
13507TIP3    H140464   6.459   5.176   5.807
13507TIP3    H240465   6.358   5.143   5.699
13508TIP3   OH240466   0.371   2.878   3.776
13508TIP3    H140467   0.316   2.955   3.770
13508TIP3    H240468   0.459   2.910   3.757
13509TIP3   OH240469   7.866   6.116   2.308
13509TIP3    H140470   7.874   6.118   2.213
13509TIP3    H240471   7.772   6.115   2.324
13510TIP3   OH240472   3.871   4.885   5.982
13510TIP3    H140473   3.929   4.960   5.992
13510TIP3    H240474   3.800   4.900   6.045
13511TIP3   OH240475   2.621   1.681   5.288
13511TIP3    H140476   2.619   1.597   5.334
13511TIP3    H240477   2.672   1.663   5.209
13512TIP3   OH240478   4.033   4.648   4.886
13512TIP3    H140479   3.971   4.714   4.853
13512TIP3    H240480   4.053   4.594   4.810
13513TIP3   OH240481   2.318   7.419   3.855
13513TIP3    H140482   2.229   7.420   3.893
13513TIP3    H240483   2.325   7.332   3.815
13514TIP3   OH240484   8.113   7.850   0.918
13514TIP3    H140485   8.109   7.865   1.012
13514TIP3    H240486   8.130   7.756   0.909
13515TIP3   OH240487   4.976   6.173   4.227
13515TIP3    H140488   4.936   6.173   4.140
13515TIP3    H240489   4.947   6.256   4.266
13516TIP3   OH240490   4.994   6.448   6.040
13516TIP3    H140491   5.005   6.543   6.033
13516TIP3    H240492   4.921   6.428   5.982
13517TIP3   OH240493   0.066   5.231   2.849
13517TIP3    H140494  -0.011   5.188   2.811
13517TIP3    H240495   0.136   5.166   2.840
13518TIP3   OH240496   6.024   5.313   0.010
13518TIP3    H140497   6.054   5.239   0.063
13518TIP3    H240498   5.984   5.373   0.073
13519TIP3   OH240499   2.771   1.529   5.928
13519TIP3    H140500   2.720   1.544   5.849
13519TIP3    H240501   2.757   1.436   5.948
13520TIP3   OH240502   5.231   6.431   4.466
13520TIP3    H140503   5.300   6.402   4.406
13520TIP3    H240504   5.150   6.421   4.415
13521TIP3   OH240505   0.835   0.737   6.369
13521TIP3    H140506   0.878   0.813   6.407
13521TIP3    H240507   0.780   0.772   6.299
13522TIP3   OH240508   2.088   5.685   1.470
13522TIP3    H140509   2.069   5.697   1.377
13522TIP3    H240510   2.063   5.594   1.487
13523TIP3   OH240511   7.331   5.622   4.078
13523TIP3    H140512   7.309   5.548   4.134
13523TIP3    H240513   7.309   5.699   4.131
13524TIP3   OH240514   6.047   7.514   2.983
13524TIP3    H140515   6.053   7.481   2.893
13524TIP3    H240516   6.095   7.596   2.982
13525TIP3   OH240517   2.204   0.623   4.789
13525TIP3    H140518   2.140   0.644   4.857
13525TIP3    H240519   2.238   0.708   4.762
13526TIP3   OH240520   4.889   0.722   1.735
13526TIP3    H140521   4.884   0.678   1.820
13526TIP3    H240522   4.964   0.781   1.744
13527TIP3   OH240523   3.814   3.628   4.311
13527TIP3    H140524   3.873   3.693   4.272
13527TIP3    H240525   3.868   3.579   4.373
13528TIP3   OH240526   6.325   6.774   6.575
13528TIP3    H140527   6.377   6.854   6.576
13528TIP3    H240528   6.236   6.802   6.596
13529TIP3   OH240529   0.106   0.299   1.213
13529TIP3    H140530   0.069   0.384   1.189
13529TIP3    H240531   0.184   0.320   1.264
13530TIP3   OH240532   7.804   6.914   5.915
13530TIP3    H140533   7.709   6.902   5.926
13530TIP3    H240534   7.814   7.006   5.888
13531TIP3   OH240535   3.445   6.686   3.551
13531TIP3    H140536   3.436   6.640   3.467
13531TIP3    H240537   3.417   6.623   3.617
13532TIP3   OH240538   4.839   7.298   4.066
13532TIP3    H140539   4.869   7.327   4.152
13532TIP3    H240540   4.804   7.210   4.081
13533TIP3   OH240541   6.866   4.216   3.988
13533TIP3    H140542   6.816   4.204   3.908
13533TIP3    H240543   6.950   4.173   3.971
13534TIP3   OH240544   7.305   3.860   5.171
13534TIP3    H140545   7.237   3.924   5.191
13534TIP3    H240546   7.364   3.905   5.111
13535TIP3   OH240547   7.752   6.940   6.222
13535TIP3    H140548   7.673   6.986   6.250
13535TIP3    H240549   7.743   6.933   6.127
13536TIP3   OH240550   1.148   1.540   1.399
13536TIP3    H140551   1.097   1.529   1.480
13536TIP3    H240552   1.098   1.604   1.349
13537TIP3   OH240553   4.435   7.494   5.512
13537TIP3    H140554   4.473   7.407   5.499
13537TIP3    H240555   4.347   7.477   5.547
13538TIP3   OH240556   4.590   6.492   4.464
13538TIP3    H140557   4.629   6.546   4.395
13538TIP3    H240558   4.497   6.514   4.463
13539TIP3   OH240559   0.046   4.170   4.596
13539TIP3    H140560   0.047   4.100   4.662
13539TIP3    H240561   0.131   4.214   4.606
13540TIP3   OH240562   2.503   0.161   4.398
13540TIP3    H140563   2.546   0.204   4.323
13540TIP3    H240564   2.518   0.068   4.383
13541TIP3   OH240565   8.118   3.425   4.172
13541TIP3    H140566   8.141   3.341   4.134
13541TIP3    H240567   8.161   3.426   4.257
13542TIP3   OH240568   6.337   2.917   6.696
13542TIP3    H140569   6.284   2.951   6.624
13542TIP3    H240570   6.316   2.823   6.700
13543TIP3   OH240571   3.265   1.003   6.125
13543TIP3    H140572   3.273   1.047   6.041
13543TIP3    H240573   3.173   1.014   6.149
13544TIP3   OH240574   6.662   3.468   6.458
13544TIP3    H140575   6.731   3.421   6.411
13544TIP3    H240576   6.692   3.559   6.460
13545TIP3   OH240577   7.730   3.788   5.037
13545TIP3    H140578   7.660   3.739   4.994
13545TIP3    H240579   7.694   3.814   5.122
13546TIP3   OH240580   6.413   1.036   5.084
13546TIP3    H140581   6.427   1.112   5.140
13546TIP3    H240582   6.497   1.023   5.040
13547TIP3   OH240583   5.284   3.651   0.513
13547TIP3    H140584   5.230   3.574   0.529
13547TIP3    H240585   5.244   3.693   0.437
13548TIP3   OH240586   0.419   3.995   6.656
13548TIP3    H140587   0.500   3.944   6.653
13548TIP3    H240588   0.391   4.000   6.565
13549TIP3   OH240589   4.411   2.857   2.050
13549TIP3    H140590   4.396   2.789   2.115
13549TIP3    H240591   4.504   2.851   2.028
13550TIP3   OH240592   3.504   0.901   1.673
13550TIP3    H140593   3.585   0.851   1.660
13550TIP3    H240594   3.529   0.974   1.729
13551TIP3   OH240595   1.380   5.747   2.527
13551TIP3    H140596   1.401   5.701   2.446
13551TIP3    H240597   1.330   5.824   2.498
13552TIP3   OH240598   8.135   6.870   6.452
13552TIP3    H140599   8.067   6.854   6.386
13552TIP3    H240600   8.179   6.786   6.462
13553TIP3   OH240601   6.962   1.695   5.740
13553TIP3    H140602   6.906   1.752   5.792
13553TIP3    H240603   6.908   1.618   5.722
13554TIP3   OH240604   7.399   4.379   6.270
13554TIP3    H140605   7.365   4.301   6.314
13554TIP3    H240606   7.321   4.431   6.251
13555TIP3   OH240607   7.908   5.463   0.781
13555TIP3    H140608   7.989   5.494   0.740
13555TIP3    H240609   7.917   5.368   0.784
13556TIP3   OH240610   0.951   6.113   2.058
13556TIP3    H140611   0.873   6.167   2.053
13556TIP3    H240612   1.023   6.176   2.063
13557TIP3   OH240613   2.088   0.514   3.810
13557TIP3    H140614   2.106   0.472   3.726
13557TIP3    H240615   1.994   0.535   3.807
13558TIP3   OH240616   4.925   0.186   1.677
13558TIP3    H140617   4.865   0.242   1.627
13558TIP3    H240618   4.980   0.145   1.611
13559TIP3   OH240619   4.643   6.392   6.635
13559TIP3    H140620   4.691   6.308   6.632
13559TIP3    H240621   4.699   6.449   6.686
13560TIP3   OH240622   4.051   4.094   4.056
13560TIP3    H140623   3.998   4.028   4.013
13560TIP3    H240624   4.139   4.057   4.059
13561TIP3   OH240625   8.138   6.115   6.464
13561TIP3    H140626   8.214   6.152   6.508
13561TIP3    H240627   8.157   6.126   6.371
13562TIP3   OH240628   3.515   7.690   4.804
13562TIP3    H140629   3.597   7.679   4.851
13562TIP3    H240630   3.493   7.602   4.773
13563TIP3   OH240631   7.539   7.325   2.909
13563TIP3    H140632   7.464   7.384   2.916
13563TIP3    H240633   7.615   7.382   2.924
13564TIP3   OH240634   5.492   4.356   2.781
13564TIP3    H140635   5.520   4.275   2.739
13564TIP3    H240636   5.484   4.419   2.710
13565TIP3   OH240637   5.083   1.880   2.001
13565TIP3    H140638   5.151   1.902   2.066
13565TIP3    H240639   5.065   1.962   1.956
13566TIP3   OH240640   1.022   1.902   5.375
13566TIP3    H140641   1.105   1.904   5.423
13566TIP3    H240642   0.976   1.981   5.403
13567TIP3   OH240643   0.871   2.869   5.856
13567TIP3    H140644   0.906   2.866   5.945
13567TIP3    H240645   0.860   2.776   5.832
13568TIP3   OH240646   4.631   6.259   4.871
13568TIP3    H140647   4.556   6.282   4.926
13568TIP3    H240648   4.703   6.312   4.905
13569TIP3   OH240649   1.604   4.558   6.174
13569TIP3    H140650   1.512   4.569   6.200
13569TIP3    H240651   1.625   4.638   6.126
13570TIP3   OH240652   5.242   7.119   1.962
13570TIP3    H140653   5.269   7.207   1.937
13570TIP3    H240654   5.251   7.068   1.881
13571TIP3   OH240655   3.047   2.183   3.259
13571TIP3    H140656   3.070   2.199   3.167
13571TIP3    H240657   3.097   2.249   3.307
13572TIP3   OH240658   1.153   7.540   6.536
13572TIP3    H140659   1.174   7.598   6.609
13572TIP3    H240660   1.084   7.483   6.569
13573TIP3   OH240661   8.295   5.895   6.113
13573TIP3    H140662   8.307   5.987   6.139
13573TIP3    H240663   8.209   5.872   6.146
13574TIP3   OH240664   4.196   4.700   2.983
13574TIP3    H140665   4.258   4.771   2.971
13574TIP3    H240666   4.247   4.631   3.027
13575TIP3   OH240667   5.826   6.384   1.298
13575TIP3    H140668   5.784   6.309   1.256
13575TIP3    H240669   5.902   6.347   1.342
13576TIP3   OH240670   1.627   5.138   2.419
13576TIP3    H140671   1.610   5.175   2.506
13576TIP3    H240672   1.722   5.146   2.408
13577TIP3   OH240673   4.077   1.921   1.899
13577TIP3    H140674   4.023   1.874   1.963
13577TIP3    H240675   4.164   1.884   1.909
13578TIP3   OH240676   0.494   3.573   1.743
13578TIP3    H140677   0.574   3.625   1.749
13578TIP3    H240678   0.427   3.635   1.715
13579TIP3   OH240679   1.342   2.975   6.609
13579TIP3    H140680   1.317   2.960   6.518
13579TIP3    H240681   1.375   2.890   6.640
13580TIP3   OH240682   3.029   5.993   4.827
13580TIP3    H140683   2.975   6.030   4.758
13580TIP3    H240684   3.039   5.901   4.803
13581TIP3   OH240685   7.396   0.008   4.454
13581TIP3    H140686   7.383   0.083   4.395
13581TIP3    H240687   7.415   0.048   4.539
13582TIP3   OH240688   2.611   4.611   2.213
13582TIP3    H140689   2.556   4.689   2.203
13582TIP3    H240690   2.617   4.575   2.124
13583TIP3   OH240691   3.847   6.824   1.640
13583TIP3    H140692   3.835   6.762   1.569
13583TIP3    H240693   3.834   6.773   1.720
13584TIP3   OH240694   1.282   4.907   5.521
13584TIP3    H140695   1.304   4.972   5.454
13584TIP3    H240696   1.192   4.927   5.545
13585TIP3   OH240697   6.431   5.846   2.350
13585TIP3    H140698   6.505   5.886   2.305
13585TIP3    H240699   6.436   5.753   2.326
13586TIP3   OH240700   4.597   2.305   4.159
13586TIP3    H140701   4.621   2.241   4.091
13586TIP3    H240702   4.667   2.299   4.223
13587TIP3   OH240703   3.838   2.681   6.243
13587TIP3    H140704   3.871   2.670   6.333
13587TIP3    H240705   3.868   2.768   6.218
13588TIP3   OH240706   5.836   2.202   2.855
13588TIP3    H140707   5.903   2.140   2.826
13588TIP3    H240708   5.771   2.149   2.900
13589TIP3   OH240709   4.935   3.024   5.907
13589TIP3    H140710   5.005   2.961   5.890
13589TIP3    H240711   4.871   2.977   5.959
13590TIP3   OH240712   3.048   3.870   6.517
13590TIP3    H140713   2.974   3.812   6.536
13590TIP3    H240714   3.011   3.958   6.520
13591TIP3   OH240715   3.119   0.800   3.151
13591TIP3    H140716   3.131   0.770   3.061
13591TIP3    H240717   3.123   0.720   3.204
13592TIP3   OH240718   3.446   5.074   3.551
13592TIP3    H140719   3.399   5.041   3.475
13592TIP3    H240720   3.448   5.001   3.613
13593TIP3   OH240721   6.067   5.521   2.638
13593TIP3    H140722   5.975   5.496   2.627
13593TIP3    H240723   6.089   5.494   2.728
13594TIP3   OH240724   1.501   2.872   2.429
13594TIP3    H140725   1.563   2.823   2.374
13594TIP3    H240726   1.553   2.942   2.468
13595TIP3   OH240727   1.311   7.376   0.744
13595TIP3    H140728   1.375   7.433   0.787
13595TIP3    H240729   1.348   7.288   0.749
13596TIP3   OH240730   4.890   0.306   5.711
13596TIP3    H140731   4.883   0.320   5.617
13596TIP3    H240732   4.804   0.332   5.746
13597TIP3   OH240733   7.160   4.514   6.190
13597TIP3    H140734   7.096   4.543   6.254
13597TIP3    H240735   7.109   4.497   6.111
13598TIP3   OH240736   6.570   0.522   0.529
13598TIP3    H140737   6.476   0.517   0.511
13598TIP3    H240738   6.599   0.430   0.527
13599TIP3   OH240739   3.469   6.680   6.086
13599TIP3    H140740   3.530   6.703   6.016
13599TIP3    H240741   3.515   6.612   6.136
13600TIP3   OH240742   2.944   4.390   6.606
13600TIP3    H140743   2.859   4.425   6.578
13600TIP3    H240744   3.008   4.446   6.564
13601TIP3   OH240745   1.026   5.308   2.167
13601TIP3    H140746   0.973   5.307   2.087
13601TIP3    H240747   1.078   5.388   2.159
13602TIP3   OH240748   5.719   4.994   1.798
13602TIP3    H140749   5.671   5.067   1.759
13602TIP3    H240750   5.742   5.026   1.886
13603TIP3   OH240751   8.086   2.373   0.666
13603TIP3    H140752   8.058   2.284   0.683
13603TIP3    H240753   8.182   2.367   0.659
13604TIP3   OH240754   0.165   3.941   5.757
13604TIP3    H140755   0.211   3.935   5.673
13604TIP3    H240756   0.090   3.883   5.748
13605TIP3   OH240757   4.708   4.310   0.366
13605TIP3    H140758   4.753   4.391   0.339
13605TIP3    H240759   4.675   4.273   0.284
13606TIP3   OH240760   4.557   4.742   0.305
13606TIP3    H140761   4.610   4.709   0.378
13606TIP3    H240762   4.516   4.664   0.268
13607TIP3   OH240763   1.712   4.562   5.511
13607TIP3    H140764   1.630   4.606   5.532
13607TIP3    H240765   1.779   4.629   5.527
13608TIP3   OH240766   0.970   3.023   3.687
13608TIP3    H140767   0.987   3.117   3.699
13608TIP3    H240768   0.884   3.009   3.726
13609TIP3   OH240769   2.330   1.096   2.587
13609TIP3    H140770   2.350   1.095   2.493
13609TIP3    H240771   2.410   1.065   2.629
13610TIP3   OH240772   0.236   0.124   1.644
13610TIP3    H140773   0.236   0.057   1.712
13610TIP3    H240774   0.148   0.161   1.647
13611TIP3   OH240775   1.982   7.641   5.550
13611TIP3    H140776   1.981   7.546   5.555
13611TIP3    H240777   1.901   7.664   5.504
13612TIP3   OH240778   3.582   7.784   2.063
13612TIP3    H140779   3.605   7.845   1.992
13612TIP3    H240780   3.505   7.738   2.030
13613TIP3   OH240781   7.389   3.952   1.450
13613TIP3    H140782   7.388   4.010   1.375
13613TIP3    H240783   7.445   3.879   1.423
13614TIP3   OH240784   4.752   7.520   3.788
13614TIP3    H140785   4.842   7.548   3.806
13614TIP3    H240786   4.730   7.464   3.863
13615TIP3   OH240787   4.489   5.988   2.562
13615TIP3    H140788   4.566   6.037   2.591
13615TIP3    H240789   4.469   6.023   2.475
13616TIP3   OH240790   4.167   1.756   5.380
13616TIP3    H140791   4.187   1.755   5.473
13616TIP3    H240792   4.212   1.680   5.344
13617TIP3   OH240793   3.900   2.070   4.642
13617TIP3    H140794   3.862   2.158   4.643
13617TIP3    H240795   3.829   2.013   4.671
13618TIP3   OH240796   6.805   0.959   6.147
13618TIP3    H140797   6.772   0.962   6.058
13618TIP3    H240798   6.803   0.866   6.170
13619TIP3   OH240799   6.314   2.054   6.599
13619TIP3    H140800   6.284   2.056   6.690
13619TIP3    H240801   6.300   1.963   6.572
13620TIP3   OH240802   7.738   1.867   6.750
13620TIP3    H140803   7.688   1.841   6.673
13620TIP3    H240804   7.824   1.826   6.739
13621TIP3   OH240805   6.809   4.699   5.670
13621TIP3    H140806   6.896   4.679   5.703
13621TIP3    H240807   6.796   4.792   5.691
13622TIP3   OH240808   0.944   6.506   6.360
13622TIP3    H140809   0.970   6.550   6.279
13622TIP3    H240810   0.992   6.423   6.359
13623TIP3   OH240811   7.957   2.886   1.481
13623TIP3    H140812   7.897   2.827   1.527
13623TIP3    H240813   7.941   2.972   1.520
13624TIP3   OH240814   5.899   4.729   3.104
13624TIP3    H140815   5.983   4.720   3.149
13624TIP3    H240816   5.923   4.757   3.015
13625TIP3   OH240817   2.410   7.073   6.529
13625TIP3    H140818   2.472   7.121   6.584
13625TIP3    H240819   2.452   6.988   6.515
13626TIP3   OH240820   3.542   6.234   1.712
13626TIP3    H140821   3.517   6.144   1.731
13626TIP3    H240822   3.603   6.227   1.639
13627TIP3   OH240823   5.237   5.943   3.640
13627TIP3    H140824   5.283   5.859   3.636
13627TIP3    H240825   5.237   5.974   3.549
13628TIP3   OH240826   6.222   0.503   5.906
13628TIP3    H140827   6.166   0.576   5.880
13628TIP3    H240828   6.311   0.536   5.896
13629TIP3   OH240829   6.796   4.768   2.477
13629TIP3    H140830   6.871   4.734   2.428
13629TIP3    H240831   6.814   4.862   2.486
13630TIP3   OH240832   3.134   3.204   6.621
13630TIP3    H140833   3.120   3.131   6.560
13630TIP3    H240834   3.103   3.170   6.705
13631TIP3   OH240835   4.066   1.483   5.702
13631TIP3    H140836   4.099   1.394   5.690
13631TIP3    H240837   4.096   1.508   5.789
13632TIP3   OH240838   4.892   1.667   3.512
13632TIP3    H140839   4.898   1.632   3.423
13632TIP3    H240840   4.798   1.678   3.527
13633TIP3   OH240841   7.657   0.267   1.746
13633TIP3    H140842   7.742   0.267   1.791
13633TIP3    H240843   7.604   0.205   1.796
13634TIP3   OH240844   5.048   1.970   0.313
13634TIP3    H140845   5.048   1.916   0.393
13634TIP3    H240846   4.990   2.043   0.334
13635TIP3   OH240847   2.421   2.668   2.933
13635TIP3    H140848   2.484   2.634   2.996
13635TIP3    H240849   2.391   2.751   2.971
13636TIP3   OH240850   2.787   4.186   2.922
13636TIP3    H140851   2.839   4.217   2.848
13636TIP3    H240852   2.764   4.096   2.899
13637TIP3   OH240853   6.947   1.195   2.326
13637TIP3    H140854   6.930   1.125   2.389
13637TIP3    H240855   7.038   1.182   2.300
13638TIP3   OH240856   2.175   2.312   2.626
13638TIP3    H140857   2.228   2.391   2.632
13638TIP3    H240858   2.233   2.246   2.588
13639TIP3   OH240859   7.232   4.920   4.909
13639TIP3    H140860   7.328   4.914   4.907
13639TIP3    H240861   7.212   4.962   4.992
13640TIP3   OH240862   2.848   0.709   2.039
13640TIP3    H140863   2.801   0.724   1.957
13640TIP3    H240864   2.903   0.633   2.022
13641TIP3   OH240865   2.262   6.101   5.252
13641TIP3    H140866   2.228   6.114   5.340
13641TIP3    H240867   2.198   6.143   5.194
13642TIP3   OH240868   2.024   1.698   1.559
13642TIP3    H140869   2.100   1.643   1.539
13642TIP3    H240870   2.036   1.776   1.504
13643TIP3   OH240871   3.362   2.008   2.508
13643TIP3    H140872   3.362   2.102   2.523
13643TIP3    H240873   3.303   1.995   2.434
13644TIP3   OH240874   5.900   3.839   6.276
13644TIP3    H140875   5.814   3.810   6.306
13644TIP3    H240876   5.885   3.874   6.189
13645TIP3   OH240877   5.837   3.864   5.744
13645TIP3    H140878   5.806   3.815   5.668
13645TIP3    H240879   5.932   3.863   5.735
13646TIP3   OH240880   2.198   3.374   0.035
13646TIP3    H140881   2.273   3.329   0.073
13646TIP3    H240882   2.235   3.437  -0.026
13647TIP3   OH240883   8.296   0.113   0.079
13647TIP3    H140884   8.249   0.098   0.162
13647TIP3    H240885   8.292   0.029   0.033
13648TIP3   OH240886   0.231   2.380   6.553
13648TIP3    H140887   0.265   2.464   6.521
13648TIP3    H240888   0.198   2.399   6.640
13649TIP3   OH240889   4.582   7.532   0.364
13649TIP3    H140890   4.514   7.583   0.320
13649TIP3    H240891   4.539   7.450   0.388
13650TIP3   OH240892   1.645   5.269   2.659
13650TIP3    H140893   1.725   5.225   2.687
13650TIP3    H240894   1.601   5.293   2.741
13651TIP3   OH240895   4.798   2.682   3.443
13651TIP3    H140896   4.842   2.718   3.520
13651TIP3    H240897   4.746   2.609   3.477
13652TIP3   OH240898   0.491   5.970   6.398
13652TIP3    H140899   0.542   6.036   6.446
13652TIP3    H240900   0.474   6.011   6.313
13653TIP3   OH240901   4.892   6.492   0.804
13653TIP3    H140902   4.978   6.532   0.791
13653TIP3    H240903   4.846   6.551   0.864
13654TIP3   OH240904   7.287   6.447   1.077
13654TIP3    H140905   7.366   6.487   1.041
13654TIP3    H240906   7.299   6.353   1.063
13655TIP3   OH240907   7.371   7.743   5.953
13655TIP3    H140908   7.292   7.798   5.960
13655TIP3    H240909   7.438   7.802   5.919
13656TIP3   OH240910   2.488   1.111   4.177
13656TIP3    H140911   2.426   1.039   4.166
13656TIP3    H240912   2.447   1.167   4.243
13657TIP3   OH240913   5.673   6.675   0.166
13657TIP3    H140914   5.631   6.674   0.080
13657TIP3    H240915   5.767   6.678   0.147
13658TIP3   OH240916   0.146   6.033   0.734
13658TIP3    H140917   0.196   5.952   0.728
13658TIP3    H240918   0.061   6.007   0.768
13659TIP3   OH240919   5.441   6.526   2.677
13659TIP3    H140920   5.487   6.610   2.676
13659TIP3    H240921   5.505   6.463   2.645
13660TIP3   OH240922   7.909   2.615   2.471
13660TIP3    H140923   7.875   2.533   2.437
13660TIP3    H240924   7.978   2.589   2.532
13661TIP3   OH240925   0.900   1.163   3.718
13661TIP3    H140926   0.839   1.146   3.790
13661TIP3    H240927   0.845   1.176   3.642
13662TIP3   OH240928   5.951   0.983   4.482
13662TIP3    H140929   5.880   0.930   4.445
13662TIP3    H240930   5.922   1.003   4.571
13663TIP3   OH240931   3.966   4.247   5.151
13663TIP3    H140932   3.998   4.311   5.087
13663TIP3    H240933   4.012   4.166   5.128
13664TIP3   OH240934   4.486   2.553   2.918
13664TIP3    H140935   4.579   2.558   2.939
13664TIP3    H240936   4.483   2.534   2.824
13665TIP3   OH240937   1.751   2.745   5.049
13665TIP3    H140938   1.713   2.699   4.974
13665TIP3    H240939   1.808   2.811   5.010
13666TIP3   OH240940   1.168   4.392   0.934
13666TIP3    H140941   1.188   4.319   0.992
13666TIP3    H240942   1.112   4.353   0.867
13667TIP3   OH240943   4.835   0.962   6.678
13667TIP3    H140944   4.785   0.890   6.640
13667TIP3    H240945   4.788   1.041   6.652
13668TIP3   OH240946   2.219   4.573   0.132
13668TIP3    H140947   2.189   4.487   0.161
13668TIP3    H240948   2.255   4.558   0.045
13669TIP3   OH240949   0.573   5.168   4.183
13669TIP3    H140950   0.546   5.191   4.272
13669TIP3    H240951   0.668   5.181   4.183
13670TIP3   OH240952   1.773   0.829   1.016
13670TIP3    H140953   1.752   0.887   1.088
13670TIP3    H240954   1.716   0.858   0.944
13671TIP3   OH240955   1.508   3.408   4.923
13671TIP3    H140956   1.493   3.457   5.003
13671TIP3    H240957   1.555   3.469   4.866
13672TIP3   OH240958   1.341   4.417   1.222
13672TIP3    H140959   1.304   4.495   1.179
13672TIP3    H240960   1.277   4.396   1.290
13673TIP3   OH240961   1.446   6.658   4.755
13673TIP3    H140962   1.402   6.743   4.763
13673TIP3    H240963   1.528   6.669   4.802
13674TIP3   OH240964   7.973   4.253   1.872
13674TIP3    H140965   8.000   4.162   1.885
13674TIP3    H240966   8.024   4.302   1.936
13675TIP3   OH240967   2.207   5.263   0.417
13675TIP3    H140968   2.132   5.290   0.364
13675TIP3    H240969   2.249   5.194   0.366
13676TIP3   OH240970   5.171   0.231   0.193
13676TIP3    H140971   5.103   0.262   0.134
13676TIP3    H240972   5.209   0.156   0.149
13677TIP3   OH240973   6.819   2.833   3.423
13677TIP3    H140974   6.807   2.868   3.335
13677TIP3    H240975   6.914   2.838   3.438
13678TIP3   OH240976   8.172   5.031   6.436
13678TIP3    H140977   8.255   5.035   6.389
13678TIP3    H240978   8.160   5.120   6.471
13679TIP3   OH240979   0.708   0.137   5.699
13679TIP3    H140980   0.783   0.083   5.724
13679TIP3    H240981   0.713   0.213   5.757
13680TIP3   OH240982   6.332   0.059   0.781
13680TIP3    H140983   6.238   0.067   0.791
13680TIP3    H240984   6.365   0.149   0.791
13681TIP3   OH240985   1.820   2.829   6.544
13681TIP3    H140986   1.810   2.754   6.603
13681TIP3    H240987   1.823   2.790   6.457
13682TIP3   OH240988   7.954   1.270   5.483
13682TIP3    H140989   7.977   1.179   5.466
13682TIP3    H240990   7.894   1.293   5.413
13683TIP3   OH240991   4.112   1.279   0.099
13683TIP3    H140992   4.029   1.319   0.074
13683TIP3    H240993   4.118   1.199   0.046
13684TIP3   OH240994   4.459   0.825   2.295
13684TIP3    H140995   4.424   0.864   2.376
13684TIP3    H240996   4.430   0.884   2.226
13685TIP3   OH240997   2.098   3.034   3.345
13685TIP3    H140998   2.010   3.030   3.383
13685TIP3    H240999   2.103   2.958   3.287
13686TIP3   OH241000   2.508   4.688   4.833
13686TIP3    H141001   2.542   4.660   4.918
13686TIP3    H241002   2.568   4.647   4.770
13687TIP3   OH241003   7.533   6.935   1.732
13687TIP3    H141004   7.460   6.947   1.793
13687TIP3    H241005   7.492   6.912   1.649
13688TIP3   OH241006   4.866   1.483   3.778
13688TIP3    H141007   4.824   1.528   3.705
13688TIP3    H241008   4.897   1.400   3.741
13689TIP3   OH241009   1.190   2.807   5.788
13689TIP3    H141010   1.285   2.820   5.776
13689TIP3    H241011   1.162   2.885   5.836
13690TIP3   OH241012   0.015   3.406   4.353
13690TIP3    H141013   0.092   3.350   4.363
13690TIP3    H241014   0.051   3.494   4.346
13691TIP3   OH241015   4.984   1.954   4.371
13691TIP3    H141016   5.077   1.933   4.377
13691TIP3    H241017   4.953   1.952   4.462
13692TIP3   OH241018   8.237   3.631   4.896
13692TIP3    H141019   8.173   3.563   4.919
13692TIP3    H241020   8.288   3.592   4.825
13693TIP3   OH241021   2.718   5.172   6.153
13693TIP3    H141022   2.784   5.231   6.188
13693TIP3    H241023   2.666   5.226   6.094
13694TIP3   OH241024   4.843   0.293   2.587
13694TIP3    H141025   4.906   0.270   2.518
13694TIP3    H241026   4.876   0.247   2.665
13695TIP3   OH241027   1.534   1.986   1.542
13695TIP3    H141028   1.441   1.967   1.546
13695TIP3    H241029   1.552   1.998   1.448
13696TIP3   OH241030   6.790   2.231   5.142
13696TIP3    H141031   6.714   2.225   5.200
13696TIP3    H241032   6.825   2.142   5.140
13697TIP3   OH241033   5.722   5.014   6.696
13697TIP3    H141034   5.656   4.990   6.630
13697TIP3    H241035   5.761   4.931   6.722
13698TIP3   OH241036   1.543   5.456   6.315
13698TIP3    H141037   1.471   5.399   6.340
13698TIP3    H241038   1.502   5.541   6.297
13699TIP3   OH241039   4.412   3.562   6.588
13699TIP3    H141040   4.340   3.604   6.540
13699TIP3    H241041   4.442   3.630   6.649
13700TIP3   OH241042   3.623   5.035   4.633
13700TIP3    H141043   3.601   5.056   4.724
13700TIP3    H241044   3.644   4.942   4.634
13701TIP3   OH241045   7.962   4.647   6.301
13701TIP3    H141046   7.881   4.625   6.348
13701TIP3    H241047   7.959   4.742   6.292
13702TIP3   OH241048   0.340   3.363   5.260
13702TIP3    H141049   0.397   3.440   5.251
13702TIP3    H241050   0.398   3.295   5.295
13703TIP3   OH241051   4.215   1.128   1.402
13703TIP3    H141052   4.290   1.076   1.373
13703TIP3    H241053   4.247   1.172   1.481
13704TIP3   OH241054   2.841   5.474   6.706
13704TIP3    H141055   2.754   5.433   6.704
13704TIP3    H241056   2.900   5.403   6.732
13705TIP3   OH241057   4.781   2.707   0.810
13705TIP3    H141058   4.815   2.618   0.818
13705TIP3    H241059   4.812   2.752   0.889
13706TIP3   OH241060   0.412   3.618   2.005
13706TIP3    H141061   0.348   3.666   1.952
13706TIP3    H241062   0.462   3.567   1.942
13707TIP3   OH241063   5.678   6.506   4.668
13707TIP3    H141064   5.635   6.435   4.715
13707TIP3    H241065   5.750   6.533   4.725
13708TIP3   OH241066   1.424   6.236   3.383
13708TIP3    H141067   1.446   6.142   3.382
13708TIP3    H241068   1.507   6.279   3.401
13709TIP3   OH241069   7.219   1.241   6.086
13709TIP3    H141070   7.141   1.278   6.044
13709TIP3    H241071   7.287   1.247   6.019
13710TIP3   OH241072   5.498   5.327   0.742
13710TIP3    H141073   5.444   5.271   0.797
13710TIP3    H241074   5.441   5.355   0.671
13711TIP3   OH241075   5.053   0.857   0.876
13711TIP3    H141076   5.146   0.877   0.883
13711TIP3    H241077   5.022   0.856   0.967
13712TIP3   OH241078   7.246   1.723   4.628
13712TIP3    H141079   7.212   1.694   4.713
13712TIP3    H241080   7.340   1.736   4.643
13713TIP3   OH241081   7.903   0.267   1.878
13713TIP3    H141082   7.988   0.253   1.838
13713TIP3    H241083   7.916   0.248   1.971
13714TIP3   OH241084   7.196   3.587   5.177
13714TIP3    H141085   7.231   3.675   5.187
13714TIP3    H241086   7.102   3.597   5.193
13715TIP3   OH241087   6.046   0.190   0.569
13715TIP3    H141088   6.090   0.275   0.578
13715TIP3    H241089   5.969   0.197   0.625
13716TIP3   OH241090   5.628   1.097   5.203
13716TIP3    H141091   5.723   1.106   5.194
13716TIP3    H241092   5.593   1.123   5.118
13717TIP3   OH241093   4.768   7.398   5.548
13717TIP3    H141094   4.772   7.440   5.634
13717TIP3    H241095   4.849   7.349   5.542
13718TIP3   OH241096   0.589   4.574   6.702
13718TIP3    H141097   0.685   4.573   6.712
13718TIP3    H241098   0.569   4.493   6.657
13719TIP3   OH241099   8.121   6.921   1.565
13719TIP3    H141100   8.080   6.995   1.610
13719TIP3    H241101   8.123   6.852   1.631
13720TIP3   OH241102   6.783   6.974   4.298
13720TIP3    H141103   6.816   7.061   4.277
13720TIP3    H241104   6.790   6.925   4.216
13721TIP3   OH241105   3.708   4.230   5.066
13721TIP3    H141106   3.789   4.230   5.118
13721TIP3    H241107   3.734   4.189   4.983
13722TIP3   OH241108   3.660   6.303   0.421
13722TIP3    H141109   3.688   6.394   0.429
13722TIP3    H241110   3.648   6.273   0.512
13723TIP3   OH241111   6.739   5.609   1.354
13723TIP3    H141112   6.669   5.663   1.318
13723TIP3    H241113   6.703   5.520   1.355
13724TIP3   OH241114   6.940   5.051   5.198
13724TIP3    H141115   7.020   5.102   5.188
13724TIP3    H241116   6.902   5.047   5.110
13725TIP3   OH241117   5.196   4.220   4.406
13725TIP3    H141118   5.199   4.275   4.485
13725TIP3    H241119   5.121   4.162   4.421
13726TIP3   OH241120   4.369   7.050   0.007
13726TIP3    H141121   4.322   7.093  -0.065
13726TIP3    H241122   4.456   7.089   0.005
13727TIP3   OH241123   0.223   3.795   1.842
13727TIP3    H141124   0.202   3.888   1.832
13727TIP3    H241125   0.139   3.753   1.861
13728TIP3   OH241126   3.765   1.558   1.985
13728TIP3    H141127   3.765   1.529   1.893
13728TIP3    H241128   3.673   1.577   2.004
13729TIP3   OH241129   5.856   6.786   4.604
13729TIP3    H141130   5.782   6.747   4.559
13729TIP3    H241131   5.906   6.711   4.637
13730TIP3   OH241132   1.632   5.988   0.594
13730TIP3    H141133   1.716   5.968   0.552
13730TIP3    H241134   1.613   6.078   0.568
13731TIP3   OH241135   6.843   3.441   4.021
13731TIP3    H141136   6.937   3.439   4.041
13731TIP3    H241137   6.801   3.456   4.106
13732TIP3   OH241138   3.926   5.896   2.840
13732TIP3    H141139   3.975   5.935   2.912
13732TIP3    H241140   3.981   5.824   2.809
13733TIP3   OH241141   1.204   6.281   2.895
13733TIP3    H141142   1.169   6.351   2.840
13733TIP3    H241143   1.149   6.281   2.973
13734TIP3   OH241144   0.995   1.091   0.588
13734TIP3    H141145   0.917   1.107   0.642
13734TIP3    H241146   1.041   1.020   0.634
13735TIP3   OH241147   2.319   6.100   3.111
13735TIP3    H141148   2.403   6.140   3.087
13735TIP3    H241149   2.255   6.143   3.055
13736TIP3   OH241150   0.760   6.297   1.503
13736TIP3    H141151   0.807   6.330   1.579
13736TIP3    H241152   0.786   6.356   1.431
13737TIP3   OH241153   1.136   2.810   3.221
13737TIP3    H141154   1.217   2.790   3.268
13737TIP3    H241155   1.107   2.894   3.257
13738TIP3   OH241156   4.057   5.587   4.381
13738TIP3    H141157   4.110   5.667   4.381
13738TIP3    H241158   3.971   5.615   4.410
13739TIP3   OH241159   7.081   1.473   1.123
13739TIP3    H141160   7.109   1.409   1.058
13739TIP3    H241161   6.986   1.460   1.130
13740TIP3   OH241162   7.309   1.845   2.116
13740TIP3    H141163   7.334   1.771   2.061
13740TIP3    H241164   7.375   1.847   2.185
13741TIP3   OH241165   4.555   0.462   1.388
13741TIP3    H141166   4.602   0.538   1.420
13741TIP3    H241167   4.524   0.488   1.301
13742TIP3   OH241168   3.065   6.414   0.056
13742TIP3    H141169   3.109   6.496   0.033
13742TIP3    H241170   2.984   6.442   0.098
13743TIP3   OH241171   3.263   3.019   1.715
13743TIP3    H141172   3.169   3.016   1.732
13743TIP3    H241173   3.304   3.000   1.800
13744TIP3   OH241174   3.341   1.372   1.285
13744TIP3    H141175   3.358   1.351   1.377
13744TIP3    H241176   3.247   1.355   1.274
13745TIP3   OH241177   0.063   3.175   6.195
13745TIP3    H141178   0.099   3.099   6.148
13745TIP3    H241179   0.049   3.143   6.284
13746TIP3   OH241180   0.134   3.112   1.428
13746TIP3    H141181   0.090   3.117   1.343
13746TIP3    H241182   0.150   3.019   1.441
13747TIP3   OH241183   0.270   6.154   4.247
13747TIP3    H141184   0.314   6.218   4.301
13747TIP3    H241185   0.278   6.072   4.295
13748TIP3   OH241186   6.129   7.040   6.665
13748TIP3    H141187   6.118   6.980   6.740
13748TIP3    H241188   6.065   7.009   6.601
13749TIP3   OH241189   6.248   4.100   0.760
13749TIP3    H141190   6.230   4.188   0.792
13749TIP3    H241191   6.221   4.102   0.668
13750TIP3   OH241192   7.671   5.657   0.273
13750TIP3    H141193   7.737   5.659   0.204
13750TIP3    H241194   7.714   5.613   0.346
13751TIP3   OH241195   6.585   0.543   6.096
13751TIP3    H141196   6.494   0.559   6.071
13751TIP3    H241197   6.611   0.466   6.046
13752TIP3   OH241198   0.560   4.388   6.247
13752TIP3    H141199   0.517   4.304   6.233
13752TIP3    H241200   0.591   4.385   6.338
13753TIP3   OH241201   1.552   1.972   3.425
13753TIP3    H141202   1.489   1.904   3.400
13753TIP3    H241203   1.611   1.980   3.350
13754TIP3   OH241204   1.833   3.925   4.884
13754TIP3    H141205   1.829   3.977   4.964
13754TIP3    H241206   1.765   3.858   4.895
13755TIP3   OH241207   2.194   2.881   6.122
13755TIP3    H141208   2.271   2.825   6.132
13755TIP3    H241209   2.126   2.823   6.088
13756TIP3   OH241210   1.111   0.424   0.165
13756TIP3    H141211   1.117   0.457   0.255
13756TIP3    H241212   1.126   0.330   0.173
13757TIP3   OH241213   0.956   2.158   4.073
13757TIP3    H141214   0.886   2.145   4.137
13757TIP3    H241215   0.999   2.239   4.100
13758TIP3   OH241216   5.566   3.070   4.309
13758TIP3    H141217   5.515   3.032   4.381
13758TIP3    H241218   5.640   3.113   4.353
13759TIP3   OH241219   3.500   3.885   1.436
13759TIP3    H141220   3.491   3.909   1.344
13759TIP3    H241221   3.592   3.904   1.456
13760TIP3   OH241222   5.540   1.985   4.018
13760TIP3    H141223   5.572   1.931   4.090
13760TIP3    H241224   5.515   1.922   3.950
13761TIP3   OH241225   6.753   5.369   2.456
13761TIP3    H141226   6.677   5.371   2.516
13761TIP3    H241227   6.763   5.460   2.428
13762TIP3   OH241228   4.920   0.081   0.172
13762TIP3    H141229   4.969   0.130   0.105
13762TIP3    H241230   4.987   0.050   0.232
13763TIP3   OH241231   5.473   3.107   2.218
13763TIP3    H141232   5.472   3.103   2.313
13763TIP3    H241233   5.505   3.195   2.198
13764TIP3   OH241234   4.756   1.525   1.910
13764TIP3    H141235   4.680   1.504   1.963
13764TIP3    H241236   4.721   1.569   1.833
13765TIP3   OH241237   0.757   5.577   0.649
13765TIP3    H141238   0.734   5.558   0.740
13765TIP3    H241239   0.830   5.517   0.629
13766TIP3   OH241240   5.204   5.541   0.574
13766TIP3    H141241   5.254   5.463   0.552
13766TIP3    H241242   5.248   5.612   0.528
13767TIP3   OH241243   5.558   4.309   0.977
13767TIP3    H141244   5.476   4.315   1.027
13767TIP3    H241245   5.590   4.221   0.995
13768TIP3   OH241246   6.945   1.494   0.774
13768TIP3    H141247   6.901   1.579   0.765
13768TIP3    H241248   6.923   1.465   0.862
13769TIP3   OH241249   6.772   6.144   1.013
13769TIP3    H141250   6.821   6.096   0.946
13769TIP3    H241251   6.767   6.233   0.980
13770TIP3   OH241252   2.815   3.535   0.490
13770TIP3    H141253   2.877   3.469   0.523
13770TIP3    H241254   2.782   3.577   0.569
13771TIP3   OH241255   1.732   4.394   6.478
13771TIP3    H141256   1.821   4.394   6.515
13771TIP3    H241257   1.745   4.380   6.384
13772TIP3   OH241258   2.546   5.760   1.071
13772TIP3    H141259   2.518   5.841   1.028
13772TIP3    H241260   2.592   5.789   1.150
13773TIP3   OH241261   3.152   4.153   0.725
13773TIP3    H141262   3.159   4.220   0.657
13773TIP3    H241263   3.173   4.071   0.681
13774TIP3   OH241264   6.530   7.492   1.561
13774TIP3    H141265   6.549   7.503   1.654
13774TIP3    H241266   6.493   7.403   1.555
13775TIP3   OH241267   6.914   4.029   1.193
13775TIP3    H141268   6.902   4.061   1.283
13775TIP3    H241269   6.831   3.989   1.170
13776TIP3   OH241270   7.601   0.356   0.942
13776TIP3    H141271   7.677   0.399   0.902
13776TIP3    H241272   7.622   0.262   0.936
13777TIP3   OH241273   7.805   1.157   3.750
13777TIP3    H141274   7.863   1.112   3.812
13777TIP3    H241275   7.745   1.089   3.719
13778TIP3   OH241276   0.779   7.644   3.763
13778TIP3    H141277   0.844   7.578   3.739
13778TIP3    H241278   0.817   7.687   3.840
13779TIP3   OH241279   5.058   1.340   2.520
13779TIP3    H141280   5.008   1.293   2.454
13779TIP3    H241281   5.148   1.307   2.510
13780TIP3   OH241282   2.366   5.143   4.815
13780TIP3    H141283   2.361   5.094   4.897
13780TIP3    H241284   2.296   5.208   4.821
13781TIP3   OH241285   2.656   0.709   0.873
13781TIP3    H141286   2.695   0.667   0.950
13781TIP3    H241287   2.679   0.652   0.800
13782TIP3   OH241288   2.753   2.165   3.103
13782TIP3    H141289   2.800   2.178   3.186
13782TIP3    H241290   2.664   2.144   3.128
13783TIP3   OH241291   4.960   2.620   1.880
13783TIP3    H141292   4.897   2.572   1.826
13783TIP3    H241293   4.987   2.694   1.826
13784TIP3   OH241294   4.455   3.969   4.335
13784TIP3    H141295   4.526   3.913   4.366
13784TIP3    H241296   4.376   3.931   4.373
13785TIP3   OH241297   3.485   1.050   6.332
13785TIP3    H141298   3.401   1.022   6.295
13785TIP3    H241299   3.485   1.145   6.322
13786TIP3   OH241300   6.462   4.100   5.686
13786TIP3    H141301   6.493   4.027   5.740
13786TIP3    H241302   6.508   4.177   5.719
13787TIP3   OH241303   5.875   7.171   4.363
13787TIP3    H141304   5.817   7.097   4.381
13787TIP3    H241305   5.942   7.168   4.431
13788TIP3   OH241306   3.457   1.578   1.666
13788TIP3    H141307   3.546   1.543   1.668
13788TIP3    H241308   3.442   1.600   1.574
13789TIP3   OH241309   3.976   0.126   2.405
13789TIP3    H141310   3.973   0.221   2.413
13789TIP3    H241311   4.069   0.104   2.415
13790TIP3   OH241312   6.070   5.827   6.346
13790TIP3    H141313   6.011   5.775   6.400
13790TIP3    H241314   6.148   5.772   6.335
13791TIP3   OH241315   0.620   3.870   2.341
13791TIP3    H141316   0.678   3.811   2.390
13791TIP3    H241317   0.639   3.852   2.249
13792TIP3   OH241318   0.213   6.733   0.844
13792TIP3    H141319   0.206   6.723   0.749
13792TIP3    H241320   0.246   6.822   0.856
13793TIP3   OH241321   5.460   7.283   5.280
13793TIP3    H141322   5.547   7.243   5.276
13793TIP3    H241323   5.399   7.209   5.277
13794TIP3   OH241324   6.436   3.087   6.377
13794TIP3    H141325   6.407   3.060   6.291
13794TIP3    H241326   6.490   3.164   6.361
13795TIP3   OH241327   5.652   4.381   6.622
13795TIP3    H141328   5.678   4.468   6.653
13795TIP3    H241329   5.579   4.356   6.678
13796TIP3   OH241330   2.945   0.848   6.118
13796TIP3    H141331   2.944   0.878   6.027
13796TIP3    H241332   2.927   0.927   6.169
13797TIP3   OH241333   0.885   2.507   4.759
13797TIP3    H141334   0.833   2.586   4.776
13797TIP3    H241335   0.871   2.452   4.836
13798TIP3   OH241336   1.264   2.427   0.404
13798TIP3    H141337   1.223   2.358   0.457
13798TIP3    H241338   1.346   2.387   0.374
13799TIP3   OH241339   4.419   4.051   3.775
13799TIP3    H141340   4.460   4.137   3.769
13799TIP3    H241341   4.331   4.068   3.807
13800TIP3   OH241342   6.464   6.076   4.717
13800TIP3    H141343   6.390   6.066   4.776
13800TIP3    H241344   6.467   6.169   4.698
13801TIP3   OH241345   3.952   5.371   6.607
13801TIP3    H141346   3.869   5.417   6.591
13801TIP3    H241347   4.004   5.433   6.659
13802TIP3   OH241348   5.371   3.958   0.316
13802TIP3    H141349   5.408   3.876   0.283
13802TIP3    H241350   5.287   3.967   0.270
13803TIP3   OH241351   1.054   6.448   2.687
13803TIP3    H141352   0.963   6.436   2.716
13803TIP3    H241353   1.078   6.536   2.715
13804TIP3   OH241354   3.171   1.676   4.044
13804TIP3    H141355   3.204   1.729   4.116
13804TIP3    H241356   3.175   1.733   3.967
13805TIP3   OH241357   4.162   0.359   2.884
13805TIP3    H141358   4.154   0.442   2.930
13805TIP3    H241359   4.254   0.356   2.857
13806TIP3   OH241360   0.381   5.684   1.744
13806TIP3    H141361   0.468   5.648   1.758
13806TIP3    H241362   0.330   5.654   1.818
13807TIP3   OH241363   0.283   4.552   1.746
13807TIP3    H141364   0.216   4.528   1.811
13807TIP3    H241365   0.365   4.520   1.784
13808TIP3   OH241366   7.543   3.138   5.247
13808TIP3    H141367   7.527   3.156   5.340
13808TIP3    H241368   7.459   3.156   5.205
13809TIP3   OH241369   3.898   6.646   1.187
13809TIP3    H141370   3.842   6.723   1.198
13809TIP3    H241371   3.941   6.635   1.272
13810TIP3   OH241372   4.679   3.628   1.577
13810TIP3    H141373   4.625   3.577   1.637
13810TIP3    H241374   4.728   3.563   1.526
13811TIP3   OH241375   1.645   4.167   6.071
13811TIP3    H141376   1.724   4.165   6.017
13811TIP3    H241377   1.579   4.124   6.018
13812TIP3   OH241378   0.648   1.483   0.545
13812TIP3    H141379   0.681   1.456   0.631
13812TIP3    H241380   0.597   1.562   0.562
13813TIP3   OH241381   3.368   1.509   2.258
13813TIP3    H141382   3.311   1.542   2.326
13813TIP3    H241383   3.405   1.428   2.294
13814TIP3   OH241384   4.193   3.743   0.458
13814TIP3    H141385   4.183   3.783   0.545
13814TIP3    H241386   4.152   3.657   0.466
13815TIP3   OH241387   0.106   5.229   1.972
13815TIP3    H141388   0.035   5.168   1.950
13815TIP3    H241389   0.062   5.300   2.019
13816TIP3   OH241390   5.119   2.391   5.374
13816TIP3    H141391   5.109   2.482   5.345
13816TIP3    H241392   5.213   2.381   5.389
13817TIP3   OH241393   1.627   5.242   3.885
13817TIP3    H141394   1.605   5.331   3.858
13817TIP3    H241395   1.585   5.186   3.821
13818TIP3   OH241396   7.162   4.725   4.436
13818TIP3    H141397   7.227   4.773   4.385
13818TIP3    H241398   7.102   4.793   4.467
13819TIP3   OH241399   5.336   2.383   0.452
13819TIP3    H141400   5.404   2.318   0.439
13819TIP3    H241401   5.260   2.349   0.404
13820TIP3   OH241402   5.743   2.572   3.966
13820TIP3    H141403   5.785   2.642   3.915
13820TIP3    H241404   5.726   2.612   4.051
13821TIP3   OH241405   5.321   5.797   2.319
13821TIP3    H141406   5.394   5.737   2.333
13821TIP3    H241407   5.361   5.875   2.280
13822TIP3   OH241408   8.067   1.237   1.856
13822TIP3    H141409   8.042   1.274   1.941
13822TIP3    H241410   7.998   1.175   1.835
13823TIP3   OH241411   0.465   2.293   4.133
13823TIP3    H141412   0.383   2.342   4.135
13823TIP3    H241413   0.509   2.322   4.054
13824TIP3   OH241414   8.072   0.995   4.671
13824TIP3    H141415   7.998   0.940   4.697
13824TIP3    H241416   8.144   0.934   4.657
13825TIP3   OH241417   6.259   4.148   3.029
13825TIP3    H141418   6.222   4.099   3.102
13825TIP3    H241419   6.341   4.103   3.009
13826TIP3   OH241420   1.453   6.383   2.180
13826TIP3    H141421   1.367   6.404   2.217
13826TIP3    H241422   1.516   6.417   2.243
13827TIP3   OH241423   6.160   7.146   4.870
13827TIP3    H141424   6.172   7.083   4.799
13827TIP3    H241425   6.172   7.095   4.950
13828TIP3   OH241426   0.190   7.719   0.344
13828TIP3    H141427   0.197   7.730   0.249
13828TIP3    H241428   0.216   7.628   0.359
13829TIP3   OH241429   3.572   5.276   6.269
13829TIP3    H141430   3.616   5.237   6.344
13829TIP3    H241431   3.629   5.257   6.195
13830TIP3   OH241432   7.784   6.939   4.497
13830TIP3    H141433   7.864   6.973   4.458
13830TIP3    H241434   7.743   6.887   4.427
13831TIP3   OH241435   8.138   3.762   3.803
13831TIP3    H141436   8.114   3.672   3.783
13831TIP3    H241437   8.140   3.806   3.718
13832TIP3   OH241438   7.444   5.618   2.875
13832TIP3    H141439   7.435   5.647   2.966
13832TIP3    H241440   7.422   5.525   2.877
13833TIP3   OH241441   5.803   6.538   3.070
13833TIP3    H141442   5.798   6.601   2.998
13833TIP3    H241443   5.853   6.583   3.138
13834TIP3   OH241444   4.361   5.110   1.264
13834TIP3    H141445   4.328   5.042   1.205
13834TIP3    H241446   4.285   5.166   1.281
13835TIP3   OH241447   6.676   7.317   5.584
13835TIP3    H141448   6.666   7.381   5.513
13835TIP3    H241449   6.739   7.358   5.644
13836TIP3   OH241450   3.188   6.350   1.063
13836TIP3    H141451   3.169   6.361   0.970
13836TIP3    H241452   3.197   6.440   1.096
13837TIP3   OH241453   3.694   0.761   5.815
13837TIP3    H141454   3.786   0.747   5.792
13837TIP3    H241455   3.692   0.848   5.853
13838TIP3   OH241456   4.620   7.550   2.370
13838TIP3    H141457   4.566   7.476   2.341
13838TIP3    H241458   4.635   7.532   2.463
13839TIP3   OH241459   1.034   0.800   3.886
13839TIP3    H141460   0.958   0.769   3.935
13839TIP3    H241461   1.100   0.816   3.953
13840TIP3   OH241462   5.930   2.034   0.690
13840TIP3    H141463   5.875   1.958   0.709
13840TIP3    H241464   5.993   2.003   0.625
13841TIP3   OH241465   3.081   2.397   5.074
13841TIP3    H141466   3.057   2.306   5.054
13841TIP3    H241467   3.068   2.404   5.169
13842TIP3   OH241468   3.361   0.101   0.948
13842TIP3    H141469   3.366   0.176   1.007
13842TIP3    H241470   3.270   0.072   0.954
13843TIP3   OH241471   3.126   1.453   3.675
13843TIP3    H141472   3.099   1.369   3.639
13843TIP3    H241473   3.071   1.464   3.753
13844TIP3   OH241474   3.872   7.183   5.927
13844TIP3    H141475   3.818   7.235   5.867
13844TIP3    H241476   3.839   7.206   6.015
13845TIP3   OH241477   1.909   5.402   6.456
13845TIP3    H141478   1.976   5.413   6.523
13845TIP3    H241479   1.897   5.307   6.450
13846TIP3   OH241480   5.926   4.412   4.328
13846TIP3    H141481   5.925   4.345   4.396
13846TIP3    H241482   6.014   4.406   4.291
13847TIP3   OH241483   6.487   7.177   1.854
13847TIP3    H141484   6.418   7.207   1.913
13847TIP3    H241485   6.532   7.108   1.904
13848TIP3   OH241486   4.016   1.122   1.209
13848TIP3    H141487   3.936   1.168   1.237
13848TIP3    H241488   4.071   1.121   1.287
13849TIP3   OH241489   6.899   4.798   4.093
13849TIP3    H141490   6.902   4.703   4.083
13849TIP3    H241491   6.835   4.813   4.162
13850TIP3   OH241492   5.103   4.566   4.651
13850TIP3    H141493   5.092   4.651   4.694
13850TIP3    H241494   5.122   4.506   4.723
13851TIP3   OH241495   5.445   6.374   4.307
13851TIP3    H141496   5.452   6.295   4.361
13851TIP3    H241497   5.390   6.348   4.233
13852TIP3   OH241498   1.656   7.807   3.975
13852TIP3    H141499   1.621   7.730   4.021
13852TIP3    H241500   1.717   7.770   3.912
13853TIP3   OH241501   7.414   4.717   4.597
13853TIP3    H141502   7.355   4.705   4.523
13853TIP3    H241503   7.402   4.638   4.650
13854TIP3   OH241504   4.066   6.714   5.870
13854TIP3    H141505   4.071   6.742   5.779
13854TIP3    H241506   3.983   6.750   5.902
13855TIP3   OH241507   2.786   0.485   4.456
13855TIP3    H141508   2.720   0.540   4.497
13855TIP3    H241509   2.786   0.512   4.364
13856TIP3   OH241510   7.399   2.531   3.648
13856TIP3    H141511   7.330   2.563   3.707
13856TIP3    H241512   7.360   2.455   3.606
13857TIP3   OH241513   5.165   5.629   5.077
13857TIP3    H141514   5.130   5.663   4.994
13857TIP3    H241515   5.193   5.707   5.125
13858TIP3   OH241516   1.711   7.367   4.439
13858TIP3    H141517   1.674   7.428   4.376
13858TIP3    H241518   1.714   7.283   4.393
13859TIP3   OH241519   1.150   2.861   0.305
13859TIP3    H141520   1.156   2.819   0.391
13859TIP3    H241521   1.091   2.804   0.255
13860TIP3   OH241522   6.789   4.479   4.822
13860TIP3    H141523   6.721   4.546   4.812
13860TIP3    H241524   6.862   4.525   4.864
13861TIP3   OH241525   3.776   1.556   2.456
13861TIP3    H141526   3.809   1.549   2.546
13861TIP3    H241527   3.731   1.641   2.454
13862TIP3   OH241528   4.035   4.220   2.924
13862TIP3    H141529   4.082   4.273   2.859
13862TIP3    H241530   4.025   4.279   2.999
13863TIP3   OH241531   4.356   7.128   6.378
13863TIP3    H141532   4.334   7.049   6.329
13863TIP3    H241533   4.346   7.200   6.316
13864TIP3   OH241534   5.782   1.689   3.845
13864TIP3    H141535   5.823   1.614   3.886
13864TIP3    H241536   5.795   1.675   3.751
13865TIP3   OH241537   5.253   6.175   4.172
13865TIP3    H141538   5.269   6.133   4.088
13865TIP3    H241539   5.162   6.156   4.192
13866TIP3   OH241540   6.180   0.822   4.675
13866TIP3    H141541   6.124   0.823   4.598
13866TIP3    H241542   6.131   0.770   4.739
13867TIP3   OH241543   7.123   6.475   0.136
13867TIP3    H141544   7.099   6.404   0.196
13867TIP3    H241545   7.218   6.477   0.138
13868TIP3   OH241546   5.979   0.430   2.178
13868TIP3    H141547   5.890   0.412   2.149
13868TIP3    H241548   6.011   0.499   2.120
13869TIP3   OH241549   7.213   2.737   4.831
13869TIP3    H141550   7.125   2.699   4.828
13869TIP3    H241551   7.259   2.696   4.757
13870TIP3   OH241552   1.035   1.985   0.634
13870TIP3    H141553   0.986   1.976   0.716
13870TIP3    H241554   1.126   1.975   0.659
13871TIP3   OH241555   5.167   3.948   0.150
13871TIP3    H141556   5.134   3.869   0.194
13871TIP3    H241557   5.112   4.019   0.185
13872TIP3   OH241558   6.650   4.181   0.456
13872TIP3    H141559   6.744   4.167   0.472
13872TIP3    H241560   6.643   4.275   0.440
13873TIP3   OH241561   4.895   4.853   1.130
13873TIP3    H141562   4.814   4.891   1.163
13873TIP3    H241563   4.919   4.909   1.057
13874TIP3   OH241564   0.681   3.898   6.631
13874TIP3    H141565   0.732   3.834   6.582
13874TIP3    H241566   0.738   3.926   6.702
13875TIP3   OH241567   7.879   0.973   2.067
13875TIP3    H141568   7.914   0.972   1.978
13875TIP3    H241569   7.829   1.055   2.072
13876TIP3   OH241570   1.097   1.601   2.750
13876TIP3    H141571   1.097   1.660   2.675
13876TIP3    H241572   1.165   1.537   2.731
13877TIP3   OH241573   6.945   1.246   5.341
13877TIP3    H141574   6.976   1.167   5.295
13877TIP3    H241575   6.985   1.241   5.428
13878TIP3   OH241576   6.198   0.232   6.321
13878TIP3    H141577   6.166   0.266   6.237
13878TIP3    H241578   6.293   0.232   6.311
13879TIP3   OH241579   4.329   1.312   6.085
13879TIP3    H141580   4.413   1.353   6.105
13879TIP3    H241581   4.265   1.383   6.090
13880TIP3   OH241582   3.996   1.415   5.335
13880TIP3    H141583   4.083   1.441   5.364
13880TIP3    H241584   4.000   1.419   5.239
13881TIP3   OH241585   4.144   0.697   3.438
13881TIP3    H141586   4.079   0.647   3.388
13881TIP3    H241587   4.094   0.732   3.512
13882TIP3   OH241588   0.929   5.155   2.914
13882TIP3    H141589   0.933   5.224   2.980
13882TIP3    H241590   1.005   5.100   2.932
13883TIP3   OH241591   3.914   3.762   1.633
13883TIP3    H141592   3.889   3.671   1.650
13883TIP3    H241593   3.904   3.805   1.718
13884TIP3   OH241594   1.385   1.712   1.398
13884TIP3    H141595   1.416   1.691   1.486
13884TIP3    H241596   1.315   1.649   1.381
13885TIP3   OH241597   2.138   7.075   5.273
13885TIP3    H141598   2.121   7.165   5.301
13885TIP3    H241599   2.142   7.025   5.355
13886TIP3   OH241600   3.654   0.549   6.616
13886TIP3    H141601   3.605   0.473   6.586
13886TIP3    H241602   3.630   0.619   6.556
13887TIP3   OH241603   6.109   4.303   4.052
13887TIP3    H141604   6.144   4.332   3.968
13887TIP3    H241605   6.144   4.366   4.115
13888TIP3   OH241606   4.961   4.745   3.390
13888TIP3    H141607   4.941   4.820   3.446
13888TIP3    H241608   5.031   4.777   3.332
13889TIP3   OH241609   0.137   5.247   2.347
13889TIP3    H141610   0.129   5.255   2.442
13889TIP3    H241611   0.148   5.153   2.332
13890TIP3   OH241612   2.259   4.460   5.270
13890TIP3    H141613   2.283   4.379   5.225
13890TIP3    H241614   2.249   4.435   5.362
13891TIP3   OH241615   5.056   0.987   5.244
13891TIP3    H141616   5.032   1.065   5.195
13891TIP3    H241617   4.974   0.954   5.278
13892TIP3   OH241618   0.890   1.091   1.013
13892TIP3    H141619   0.946   1.122   1.084
13892TIP3    H241620   0.810   1.062   1.057
13893TIP3   OH241621   7.191   0.568   0.233
13893TIP3    H141622   7.146   0.607   0.157
13893TIP3    H241623   7.250   0.502   0.195
13894TIP3   OH241624   5.614   3.779   4.178
13894TIP3    H141625   5.583   3.860   4.219
13894TIP3    H241626   5.604   3.712   4.245
13895TIP3   OH241627   5.858   3.642   5.077
13895TIP3    H141628   5.773   3.617   5.041
13895TIP3    H241629   5.849   3.627   5.171
13896TIP3   OH241630   3.574   7.308   5.945
13896TIP3    H141631   3.635   7.339   5.879
13896TIP3    H241632   3.510   7.256   5.896
13897TIP3   OH241633   3.788   1.461   0.781
13897TIP3    H141634   3.719   1.489   0.841
13897TIP3    H241635   3.843   1.539   0.771
13898TIP3   OH241636   6.705   0.321   5.974
13898TIP3    H141637   6.646   0.261   6.018
13898TIP3    H241638   6.792   0.282   5.984
13899TIP3   OH241639   3.612   6.720   5.872
13899TIP3    H141640   3.662   6.685   5.798
13899TIP3    H241641   3.664   6.795   5.902
13900TIP3   OH241642   4.921   2.763   0.412
13900TIP3    H141643   4.965   2.831   0.362
13900TIP3    H241644   4.953   2.774   0.502
13901TIP3   OH241645   6.734   6.541   3.594
13901TIP3    H141646   6.819   6.561   3.555
13901TIP3    H241647   6.672   6.592   3.542
13902TIP3   OH241648   3.801   4.684   5.375
13902TIP3    H141649   3.730   4.747   5.361
13902TIP3    H241650   3.879   4.738   5.390
13903TIP3   OH241651   2.608   0.633   2.176
13903TIP3    H141652   2.699   0.624   2.147
13903TIP3    H241653   2.613   0.679   2.259
13904TIP3   OH241654   4.467   0.795   4.740
13904TIP3    H141655   4.407   0.769   4.670
13904TIP3    H241656   4.540   0.837   4.696
13905TIP3   OH241657   7.425   0.784   1.842
13905TIP3    H141658   7.473   0.834   1.775
13905TIP3    H241659   7.467   0.808   1.924
13906TIP3   OH241660   2.224   1.015   2.989
13906TIP3    H141661   2.204   0.923   2.972
13906TIP3    H241662   2.313   1.026   2.956
13907TIP3   OH241663   0.710   6.922   5.419
13907TIP3    H141664   0.732   6.850   5.361
13907TIP3    H241665   0.793   6.964   5.440
13908TIP3   OH241666   3.451   0.923   2.945
13908TIP3    H141667   3.370   0.968   2.920
13908TIP3    H241668   3.431   0.884   3.030
13909TIP3   OH241669   6.922   2.842   1.969
13909TIP3    H141670   6.954   2.884   1.889
13909TIP3    H241671   7.001   2.829   2.021
13910TIP3   OH241672   2.529   5.577   4.279
13910TIP3    H141673   2.598   5.590   4.215
13910TIP3    H241674   2.572   5.534   4.354
13911TIP3   OH241675   7.687   3.806   3.526
13911TIP3    H141676   7.783   3.813   3.523
13911TIP3    H241677   7.663   3.779   3.437
13912TIP3   OH241678   8.019   2.430   2.243
13912TIP3    H141679   8.077   2.398   2.313
13912TIP3    H241680   7.931   2.421   2.279
13913TIP3   OH241681   8.055   3.061   6.502
13913TIP3    H141682   8.148   3.039   6.499
13913TIP3    H241683   8.048   3.146   6.459
13914TIP3   OH241684   2.956   1.979   3.860
13914TIP3    H141685   3.044   2.016   3.846
13914TIP3    H241686   2.950   1.907   3.798
13915TIP3   OH241687   3.686   2.924   6.513
13915TIP3    H141688   3.683   2.829   6.510
13915TIP3    H241689   3.686   2.951   6.421
13916TIP3   OH241690   0.850   5.324   0.709
13916TIP3    H141691   0.774   5.266   0.699
13916TIP3    H241692   0.852   5.346   0.802
13917TIP3   OH241693   5.304   6.359   5.119
13917TIP3    H141694   5.386   6.404   5.101
13917TIP3    H241695   5.320   6.311   5.200
13918TIP3   OH241696   1.370   2.678   4.355
13918TIP3    H141697   1.441   2.728   4.395
13918TIP3    H241698   1.360   2.601   4.411
13919TIP3   OH241699   2.514   3.195   2.182
13919TIP3    H141700   2.598   3.180   2.138
13919TIP3    H241701   2.538   3.212   2.273
13920TIP3   OH241702   4.439   4.793   3.537
13920TIP3    H141703   4.498   4.731   3.578
13920TIP3    H241704   4.496   4.851   3.486
13921TIP3   OH241705   0.592   4.206   3.167
13921TIP3    H141706   0.643   4.269   3.218
13921TIP3    H241707   0.565   4.255   3.090
13922TIP3   OH241708   4.622   7.171   2.439
13922TIP3    H141709   4.537   7.133   2.417
13922TIP3    H241710   4.682   7.097   2.438
13923TIP3   OH241711   3.223   0.590   4.828
13923TIP3    H141712   3.275   0.534   4.885
13923TIP3    H241713   3.215   0.541   4.747
13924TIP3   OH241714   2.812   3.014   4.374
13924TIP3    H141715   2.783   2.926   4.350
13924TIP3    H241716   2.731   3.065   4.377
13925TIP3   OH241717   3.059   7.425   3.372
13925TIP3    H141718   3.137   7.371   3.368
13925TIP3    H241719   3.078   7.490   3.440
13926TIP3   OH241720   0.751   2.888   4.085
13926TIP3    H141721   0.715   2.922   4.003
13926TIP3    H241722   0.690   2.819   4.112
13927TIP3   OH241723   3.297   5.132   1.314
13927TIP3    H141724   3.314   5.116   1.407
13927TIP3    H241725   3.303   5.045   1.273
13928TIP3   OH241726   5.279   5.339   3.696
13928TIP3    H141727   5.315   5.253   3.673
13928TIP3    H241728   5.226   5.323   3.775
13929TIP3   OH241729   1.832   5.670   1.596
13929TIP3    H141730   1.864   5.738   1.538
13929TIP3    H241731   1.738   5.668   1.581
13930TIP3   OH241732   0.051   0.152   2.953
13930TIP3    H141733  -0.011   0.078   2.953
13930TIP3    H241734   0.134   0.114   2.927
13931TIP3   OH241735   0.911   7.363   4.000
13931TIP3    H141736   0.885   7.430   4.063
13931TIP3    H241737   0.843   7.367   3.932
13932TIP3   OH241738   1.201   6.958   3.216
13932TIP3    H141739   1.188   6.952   3.310
13932TIP3    H241740   1.221   6.869   3.189
13933TIP3   OH241741   8.220   4.981   0.346
13933TIP3    H141742   8.227   4.894   0.305
13933TIP3    H241743   8.237   5.042   0.274
13934TIP3   OH241744   2.753   5.516   4.111
13934TIP3    H141745   2.837   5.472   4.097
13934TIP3    H241746   2.688   5.454   4.079
13935TIP3   OH241747   8.025   4.496   2.055
13935TIP3    H141748   7.934   4.489   2.024
13935TIP3    H241749   8.028   4.441   2.133
13936TIP3   OH241750   6.309   5.943   3.218
13936TIP3    H141751   6.290   6.020   3.270
13936TIP3    H241752   6.263   5.872   3.262
13937TIP3   OH241753   1.236   7.756   3.169
13937TIP3    H141754   1.146   7.773   3.198
13937TIP3    H241755   1.260   7.833   3.118
13938TIP3   OH241756   3.728   0.652   2.610
13938TIP3    H141757   3.811   0.682   2.572
13938TIP3    H241758   3.745   0.560   2.633
13939TIP3   OH241759   3.406   3.688   6.162
13939TIP3    H141760   3.410   3.784   6.157
13939TIP3    H241761   3.495   3.662   6.185
13940TIP3   OH241762   1.432   5.969   1.827
13940TIP3    H141763   1.407   5.996   1.739
13940TIP3    H241764   1.360   5.998   1.883
13941TIP3   OH241765   3.601   4.720   1.571
13941TIP3    H141766   3.509   4.702   1.591
13941TIP3    H241767   3.649   4.648   1.612
13942TIP3   OH241768   5.318   4.752   1.802
13942TIP3    H141769   5.239   4.798   1.833
13942TIP3    H241770   5.329   4.783   1.712
13943TIP3   OH241771   1.785   1.520   4.215
13943TIP3    H141772   1.837   1.551   4.289
13943TIP3    H241773   1.816   1.570   4.140
13944TIP3   OH241774   5.714   5.844   5.588
13944TIP3    H141775   5.808   5.859   5.598
13944TIP3    H241776   5.677   5.861   5.674
13945TIP3   OH241777   4.724   3.614   6.543
13945TIP3    H141778   4.657   3.570   6.491
13945TIP3    H241779   4.803   3.561   6.530
13946TIP3   OH241780   0.207   7.054   1.815
13946TIP3    H141781   0.212   6.998   1.892
13946TIP3    H241782   0.131   7.111   1.832
13947TIP3   OH241783   0.516   1.977   5.695
13947TIP3    H141784   0.454   2.016   5.633
13947TIP3    H241785   0.542   1.895   5.654
13948TIP3   OH241786   3.367   6.924   3.339
13948TIP3    H141787   3.347   6.837   3.304
13948TIP3    H241788   3.337   6.984   3.271
13949TIP3   OH241789   5.709   6.794   3.230
13949TIP3    H141790   5.655   6.771   3.306
13949TIP3    H241791   5.658   6.765   3.155
13950TIP3   OH241792   1.479   1.542   3.117
13950TIP3    H141793   1.554   1.489   3.089
13950TIP3    H241794   1.418   1.539   3.044
13951TIP3   OH241795   1.346   4.879   2.488
13951TIP3    H141796   1.387   4.798   2.459
13951TIP3    H241797   1.298   4.911   2.411
13952TIP3   OH241798   4.319   0.636   5.869
13952TIP3    H141799   4.383   0.684   5.922
13952TIP3    H241800   4.271   0.583   5.932
13953TIP3   OH241801   2.992   7.670   1.183
13953TIP3    H141802   2.931   7.601   1.211
13953TIP3    H241803   3.069   7.657   1.239
13954TIP3   OH241804   5.516   6.227   6.581
13954TIP3    H141805   5.589   6.287   6.594
13954TIP3    H241806   5.451   6.254   6.645
13955TIP3   OH241807   4.352   1.342   2.281
13955TIP3    H141808   4.427   1.395   2.306
13955TIP3    H241809   4.277   1.401   2.291
13956TIP3   OH241810   6.793   6.951   1.666
13956TIP3    H141811   6.871   7.000   1.639
13956TIP3    H241812   6.759   6.999   1.742
13957TIP3   OH241813   2.643   4.148   0.252
13957TIP3    H141814   2.572   4.149   0.188
13957TIP3    H241815   2.641   4.235   0.291
13958TIP3   OH241816   8.141   2.654   5.954
13958TIP3    H141817   8.171   2.705   6.029
13958TIP3    H241818   8.139   2.717   5.882
13959TIP3   OH241819   8.080   7.418   1.864
13959TIP3    H141820   8.021   7.491   1.848
13959TIP3    H241821   8.041   7.372   1.939
13960TIP3   OH241822   5.702   5.110   1.406
13960TIP3    H141823   5.682   5.052   1.479
13960TIP3    H241824   5.734   5.190   1.446
13961TIP3   OH241825   0.653   5.004   4.827
13961TIP3    H141826   0.729   4.950   4.805
13961TIP3    H241827   0.684   5.061   4.897
13962TIP3   OH241828   6.723   2.605   0.684
13962TIP3    H141829   6.677   2.573   0.761
13962TIP3    H241830   6.736   2.526   0.630
13963TIP3   OH241831   8.068   3.043   6.135
13963TIP3    H141832   8.110   3.126   6.113
13963TIP3    H241833   7.976   3.057   6.114
13964TIP3   OH241834   5.141   0.721   4.714
13964TIP3    H141835   5.091   0.778   4.772
13964TIP3    H241836   5.078   0.690   4.650
13965TIP3   OH241837   3.047   3.819   4.007
13965TIP3    H141838   3.071   3.908   4.033
13965TIP3    H241839   2.975   3.831   3.945
13966TIP3   OH241840   0.650   4.988   1.171
13966TIP3    H141841   0.721   5.045   1.201
13966TIP3    H241842   0.664   4.906   1.218
13967TIP3   OH241843   1.580   1.750   0.272
13967TIP3    H141844   1.645   1.689   0.308
13967TIP3    H241845   1.514   1.693   0.233
13968TIP3   OH241846   0.839   1.945   0.445
13968TIP3    H141847   0.884   1.890   0.382
13968TIP3    H241848   0.900   1.951   0.519
13969TIP3   OH241849   4.715   3.175   1.908
13969TIP3    H141850   4.690   3.169   2.000
13969TIP3    H241851   4.805   3.206   1.910
13970TIP3   OH241852   8.113   3.954   5.464
13970TIP3    H141853   8.025   3.965   5.501
13970TIP3    H241854   8.147   3.875   5.506
13971TIP3   OH241855   3.856   4.417   0.140
13971TIP3    H141856   3.940   4.377   0.117
13971TIP3    H241857   3.862   4.434   0.234
13972TIP3   OH241858   2.987   0.231   0.183
13972TIP3    H141859   2.906   0.191   0.151
13972TIP3    H241860   2.957   0.302   0.241
13973TIP3   OH241861   1.016   6.506   5.843
13973TIP3    H141862   0.937   6.453   5.860
13973TIP3    H241863   1.006   6.536   5.753
13974TIP3   OH241864   7.330   5.698   5.884
13974TIP3    H141865   7.288   5.638   5.823
13974TIP3    H241866   7.278   5.779   5.877
13975TIP3   OH241867   6.315   6.617   4.436
13975TIP3    H141868   6.237   6.630   4.383
13975TIP3    H241869   6.387   6.617   4.373
13976TIP3   OH241870   3.813   1.355   0.178
13976TIP3    H141871   3.728   1.349   0.135
13976TIP3    H241872   3.867   1.408   0.120
13977TIP3   OH241873   0.223   5.975   2.956
13977TIP3    H141874   0.152   5.916   2.981
13977TIP3    H241875   0.209   5.991   2.863
13978TIP3   OH241876   7.393   7.117   1.060
13978TIP3    H141877   7.310   7.097   1.102
13978TIP3    H241878   7.400   7.053   0.989
13979TIP3   OH241879   4.392   5.407   2.024
13979TIP3    H141880   4.365   5.319   2.049
13979TIP3    H241881   4.475   5.394   1.977
13980TIP3   OH241882   5.149   0.473   6.347
13980TIP3    H141883   5.181   0.557   6.377
13980TIP3    H241884   5.221   0.435   6.298
13981TIP3   OH241885   2.206   1.732   5.601
13981TIP3    H141886   2.286   1.749   5.551
13981TIP3    H241887   2.235   1.724   5.692
13982TIP3   OH241888   7.292   1.670   6.395
13982TIP3    H141889   7.343   1.688   6.315
13982TIP3    H241890   7.262   1.580   6.384
13983TIP3   OH241891   8.236   2.180   3.272
13983TIP3    H141892   8.146   2.200   3.246
13983TIP3    H241893   8.265   2.259   3.317
13984TIP3   OH241894   2.624   1.579   3.358
13984TIP3    H141895   2.713   1.586   3.323
13984TIP3    H241896   2.600   1.669   3.381
13985TIP3   OH241897   7.306   0.294   5.413
13985TIP3    H141898   7.386   0.242   5.420
13985TIP3    H241899   7.242   0.247   5.466
13986TIP3   OH241900   6.060   6.758   4.073
13986TIP3    H141901   6.003   6.710   4.133
13986TIP3    H241902   6.068   6.845   4.112
13987TIP3   OH241903   1.052   1.275   3.902
13987TIP3    H141904   0.996   1.233   3.837
13987TIP3    H241905   1.141   1.255   3.874
13988TIP3   OH241906   4.177   1.277   4.945
13988TIP3    H141907   4.170   1.257   5.038
13988TIP3    H241908   4.255   1.332   4.938
13989TIP3   OH241909   2.395   0.211   1.638
13989TIP3    H141910   2.354   0.291   1.670
13989TIP3    H241911   2.324   0.147   1.637
13990TIP3   OH241912   6.358   7.318   6.015
13990TIP3    H141913   6.338   7.406   5.981
13990TIP3    H241914   6.312   7.314   6.099
13991TIP3   OH241915   3.850   2.681   6.565
13991TIP3    H141916   3.890   2.675   6.652
13991TIP3    H241917   3.811   2.595   6.552
13992TIP3   OH241918   5.689   0.586   5.929
13992TIP3    H141919   5.602   0.561   5.962
13992TIP3    H241920   5.673   0.663   5.875
13993TIP3   OH241921   6.704   6.617   0.089
13993TIP3    H141922   6.770   6.673   0.129
13993TIP3    H241923   6.737   6.528   0.101
13994TIP3   OH241924   2.927   0.129   1.116
13994TIP3    H141925   2.954   0.132   1.208
13994TIP3    H241926   2.860   0.196   1.108
13995TIP3   OH241927   1.903   7.077   5.412
13995TIP3    H141928   1.811   7.050   5.417
13995TIP3    H241929   1.948   7.022   5.476
13996TIP3   OH241930   0.485   5.614   0.536
13996TIP3    H141931   0.560   5.617   0.596
13996TIP3    H241932   0.514   5.559   0.463
13997TIP3   OH241933   4.021   5.497   0.109
13997TIP3    H141934   4.096   5.445   0.138
13997TIP3    H241935   3.945   5.448   0.139
13998TIP3   OH241936   0.029   2.164   3.924
13998TIP3    H141937   0.025   2.125   3.836
13998TIP3    H241938   0.087   2.105   3.973
13999TIP3   OH241939   7.539   2.849   4.759
13999TIP3    H141940   7.499   2.916   4.815
13999TIP3    H241941   7.477   2.839   4.687
14000TIP3   OH241942   4.378   5.315   4.310
14000TIP3    H141943   4.410   5.252   4.374
14000TIP3    H241944   4.432   5.393   4.324
14001TIP3   OH241945   3.622   7.006   2.573
14001TIP3    H141946   3.658   6.962   2.650
14001TIP3    H241947   3.597   6.934   2.514
14002TIP3   OH241948   1.407   5.504   3.558
14002TIP3    H141949   1.474   5.470   3.499
14002TIP3    H241950   1.325   5.488   3.512
14003TIP3   OH241951   6.603   6.027   2.234
14003TIP3    H141952   6.671   6.092   2.253
14003TIP3    H241953   6.585   6.038   2.141
14004TIP3   OH241954   1.858   0.876   3.956
14004TIP3    H141955   1.904   0.843   4.033
14004TIP3    H241956   1.802   0.804   3.928
14005TIP3   OH241957   6.507   6.929   3.742
14005TIP3    H141958   6.554   7.008   3.768
14005TIP3    H241959   6.525   6.920   3.649
14006TIP3   OH241960   2.029   0.236   2.604
14006TIP3    H141961   2.058   0.146   2.592
14006TIP3    H241962   1.937   0.229   2.629
14007TIP3   OH241963   3.131   7.185   0.894
14007TIP3    H141964   3.081   7.122   0.842
14007TIP3    H241965   3.160   7.136   0.970
14008TIP3   OH241966   7.724   3.583   0.844
14008TIP3    H141967   7.715   3.659   0.903
14008TIP3    H241968   7.665   3.517   0.882
14009TIP3   OH241969   4.946   4.415   1.334
14009TIP3    H141970   4.955   4.364   1.414
14009TIP3    H241971   5.028   4.464   1.328
14010TIP3   OH241972   5.194   0.018   3.407
14010TIP3    H141973   5.210  -0.074   3.385
14010TIP3    H241974   5.234   0.029   3.493
14011TIP3   OH241975   3.152   1.507   3.359
14011TIP3    H141976   3.179   1.419   3.384
14011TIP3    H241977   3.155   1.508   3.263
14012TIP3   OH241978   6.051   6.924   6.224
14012TIP3    H141979   6.104   6.845   6.231
14012TIP3    H241980   6.115   6.995   6.216
14013TIP3   OH241981   4.736   0.583   0.637
14013TIP3    H141982   4.691   0.666   0.653
14013TIP3    H241983   4.825   0.599   0.667
14014TIP3   OH241984   1.693   2.372   6.324
14014TIP3    H141985   1.722   2.288   6.287
14014TIP3    H241986   1.660   2.350   6.410
14015TIP3   OH241987   2.712   6.407   1.802
14015TIP3    H141988   2.799   6.383   1.834
14015TIP3    H241989   2.657   6.333   1.824
14016TIP3   OH241990   8.032   0.357   2.521
14016TIP3    H141991   7.991   0.429   2.474
14016TIP3    H241992   8.109   0.396   2.563
14017TIP3   OH241993   5.710   6.575   2.015
14017TIP3    H141994   5.660   6.531   1.947
14017TIP3    H241995   5.765   6.507   2.053
14018TIP3   OH241996   5.779   6.649   4.907
14018TIP3    H141997   5.849   6.693   4.955
14018TIP3    H241998   5.715   6.626   4.975
14019TIP3   OH241999   7.122   4.784   5.721
14019TIP3    H142000   7.217   4.773   5.717
14019TIP3    H242001   7.107   4.833   5.802
14020TIP3   OH242002   6.623   0.568   3.658
14020TIP3    H142003   6.647   0.568   3.750
14020TIP3    H242004   6.700   0.532   3.613
14021TIP3   OH242005   6.629   2.744   5.404
14021TIP3    H142006   6.617   2.782   5.317
14021TIP3    H242007   6.596   2.655   5.396
14022TIP3   OH242008   1.291   6.488   4.497
14022TIP3    H142009   1.273   6.562   4.439
14022TIP3    H242010   1.243   6.509   4.578
14023TIP3   OH242011   6.084   2.874   1.498
14023TIP3    H142012   6.011   2.936   1.497
14023TIP3    H242013   6.103   2.857   1.406
14024TIP3   OH242014   4.723   7.399   5.202
14024TIP3    H142015   4.806   7.356   5.220
14024TIP3    H242016   4.681   7.408   5.288
14025TIP3   OH242017   4.591   7.495   1.213
14025TIP3    H142018   4.680   7.494   1.178
14025TIP3    H242019   4.578   7.585   1.242
14026TIP3   OH242020   6.895   2.312   1.571
14026TIP3    H142021   6.872   2.301   1.663
14026TIP3    H242022   6.811   2.321   1.526
14027TIP3   OH242023   0.636   2.140   4.845
14027TIP3    H142024   0.586   2.213   4.808
14027TIP3    H242025   0.632   2.153   4.939
14028TIP3   OH242026   5.366   5.495   2.452
14028TIP3    H142027   5.299   5.476   2.386
14028TIP3    H242028   5.446   5.456   2.416
14029TIP3   OH242029   6.231   0.140   1.092
14029TIP3    H142030   6.204   0.091   1.014
14029TIP3    H242031   6.169   0.213   1.096
14030TIP3   OH242032   5.455   4.984   5.319
14030TIP3    H142033   5.531   4.927   5.308
14030TIP3    H242034   5.492   5.068   5.345
14031TIP3   OH242035   4.802   7.067   0.875
14031TIP3    H142036   4.837   6.981   0.851
14031TIP3    H242037   4.868   7.129   0.844
14032TIP3   OH242038   6.879   5.764   1.037
14032TIP3    H142039   6.809   5.699   1.044
14032TIP3    H242040   6.850   5.836   1.094
14033TIP3   OH242041   4.686   4.105   4.591
14033TIP3    H142042   4.685   4.034   4.656
14033TIP3    H242043   4.778   4.123   4.575
14034TIP3   OH242044   1.538  -0.031   3.409
14034TIP3    H142045   1.507   0.060   3.410
14034TIP3    H242046   1.632  -0.024   3.423
14035TIP3   OH242047   4.298   7.775   6.633
14035TIP3    H142048   4.264   7.728   6.556
14035TIP3    H242049   4.256   7.733   6.707
14036TIP3   OH242050   3.808   0.791   6.358
14036TIP3    H142051   3.806   0.735   6.280
14036TIP3    H242052   3.895   0.776   6.395
14037TIP3   OH242053   1.213   1.318   1.811
14037TIP3    H142054   1.133   1.326   1.758
14037TIP3    H242055   1.281   1.292   1.750
14038TIP3   OH242056   4.947   2.975   1.315
14038TIP3    H142057   4.956   3.061   1.356
14038TIP3    H242058   4.896   2.924   1.377
14039TIP3   OH242059   4.502   7.194   1.096
14039TIP3    H142060   4.536   7.221   1.011
14039TIP3    H242061   4.433   7.257   1.116
14040TIP3   OH242062   2.767   2.658   5.531
14040TIP3    H142063   2.755   2.645   5.437
14040TIP3    H242064   2.859   2.684   5.539
14041TIP3   OH242065   0.286   6.504   3.409
14041TIP3    H142066   0.218   6.569   3.425
14041TIP3    H242067   0.245   6.440   3.351
14042TIP3   OH242068   5.237   5.456   2.228
14042TIP3    H142069   5.163   5.412   2.186
14042TIP3    H242070   5.275   5.510   2.159
14043TIP3   OH242071   2.246   4.690   4.872
14043TIP3    H142072   2.174   4.705   4.811
14043TIP3    H242073   2.322   4.729   4.829
14044TIP3   OH242074   4.729   2.844   5.691
14044TIP3    H142075   4.738   2.818   5.600
14044TIP3    H242076   4.752   2.937   5.692
14045TIP3   OH242077   4.793   7.070   0.207
14045TIP3    H142078   4.783   7.083   0.301
14045TIP3    H242079   4.833   7.150   0.175
14046TIP3   OH242080   3.206   3.287   4.595
14046TIP3    H142081   3.153   3.266   4.518
14046TIP3    H242082   3.296   3.269   4.567
14047TIP3   OH242083   1.308   3.008   4.554
14047TIP3    H142084   1.355   2.929   4.579
14047TIP3    H242085   1.278   2.991   4.464
14048TIP3   OH242086   1.739   0.425   0.783
14048TIP3    H142087   1.654   0.464   0.803
14048TIP3    H242088   1.802   0.477   0.833
14049TIP3   OH242089   0.119   3.555   0.650
14049TIP3    H142090   0.179   3.610   0.701
14049TIP3    H242091   0.108   3.476   0.703
14050TIP3   OH242092   5.559   7.090   4.651
14050TIP3    H142093   5.535   7.176   4.686
14050TIP3    H242094   5.637   7.064   4.700
14051TIP3   OH242095   6.502   2.086   3.493
14051TIP3    H142096   6.543   2.020   3.438
14051TIP3    H242097   6.556   2.088   3.572
14052TIP3   OH242098   5.663   3.756   6.367
14052TIP3    H142099   5.642   3.678   6.316
14052TIP3    H242100   5.621   3.741   6.452
14053TIP3   OH242101   4.421   1.984   4.692
14053TIP3    H142102   4.446   2.050   4.626
14053TIP3    H242103   4.435   1.900   4.648
14054TIP3   OH242104   6.668   3.749   5.048
14054TIP3    H142105   6.627   3.696   5.116
14054TIP3    H242106   6.724   3.688   4.999
14055TIP3   OH242107   1.482   6.286   4.866
14055TIP3    H142108   1.459   6.198   4.836
14055TIP3    H242109   1.406   6.314   4.917
14056TIP3   OH242110   6.857   2.114   6.641
14056TIP3    H142111   6.770   2.102   6.604
14056TIP3    H242112   6.843   2.113   6.736
14057TIP3   OH242113   2.098   0.401   0.673
14057TIP3    H142114   2.063   0.470   0.617
14057TIP3    H242115   2.191   0.399   0.654
14058TIP3   OH242116   4.146   6.464   0.510
14058TIP3    H142117   4.082   6.425   0.451
14058TIP3    H242118   4.160   6.399   0.578
14059TIP3   OH242119   7.645   7.770   2.581
14059TIP3    H142120   7.628   7.714   2.657
14059TIP3    H242121   7.626   7.715   2.505
14060TIP3   OH242122   3.387   7.788   2.302
14060TIP3    H142123   3.405   7.880   2.287
14060TIP3    H242124   3.304   7.787   2.350
14061TIP3   OH242125   6.827   7.731   2.204
14061TIP3    H142126   6.838   7.822   2.232
14061TIP3    H242127   6.915   7.693   2.213
14062TIP3   OH242128   0.575   6.770   0.615
14062TIP3    H142129   0.582   6.774   0.710
14062TIP3    H242130   0.664   6.780   0.583
14063TIP3   OH242131   0.292   3.473   3.764
14063TIP3    H142132   0.366   3.534   3.759
14063TIP3    H242133   0.240   3.492   3.685
14064TIP3   OH242134   1.468   0.066   4.747
14064TIP3    H142135   1.493   0.004   4.678
14064TIP3    H242136   1.505   0.150   4.719
14065TIP3   OH242137   1.962   3.345   5.333
14065TIP3    H142138   1.947   3.252   5.349
14065TIP3    H242139   1.886   3.374   5.283
14066TIP3   OH242140   0.119   0.210   1.918
14066TIP3    H142141   0.171   0.162   1.983
14066TIP3    H242142   0.085   0.286   1.965
14067TIP3   OH242143   4.012   2.484   3.556
14067TIP3    H142144   4.024   2.480   3.461
14067TIP3    H242145   3.927   2.444   3.571
14068TIP3   OH242146   1.329   2.418   6.632
14068TIP3    H142147   1.300   2.334   6.596
14068TIP3    H242148   1.264   2.438   6.699
14069TIP3   OH242149   3.753   0.782   2.853
14069TIP3    H142150   3.685   0.813   2.793
14069TIP3    H242151   3.756   0.688   2.839
14070TIP3   OH242152   8.103   3.666   3.252
14070TIP3    H142153   8.085   3.743   3.306
14070TIP3    H242154   8.061   3.687   3.168
14071TIP3   OH242155   1.666   0.768   0.387
14071TIP3    H142156   1.674   0.843   0.328
14071TIP3    H242157   1.607   0.708   0.341
14072TIP3   OH242158   3.648   4.085   1.011
14072TIP3    H142159   3.602   4.006   0.982
14072TIP3    H242160   3.717   4.052   1.070
14073TIP3   OH242161   7.935   5.125   0.210
14073TIP3    H142162   7.884   5.184   0.155
14073TIP3    H242163   8.024   5.160   0.207
14074TIP3   OH242164   7.815   4.358   1.122
14074TIP3    H142165   7.869   4.411   1.063
14074TIP3    H242166   7.790   4.282   1.069
14075TIP3   OH242167   1.691   6.266   2.660
14075TIP3    H142168   1.608   6.312   2.664
14075TIP3    H242169   1.706   6.251   2.567
14076TIP3   OH242170   0.022   0.199   0.976
14076TIP3    H142171   0.065   0.240   1.051
14076TIP3    H242172   0.014   0.270   0.911
14077TIP3   OH242173   7.020   0.698   0.022
14077TIP3    H142174   7.027   0.717  -0.072
14077TIP3    H242175   7.031   0.783   0.064
14078TIP3   OH242176   3.354   1.310   2.453
14078TIP3    H142177   3.433   1.341   2.498
14078TIP3    H242178   3.281   1.343   2.507
14079TIP3   OH242179   0.305   5.802   0.679
14079TIP3    H142180   0.401   5.799   0.688
14079TIP3    H242181   0.277   5.711   0.684
14080TIP3   OH242182   2.471   7.479   4.183
14080TIP3    H142183   2.411   7.522   4.245
14080TIP3    H242184   2.550   7.463   4.234
14081TIP3   OH242185   8.223   0.787   3.289
14081TIP3    H142186   8.173   0.720   3.244
14081TIP3    H242187   8.164   0.863   3.293
14082TIP3   OH242188   2.834   7.148   3.973
14082TIP3    H142189   2.855   7.104   4.056
14082TIP3    H242190   2.741   7.131   3.959
14083TIP3   OH242191   0.072   4.835   3.839
14083TIP3    H142192  -0.016   4.827   3.874
14083TIP3    H242193   0.100   4.924   3.863
14084TIP3   OH242194   6.475   5.888   5.158
14084TIP3    H142195   6.557   5.934   5.142
14084TIP3    H242196   6.412   5.931   5.101
14085TIP3   OH242197   3.731   0.047   1.558
14085TIP3    H142198   3.694   0.088   1.636
14085TIP3    H242199   3.775  -0.031   1.590
14086TIP3   OH242200   7.032   6.449   2.260
14086TIP3    H142201   7.070   6.367   2.228
14086TIP3    H242202   6.956   6.464   2.204
14087TIP3   OH242203   2.185   6.316   5.989
14087TIP3    H142204   2.116   6.325   6.055
14087TIP3    H242205   2.226   6.402   5.986
14088TIP3   OH242206   7.734   0.960   4.760
14088TIP3    H142207   7.644   0.930   4.775
14088TIP3    H242208   7.735   0.988   4.668
14089TIP3   OH242209   7.639   6.389   2.308
14089TIP3    H142210   7.657   6.373   2.401
14089TIP3    H242211   7.609   6.304   2.275
14090TIP3   OH242212   2.474   3.544   2.211
14090TIP3    H142213   2.559   3.526   2.252
14090TIP3    H242214   2.486   3.517   2.120
14091TIP3   OH242215   8.084   6.347   0.940
14091TIP3    H142216   8.059   6.404   1.013
14091TIP3    H242217   8.162   6.387   0.904
14092TIP3   OH242218   7.589   5.752   0.997
14092TIP3    H142219   7.530   5.700   1.051
14092TIP3    H242220   7.649   5.688   0.959
14093TIP3   OH242221   5.605   3.810   4.910
14093TIP3    H142222   5.603   3.787   4.817
14093TIP3    H242223   5.518   3.786   4.943
14094TIP3   OH242224   4.037   6.514   2.021
14094TIP3    H142225   4.132   6.520   2.011
14094TIP3    H242226   4.019   6.558   2.105
14095TIP3   OH242227   6.564   5.317   4.165
14095TIP3    H142228   6.630   5.384   4.147
14095TIP3    H242229   6.591   5.278   4.248
14096TIP3   OH242230   6.745   1.102   4.263
14096TIP3    H142231   6.741   1.008   4.245
14096TIP3    H242232   6.804   1.137   4.197
14097TIP3   OH242233   0.642   1.886   1.761
14097TIP3    H142234   0.592   1.829   1.819
14097TIP3    H242235   0.584   1.901   1.687
14098TIP3   OH242236   7.138   1.547   2.254
14098TIP3    H142237   7.145   1.636   2.288
14098TIP3    H242238   7.141   1.558   2.159
14099TIP3   OH242239   2.328   2.555   4.842
14099TIP3    H142240   2.249   2.599   4.873
14099TIP3    H242241   2.401   2.607   4.875
14100TIP3   OH242242   2.504   2.302   6.335
14100TIP3    H142243   2.584   2.264   6.298
14100TIP3    H242244   2.464   2.231   6.385
14101TIP3   OH242245   3.370   0.794   6.682
14101TIP3    H142246   3.293   0.752   6.643
14101TIP3    H242247   3.428   0.810   6.608
14102TIP3   OH242248   8.112   3.375   0.594
14102TIP3    H142249   8.044   3.336   0.540
14102TIP3    H242250   8.077   3.374   0.683
14103TIP3   OH242251   6.921   5.607   6.304
14103TIP3    H142252   6.995   5.556   6.336
14103TIP3    H242253   6.957   5.662   6.234
14104TIP3   OH242254   7.688   0.985   4.473
14104TIP3    H142255   7.600   1.022   4.464
14104TIP3    H242256   7.704   0.941   4.390
14105TIP3   OH242257   2.927   7.385   1.167
14105TIP3    H142258   2.932   7.378   1.262
14105TIP3    H242259   2.850   7.335   1.142
14106TIP3   OH242260   3.258   3.604   4.442
14106TIP3    H142261   3.193   3.662   4.482
14106TIP3    H242262   3.208   3.548   4.382
14107TIP3   OH242263   6.566   3.085   4.404
14107TIP3    H142264   6.635   3.096   4.338
14107TIP3    H242265   6.497   3.144   4.376
14108TIP3   OH242266   2.849   4.811   0.939
14108TIP3    H142267   2.802   4.865   0.876
14108TIP3    H242268   2.803   4.826   1.022
14109TIP3   OH242269   1.962  -0.003   3.189
14109TIP3    H142270   2.053   0.021   3.209
14109TIP3    H242271   1.920  -0.008   3.275
14110TIP3   OH242272   3.962   6.639   1.468
14110TIP3    H142273   3.962   6.621   1.562
14110TIP3    H242274   4.041   6.691   1.453
14111TIP3   OH242275   4.959   2.319   1.778
14111TIP3    H142276   4.909   2.328   1.859
14111TIP3    H242277   5.033   2.379   1.789
14112TIP3   OH242278   2.978   3.730   5.672
14112TIP3    H142279   2.907   3.781   5.708
14112TIP3    H242280   3.046   3.732   5.739
14113TIP3   OH242281   3.043   7.795   0.946
14113TIP3    H142282   3.002   7.723   0.994
14113TIP3    H242283   2.995   7.873   0.974
14114TIP3   OH242284   3.682   0.222   1.756
14114TIP3    H142285   3.746   0.253   1.820
14114TIP3    H242286   3.684   0.288   1.687
14115TIP3   OH242287   0.633   1.020   4.932
14115TIP3    H142288   0.658   1.007   4.841
14115TIP3    H242289   0.581   1.101   4.932
14116TIP3   OH242290   1.174   4.794   2.730
14116TIP3    H142291   1.224   4.802   2.649
14116TIP3    H242292   1.151   4.701   2.735
14117TIP3   OH242293   6.974   5.593   4.400
14117TIP3    H142294   6.899   5.537   4.423
14117TIP3    H242295   6.937   5.680   4.389
14118TIP3   OH242296   0.974   6.652   1.765
14118TIP3    H142297   0.970   6.685   1.855
14118TIP3    H242298   0.904   6.699   1.719
14119TIP3   OH242299   2.620   5.884   3.593
14119TIP3    H142300   2.599   5.947   3.663
14119TIP3    H242301   2.614   5.935   3.512
14120TIP3   OH242302   0.984   1.626   4.932
14120TIP3    H142303   0.897   1.598   4.959
14120TIP3    H242304   1.037   1.546   4.934
14121TIP3   OH242305   3.696   2.162   5.787
14121TIP3    H142306   3.717   2.255   5.778
14121TIP3    H242307   3.610   2.154   5.745
14122TIP3   OH242308   4.522   3.217   0.671
14122TIP3    H142309   4.594   3.251   0.723
14122TIP3    H242310   4.563   3.159   0.607
14123TIP3   OH242311   2.268   3.955   0.008
14123TIP3    H142312   2.262   3.989  -0.081
14123TIP3    H242313   2.347   3.996   0.044
14124TIP3   OH242314   5.858   2.073   5.599
14124TIP3    H142315   5.811   2.023   5.533
14124TIP3    H242316   5.909   2.137   5.549
14125TIP3   OH242317   6.713   5.991   5.106
14125TIP3    H142318   6.698   5.970   5.013
14125TIP3    H242319   6.800   6.031   5.108
14126TIP3   OH242320   3.582   6.480   6.244
14126TIP3    H142321   3.591   6.394   6.201
14126TIP3    H242322   3.542   6.460   6.329
14127TIP3   OH242323   7.139   3.353   1.251
14127TIP3    H142324   7.132   3.321   1.161
14127TIP3    H242325   7.190   3.286   1.296
14128TIP3   OH242326   0.944   7.145   6.666
14128TIP3    H142327   1.008   7.103   6.724
14128TIP3    H242328   0.895   7.072   6.628
14129TIP3   OH242329   4.461   3.526   2.173
14129TIP3    H142330   4.454   3.596   2.237
14129TIP3    H242331   4.555   3.512   2.163
14130TIP3   OH242332   4.779   6.590   4.161
14130TIP3    H142333   4.693   6.629   4.173
14130TIP3    H242334   4.836   6.663   4.137
14131TIP3   OH242335   1.975   2.165   6.721
14131TIP3    H142336   1.945   2.138   6.635
14131TIP3    H242337   1.925   2.244   6.741
14132TIP3   OH242338   2.283   7.403   0.794
14132TIP3    H142339   2.328   7.478   0.832
14132TIP3    H242340   2.302   7.330   0.853
14133TIP3   OH242341   6.134   7.346   5.455
14133TIP3    H142342   6.204   7.397   5.497
14133TIP3    H242343   6.147   7.257   5.487
14134TIP3   OH242344   1.973   6.663   1.489
14134TIP3    H142345   1.981   6.568   1.488
14134TIP3    H242346   2.020   6.691   1.567
14135TIP3   OH242347   5.437   6.827   3.139
14135TIP3    H142348   5.458   6.828   3.233
14135TIP3    H242349   5.418   6.919   3.118
14136TIP3   OH242350   0.776   5.797   6.328
14136TIP3    H142351   0.826   5.823   6.406
14136TIP3    H242352   0.701   5.857   6.326
14137TIP3   OH242353   3.917   1.648   5.507
14137TIP3    H142354   3.986   1.593   5.544
14137TIP3    H242355   3.884   1.598   5.432
14138TIP3   OH242356   5.739   0.829   6.656
14138TIP3    H142357   5.649   0.820   6.687
14138TIP3    H242358   5.749   0.760   6.591
14139TIP3   OH242359   7.340   4.213   5.406
14139TIP3    H142360   7.334   4.232   5.500
14139TIP3    H242361   7.278   4.273   5.365
14140TIP3   OH242362   1.721   4.852  -0.005
14140TIP3    H142363   1.717   4.892   0.082
14140TIP3    H242364   1.793   4.790  -0.001
14141TIP3   OH242365   7.880   7.175   0.901
14141TIP3    H142366   7.966   7.158   0.938
14141TIP3    H242367   7.819   7.155   0.972
14142TIP3   OH242368   5.273   0.485   1.115
14142TIP3    H142369   5.309   0.498   1.028
14142TIP3    H242370   5.236   0.570   1.139
14143TIP3   OH242371  -0.070   7.576   2.884
14143TIP3    H142372   0.006   7.519   2.891
14143TIP3    H242373  -0.084   7.587   2.790
14144TIP3   OH242374   1.205   5.942   6.733
14144TIP3    H142375   1.202   5.990   6.650
14144TIP3    H242376   1.215   5.850   6.707
14145TIP3   OH242377   0.473   1.197   4.583
14145TIP3    H142378   0.563   1.193   4.616
14145TIP3    H242379   0.419   1.171   4.658
14146TIP3   OH242380   1.293   6.898   1.469
14146TIP3    H142381   1.379   6.895   1.512
14146TIP3    H242382   1.230   6.894   1.541
14147TIP3   OH242383   0.803   5.853   0.126
14147TIP3    H142384   0.790   5.767   0.085
14147TIP3    H242385   0.756   5.847   0.209
14148TIP3   OH242386   3.633   6.572   4.356
14148TIP3    H142387   3.541   6.548   4.364
14148TIP3    H242388   3.640   6.614   4.270
14149TIP3   OH242389   3.856   2.853   3.473
14149TIP3    H142390   3.800   2.884   3.402
14149TIP3    H242391   3.907   2.781   3.433
14150TIP3   OH242392   6.396   3.472   3.252
14150TIP3    H142393   6.333   3.404   3.232
14150TIP3    H242394   6.347   3.537   3.302
14151TIP3   OH242395   2.890   0.432   6.084
14151TIP3    H142396   2.925   0.480   6.009
14151TIP3    H242397   2.858   0.500   6.143
14152TIP3   OH242398   2.962   4.125   6.217
14152TIP3    H142399   2.896   4.151   6.280
14152TIP3    H242400   2.951   4.187   6.144
14153TIP3   OH242401   5.546   6.656   5.344
14153TIP3    H142402   5.565   6.579   5.398
14153TIP3    H242403   5.451   6.665   5.346
14154TIP3   OH242404   6.175   0.173   4.851
14154TIP3    H142405   6.099   0.230   4.864
14154TIP3    H242406   6.222   0.176   4.934
14155TIP3   OH242407   7.270   3.389   3.744
14155TIP3    H142408   7.228   3.471   3.770
14155TIP3    H242409   7.217   3.356   3.672
14156TIP3   OH242410   3.077   4.102   4.723
14156TIP3    H142411   3.134   4.148   4.662
14156TIP3    H242412   3.136   4.050   4.778
14157TIP3   OH242413   2.255   0.780   2.735
14157TIP3    H142414   2.182   0.729   2.767
14157TIP3    H242415   2.216   0.843   2.674
14158TIP3   OH242416   2.293   0.173   2.885
14158TIP3    H142417   2.230   0.104   2.905
14158TIP3    H242418   2.350   0.135   2.819
14159TIP3   OH242419   5.630   5.499   6.277
14159TIP3    H142420   5.567   5.480   6.346
14159TIP3    H242421   5.696   5.554   6.318
14160TIP3   OH242422   4.188   6.154   3.530
14160TIP3    H142423   4.137   6.198   3.462
14160TIP3    H242424   4.268   6.126   3.485
14161TIP3   OH242425   3.926   7.828   2.595
14161TIP3    H142426   3.832   7.841   2.590
14161TIP3    H242427   3.960   7.858   2.510
14162TIP3   OH242428   7.546   4.641   3.933
14162TIP3    H142429   7.618   4.670   3.877
14162TIP3    H242430   7.575   4.663   4.021
14163TIP3   OH242431   5.751   5.518   5.068
14163TIP3    H142432   5.766   5.423   5.071
14163TIP3    H242433   5.832   5.554   5.031
14164TIP3   OH242434   4.801   4.698   1.454
14164TIP3    H142435   4.884   4.715   1.497
14164TIP3    H242436   4.743   4.767   1.485
14165TIP3   OH242437   8.253   5.719   4.078
14165TIP3    H142438   8.342   5.745   4.103
14165TIP3    H242439   8.203   5.800   4.081
14166TIP3   OH242440   3.925   5.851   4.873
14166TIP3    H142441   3.947   5.900   4.952
14166TIP3    H242442   3.995   5.871   4.812
14167TIP3   OH242443   1.910   4.966   1.363
14167TIP3    H142444   1.991   4.976   1.413
14167TIP3    H242445   1.851   5.032   1.399
14168TIP3   OH242446   3.006   4.012   1.939
14168TIP3    H142447   3.001   4.085   1.877
14168TIP3    H242448   3.020   4.054   2.024
14169TIP3   OH242449   5.004   6.079   1.910
14169TIP3    H142450   4.999   6.038   1.996
14169TIP3    H242451   5.000   6.006   1.848
14170TIP3   OH242452   5.556   2.670   3.769
14170TIP3    H142453   5.592   2.604   3.828
14170TIP3    H242454   5.627   2.733   3.757
14171TIP3   OH242455   3.047   2.920   5.804
14171TIP3    H142456   2.985   2.929   5.731
14171TIP3    H242457   3.121   2.975   5.779
14172TIP3   OH242458   2.623   6.152   6.339
14172TIP3    H142459   2.543   6.190   6.375
14172TIP3    H242460   2.685   6.224   6.337
14173TIP3   OH242461   6.204   2.420   3.831
14173TIP3    H142462   6.163   2.346   3.787
14173TIP3    H242463   6.172   2.415   3.921
14174TIP3   OH242464   1.362   7.259   4.348
14174TIP3    H142465   1.393   7.329   4.291
14174TIP3    H242466   1.395   7.178   4.309
14175TIP3   OH242467   4.990   2.359   3.730
14175TIP3    H142468   4.903   2.356   3.769
14175TIP3    H242469   4.986   2.296   3.658
14176TIP3   OH242470   7.180   5.791   0.236
14176TIP3    H142471   7.141   5.715   0.278
14176TIP3    H242472   7.261   5.807   0.285
14177TIP3   OH242473   5.061   2.113   0.010
14177TIP3    H142474   5.132   2.102   0.073
14177TIP3    H242475   5.103   2.106  -0.075
14178TIP3   OH242476   2.377   4.418   0.696
14178TIP3    H142477   2.315   4.414   0.623
14178TIP3    H242478   2.459   4.385   0.660
14179TIP3   OH242479   4.307   6.127   0.121
14179TIP3    H142480   4.319   6.057   0.057
14179TIP3    H242481   4.369   6.108   0.191
14180TIP3   OH242482   6.149   3.218   2.514
14180TIP3    H142483   6.240   3.188   2.516
14180TIP3    H242484   6.155   3.310   2.488
14181TIP3   OH242485   7.734   3.421   1.948
14181TIP3    H142486   7.742   3.339   1.997
14181TIP3    H242487   7.657   3.464   1.985
14182TIP3   OH242488   8.163   4.459   6.056
14182TIP3    H142489   8.259   4.459   6.057
14182TIP3    H242490   8.140   4.541   6.012
14183TIP3   OH242491   6.798   3.307   1.142
14183TIP3    H142492   6.737   3.295   1.215
14183TIP3    H242493   6.870   3.357   1.180
14184TIP3   OH242494   0.579   3.652   6.251
14184TIP3    H142495   0.499   3.605   6.229
14184TIP3    H242496   0.586   3.721   6.185
14185TIP3   OH242497   1.350   1.213   2.286
14185TIP3    H142498   1.403   1.292   2.276
14185TIP3    H242499   1.320   1.193   2.197
14186TIP3   OH242500   7.402   2.000   2.647
14186TIP3    H142501   7.428   2.004   2.554
14186TIP3    H242502   7.439   2.079   2.686
14187TIP3   OH242503   7.434   7.345   1.208
14187TIP3    H142504   7.427   7.285   1.134
14187TIP3    H242505   7.352   7.393   1.208
14188TIP3   OH242506   3.635   4.271   0.582
14188TIP3    H142507   3.580   4.287   0.505
14188TIP3    H242508   3.600   4.191   0.620
14189TIP3   OH242509   0.208   4.983   2.378
14189TIP3    H142510   0.278   4.976   2.444
14189TIP3    H242511   0.255   4.993   2.295
14190TIP3   OH242512   6.098   5.953   0.440
14190TIP3    H142513   6.055   6.021   0.491
14190TIP3    H242514   6.067   5.871   0.479
14191TIP3   OH242515   5.842   7.292   2.289
14191TIP3    H142516   5.820   7.291   2.382
14191TIP3    H242517   5.807   7.209   2.255
14192TIP3   OH242518   6.965   7.656   2.597
14192TIP3    H142519   6.911   7.730   2.570
14192TIP3    H242520   7.054   7.679   2.569
14193TIP3   OH242521   5.528   1.050   6.731
14193TIP3    H142522   5.484   0.966   6.722
14193TIP3    H242523   5.542   1.079   6.641
14194TIP3   OH242524   7.920   3.661   5.803
14194TIP3    H142525   7.917   3.687   5.711
14194TIP3    H242526   8.013   3.657   5.823
14195TIP3   OH242527   8.063   3.262   6.332
14195TIP3    H142528   8.013   3.191   6.292
14195TIP3    H242529   7.997   3.329   6.352
14196TIP3   OH242530   7.043   4.879   2.114
14196TIP3    H142531   7.040   4.849   2.023
14196TIP3    H242532   7.083   4.966   2.110
14197TIP3   OH242533   3.509   2.440   6.548
14197TIP3    H142534   3.605   2.434   6.550
14197TIP3    H242535   3.481   2.355   6.513
14198TIP3   OH242536   3.750   1.205   5.752
14198TIP3    H142537   3.721   1.223   5.662
14198TIP3    H242538   3.840   1.174   5.743
14199TIP3   OH242539   1.917   6.953   2.028
14199TIP3    H142540   1.921   7.032   1.975
14199TIP3    H242541   1.887   6.983   2.114
14200TIP3   OH242542   0.716   3.442   1.905
14200TIP3    H142543   0.806   3.420   1.879
14200TIP3    H242544   0.727   3.509   1.973
14201TIP3   OH242545   5.124   7.682   6.483
14201TIP3    H142546   5.035   7.678   6.449
14201TIP3    H242547   5.126   7.618   6.554
14202TIP3   OH242548   3.401   3.291   3.655
14202TIP3    H142549   3.446   3.289   3.739
14202TIP3    H242550   3.376   3.382   3.643
14203TIP3   OH242551   5.040   7.878   5.193
14203TIP3    H142552   5.128   7.841   5.197
14203TIP3    H242553   4.983   7.806   5.217
14204TIP3   OH242554   2.364   4.264   3.671
14204TIP3    H142555   2.379   4.228   3.584
14204TIP3    H242556   2.272   4.244   3.689
14205TIP3   OH242557   1.312   6.501   5.879
14205TIP3    H142558   1.222   6.520   5.851
14205TIP3    H242559   1.343   6.583   5.916
14206TIP3   OH242560   0.866   1.684   3.606
14206TIP3    H142561   0.926   1.609   3.607
14206TIP3    H242562   0.884   1.731   3.686
14207TIP3   OH242563   6.653   4.306   5.453
14207TIP3    H142564   6.566   4.276   5.426
14207TIP3    H242565   6.657   4.287   5.547
14208TIP3   OH242566   3.394   1.195   4.658
14208TIP3    H142567   3.463   1.253   4.628
14208TIP3    H242568   3.313   1.241   4.638
14209TIP3   OH242569   0.262   7.719   5.646
14209TIP3    H142570   0.340   7.678   5.682
14209TIP3    H242571   0.192   7.693   5.706
14210TIP3   OH242572   1.739   5.682   1.885
14210TIP3    H142573   1.800   5.726   1.826
14210TIP3    H242574   1.653   5.693   1.844
14211TIP3   OH242575   8.272   2.994   2.041
14211TIP3    H142576   8.313   3.079   2.060
14211TIP3    H242577   8.179   3.015   2.032
14212TIP3   OH242578   3.421   1.094   0.459
14212TIP3    H142579   3.421   1.187   0.440
14212TIP3    H242580   3.375   1.054   0.384
14213TIP3   OH242581   0.641   6.407   4.471
14213TIP3    H142582   0.642   6.493   4.428
14213TIP3    H242583   0.608   6.347   4.404
14214TIP3   OH242584   5.294   4.762   5.030
14214TIP3    H142585   5.352   4.757   5.106
14214TIP3    H242586   5.209   4.787   5.066
14215TIP3   OH242587   6.318   5.773   2.054
14215TIP3    H142588   6.363   5.717   2.117
14215TIP3    H242589   6.296   5.851   2.104
14216TIP3   OH242590   4.428   4.250   4.083
14216TIP3    H142591   4.370   4.174   4.078
14216TIP3    H242592   4.452   4.255   4.176
14217TIP3   OH242593   2.686   2.242   1.059
14217TIP3    H142594   2.752   2.301   1.023
14217TIP3    H242595   2.724   2.154   1.051
14218TIP3   OH242596   5.627   2.427   6.246
14218TIP3    H142597   5.656   2.394   6.330
14218TIP3    H242598   5.641   2.354   6.185
14219TIP3   OH242599   0.545   5.131   3.067
14219TIP3    H142600   0.563   5.221   3.095
14219TIP3    H242601   0.453   5.116   3.092
14220TIP3   OH242602   2.779   5.084   3.724
14220TIP3    H142603   2.850   5.147   3.738
14220TIP3    H242604   2.806   5.035   3.646
14221TIP3   OH242605   7.776   7.820   0.548
14221TIP3    H142606   7.868   7.829   0.571
14221TIP3    H242607   7.742   7.755   0.610
14222TIP3   OH242608   4.527   3.780   2.927
14222TIP3    H142609   4.569   3.722   2.990
14222TIP3    H242610   4.554   3.868   2.955
14223TIP3   OH242611   2.035   4.498   5.118
14223TIP3    H142612   2.125   4.508   5.148
14223TIP3    H242613   1.983   4.497   5.198
14224TIP3   OH242614   3.897   1.895   1.687
14224TIP3    H142615   3.955   1.871   1.759
14224TIP3    H242616   3.878   1.988   1.702
14225TIP3   OH242617   1.964   1.597   6.519
14225TIP3    H142618   1.991   1.594   6.611
14225TIP3    H242619   1.938   1.688   6.504
14226TIP3   OH242620   3.583   0.171   1.357
14226TIP3    H142621   3.648   0.142   1.421
14226TIP3    H242622   3.618   0.144   1.272
14227TIP3   OH242623   6.052   5.652   1.430
14227TIP3    H142624   6.013   5.737   1.410
14227TIP3    H242625   6.079   5.617   1.346
14228TIP3   OH242626   4.584   6.192   6.040
14228TIP3    H142627   4.533   6.174   5.962
14228TIP3    H242628   4.673   6.164   6.018
14229TIP3   OH242629   8.020   5.778   3.800
14229TIP3    H142630   7.955   5.745   3.863
14229TIP3    H242631   8.101   5.732   3.824
14230TIP3   OH242632   5.282   2.130   1.229
14230TIP3    H142633   5.286   2.036   1.210
14230TIP3    H242634   5.215   2.163   1.168
14231TIP3   OH242635   1.822   5.625   2.129
14231TIP3    H142636   1.766   5.640   2.053
14231TIP3    H242637   1.797   5.539   2.162
14232TIP3   OH242638   2.983   4.048   3.648
14232TIP3    H142639   2.992   4.023   3.556
14232TIP3    H242640   2.899   4.093   3.653
14233TIP3   OH242641   4.220   1.274   5.788
14233TIP3    H142642   4.206   1.197   5.843
14233TIP3    H242643   4.211   1.241   5.699
14234TIP3   OH242644   4.403   0.910   0.852
14234TIP3    H142645   4.333   0.959   0.809
14234TIP3    H242646   4.414   0.953   0.937
14235TIP3   OH242647   2.801   7.019   4.211
14235TIP3    H142648   2.750   7.097   4.234
14235TIP3    H242649   2.856   7.002   4.287
14236TIP3   OH242650   3.698   0.937   4.539
14236TIP3    H142651   3.621   0.911   4.590
14236TIP3    H242652   3.674   0.918   4.448
14237TIP3   OH242653   4.000   5.082   0.084
14237TIP3    H142654   4.083   5.042   0.108
14237TIP3    H242655   4.017   5.126   0.001
14238TIP3   OH242656   5.378   3.425   2.809
14238TIP3    H142657   5.301   3.420   2.864
14238TIP3    H242658   5.452   3.427   2.870
14239TIP3   OH242659   1.692   1.336   0.331
14239TIP3    H142660   1.775   1.379   0.355
14239TIP3    H242661   1.666   1.290   0.411
14240TIP3   OH242662   6.588   0.784   5.501
14240TIP3    H142663   6.528   0.753   5.433
14240TIP3    H242664   6.586   0.715   5.568
14241TIP3   OH242665   0.470   5.038   1.807
14241TIP3    H142666   0.499   4.947   1.795
14241TIP3    H242667   0.389   5.031   1.857
14242TIP3   OH242668   5.688   0.413   3.733
14242TIP3    H142669   5.775   0.377   3.748
14242TIP3    H242670   5.678   0.480   3.800
14243TIP3   OH242671   5.583   4.087   2.134
14243TIP3    H142672   5.514   4.123   2.191
14243TIP3    H242673   5.586   4.147   2.060
14244TIP3   OH242674   5.471   4.599   4.744
14244TIP3    H142675   5.418   4.538   4.795
14244TIP3    H242676   5.560   4.584   4.775
14245TIP3   OH242677   2.129   4.728   0.738
14245TIP3    H142678   2.142   4.786   0.664
14245TIP3    H242679   2.216   4.718   0.777
14246TIP3   OH242680   6.334   6.879   5.978
14246TIP3    H142681   6.312   6.931   6.055
14246TIP3    H242682   6.353   6.943   5.910
14247TIP3   OH242683   2.483   4.447   1.543
14247TIP3    H142684   2.525   4.533   1.541
14247TIP3    H242685   2.401   4.460   1.494
14248TIP3   OH242686   1.918   7.028   0.867
14248TIP3    H142687   1.875   7.022   0.782
14248TIP3    H242688   1.970   7.108   0.862
14249TIP3   OH242689   8.081   6.377   2.497
14249TIP3    H142690   8.076   6.340   2.408
14249TIP3    H242691   8.064   6.470   2.485
14250TIP3   OH242692   3.406   1.360   0.417
14250TIP3    H142693   3.378   1.379   0.328
14250TIP3    H242694   3.466   1.431   0.439
14251TIP3   OH242695   1.010   3.294   2.228
14251TIP3    H142696   0.921   3.316   2.199
14251TIP3    H242697   0.998   3.253   2.314
14252TIP3   OH242698   5.316   7.312   0.358
14252TIP3    H142699   5.316   7.405   0.381
14252TIP3    H242700   5.409   7.290   0.346
14253TIP3   OH242701   3.148   1.430   6.319
14253TIP3    H142702   3.194   1.433   6.403
14253TIP3    H242703   3.192   1.497   6.266
14254TIP3   OH242704   0.443   6.253   1.188
14254TIP3    H142705   0.383   6.212   1.126
14254TIP3    H242706   0.424   6.347   1.181
14255TIP3   OH242707   0.192   3.610   3.122
14255TIP3    H142708   0.216   3.643   3.208
14255TIP3    H242709   0.233   3.671   3.060
14256TIP3   OH242710   4.468   7.423   1.528
14256TIP3    H142711   4.504   7.371   1.456
14256TIP3    H242712   4.539   7.483   1.551
14257TIP3   OH242713   6.058   2.598   1.022
14257TIP3    H142714   5.965   2.577   1.014
14257TIP3    H242715   6.085   2.624   0.933
14258TIP3   OH242716   3.940   3.479   3.943
14258TIP3    H142717   4.017   3.520   3.981
14258TIP3    H242718   3.963   3.387   3.934
14259TIP3   OH242719   3.352   2.367   3.590
14259TIP3    H142720   3.384   2.453   3.618
14259TIP3    H242721   3.358   2.312   3.668
14260TIP3   OH242722   2.836   4.345   6.092
14260TIP3    H142723   2.838   4.312   6.002
14260TIP3    H242724   2.817   4.439   6.082
14261TIP3   OH242725   5.611   3.856   1.926
14261TIP3    H142726   5.643   3.905   2.001
14261TIP3    H242727   5.625   3.764   1.950
14262TIP3   OH242728   3.838   6.718   4.999
14262TIP3    H142729   3.855   6.694   4.908
14262TIP3    H242730   3.750   6.755   4.998
14263TIP3   OH242731   4.968   5.395   6.679
14263TIP3    H142732   5.041   5.442   6.641
14263TIP3    H242733   4.928   5.456   6.741
14264TIP3   OH242734   1.970   1.054   0.803
14264TIP3    H142735   1.904   0.985   0.799
14264TIP3    H242736   1.991   1.061   0.896
14265TIP3   OH242737   1.900   0.691   4.429
14265TIP3    H142738   1.870   0.781   4.445
14265TIP3    H242739   1.841   0.637   4.481
14266TIP3   OH242740   1.063   7.632   0.170
14266TIP3    H142741   1.136   7.620   0.230
14266TIP3    H242742   1.038   7.724   0.179
14267TIP3   OH242743   4.167   7.676   4.979
14267TIP3    H142744   4.221   7.623   4.920
14267TIP3    H242745   4.099   7.712   4.923
14268TIP3   OH242746   2.966   7.408   1.434
14268TIP3    H142747   2.953   7.491   1.480
14268TIP3    H242748   3.049   7.375   1.469
14269TIP3   OH242749   7.754   7.560   2.100
14269TIP3    H142750   7.755   7.648   2.063
14269TIP3    H242751   7.692   7.511   2.044
14270TIP3   OH242752   2.152   4.790   6.592
14270TIP3    H142753   2.225   4.849   6.612
14270TIP3    H242754   2.162   4.718   6.654
14271TIP3   OH242755   7.484   6.062   5.843
14271TIP3    H142756   7.401   6.055   5.890
14271TIP3    H242757   7.461   6.099   5.758
14272TIP3   OH242758   3.690   6.435   5.060
14272TIP3    H142759   3.705   6.467   4.972
14272TIP3    H242760   3.775   6.401   5.088
14273TIP3   OH242761   6.211   2.642   3.621
14273TIP3    H142762   6.234   2.711   3.558
14273TIP3    H242763   6.205   2.687   3.705
14274TIP3   OH242764   4.134   3.717   3.714
14274TIP3    H142765   4.070   3.653   3.683
14274TIP3    H242766   4.139   3.783   3.645
14275TIP3   OH242767   1.943   3.631   2.401
14275TIP3    H142768   2.021   3.670   2.441
14275TIP3    H242769   1.878   3.630   2.471
14276TIP3   OH242770   3.326   4.908   3.359
14276TIP3    H142771   3.293   4.892   3.271
14276TIP3    H242772   3.420   4.891   3.353
14277TIP3   OH242773   3.608   5.816   3.269
14277TIP3    H142774   3.557   5.890   3.303
14277TIP3    H242775   3.623   5.838   3.177
14278TIP3   OH242776   6.874   3.107   3.691
14278TIP3    H142777   6.872   3.202   3.687
14278TIP3    H242778   6.782   3.080   3.697
14279TIP3   OH242779   6.867   5.565   3.197
14279TIP3    H142780   6.898   5.642   3.245
14279TIP3    H242781   6.942   5.537   3.145
14280TIP3   OH242782   0.117   7.596   5.359
14280TIP3    H142783   0.182   7.647   5.408
14280TIP3    H242784   0.162   7.569   5.280
14281TIP3   OH242785   2.710   7.214   1.117
14281TIP3    H142786   2.682   7.150   1.183
14281TIP3    H242787   2.709   7.165   1.035
14282TIP3   OH242788   0.334   2.464   0.340
14282TIP3    H142789   0.405   2.408   0.369
14282TIP3    H242790   0.277   2.407   0.289
14283TIP3   OH242791   1.306   4.057   3.281
14283TIP3    H142792   1.368   4.089   3.345
14283TIP3    H242793   1.224   4.103   3.301
14284TIP3   OH242794   1.059   1.754   3.003
14284TIP3    H142795   1.052   1.832   3.059
14284TIP3    H242796   1.017   1.684   3.054
14285TIP3   OH242797   0.618   3.303   0.271
14285TIP3    H142798   0.635   3.238   0.203
14285TIP3    H242799   0.579   3.377   0.223
14286TIP3   OH242800   2.363   4.421   4.907
14286TIP3    H142801   2.449   4.447   4.873
14286TIP3    H242802   2.310   4.500   4.901
14287TIP3   OH242803   6.179   2.671   5.591
14287TIP3    H142804   6.200   2.649   5.501
14287TIP3    H242805   6.109   2.737   5.585
14288TIP3   OH242806   0.021   6.964   3.990
14288TIP3    H142807   0.091   7.025   3.967
14288TIP3    H242808   0.029   6.894   3.925
14289TIP3   OH242809   2.999   7.341   3.825
14289TIP3    H142810   2.958   7.263   3.860
14289TIP3    H242811   3.015   7.397   3.901
14290TIP3   OH242812   2.086   0.948   2.521
14290TIP3    H142813   2.083   1.011   2.592
14290TIP3    H242814   1.994   0.930   2.500
14291TIP3   OH242815   5.373   4.063   3.148
14291TIP3    H142816   5.461   4.095   3.169
14291TIP3    H242817   5.320   4.143   3.143
14292TIP3   OH242818   7.021   6.277   0.768
14292TIP3    H142819   6.934   6.262   0.729
14292TIP3    H242820   7.015   6.364   0.807
14293TIP3   OH242821   2.188   4.291   4.208
14293TIP3    H142822   2.241   4.341   4.271
14293TIP3    H242823   2.135   4.233   4.263
14294TIP3   OH242824   5.979   0.282   3.142
14294TIP3    H142825   6.052   0.232   3.107
14294TIP3    H242826   5.916   0.286   3.070
14295TIP3   OH242827   7.578   2.180   5.767
14295TIP3    H142828   7.586   2.270   5.798
14295TIP3    H242829   7.668   2.149   5.760
14296TIP3   OH242830   2.591   1.645   3.667
14296TIP3    H142831   2.558   1.724   3.623
14296TIP3    H242832   2.563   1.573   3.611
14297TIP3   OH242833   6.433   1.318   5.655
14297TIP3    H142834   6.516   1.275   5.632
14297TIP3    H242835   6.459   1.406   5.682
14298TIP3   OH242836   7.395   7.294   0.433
14298TIP3    H142837   7.412   7.387   0.415
14298TIP3    H242838   7.461   7.270   0.499
14299TIP3   OH242839   4.143   3.226   3.319
14299TIP3    H142840   4.148   3.264   3.231
14299TIP3    H242841   4.163   3.134   3.306
14300TIP3   OH242842   4.797   0.066   0.612
14300TIP3    H142843   4.710   0.072   0.652
14300TIP3    H242844   4.798   0.134   0.545
14301TIP3   OH242845   1.369   6.678   3.953
14301TIP3    H142846   1.307   6.749   3.969
14301TIP3    H242847   1.438   6.692   4.017
14302TIP3   OH242848   1.972   3.654   1.008
14302TIP3    H142849   1.998   3.745   1.020
14302TIP3    H242850   1.889   3.646   1.054
14303TIP3   OH242851   6.735   5.552   4.118
14303TIP3    H142852   6.822   5.590   4.130
14303TIP3    H242853   6.674   5.625   4.132
14304TIP3   OH242854   6.751   3.803   5.347
14304TIP3    H142855   6.719   3.880   5.394
14304TIP3    H242856   6.739   3.826   5.255
14305TIP3   OH242857   3.288   0.219   2.522
14305TIP3    H142858   3.282   0.184   2.433
14305TIP3    H242859   3.364   0.278   2.519
14306TIP3   OH242860   2.950   4.402   4.052
14306TIP3    H142861   2.952   4.337   4.122
14306TIP3    H242862   3.039   4.404   4.018
14307TIP3   OH242863   3.546   3.176   6.258
14307TIP3    H142864   3.499   3.220   6.329
14307TIP3    H242865   3.633   3.158   6.295
14308TIP3   OH242866   2.880   7.515   0.202
14308TIP3    H142867   2.911   7.514   0.292
14308TIP3    H242868   2.800   7.568   0.205
14309TIP3   OH242869   0.583   3.185   6.201
14309TIP3    H142870   0.671   3.205   6.168
14309TIP3    H242871   0.575   3.090   6.193
14310TIP3   OH242872   1.272   1.162   2.897
14310TIP3    H142873   1.256   1.237   2.954
14310TIP3    H242874   1.213   1.094   2.930
14311TIP3   OH242875   4.652   5.371   1.873
14311TIP3    H142876   4.708   5.395   1.798
14311TIP3    H242877   4.693   5.414   1.948
14312TIP3   OH242878   0.995   5.848   2.185
14312TIP3    H142879   0.957   5.931   2.157
14312TIP3    H242880   1.055   5.871   2.256
14313TIP3   OH242881   2.567   3.119   4.303
14313TIP3    H142882   2.480   3.121   4.342
14313TIP3    H242883   2.555   3.152   4.214
14314TIP3   OH242884   5.621   1.123   4.334
14314TIP3    H142885   5.603   1.169   4.416
14314TIP3    H242886   5.703   1.161   4.302
14315TIP3   OH242887   0.929   5.640   4.285
14315TIP3    H142888   0.987   5.593   4.345
14315TIP3    H242889   0.871   5.691   4.341
14316TIP3   OH242890   6.579   3.614   3.639
14316TIP3    H142891   6.603   3.625   3.732
14316TIP3    H242892   6.601   3.698   3.599
14317TIP3   OH242893   2.706   0.294   1.164
14317TIP3    H142894   2.655   0.216   1.142
14317TIP3    H242895   2.707   0.296   1.259
14318TIP3   OH242896   7.567   1.676   0.540
14318TIP3    H142897   7.610   1.737   0.481
14318TIP3    H242898   7.617   1.681   0.621
14319TIP3   OH242899   2.509   7.784   6.379
14319TIP3    H142900   2.544   7.778   6.290
14319TIP3    H242901   2.427   7.833   6.370
14320TIP3   OH242902   2.110   4.144   3.639
14320TIP3    H142903   2.038   4.186   3.592
14320TIP3    H242904   2.096   4.050   3.625
14321TIP3   OH242905   3.369   5.298   2.832
14321TIP3    H142906   3.401   5.317   2.745
14321TIP3    H242907   3.409   5.365   2.888
14322TIP3   OH242908   3.945   7.555   3.974
14322TIP3    H142909   3.971   7.606   4.051
14322TIP3    H242910   3.859   7.590   3.950
14323TIP3   OH242911   1.422   5.965   3.432
14323TIP3    H142912   1.450   5.875   3.417
14323TIP3    H242913   1.328   5.964   3.413
14324TIP3   OH242914   0.986   4.986   3.939
14324TIP3    H142915   0.913   5.044   3.916
14324TIP3    H242916   0.999   4.933   3.861
14325TIP3   OH242917   2.769   5.786   4.007
14325TIP3    H142918   2.854   5.822   4.035
14325TIP3    H242919   2.780   5.691   4.014
14326TIP3   OH242920   2.108   2.867   5.588
14326TIP3    H142921   2.068   2.856   5.675
14326TIP3    H242922   2.151   2.783   5.571
14327TIP3   OH242923   1.487   2.682   4.101
14327TIP3    H142924   1.457   2.671   4.191
14327TIP3    H242925   1.423   2.740   4.060
14328TIP3   OH242926   7.812   7.310   3.994
14328TIP3    H142927   7.764   7.242   3.946
14328TIP3    H242928   7.813   7.384   3.933
14329TIP3   OH242929   6.971   5.435   0.744
14329TIP3    H142930   6.941   5.516   0.704
14329TIP3    H242931   6.980   5.457   0.837
14330TIP3   OH242932   5.950   3.035   2.394
14330TIP3    H142933   5.877   3.079   2.351
14330TIP3    H242934   5.986   3.101   2.453
14331TIP3   OH242935   6.080   5.214   1.864
14331TIP3    H142936   6.153   5.240   1.920
14331TIP3    H242937   6.047   5.297   1.828
14332TIP3   OH242938   1.260   5.078   4.796
14332TIP3    H142939   1.298   5.135   4.863
14332TIP3    H242940   1.323   5.008   4.785
14333TIP3   OH242941   1.105   6.916   6.693
14333TIP3    H142942   1.108   6.839   6.749
14333TIP3    H242943   1.097   6.881   6.604
14334TIP3   OH242944   4.288   5.733   3.315
14334TIP3    H142945   4.375   5.733   3.355
14334TIP3    H242946   4.267   5.825   3.302
14335TIP3   OH242947   2.092   1.601   1.920
14335TIP3    H142948   2.043   1.682   1.926
14335TIP3    H242949   2.148   1.600   1.998
14336TIP3   OH242950   4.446   1.713   0.550
14336TIP3    H142951   4.385   1.675   0.613
14336TIP3    H242952   4.520   1.651   0.549
14337TIP3   OH242953   4.196   1.425   1.324
14337TIP3    H142954   4.112   1.471   1.313
14337TIP3    H242955   4.225   1.408   1.234
14338TIP3   OH242956   5.802   5.931   1.074
14338TIP3    H142957   5.783   5.943   0.981
14338TIP3    H242958   5.751   5.854   1.099
14339TIP3   OH242959   7.669   3.656   2.341
14339TIP3    H142960   7.712   3.727   2.294
14339TIP3    H242961   7.741   3.607   2.380
14340TIP3   OH242962   2.654   7.204   4.313
14340TIP3    H142963   2.649   7.300   4.318
14340TIP3    H242964   2.696   7.179   4.396
14341TIP3   OH242965   4.630   0.895   3.816
14341TIP3    H142966   4.692   0.932   3.879
14341TIP3    H242967   4.556   0.956   3.816
14342TIP3   OH242968   5.677   5.913   5.256
14342TIP3    H142969   5.731   5.935   5.180
14342TIP3    H242970   5.738   5.874   5.319
14343TIP3   OH242971   5.291   5.222   4.857
14343TIP3    H142972   5.238   5.284   4.908
14343TIP3    H242973   5.346   5.179   4.922
14344TIP3   OH242974   5.622   5.186   5.789
14344TIP3    H142975   5.627   5.251   5.858
14344TIP3    H242976   5.528   5.176   5.772
14345TIP3   OH242977   8.138   6.761   4.753
14345TIP3    H142978   8.170   6.821   4.686
14345TIP3    H242979   8.043   6.768   4.748
14346TIP3   OH242980   4.839   4.251   1.146
14346TIP3    H142981   4.847   4.170   1.197
14346TIP3    H242982   4.880   4.318   1.201
14347TIP3   OH242983   7.116   7.261   3.038
14347TIP3    H142984   7.125   7.240   2.945
14347TIP3    H242985   7.066   7.343   3.039
14348TIP3   OH242986   0.022   0.733   0.714
14348TIP3    H142987  -0.006   0.823   0.732
14348TIP3    H242988   0.047   0.733   0.622
14349TIP3   OH242989   6.209   1.206   6.427
14349TIP3    H142990   6.150   1.269   6.467
14349TIP3    H242991   6.195   1.125   6.477
14350TIP3   OH242992   0.351   1.806   2.178
14350TIP3    H142993   0.350   1.713   2.155
14350TIP3    H242994   0.435   1.838   2.146
14351TIP3   OH242995   5.244   3.911   5.719
14351TIP3    H142996   5.222   3.886   5.629
14351TIP3    H242997   5.325   3.962   5.710
14352TIP3   OH242998   4.525   1.810   0.287
14352TIP3    H142999   4.480   1.772   0.362
14352TIP3    H243000   4.556   1.734   0.237
14353TIP3   OH243001   1.642   6.764   1.007
14353TIP3    H143002   1.735   6.762   1.029
14353TIP3    H243003   1.613   6.674   1.018
14354TIP3   OH243004   2.296   1.939   2.653
14354TIP3    H143005   2.330   2.002   2.589
14354TIP3    H243006   2.276   1.992   2.730
14355TIP3   OH243007   3.287   2.580   3.179
14355TIP3    H143008   3.238   2.656   3.148
14355TIP3    H243009   3.278   2.516   3.109
14356TIP3   OH243010   7.661   1.476   1.195
14356TIP3    H143011   7.590   1.524   1.152
14356TIP3    H243012   7.733   1.538   1.201
14357TIP3   OH243013   3.504   7.348   4.983
14357TIP3    H143014   3.444   7.273   4.982
14357TIP3    H243015   3.493   7.388   4.897
14358TIP3   OH243016   0.351   2.277   6.080
14358TIP3    H143017   0.384   2.252   5.994
14358TIP3    H243018   0.282   2.214   6.099
14359TIP3   OH243019   5.092   6.922   4.852
14359TIP3    H143020   5.183   6.951   4.847
14359TIP3    H243021   5.042   6.996   4.815
14360TIP3   OH243022   0.054   5.762   3.120
14360TIP3    H143023   0.041   5.813   3.200
14360TIP3    H243024  -0.022   5.703   3.117
14361TIP3   OH243025   1.281   6.396   5.045
14361TIP3    H143026   1.347   6.406   5.114
14361TIP3    H243027   1.267   6.301   5.039
14362TIP3   OH243028   5.329   4.279   2.221
14362TIP3    H143029   5.306   4.359   2.173
14362TIP3    H243030   5.339   4.308   2.311
14363TIP3   OH243031   1.025   4.149   6.516
14363TIP3    H143032   1.107   4.175   6.474
14363TIP3    H243033   1.007   4.061   6.481
14364TIP3   OH243034   2.237   2.456   5.242
14364TIP3    H143035   2.199   2.415   5.320
14364TIP3    H243036   2.190   2.540   5.234
14365TIP3   OH243037   6.861   7.587   0.797
14365TIP3    H143038   6.833   7.654   0.735
14365TIP3    H243039   6.881   7.510   0.743
14366TIP3   OH243040   1.483   7.351   4.577
14366TIP3    H143041   1.425   7.315   4.511
14366TIP3    H243042   1.571   7.342   4.539
14367TIP3   OH243043   7.792   2.819   0.590
14367TIP3    H143044   7.844   2.746   0.556
14367TIP3    H243045   7.827   2.834   0.678
14368TIP3   OH243046   5.804   7.588   1.246
14368TIP3    H143047   5.896   7.587   1.221
14368TIP3    H243048   5.792   7.669   1.295
14369TIP3   OH243049   4.827   0.142   1.106
14369TIP3    H143050   4.861   0.211   1.050
14369TIP3    H243051   4.734   0.164   1.116
14370TIP3   OH243052   2.044   2.137   1.580
14370TIP3    H143053   1.982   2.088   1.634
14370TIP3    H243054   2.037   2.096   1.494
14371TIP3   OH243055   2.007   7.626   2.151
14371TIP3    H143056   1.998   7.533   2.128
14371TIP3    H243057   2.102   7.640   2.154
14372TIP3   OH243058   1.028   7.505   5.979
14372TIP3    H143059   1.040   7.424   5.929
14372TIP3    H243060   0.935   7.504   6.004
14373TIP3   OH243061   1.291   1.447   2.685
14373TIP3    H143062   1.324   1.493   2.608
14373TIP3    H243063   1.293   1.354   2.661
14374TIP3   OH243064   4.490   3.576   3.899
14374TIP3    H143065   4.480   3.545   3.809
14374TIP3    H243066   4.538   3.507   3.944
14375TIP3   OH243067   2.338   2.495   1.774
14375TIP3    H143068   2.365   2.572   1.724
14375TIP3    H243069   2.243   2.493   1.765
14376TIP3   OH243070   6.981   0.509   3.252
14376TIP3    H143071   6.933   0.566   3.192
14376TIP3    H243072   7.051   0.566   3.287
14377TIP3   OH243073   7.044   5.682   3.384
14377TIP3    H143074   7.123   5.631   3.362
14377TIP3    H243075   7.059   5.710   3.474
14378TIP3   OH243076   4.233   2.147   4.482
14378TIP3    H143077   4.209   2.167   4.572
14378TIP3    H243078   4.260   2.231   4.445
14379TIP3   OH243079   6.559   2.023   2.543
14379TIP3    H143080   6.505   2.010   2.465
14379TIP3    H243081   6.556   1.939   2.588
14380TIP3   OH243082   8.274   3.139   1.199
14380TIP3    H143083   8.313   3.189   1.127
14380TIP3    H243084   8.243   3.206   1.260
14381TIP3   OH243085   6.331   3.404   4.915
14381TIP3    H143086   6.300   3.331   4.969
14381TIP3    H243087   6.355   3.363   4.832
14382TIP3   OH243088   5.149   2.237   0.322
14382TIP3    H143089   5.170   2.159   0.271
14382TIP3    H243090   5.054   2.241   0.321
14383TIP3   OH243091   1.256   1.378   3.441
14383TIP3    H143092   1.246   1.450   3.379
14383TIP3    H243093   1.335   1.333   3.412
14384TIP3   OH243094   2.486   4.934   0.958
14384TIP3    H143095   2.425   4.996   0.919
14384TIP3    H243096   2.431   4.874   1.009
14385TIP3   OH243097   2.438   6.077   3.791
14385TIP3    H143098   2.387   6.112   3.718
14385TIP3    H243099   2.383   6.006   3.826
14386TIP3   OH243100   7.127   4.500   0.890
14386TIP3    H143101   7.092   4.442   0.823
14386TIP3    H243102   7.136   4.445   0.967
14387TIP3   OH243103   1.973   4.579   1.992
14387TIP3    H143104   1.975   4.549   2.083
14387TIP3    H243105   2.010   4.667   1.995
14388TIP3   OH243106   7.900   0.073   4.586
14388TIP3    H143107   7.955   0.147   4.610
14388TIP3    H243108   7.906   0.067   4.491
14389TIP3   OH243109   6.823   5.441   5.823
14389TIP3    H143110   6.885   5.428   5.751
14389TIP3    H243111   6.778   5.522   5.801
14390TIP3   OH243112   2.154   0.371   2.412
14390TIP3    H143113   2.122   0.346   2.498
14390TIP3    H243114   2.249   0.358   2.416
14391TIP3   OH243115   0.913   6.805   6.240
14391TIP3    H143116   0.833   6.760   6.212
14391TIP3    H243117   0.983   6.761   6.191
14392TIP3   OH243118   4.174   6.820   3.155
14392TIP3    H143119   4.104   6.819   3.090
14392TIP3    H243120   4.130   6.804   3.238
14393TIP3   OH243121   4.423   3.252   1.869
14393TIP3    H143122   4.399   3.276   1.958
14393TIP3    H243123   4.519   3.252   1.869
14394TIP3   OH243124   2.082   7.358   5.296
14394TIP3    H143125   2.025   7.407   5.237
14394TIP3    H243126   2.051   7.380   5.384
14395TIP3   OH243127   1.617   2.055   6.680
14395TIP3    H143128   1.687   2.027   6.622
14395TIP3    H243129   1.537   2.021   6.640
14396TIP3   OH243130   2.053   1.556   4.687
14396TIP3    H143131   2.095   1.638   4.659
14396TIP3    H243132   2.028   1.514   4.605
14397TIP3   OH243133   3.865   4.277   1.132
14397TIP3    H143134   3.951   4.318   1.120
14397TIP3    H243135   3.835   4.259   1.043
14398TIP3   OH243136   1.827   7.684   1.234
14398TIP3    H143137   1.736   7.699   1.259
14398TIP3    H243138   1.834   7.718   1.145
14399TIP3   OH243139   4.012   6.249   1.333
14399TIP3    H143140   4.015   6.154   1.319
14399TIP3    H243141   3.958   6.282   1.261
14400TIP3   OH243142   5.051   2.763   5.924
14400TIP3    H143143   5.098   2.780   5.842
14400TIP3    H243144   5.011   2.677   5.912
14401TIP3   OH243145   6.379   3.671   4.914
14401TIP3    H143146   6.471   3.667   4.941
14401TIP3    H243147   6.349   3.580   4.916
14402TIP3   OH243148   7.310   1.426   4.407
14402TIP3    H143149   7.246   1.401   4.474
14402TIP3    H243150   7.392   1.436   4.455
14403TIP3   OH243151   7.561   5.333   5.216
14403TIP3    H143152   7.511   5.329   5.134
14403TIP3    H243153   7.652   5.324   5.189
14404TIP3   OH243154   1.310   1.857   6.327
14404TIP3    H143155   1.379   1.896   6.274
14404TIP3    H243156   1.315   1.764   6.309
14405TIP3   OH243157   7.557   6.187   0.560
14405TIP3    H143158   7.602   6.104   0.578
14405TIP3    H243159   7.589   6.246   0.629
14406TIP3   OH243160   1.013   1.911   2.785
14406TIP3    H143161   1.019   1.834   2.841
14406TIP3    H243162   0.985   1.981   2.844
14407TIP3   OH243163   5.490   3.831   3.837
14407TIP3    H143164   5.533   3.881   3.906
14407TIP3    H243165   5.539   3.854   3.757
14408TIP3   OH243166   4.154   3.847   0.809
14408TIP3    H143167   4.068   3.833   0.770
14408TIP3    H243168   4.151   3.799   0.892
14409TIP3   OH243169   6.351   4.688   5.078
14409TIP3    H143170   6.264   4.649   5.086
14409TIP3    H243171   6.404   4.621   5.034
14410TIP3   OH243172   7.319   2.527   1.514
14410TIP3    H143173   7.228   2.501   1.504
14410TIP3    H243174   7.320   2.579   1.594
14411TIP3   OH243175   1.591   4.552   3.512
14411TIP3    H143176   1.624   4.462   3.508
14411TIP3    H243177   1.610   4.588   3.426
14412TIP3   OH243178   5.139   2.984   4.637
14412TIP3    H143179   5.133   2.946   4.724
14412TIP3    H243180   5.047   2.997   4.610
14413TIP3   OH243181   2.889   4.868   4.519
14413TIP3    H143182   2.927   4.894   4.604
14413TIP3    H243183   2.830   4.940   4.497
14414TIP3   OH243184   4.799   4.227   6.016
14414TIP3    H143185   4.718   4.268   5.985
14414TIP3    H243186   4.784   4.211   6.109
14415TIP3   OH243187   2.516   1.211   3.165
14415TIP3    H143188   2.563   1.220   3.248
14415TIP3    H243189   2.508   1.116   3.153
14416TIP3   OH243190   1.788   5.073   3.601
14416TIP3    H143191   1.754   5.057   3.514
14416TIP3    H243192   1.876   5.037   3.600
14417TIP3   OH243193   0.293   5.846   6.149
14417TIP3    H143194   0.296   5.754   6.173
14417TIP3    H243195   0.202   5.862   6.122
14418TIP3   OH243196   5.554   6.296   3.971
14418TIP3    H143197   5.498   6.372   3.954
14418TIP3    H243198   5.640   6.321   3.937
14419TIP3   OH243199   1.627   0.338   2.518
14419TIP3    H143200   1.543   0.349   2.563
14419TIP3    H243201   1.669   0.265   2.564
14420TIP3   OH243202   6.385   3.413   1.276
14420TIP3    H143203   6.384   3.507   1.296
14420TIP3    H243204   6.333   3.373   1.345
14421TIP3   OH243205   5.077   1.797   2.449
14421TIP3    H143206   5.085   1.702   2.453
14421TIP3    H243207   5.165   1.828   2.426
14422TIP3   OH243208   7.194   0.025   4.952
14422TIP3    H143209   7.212  -0.064   4.923
14422TIP3    H243210   7.171   0.016   5.044
14423TIP3   OH243211   6.999   0.115   0.246
14423TIP3    H143212   7.000   0.095   0.153
14423TIP3    H243213   7.021   0.208   0.251
14424TIP3   OH243214   6.220   0.645   2.879
14424TIP3    H143215   6.168   0.624   2.801
14424TIP3    H243216   6.276   0.569   2.891
14425TIP3   OH243217   2.917   2.226   2.160
14425TIP3    H143218   2.828   2.190   2.168
14425TIP3    H243219   2.970   2.151   2.132
14426TIP3   OH243220   0.308   1.254   6.519
14426TIP3    H143221   0.348   1.190   6.460
14426TIP3    H243222   0.377   1.318   6.534
14427TIP3   OH243223   5.141   0.692   1.363
14427TIP3    H143224   5.218   0.640   1.385
14427TIP3    H243225   5.086   0.688   1.441
14428TIP3   OH243226   6.973   4.640   3.010
14428TIP3    H143227   6.900   4.581   2.990
14428TIP3    H243228   6.953   4.673   3.098
14429TIP3   OH243229   6.575   2.147   0.964
14429TIP3    H143230   6.516   2.075   0.984
14429TIP3    H243231   6.521   2.211   0.918
14430TIP3   OH243232   2.885   7.402   4.609
14430TIP3    H143233   2.970   7.370   4.638
14430TIP3    H243234   2.822   7.341   4.649
14431TIP3   OH243235   3.000   6.059   3.650
14431TIP3    H143236   2.951   5.979   3.669
14431TIP3    H243237   3.085   6.047   3.693
14432TIP3   OH243238   4.155   4.451   1.426
14432TIP3    H143239   4.064   4.432   1.448
14432TIP3    H243240   4.186   4.372   1.381
14433TIP3   OH243241   1.914   0.697   5.425
14433TIP3    H143242   1.877   0.642   5.494
14433TIP3    H243243   1.927   0.782   5.466
14434TIP3   OH243244   3.235   6.365   6.279
14434TIP3    H143245   3.291   6.382   6.354
14434TIP3    H243246   3.215   6.271   6.284
14435TIP3   OH243247   4.351   7.188   3.655
14435TIP3    H143248   4.441   7.162   3.670
14435TIP3    H243249   4.303   7.155   3.731
14436TIP3   OH243250   3.753   2.707   5.735
14436TIP3    H143251   3.770   2.728   5.643
14436TIP3    H243252   3.689   2.773   5.762
14437TIP3   OH243253   1.495   0.421   1.536
14437TIP3    H143254   1.532   0.333   1.532
14437TIP3    H243255   1.474   0.442   1.445
14438TIP3   OH243256   3.100   2.699   3.908
14438TIP3    H143257   3.117   2.695   3.814
14438TIP3    H243258   3.040   2.773   3.918
14439TIP3   OH243259   3.091   5.863   3.368
14439TIP3    H143260   3.009   5.826   3.336
14439TIP3    H243261   3.104   5.941   3.315
14440TIP3   OH243262   5.166   2.269   1.009
14440TIP3    H143263   5.082   2.305   1.036
14440TIP3    H243264   5.221   2.345   0.992
14441TIP3   OH243265   5.478   3.056   2.509
14441TIP3    H143266   5.507   2.995   2.577
14441TIP3    H243267   5.411   3.110   2.552
14442TIP3   OH243268   3.125   0.789   0.365
14442TIP3    H143269   3.064   0.862   0.351
14442TIP3    H243270   3.068   0.715   0.388
14443TIP3   OH243271   2.888   4.721   1.494
14443TIP3    H143272   2.956   4.788   1.495
14443TIP3    H243273   2.912   4.664   1.422
14444TIP3   OH243274   5.857   4.441   3.574
14444TIP3    H143275   5.923   4.454   3.642
14444TIP3    H243276   5.785   4.396   3.618
14445TIP3   OH243277   1.418   7.640   3.562
14445TIP3    H143278   1.512   7.624   3.549
14445TIP3    H243279   1.401   7.722   3.515
14446TIP3   OH243280   2.372   2.906   3.600
14446TIP3    H143281   2.403   2.903   3.690
14446TIP3    H243282   2.320   2.987   3.595
14447TIP3   OH243283   0.026   2.023   0.213
14447TIP3    H143284   0.073   1.940   0.203
14447TIP3    H243285  -0.025   2.031   0.132
14448TIP3   OH243286   8.017   5.418   3.011
14448TIP3    H143287   8.039   5.340   3.063
14448TIP3    H243288   8.068   5.488   3.052
14449TIP3   OH243289   5.772   6.265   3.419
14449TIP3    H143290   5.783   6.226   3.333
14449TIP3    H243291   5.725   6.200   3.470
14450TIP3   OH243292   0.877   0.237   2.522
14450TIP3    H143293   0.905   0.148   2.542
14450TIP3    H243294   0.787   0.228   2.491
14451TIP3   OH243295   7.589   1.386   2.793
14451TIP3    H143296   7.652   1.334   2.843
14451TIP3    H243297   7.571   1.462   2.849
14452TIP3   OH243298   6.009   2.410   0.705
14452TIP3    H143299   6.070   2.461   0.652
14452TIP3    H243300   5.964   2.476   0.758
14453TIP3   OH243301   0.792   7.192   4.532
14453TIP3    H143302   0.715   7.163   4.483
14453TIP3    H243303   0.817   7.115   4.585
14454TIP3   OH243304   7.479   4.855   0.941
14454TIP3    H143305   7.417   4.782   0.939
14454TIP3    H243306   7.424   4.933   0.939
14455TIP3   OH243307   1.681   2.145   3.081
14455TIP3    H143308   1.696   2.187   3.166
14455TIP3    H243309   1.645   2.215   3.026
14456TIP3   OH243310   5.252   6.669   2.981
14456TIP3    H143311   5.276   6.702   3.068
14456TIP3    H243312   5.247   6.574   2.993
14457TIP3   OH243313   7.153   2.112   1.288
14457TIP3    H143314   7.121   2.201   1.274
14457TIP3    H243315   7.119   2.088   1.374
14458TIP3   OH243316   2.766   7.648   4.174
14458TIP3    H143317   2.718   7.638   4.257
14458TIP3    H243318   2.721   7.590   4.113
14459TIP3   OH243319   8.285   3.136   3.561
14459TIP3    H143320   8.238   3.059   3.527
14459TIP3    H243321   8.226   3.209   3.544
14460TIP3   OH243322   4.722   3.612   6.219
14460TIP3    H143323   4.660   3.559   6.270
14460TIP3    H243324   4.769   3.549   6.165
14461TIP3   OH243325   6.154   5.696   0.886
14461TIP3    H143326   6.197   5.754   0.824
14461TIP3    H243327   6.207   5.616   0.885
14462TIP3   OH243328   3.410   2.933   5.919
14462TIP3    H143329   3.465   2.911   5.994
14462TIP3    H243330   3.339   2.987   5.955
14463TIP3   OH243331   6.606   7.205   3.789
14463TIP3    H143332   6.673   7.273   3.782
14463TIP3    H243333   6.579   7.207   3.881
14464TIP3   OH243334   1.115   3.573   6.293
14464TIP3    H143335   1.045   3.598   6.233
14464TIP3    H243336   1.183   3.640   6.280
14465TIP3   OH243337   7.636   7.762   2.959
14465TIP3    H143338   7.649   7.670   2.935
14465TIP3    H243339   7.586   7.759   3.040
14466TIP3   OH243340   6.006   5.297   5.001
14466TIP3    H143341   5.930   5.290   4.943
14466TIP3    H243342   6.078   5.262   4.949
14467TIP3   OH243343   0.829   7.589   1.397
14467TIP3    H143344   0.877   7.579   1.479
14467TIP3    H243345   0.880   7.654   1.348
14468TIP3   OH243346   0.175   3.327   0.909
14468TIP3    H143347   0.151   3.252   0.855
14468TIP3    H243348   0.270   3.319   0.920
14469TIP3   OH243349   7.247   6.216   6.153
14469TIP3    H143350   7.225   6.164   6.076
14469TIP3    H243351   7.190   6.183   6.222
14470TIP3   OH243352   5.264   0.501   5.206
14470TIP3    H143353   5.254   0.435   5.275
14470TIP3    H243354   5.185   0.492   5.152
14471TIP3   OH243355   7.217   7.701   2.475
14471TIP3    H143356   7.304   7.661   2.467
14471TIP3    H243357   7.215   7.768   2.407
14472TIP3   OH243358   4.431   3.740   2.394
14472TIP3    H143359   4.481   3.712   2.471
14472TIP3    H243360   4.340   3.738   2.422
14473TIP3   OH243361   0.066   5.839   4.362
14473TIP3    H143362   0.144   5.870   4.408
14473TIP3    H243363   0.086   5.854   4.269
14474TIP3   OH243364   2.715   0.585   4.109
14474TIP3    H143365   2.717   0.601   4.015
14474TIP3    H243366   2.624   0.604   4.134
14475TIP3   OH243367   1.470   1.164   5.278
14475TIP3    H143368   1.428   1.217   5.346
14475TIP3    H243369   1.563   1.163   5.302
14476TIP3   OH243370   4.424   2.716   1.363
14476TIP3    H143371   4.335   2.683   1.348
14476TIP3    H243372   4.413   2.811   1.373
14477TIP3   OH243373   2.719   3.759   4.820
14477TIP3    H143374   2.771   3.762   4.740
14477TIP3    H243375   2.640   3.809   4.799
14478TIP3   OH243376   1.117   7.172   4.006
14478TIP3    H143377   1.041   7.215   3.965
14478TIP3    H243378   1.176   7.154   3.933
14479TIP3   OH243379   1.622   1.591   2.679
14479TIP3    H143380   1.563   1.546   2.619
14479TIP3    H243381   1.672   1.651   2.623
14480TIP3   OH243382   0.823   7.018   1.841
14480TIP3    H143383   0.903   7.071   1.844
14480TIP3    H243384   0.752   7.081   1.844
14481TIP3   OH243385   7.479   3.110   6.540
14481TIP3    H143386   7.423   3.126   6.616
14481TIP3    H243387   7.431   3.046   6.488
14482TIP3   OH243388   7.686   4.942   0.616
14482TIP3    H143389   7.710   4.955   0.524
14482TIP3    H243390   7.609   4.998   0.629
14483TIP3   OH243391   5.048   1.883   5.721
14483TIP3    H143392   4.996   1.956   5.754
14483TIP3    H243393   4.984   1.814   5.704
14484TIP3   OH243394   3.543   7.030   3.159
14484TIP3    H143395   3.636   7.014   3.144
14484TIP3    H243396   3.515   6.957   3.215
14485TIP3   OH243397   4.782   6.728   5.155
14485TIP3    H143398   4.768   6.808   5.105
14485TIP3    H243399   4.806   6.663   5.090
14486TIP3   OH243400   0.164   3.502   1.880
14486TIP3    H143401   0.094   3.443   1.909
14486TIP3    H243402   0.158   3.501   1.784
14487TIP3   OH243403   7.096   5.634   0.470
14487TIP3    H143404   7.159   5.562   0.461
14487TIP3    H243405   7.107   5.665   0.559
14488TIP3   OH243406   7.912   1.907   2.937
14488TIP3    H143407   7.853   1.842   2.902
14488TIP3    H243408   7.870   1.991   2.919
14489TIP3   OH243409   7.521   0.282   5.149
14489TIP3    H143410   7.539   0.206   5.204
14489TIP3    H243411   7.500   0.246   5.063
14490TIP3   OH243412   3.358   0.920   4.546
14490TIP3    H143413   3.392   1.006   4.569
14490TIP3    H243414   3.308   0.893   4.622
14491TIP3   OH243415   3.352   1.706   4.662
14491TIP3    H143416   3.378   1.796   4.643
14491TIP3    H243417   3.421   1.673   4.720
14492TIP3   OH243418   5.847   7.768   5.361
14492TIP3    H143419   5.804   7.740   5.442
14492TIP3    H243420   5.912   7.832   5.389
14493TIP3   OH243421   6.935   7.641   6.155
14493TIP3    H143422   6.866   7.623   6.219
14493TIP3    H243423   6.985   7.713   6.192
14494TIP3   OH243424   4.028   2.671   3.340
14494TIP3    H143425   3.982   2.605   3.288
14494TIP3    H243426   4.111   2.685   3.293
14495TIP3   OH243427   7.085   4.024   0.773
14495TIP3    H143428   7.158   3.965   0.758
14495TIP3    H243429   7.015   3.992   0.716
14496TIP3   OH243430   3.923   4.527   6.078
14496TIP3    H143431   3.833   4.504   6.051
14496TIP3    H243432   3.978   4.470   6.025
14497TIP3   OH243433   4.563   2.560   6.072
14497TIP3    H143434   4.509   2.485   6.049
14497TIP3    H243435   4.581   2.604   5.989
14498TIP3   OH243436   1.914   7.533   5.126
14498TIP3    H143437   1.839   7.484   5.162
14498TIP3    H243438   1.876   7.613   5.091
14499TIP3   OH243439   7.654   6.610  -0.021
14499TIP3    H143440   7.595   6.639  -0.091
14499TIP3    H243441   7.596   6.591   0.053
14500TIP3   OH243442   4.826   2.225   0.001
14500TIP3    H143443   4.915   2.188   0.003
14500TIP3    H243444   4.826   2.292   0.069
14501TIP3   OH243445   2.500   7.418   5.605
14501TIP3    H143446   2.463   7.332   5.620
14501TIP3    H243447   2.564   7.405   5.534
14502TIP3   OH243448   3.380   3.275   6.447
14502TIP3    H143449   3.379   3.200   6.506
14502TIP3    H243450   3.296   3.319   6.462
14503TIP3   OH243451   1.221   1.565   3.230
14503TIP3    H143452   1.262   1.592   3.149
14503TIP3    H243453   1.272   1.608   3.299
14504TIP3   OH243454   0.171   2.279   2.216
14504TIP3    H143455   0.179   2.187   2.241
14504TIP3    H243456   0.234   2.325   2.271
14505TIP3   OH243457   7.616   3.667   2.987
14505TIP3    H143458   7.646   3.754   2.960
14505TIP3    H243459   7.694   3.613   2.987
14506TIP3   OH243460   8.183   4.258   3.865
14506TIP3    H143461   8.159   4.170   3.893
14506TIP3    H243462   8.107   4.312   3.889
14507TIP3   OH243463   0.272   4.563   0.303
14507TIP3    H143464   0.334   4.635   0.290
14507TIP3    H243465   0.210   4.596   0.367
14508TIP3   OH243466   3.876   7.568   0.278
14508TIP3    H143467   3.784   7.590   0.268
14508TIP3    H243468   3.877   7.496   0.341
14509TIP3   OH243469   2.253   1.832   3.060
14509TIP3    H143470   2.338   1.854   3.100
14509TIP3    H243471   2.276   1.788   2.978
14510TIP3   OH243472   8.197   4.088   2.793
14510TIP3    H143473   8.220   4.075   2.701
14510TIP3    H243474   8.281   4.089   2.839
14511TIP3   OH243475   2.452   4.117   3.412
14511TIP3    H143476   2.465   4.028   3.445
14511TIP3    H243477   2.370   4.113   3.363
14512TIP3   OH243478   3.713   5.124   1.445
14512TIP3    H143479   3.664   5.119   1.363
14512TIP3    H243480   3.692   5.041   1.490
14513TIP3   OH243481   7.291   3.654   3.495
14513TIP3    H143482   7.235   3.577   3.502
14513TIP3    H243483   7.380   3.620   3.499
14514TIP3   OH243484   1.067   6.594   3.783
14514TIP3    H143485   1.108   6.587   3.869
14514TIP3    H243486   1.091   6.513   3.738
14515TIP3   OH243487   1.353   6.885   1.752
14515TIP3    H143488   1.428   6.831   1.775
14515TIP3    H243489   1.348   6.950   1.821
14516TIP3   OH243490   4.584   4.653   1.959
14516TIP3    H143491   4.582   4.558   1.972
14516TIP3    H243492   4.515   4.669   1.894
14517TIP3   OH243493   4.195   2.621   0.769
14517TIP3    H143494   4.253   2.689   0.735
14517TIP3    H243495   4.177   2.565   0.693
14518TIP3   OH243496   5.883   7.609   2.259
14518TIP3    H143497   5.933   7.658   2.324
14518TIP3    H243498   5.902   7.517   2.278
14519TIP3   OH243499   7.962   4.280   5.520
14519TIP3    H143500   7.905   4.309   5.450
14519TIP3    H243501   7.959   4.350   5.585
14520TIP3   OH243502   7.189   3.784   3.234
14520TIP3    H143503   7.172   3.820   3.321
14520TIP3    H243504   7.180   3.690   3.245
14521TIP3   OH243505   5.704   0.535   1.017
14521TIP3    H143506   5.713   0.629   1.036
14521TIP3    H243507   5.667   0.498   1.097
14522TIP3   OH243508   6.888   5.198   1.843
14522TIP3    H143509   6.958   5.214   1.779
14522TIP3    H243510   6.861   5.285   1.871
14523TIP3   OH243511   3.715   7.674   3.915
14523TIP3    H143512   3.642   7.696   3.857
14523TIP3    H243513   3.695   7.717   3.998
14524TIP3   OH243514   3.700   5.229   2.324
14524TIP3    H143515   3.640   5.275   2.267
14524TIP3    H243516   3.742   5.163   2.268
14525TIP3   OH243517   2.061   5.978   3.166
14525TIP3    H143518   2.147   5.944   3.141
14525TIP3    H243519   2.054   6.061   3.120
14526TIP3   OH243520   6.173   7.108   1.018
14526TIP3    H143521   6.254   7.090   0.970
14526TIP3    H243522   6.106   7.056   0.973
14527TIP3   OH243523   5.019   4.930   4.246
14527TIP3    H143524   5.114   4.915   4.243
14527TIP3    H243525   5.010   5.012   4.295
14528TIP3   OH243526   1.823   3.729   3.165
14528TIP3    H143527   1.899   3.676   3.143
14528TIP3    H243528   1.851   3.782   3.239
14529TIP3   OH243529   5.422   0.656   1.439
14529TIP3    H143530   5.410   0.601   1.516
14529TIP3    H243531   5.456   0.739   1.473
14530TIP3   OH243532   3.196   5.879   5.051
14530TIP3    H143533   3.225   5.813   4.988
14530TIP3    H243534   3.205   5.963   5.005
14531TIP3   OH243535   6.514   3.610   4.210
14531TIP3    H143536   6.465   3.560   4.144
14531TIP3    H243537   6.448   3.661   4.256
14532TIP3   OH243538   7.184   6.230   4.604
14532TIP3    H143539   7.190   6.304   4.544
14532TIP3    H243540   7.231   6.259   4.682
14533TIP3   OH243541   4.410   0.278   3.873
14533TIP3    H143542   4.380   0.197   3.833
14533TIP3    H243543   4.406   0.262   3.967
14534TIP3   OH243544   2.867   3.728   3.537
14534TIP3    H143545   2.781   3.760   3.509
14534TIP3    H243546   2.864   3.634   3.519
14535TIP3   OH243547   7.388   1.999   4.935
14535TIP3    H143548   7.444   2.069   4.970
14535TIP3    H243549   7.449   1.932   4.905
14536TIP3   OH243550   7.655   0.905   6.235
14536TIP3    H143551   7.708   0.827   6.219
14536TIP3    H243552   7.708   0.977   6.199
14537TIP3   OH243553   0.382   6.440   2.033
14537TIP3    H143554   0.424   6.480   2.108
14537TIP3    H243555   0.359   6.352   2.062
14538TIP3   OH243556   6.360   6.703   2.825
14538TIP3    H143557   6.431   6.699   2.890
14538TIP3    H243558   6.385   6.776   2.768
14539TIP3   OH243559   1.815   2.326   2.224
14539TIP3    H143560   1.796   2.341   2.131
14539TIP3    H243561   1.729   2.328   2.266
14540TIP3   OH243562   2.801   4.194   2.081
14540TIP3    H143563   2.882   4.182   2.130
14540TIP3    H243564   2.776   4.106   2.054
14541TIP3   OH243565   2.565   3.689   5.373
14541TIP3    H143566   2.549   3.674   5.280
14541TIP3    H243567   2.659   3.709   5.378
14542TIP3   OH243568   4.711   3.471   2.800
14542TIP3    H143569   4.677   3.435   2.881
14542TIP3    H243570   4.764   3.546   2.827
14543TIP3   OH243571   1.643   5.056   5.697
14543TIP3    H143572   1.643   5.065   5.601
14543TIP3    H243573   1.581   5.121   5.727
14544TIP3   OH243574   0.206   5.099   3.859
14544TIP3    H143575   0.137   5.159   3.888
14544TIP3    H243576   0.287   5.137   3.894
14545TIP3   OH243577   2.815   5.099   1.536
14545TIP3    H143578   2.905   5.111   1.565
14545TIP3    H243579   2.783   5.187   1.518
14546TIP3   OH243580   3.374   0.977   5.328
14546TIP3    H143581   3.344   0.907   5.386
14546TIP3    H243582   3.386   0.935   5.243
14547TIP3   OH243583   8.153   4.305   4.744
14547TIP3    H143584   8.200   4.320   4.827
14547TIP3    H243585   8.221   4.276   4.683
14548TIP3   OH243586   2.693   5.809   4.722
14548TIP3    H143587   2.689   5.892   4.770
14548TIP3    H243588   2.782   5.778   4.737
14549TIP3   OH243589   6.479   3.549   4.512
14549TIP3    H143590   6.466   3.489   4.439
14549TIP3    H243591   6.463   3.636   4.475
14550TIP3   OH243592   5.624   4.987   6.166
14550TIP3    H143593   5.584   5.051   6.224
14550TIP3    H243594   5.683   5.039   6.111
14551TIP3   OH243595   5.745   4.464   4.737
14551TIP3    H143596   5.780   4.436   4.822
14551TIP3    H243597   5.816   4.516   4.699
14552TIP3   OH243598   0.380   4.254   1.547
14552TIP3    H143599   0.417   4.186   1.492
14552TIP3    H243600   0.449   4.320   1.554
14553TIP3   OH243601   3.098   7.768   5.920
14553TIP3    H143602   3.037   7.730   5.984
14553TIP3    H243603   3.178   7.716   5.929
14554TIP3   OH243604   3.028   4.621   0.908
14554TIP3    H143605   2.999   4.712   0.915
14554TIP3    H243606   2.964   4.571   0.959
14555TIP3   OH243607   1.076   6.088   4.367
14555TIP3    H143608   1.040   6.130   4.289
14555TIP3    H243609   1.110   6.004   4.336
14556TIP3   OH243610   5.312   1.062   4.573
14556TIP3    H143611   5.315   0.984   4.517
14556TIP3    H243612   5.334   1.135   4.515
14557TIP3   OH243613   1.046   2.391   1.953
14557TIP3    H143614   1.069   2.468   1.901
14557TIP3    H243615   1.115   2.327   1.934
14558TIP3   OH243616   0.265   6.397   4.421
14558TIP3    H143617   0.270   6.453   4.344
14558TIP3    H243618   0.270   6.458   4.495
14559TIP3   OH243619   4.676   3.135   2.443
14559TIP3    H143620   4.762   3.125   2.483
14559TIP3    H243621   4.649   3.224   2.466
14560TIP3   OH243622   0.770   2.199   1.547
14560TIP3    H143623   0.696   2.197   1.608
14560TIP3    H243624   0.797   2.107   1.541
14561TIP3   OH243625   3.592   5.192   4.115
14561TIP3    H143626   3.623   5.175   4.204
14561TIP3    H243627   3.512   5.244   4.127
14562TIP3   OH243628   1.442   5.983   1.008
14562TIP3    H143629   1.523   6.022   1.043
14562TIP3    H243630   1.467   5.893   0.985
14563TIP3   OH243631   3.569   3.115   2.990
14563TIP3    H143632   3.577   3.049   2.922
14563TIP3    H243633   3.523   3.188   2.948
14564TIP3   OH243634   8.173   5.946   0.811
14564TIP3    H143635   8.188   5.998   0.890
14564TIP3    H243636   8.141   5.861   0.843
14565TIP3   OH243637   7.745   6.229   5.869
14565TIP3    H143638   7.837   6.208   5.850
14565TIP3    H243639   7.697   6.150   5.843
14566TIP3   OH243640   7.398   6.743   2.455
14566TIP3    H143641   7.327   6.692   2.413
14566TIP3    H243642   7.354   6.819   2.492
14567TIP3   OH243643   6.114   2.317   5.276
14567TIP3    H143644   6.122   2.410   5.253
14567TIP3    H243645   6.049   2.283   5.216
14568TIP3   OH243646   5.124   4.533   3.080
14568TIP3    H143647   5.116   4.554   3.173
14568TIP3    H243648   5.148   4.616   3.039
14569TIP3   OH243649   1.576   2.315   6.584
14569TIP3    H143650   1.592   2.239   6.639
14569TIP3    H243651   1.494   2.353   6.617
14570TIP3   OH243652   3.701   4.131   1.575
14570TIP3    H143653   3.707   4.130   1.480
14570TIP3    H243654   3.628   4.190   1.594
14571TIP3   OH243655   2.241   2.051   1.120
14571TIP3    H143656   2.274   1.961   1.122
14571TIP3    H243657   2.210   2.062   1.030
14572TIP3   OH243658   5.439   1.936   6.662
14572TIP3    H143659   5.444   1.917   6.756
14572TIP3    H243660   5.436   1.850   6.621
14573TIP3   OH243661   7.759   7.300   2.388
14573TIP3    H143662   7.741   7.208   2.407
14573TIP3    H243663   7.843   7.319   2.431
14574TIP3   OH243664   7.644   6.096   2.752
14574TIP3    H143665   7.589   6.021   2.776
14574TIP3    H243666   7.733   6.063   2.762
14575TIP3   OH243667   2.982   2.105   0.448
14575TIP3    H143668   2.906   2.094   0.390
14575TIP3    H243669   2.985   2.025   0.500
14576TIP3   OH243670   2.809   1.180   6.695
14576TIP3    H143671   2.905   1.174   6.687
14576TIP3    H243672   2.794   1.186   6.789
14577TIP3   OH243673   2.877   4.052   1.647
14577TIP3    H143674   2.801   3.993   1.652
14577TIP3    H243675   2.855   4.123   1.707
14578TIP3   OH243676   5.429   2.792   0.570
14578TIP3    H143677   5.460   2.757   0.487
14578TIP3    H243678   5.363   2.730   0.599
14579TIP3   OH243679   3.661   5.758   5.869
14579TIP3    H143680   3.735   5.703   5.896
14579TIP3    H243681   3.683   5.845   5.904
14580TIP3   OH243682   5.368   6.314   1.705
14580TIP3    H143683   5.291   6.365   1.731
14580TIP3    H243684   5.332   6.232   1.673
14581TIP3   OH243685   5.344   1.633   1.891
14581TIP3    H143686   5.377   1.689   1.820
14581TIP3    H243687   5.262   1.597   1.857
14582TIP3   OH243688   5.676   7.631   5.920
14582TIP3    H143689   5.746   7.612   5.983
14582TIP3    H243690   5.700   7.715   5.883
14583TIP3   OH243691   5.076   1.785   1.739
14583TIP3    H143692   5.096   1.810   1.829
14583TIP3    H243693   5.098   1.861   1.687
14584TIP3   OH243694   3.058   0.287   4.606
14584TIP3    H143695   2.994   0.230   4.649
14584TIP3    H243696   3.006   0.360   4.574
14585TIP3   OH243697   2.901   3.270  -0.037
14585TIP3    H143698   2.828   3.247  -0.094
14585TIP3    H243699   2.965   3.312  -0.095
14586TIP3   OH243700   1.156   6.161   6.557
14586TIP3    H143701   1.206   6.146   6.477
14586TIP3    H243702   1.065   6.158   6.529
14587TIP3   OH243703   7.524   1.119   5.036
14587TIP3    H143704   7.589   1.139   4.968
14587TIP3    H243705   7.534   1.024   5.051
14588TIP3   OH243706   6.552   6.708   5.549
14588TIP3    H143707   6.509   6.623   5.560
14588TIP3    H243708   6.488   6.761   5.503
14589TIP3   OH243709   1.711   4.873   5.065
14589TIP3    H143710   1.642   4.892   5.128
14589TIP3    H243711   1.733   4.781   5.079
14590TIP3   OH243712   6.621   0.660   1.140
14590TIP3    H143713   6.539   0.624   1.174
14590TIP3    H243714   6.635   0.740   1.192
14591TIP3   OH243715   3.187   4.990   2.596
14591TIP3    H143716   3.147   4.903   2.605
14591TIP3    H243717   3.160   5.020   2.509
14592TIP3   OH243718   0.705   7.191   0.915
14592TIP3    H143719   0.757   7.252   0.967
14592TIP3    H243720   0.637   7.161   0.974
14593TIP3   OH243721   1.275   3.803   0.619
14593TIP3    H143722   1.320   3.872   0.669
14593TIP3    H243723   1.235   3.747   0.685
14594TIP3   OH243724   4.035   5.510   1.872
14594TIP3    H143725   3.971   5.523   1.803
14594TIP3    H243726   4.033   5.416   1.890
14595TIP3   OH243727   4.612   6.597   1.190
14595TIP3    H143728   4.660   6.623   1.112
14595TIP3    H243729   4.521   6.619   1.171
14596TIP3   OH243730   3.812   5.363   1.149
14596TIP3    H143731   3.905   5.342   1.157
14596TIP3    H243732   3.807   5.420   1.073
14597TIP3   OH243733   7.184   0.299   5.930
14597TIP3    H143734   7.269   0.257   5.941
14597TIP3    H243735   7.161   0.329   6.018
14598TIP3   OH243736   8.165  -0.011   0.851
14598TIP3    H143737   8.204   0.058   0.905
14598TIP3    H243738   8.081  -0.030   0.893
14599TIP3   OH243739   6.975   2.599   6.160
14599TIP3    H143740   6.970   2.687   6.195
14599TIP3    H243741   6.884   2.571   6.149
14600TIP3   OH243742   6.013   1.269   6.103
14600TIP3    H143743   5.931   1.218   6.108
14600TIP3    H243744   5.999   1.342   6.163
14601TIP3   OH243745   0.545  -0.008   4.027
14601TIP3    H143746   0.502   0.000   4.113
14601TIP3    H243747   0.472  -0.023   3.966
14602TIP3   OH243748   2.371   7.716   4.931
14602TIP3    H143749   2.428   7.644   4.958
14602TIP3    H243750   2.376   7.779   5.002
14603TIP3   OH243751   8.132   5.555   5.000
14603TIP3    H143752   8.173   5.564   4.914
14603TIP3    H243753   8.064   5.489   4.989
14604TIP3   OH243754   7.877   3.561   5.216
14604TIP3    H143755   7.958   3.610   5.228
14604TIP3    H243756   7.834   3.566   5.301
14605TIP3   OH243757   6.930   4.828   6.305
14605TIP3    H143758   6.941   4.737   6.333
14605TIP3    H243759   6.862   4.825   6.238
14606TIP3   OH243760   3.907   4.299   5.695
14606TIP3    H143761   3.829   4.253   5.726
14606TIP3    H243762   3.904   4.290   5.600
14607TIP3   OH243763   4.510   0.192   4.156
14607TIP3    H143764   4.443   0.185   4.224
14607TIP3    H243765   4.488   0.122   4.094
14608TIP3   OH243766   3.231   2.786   5.099
14608TIP3    H143767   3.263   2.756   5.184
14608TIP3    H243768   3.212   2.879   5.112
14609TIP3   OH243769   5.436   0.716   0.023
14609TIP3    H143770   5.484   0.635   0.006
14609TIP3    H243771   5.504   0.781   0.040
14610TIP3   OH243772   2.620   4.701   1.526
14610TIP3    H143773   2.611   4.777   1.583
14610TIP3    H243774   2.714   4.693   1.510
14611TIP3   OH243775   4.098   6.940   4.755
14611TIP3    H143776   4.032   7.006   4.737
14611TIP3    H243777   4.115   6.948   4.849
14612TIP3   OH243778   8.091   4.501   1.183
14612TIP3    H143779   8.088   4.513   1.278
14612TIP3    H243780   8.011   4.453   1.163
14613TIP3   OH243781   1.198   6.903   3.501
14613TIP3    H143782   1.273   6.887   3.559
14613TIP3    H243783   1.139   6.829   3.517
14614TIP3   OH243784   7.852   5.067   2.750
14614TIP3    H143785   7.905   5.032   2.678
14614TIP3    H243786   7.902   5.142   2.782
14615TIP3   OH243787   3.030   4.379   3.700
14615TIP3    H143788   2.995   4.459   3.662
14615TIP3    H243789   3.057   4.326   3.625
14616TIP3   OH243790   5.324   7.368   2.364
14616TIP3    H143791   5.268   7.446   2.370
14616TIP3    H243792   5.383   7.387   2.291
14617TIP3   OH243793   4.091   7.448   2.327
14617TIP3    H143794   4.138   7.464   2.246
14617TIP3    H243795   4.142   7.493   2.394
14618TIP3   OH243796   2.283   0.965   0.790
14618TIP3    H143797   2.191   0.974   0.764
14618TIP3    H243798   2.327   1.036   0.743
14619TIP3   OH243799   5.025   1.080   1.961
14619TIP3    H143800   5.075   1.153   1.923
14619TIP3    H243801   4.959   1.060   1.894
14620TIP3   OH243802   0.816   1.220   1.989
14620TIP3    H143803   0.890   1.166   2.018
14620TIP3    H243804   0.827   1.302   2.037
14621TIP3   OH243805   2.340   0.462   3.867
14621TIP3    H143806   2.354   0.392   3.931
14621TIP3    H243807   2.247   0.483   3.875
14622TIP3   OH243808   5.904   5.023   4.792
14622TIP3    H143809   5.924   4.947   4.846
14622TIP3    H243810   5.844   4.990   4.725
14623TIP3   OH243811   6.308   3.858   3.024
14623TIP3    H143812   6.380   3.902   3.070
14623TIP3    H243813   6.328   3.870   2.931
14624TIP3   OH243814   3.674   1.997   1.914
14624TIP3    H143815   3.686   1.994   2.009
14624TIP3    H243816   3.605   1.933   1.897
14625TIP3   OH243817   1.044   5.420   2.784
14625TIP3    H143818   1.030   5.417   2.878
14625TIP3    H243819   1.014   5.507   2.758
14626TIP3   OH243820   5.052   7.845   6.001
14626TIP3    H143821   5.086   7.929   5.970
14626TIP3    H243822   5.129   7.789   6.007
14627TIP3   OH243823   7.342   4.799   4.250
14627TIP3    H143824   7.337   4.871   4.188
14627TIP3    H243825   7.432   4.767   4.243
14628TIP3   OH243826   1.466   3.458   2.593
14628TIP3    H143827   1.505   3.518   2.530
14628TIP3    H243828   1.458   3.375   2.547
14629TIP3   OH243829   7.289   0.310   0.165
14629TIP3    H143830   7.205   0.286   0.124
14629TIP3    H243831   7.355   0.281   0.102
14630TIP3   OH243832   6.817   3.668   4.761
14630TIP3    H143833   6.769   3.604   4.815
14630TIP3    H243834   6.901   3.625   4.743
14631TIP3   OH243835   6.683   6.765   1.316
14631TIP3    H143836   6.763   6.715   1.303
14631TIP3    H243837   6.714   6.854   1.336
14632TIP3   OH243838   0.909   5.269   6.759
14632TIP3    H143839   0.871   5.185   6.735
14632TIP3    H243840   0.854   5.301   6.831
14633TIP3   OH243841   6.604   2.210   2.255
14633TIP3    H143842   6.678   2.169   2.300
14633TIP3    H243843   6.576   2.280   2.314
14634TIP3   OH243844   1.116   4.086   2.672
14634TIP3    H143845   1.048   4.124   2.616
14634TIP3    H243846   1.198   4.113   2.631
14635TIP3   OH243847   3.649   4.266   4.156
14635TIP3    H143848   3.575   4.324   4.173
14635TIP3    H243849   3.697   4.308   4.085
14636TIP3   OH243850   6.309   3.128   5.283
14636TIP3    H143851   6.258   3.141   5.363
14636TIP3    H243852   6.251   3.155   5.212
14637TIP3   OH243853   6.334   7.695   3.390
14637TIP3    H143854   6.255   7.675   3.340
14637TIP3    H243855   6.303   7.713   3.479
14638TIP3   OH243856   4.108   5.184   3.211
14638TIP3    H143857   4.116   5.238   3.290
14638TIP3    H243858   4.060   5.107   3.239
14639TIP3   OH243859   7.233   6.725   3.142
14639TIP3    H143860   7.322   6.696   3.126
14639TIP3    H243861   7.202   6.671   3.215
14640TIP3   OH243862   7.670   3.170   4.352
14640TIP3    H143863   7.743   3.154   4.411
14640TIP3    H243864   7.626   3.085   4.345
14641TIP3   OH243865   3.619   1.119   0.942
14641TIP3    H143866   3.598   1.079   0.857
14641TIP3    H243867   3.630   1.044   1.001
14642TIP3   OH243868   6.946   7.778   0.451
14642TIP3    H143869   6.878   7.755   0.515
14642TIP3    H243870   6.929   7.870   0.431
14643TIP3   OH243871   3.069   1.394   1.257
14643TIP3    H143872   3.001   1.410   1.322
14643TIP3    H243873   3.032   1.427   1.175
14644TIP3   OH243874   2.492   1.656   1.387
14644TIP3    H143875   2.525   1.695   1.468
14644TIP3    H243876   2.556   1.682   1.320
14645TIP3   OH243877   7.661   6.576   6.733
14645TIP3    H143878   7.672   6.512   6.803
14645TIP3    H243879   7.566   6.586   6.724
14646TIP3   OH243880   5.061   1.127   3.148
14646TIP3    H143881   5.145   1.084   3.166
14646TIP3    H243882   5.085   1.207   3.101
14647TIP3   OH243883   3.529   0.712   2.017
14647TIP3    H143884   3.444   0.734   1.978
14647TIP3    H243885   3.575   0.662   1.950
14648TIP3   OH243886   5.561   2.782   1.420
14648TIP3    H143887   5.483   2.780   1.475
14648TIP3    H243888   5.626   2.829   1.473
14649TIP3   OH243889   2.566   6.471   0.219
14649TIP3    H143890   2.471   6.465   0.206
14649TIP3    H243891   2.595   6.380   0.220
14650TIP3   OH243892   1.199   0.215   0.643
14650TIP3    H143893   1.164   0.162   0.715
14650TIP3    H243894   1.137   0.201   0.571
14651TIP3   OH243895   7.592   4.346   3.153
14651TIP3    H143896   7.607   4.440   3.156
14651TIP3    H243897   7.646   4.315   3.080
14652TIP3   OH243898   5.338   4.466   2.518
14652TIP3    H143899   5.319   4.372   2.511
14652TIP3    H243900   5.295   4.505   2.442
14653TIP3   OH243901   3.887   7.290   6.480
14653TIP3    H143902   3.973   7.329   6.495
14653TIP3    H243903   3.873   7.233   6.556
14654TIP3   OH243904   6.089   3.039   4.145
14654TIP3    H143905   6.083   2.946   4.168
14654TIP3    H243906   6.025   3.082   4.201
14655TIP3   OH243907   3.085   7.396   2.225
14655TIP3    H143908   3.048   7.312   2.252
14655TIP3    H243909   3.179   7.386   2.239
14656TIP3   OH243910   4.298   0.235   3.138
14656TIP3    H143911   4.369   0.273   3.190
14656TIP3    H243912   4.301   0.283   3.055
14657TIP3   OH243913   0.165   0.049   4.922
14657TIP3    H143914   0.156   0.064   5.016
14657TIP3    H243915   0.100  -0.018   4.902
14658TIP3   OH243916   5.819   7.064   6.327
14658TIP3    H143917   5.875   7.035   6.254
14658TIP3    H243918   5.731   7.069   6.289
14659TIP3   OH243919   2.485   4.300   4.076
14659TIP3    H143920   2.515   4.334   3.992
14659TIP3    H243921   2.394   4.328   4.082
14660TIP3   OH243922   6.211   3.402   0.564
14660TIP3    H143923   6.234   3.357   0.645
14660TIP3    H243924   6.129   3.362   0.536
14661TIP3   OH243925   3.340   5.131   1.972
14661TIP3    H143926   3.375   5.112   2.059
14661TIP3    H243927   3.341   5.227   1.967
14662TIP3   OH243928   2.924   3.113   3.286
14662TIP3    H143929   2.982   3.061   3.342
14662TIP3    H243930   2.960   3.103   3.198
14663TIP3   OH243931   5.313   4.456   4.958
14663TIP3    H143932   5.371   4.380   4.949
14663TIP3    H243933   5.325   4.483   5.049
14664TIP3   OH243934   4.411   4.682   4.691
14664TIP3    H143935   4.414   4.636   4.775
14664TIP3    H243936   4.436   4.771   4.711
14665TIP3   OH243937   6.453   7.124   3.193
14665TIP3    H143938   6.383   7.171   3.149
14665TIP3    H243939   6.526   7.126   3.130
14666TIP3   OH243940   2.281   4.801   3.344
14666TIP3    H143941   2.239   4.803   3.258
14666TIP3    H243942   2.287   4.893   3.370
14667TIP3   OH243943   6.800   2.850   6.341
14667TIP3    H143944   6.760   2.804   6.267
14667TIP3    H243945   6.853   2.919   6.300
14668TIP3   OH243946   6.884   6.197   3.036
14668TIP3    H143947   6.970   6.239   3.041
14668TIP3    H243948   6.875   6.171   2.945
14669TIP3   OH243949   2.419   6.936   5.700
14669TIP3    H143950   2.386   7.014   5.656
14669TIP3    H243951   2.487   6.968   5.758
14670TIP3   OH243952   4.182   2.412   2.835
14670TIP3    H143953   4.146   2.500   2.821
14670TIP3    H243954   4.259   2.409   2.779
14671TIP3   OH243955   0.576   2.217   1.733
14671TIP3    H143956   0.490   2.178   1.714
14671TIP3    H243957   0.557   2.310   1.747
14672TIP3   OH243958   7.410   5.758   0.365
14672TIP3    H143959   7.490   5.720   0.327
14672TIP3    H243960   7.418   5.740   0.459
14673TIP3   OH243961   0.659   7.505   5.615
14673TIP3    H143962   0.686   7.569   5.550
14673TIP3    H243963   0.565   7.496   5.603
14674TIP3   OH243964   3.667   4.887   2.498
14674TIP3    H143965   3.617   4.839   2.564
14674TIP3    H243966   3.662   4.831   2.420
14675TIP3   OH243967   5.793   4.263   3.130
14675TIP3    H143968   5.755   4.308   3.055
14675TIP3    H243969   5.847   4.329   3.174
14676TIP3   OH243970   4.459   6.899   3.589
14676TIP3    H143971   4.505   6.815   3.582
14676TIP3    H243972   4.366   6.875   3.586
14677TIP3   OH243973   8.138   6.564   1.948
14677TIP3    H143974   8.073   6.629   1.974
14677TIP3    H243975   8.087   6.490   1.916
14678TIP3   OH243976   3.005   5.668   1.937
14678TIP3    H143977   3.001   5.759   1.905
14678TIP3    H243978   2.928   5.659   1.993
14679TIP3   OH243979   7.241   2.506   5.895
14679TIP3    H143980   7.246   2.419   5.935
14679TIP3    H243981   7.261   2.567   5.967
14680TIP3   OH243982   2.566   7.046   3.043
14680TIP3    H143983   2.587   7.137   3.065
14680TIP3    H243984   2.564   7.001   3.128
14681TIP3   OH243985   1.413   5.138   1.588
14681TIP3    H143986   1.379   5.201   1.652
14681TIP3    H243987   1.430   5.059   1.638
14682TIP3   OH243988   7.246   1.582   5.820
14682TIP3    H143989   7.247   1.497   5.776
14682TIP3    H243990   7.165   1.624   5.791
14683TIP3   OH243991   1.610   1.496   5.497
14683TIP3    H143992   1.574   1.408   5.491
14683TIP3    H243993   1.695   1.485   5.538
14684TIP3   OH243994   5.103   0.249   4.783
14684TIP3    H143995   5.030   0.295   4.742
14684TIP3    H243996   5.094   0.158   4.753
14685TIP3   OH243997   4.347   2.809   2.535
14685TIP3    H143998   4.265   2.758   2.532
14685TIP3    H243999   4.354   2.847   2.447
14686TIP3   OH244000   7.829   5.244   3.929
14686TIP3    H144001   7.809   5.294   3.850
14686TIP3    H244002   7.921   5.221   3.920
14687TIP3   OH244003   1.341   6.058   4.771
14687TIP3    H144004   1.251   6.087   4.787
14687TIP3    H244005   1.357   6.080   4.679
14688TIP3   OH244006   8.147   1.711   3.287
14688TIP3    H144007   8.214   1.776   3.268
14688TIP3    H244008   8.179   1.666   3.365
14689TIP3   OH244009   0.498   0.081   3.174
14689TIP3    H144010   0.512   0.111   3.264
14689TIP3    H244011   0.426   0.135   3.142
14690TIP3   OH244012   3.876   7.718   6.180
14690TIP3    H144013   3.850   7.809   6.169
14690TIP3    H244014   3.849   7.697   6.270
14691TIP3   OH244015   1.385   2.966   5.248
14691TIP3    H144016   1.298   2.931   5.233
14691TIP3    H244017   1.443   2.890   5.245
14692TIP3   OH244018   3.745   6.090   1.571
14692TIP3    H144019   3.720   6.005   1.536
14692TIP3    H244020   3.762   6.074   1.664
14693TIP3   OH244021   4.509   5.192   5.692
14693TIP3    H144022   4.452   5.168   5.765
14693TIP3    H244023   4.566   5.117   5.679
14694TIP3   OH244024   0.299   1.019   1.603
14694TIP3    H144025   0.317   1.088   1.540
14694TIP3    H244026   0.375   1.019   1.662
14695TIP3   OH244027   2.231   7.328   0.547
14695TIP3    H144028   2.176   7.249   0.552
14695TIP3    H244029   2.264   7.340   0.636
14696TIP3   OH244030   2.820   6.402   2.826
14696TIP3    H144031   2.763   6.402   2.903
14696TIP3    H244032   2.785   6.472   2.771
14697TIP3   OH244033   4.403   0.049   5.592
14697TIP3    H144034   4.333   0.114   5.600
14697TIP3    H244035   4.409   0.008   5.678
14698TIP3   OH244036   5.301   4.909   1.555
14698TIP3    H144037   5.271   4.993   1.590
14698TIP3    H244038   5.243   4.893   1.480
14699TIP3   OH244039   0.424   5.111   1.083
14699TIP3    H144040   0.451   5.112   1.175
14699TIP3    H244041   0.492   5.063   1.038
14700TIP3   OH244042   7.191   5.121   2.088
14700TIP3    H144043   7.188   5.152   1.997
14700TIP3    H244044   7.284   5.119   2.110
14701TIP3   OH244045   6.372   3.330   4.046
14701TIP3    H144046   6.407   3.305   4.131
14701TIP3    H244047   6.304   3.394   4.065
14702TIP3   OH244048   0.218   6.115   5.933
14702TIP3    H144049   0.241   6.032   5.892
14702TIP3    H244050   0.258   6.181   5.878
14703TIP3   OH244051   1.716   2.043   4.334
14703TIP3    H144052   1.756   2.083   4.257
14703TIP3    H244053   1.763   2.081   4.408
14704TIP3   OH244054   1.411   2.181   3.928
14704TIP3    H144055   1.374   2.248   3.871
14704TIP3    H244056   1.436   2.110   3.870
14705TIP3   OH244057   6.345   5.403   2.373
14705TIP3    H144058   6.374   5.397   2.464
14705TIP3    H244059   6.341   5.312   2.343
14706TIP3   OH244060   6.490   5.144   6.102
14706TIP3    H144061   6.473   5.159   6.009
14706TIP3    H244062   6.493   5.233   6.139
14707TIP3   OH244063   7.949   3.499   2.447
14707TIP3    H144064   8.042   3.479   2.455
14707TIP3    H244065   7.934   3.572   2.507
14708TIP3   OH244066   0.539   5.694   6.621
14708TIP3    H144067   0.632   5.698   6.600
14708TIP3    H244068   0.495   5.738   6.548
14709TIP3   OH244069   6.027   5.249   2.962
14709TIP3    H144070   5.939   5.271   2.934
14709TIP3    H244071   6.084   5.295   2.901
14710TIP3   OH244072   6.104   5.699   2.439
14710TIP3    H144073   6.186   5.673   2.396
14710TIP3    H244074   6.089   5.632   2.505
14711TIP3   OH244075   5.107   1.539   5.048
14711TIP3    H144076   5.120   1.604   5.117
14711TIP3    H244077   5.114   1.455   5.092
14712TIP3   OH244078   1.163   2.991   1.274
14712TIP3    H144079   1.112   2.914   1.249
14712TIP3    H244080   1.254   2.967   1.256
14713TIP3   OH244081   1.273   7.374   0.150
14713TIP3    H144082   1.345   7.323   0.187
14713TIP3    H244083   1.261   7.338   0.062
14714TIP3   OH244084   4.111   0.550   5.330
14714TIP3    H144085   4.067   0.523   5.249
14714TIP3    H244086   4.129   0.644   5.316
14715TIP3   OH244087   3.702   4.313   0.860
14715TIP3    H144088   3.723   4.301   0.767
14715TIP3    H244089   3.674   4.227   0.890
14716TIP3   OH244090   4.955   0.146   3.670
14716TIP3    H144091   5.007   0.116   3.744
14716TIP3    H244092   5.010   0.211   3.626
14717TIP3   OH244093   5.415   0.102   4.652
14717TIP3    H144094   5.409   0.147   4.736
14717TIP3    H244095   5.422   0.010   4.674
14718TIP3   OH244096   1.018   6.529   0.711
14718TIP3    H144097   1.086   6.481   0.759
14718TIP3    H244098   0.949   6.544   0.775
14719TIP3   OH244099   6.632   3.872   3.547
14719TIP3    H144100   6.727   3.877   3.547
14719TIP3    H244101   6.608   3.885   3.455
14720TIP3   OH244102   7.843   2.095   6.061
14720TIP3    H144103   7.780   2.051   6.003
14720TIP3    H244104   7.865   2.176   6.015
14721TIP3   OH244105   7.826   5.292   1.614
14721TIP3    H144106   7.902   5.236   1.628
14721TIP3    H244107   7.832   5.318   1.522
14722TIP3   OH244108   7.629   1.789   0.985
14722TIP3    H144109   7.539   1.798   0.955
14722TIP3    H244110   7.623   1.796   1.081
14723TIP3   OH244111   3.923   3.923   1.858
14723TIP3    H144112   4.017   3.909   1.856
14723TIP3    H244113   3.913   4.016   1.877
14724TIP3   OH244114   2.050   3.602   3.849
14724TIP3    H144115   2.095   3.571   3.770
14724TIP3    H244116   1.965   3.559   3.846
14725TIP3   OH244117   4.846   3.889   0.205
14725TIP3    H144118   4.761   3.871   0.245
14725TIP3    H244119   4.827   3.902   0.112
14726TIP3   OH244120   5.614   6.432   5.531
14726TIP3    H144121   5.709   6.442   5.537
14726TIP3    H244122   5.597   6.348   5.574
14727TIP3   OH244123   6.070   5.321   5.263
14727TIP3    H144124   6.066   5.322   5.168
14727TIP3    H244125   6.129   5.248   5.284
14728TIP3   OH244126   2.121   0.743   5.716
14728TIP3    H144127   2.073   0.733   5.798
14728TIP3    H244128   2.093   0.828   5.682
14729TIP3   OH244129   2.822   0.594   3.464
14729TIP3    H144130   2.847   0.580   3.556
14729TIP3    H244131   2.905   0.590   3.416
14730TIP3   OH244132   3.708   2.239   0.277
14730TIP3    H144133   3.733   2.312   0.334
14730TIP3    H244134   3.781   2.178   0.283
14731TIP3   OH244135   7.388   3.542   2.364
14731TIP3    H144136   7.332   3.599   2.416
14731TIP3    H244137   7.468   3.592   2.351
14732TIP3   OH244138   4.254   7.462   2.085
14732TIP3    H144139   4.315   7.532   2.060
14732TIP3    H244140   4.206   7.442   2.005
14733TIP3   OH244141   7.696   5.007   6.251
14733TIP3    H144142   7.710   5.101   6.250
14733TIP3    H244143   7.784   4.970   6.265
14734TIP3   OH244144   1.905   4.288   3.045
14734TIP3    H144145   1.861   4.341   2.978
14734TIP3    H244146   1.937   4.352   3.109
14735TIP3   OH244147   6.419   5.805   0.148
14735TIP3    H144148   6.457   5.833   0.232
14735TIP3    H244149   6.377   5.884   0.114
14736TIP3   OH244150   1.237   4.814   4.520
14736TIP3    H144151   1.267   4.744   4.461
14736TIP3    H244152   1.232   4.772   4.606
14737TIP3   OH244153   3.224   1.547   3.076
14737TIP3    H144154   3.274   1.624   3.047
14737TIP3    H244155   3.225   1.489   3.000
14738TIP3   OH244156   7.198   2.390   0.922
14738TIP3    H144157   7.214   2.384   0.828
14738TIP3    H244158   7.205   2.300   0.953
14739TIP3   OH244159   3.840   5.565   5.058
14739TIP3    H144160   3.790   5.496   5.014
14739TIP3    H244161   3.807   5.646   5.020
14740TIP3   OH244162   5.038   3.523   3.233
14740TIP3    H144163   4.963   3.493   3.284
14740TIP3    H244164   5.002   3.585   3.170
14741TIP3   OH244165   0.397   5.435   5.967
14741TIP3    H144166   0.443   5.352   5.965
14741TIP3    H244167   0.415   5.471   6.054
14742TIP3   OH244168   3.845   2.725   0.397
14742TIP3    H144169   3.903   2.767   0.460
14742TIP3    H244170   3.905   2.689   0.331
14743TIP3   OH244171   1.432   3.434   1.663
14743TIP3    H144172   1.416   3.413   1.755
14743TIP3    H244173   1.355   3.400   1.617
14744TIP3   OH244174   6.754   6.943   6.330
14744TIP3    H144175   6.683   6.898   6.374
14744TIP3    H244176   6.759   7.028   6.373
14745TIP3   OH244177   7.038   7.336   0.851
14745TIP3    H144178   6.996   7.308   0.770
14745TIP3    H244179   7.127   7.362   0.825
14746TIP3   OH244180   1.514   6.435   0.044
14746TIP3    H144181   1.541   6.433   0.136
14746TIP3    H244182   1.449   6.365   0.037
14747TIP3   OH244183   5.777   7.148   1.852
14747TIP3    H144184   5.690   7.179   1.831
14747TIP3    H244185   5.800   7.090   1.779
14748TIP3   OH244186   1.613   7.403   3.443
14748TIP3    H144187   1.526   7.374   3.417
14748TIP3    H244188   1.637   7.469   3.379
14749TIP3   OH244189   0.534   1.663   0.154
14749TIP3    H144190   0.474   1.589   0.152
14749TIP3    H244191   0.509   1.712   0.232
14750TIP3   OH244192   1.493   2.198   0.907
14750TIP3    H144193   1.546   2.131   0.864
14750TIP3    H244194   1.412   2.154   0.930
14751TIP3   OH244195   6.276   2.516   1.374
14751TIP3    H144196   6.340   2.500   1.442
14751TIP3    H244197   6.326   2.518   1.293
14752TIP3   OH244198   7.216   5.705   1.627
14752TIP3    H144199   7.273   5.711   1.704
14752TIP3    H244200   7.182   5.793   1.615
14753TIP3   OH244201   4.897   7.415   0.531
14753TIP3    H144202   4.842   7.488   0.504
14753TIP3    H244203   4.976   7.455   0.566
14754TIP3   OH244204   4.322   1.841   1.977
14754TIP3    H144205   4.274   1.763   2.003
14754TIP3    H244206   4.410   1.828   2.013
14755TIP3   OH244207   3.507   5.556   3.391
14755TIP3    H144208   3.558   5.598   3.322
14755TIP3    H244209   3.463   5.483   3.347
14756TIP3   OH244210   5.215   2.502   0.846
14756TIP3    H144211   5.277   2.445   0.800
14756TIP3    H244212   5.130   2.462   0.832
14757TIP3   OH244213   0.468   2.052   0.467
14757TIP3    H144214   0.539   2.058   0.532
14757TIP3    H244215   0.479   1.965   0.429
14758TIP3   OH244216   5.074   4.303   0.999
14758TIP3    H144217   4.998   4.292   1.056
14758TIP3    H244218   5.148   4.310   1.059
14759TIP3   OH244219   7.527   1.402   5.910
14759TIP3    H144220   7.510   1.316   5.948
14759TIP3    H244221   7.504   1.393   5.818
14760TIP3   OH244222   7.532   0.407   1.226
14760TIP3    H144223   7.578   0.465   1.287
14760TIP3    H244224   7.577   0.419   1.143
14761TIP3   OH244225   4.506   1.744   4.492
14761TIP3    H144226   4.426   1.779   4.452
14761TIP3    H244227   4.528   1.667   4.440
14762TIP3   OH244228   1.153   1.801   6.686
14762TIP3    H144229   1.225   1.858   6.660
14762TIP3    H244230   1.183   1.760   6.767
14763TIP3   OH244231   6.628   7.046   0.113
14763TIP3    H144232   6.648   7.014   0.025
14763TIP3    H244233   6.713   7.051   0.157
14764TIP3   OH244234   2.562   2.286   3.633
14764TIP3    H144235   2.578   2.235   3.713
14764TIP3    H244236   2.487   2.243   3.592
14765TIP3   OH244237   4.197   1.567   2.561
14765TIP3    H144238   4.236   1.557   2.648
14765TIP3    H244239   4.131   1.498   2.557
14766TIP3   OH244240   2.301   6.417   2.640
14766TIP3    H144241   2.363   6.473   2.687
14766TIP3    H244242   2.290   6.459   2.555
14767TIP3   OH244243   3.240   5.228   0.091
14767TIP3    H144244   3.325   5.261   0.122
14767TIP3    H244245   3.241   5.246  -0.003
14768TIP3   OH244246   7.830   4.659   3.355
14768TIP3    H144247   7.764   4.685   3.290
14768TIP3    H244248   7.872   4.582   3.316
14769TIP3   OH244249   7.004   1.622   5.402
14769TIP3    H144250   6.937   1.689   5.419
14769TIP3    H244251   7.006   1.569   5.481
14770TIP3   OH244252   2.268   6.155   3.593
14770TIP3    H144253   2.287   6.239   3.552
14770TIP3    H244254   2.175   6.159   3.616
14771TIP3   OH244255   4.380   5.451   3.736
14771TIP3    H144256   4.419   5.536   3.715
14771TIP3    H244257   4.319   5.470   3.807
14772TIP3   OH244258   5.949   3.153   3.901
14772TIP3    H144259   6.001   3.079   3.931
14772TIP3    H244260   5.867   3.115   3.870
14773TIP3   OH244261   2.248   7.534   4.744
14773TIP3    H144262   2.300   7.579   4.811
14773TIP3    H244263   2.179   7.490   4.794
14774TIP3   OH244264   6.954   0.808   1.271
14774TIP3    H144265   7.022   0.778   1.331
14774TIP3    H244266   6.976   0.770   1.187
14775TIP3   OH244267   4.809   5.959   2.912
14775TIP3    H144268   4.872   6.029   2.929
14775TIP3    H244269   4.784   5.972   2.820
14776TIP3   OH244270   5.676   6.242   0.078
14776TIP3    H144271   5.605   6.282   0.129
14776TIP3    H244272   5.751   6.242   0.137
14777TIP3   OH244273   0.822   5.572   6.597
14777TIP3    H144274   0.827   5.482   6.628
14777TIP3    H244275   0.850   5.568   6.505
14778TIP3   OH244276   8.043   3.487  -0.017
14778TIP3    H144277   7.965   3.537  -0.041
14778TIP3    H244278   8.052   3.498   0.077
14779TIP3   OH244279   3.197   4.712   5.989
14779TIP3    H144280   3.164   4.780   6.047
14779TIP3    H244281   3.291   4.708   6.007
14780TIP3   OH244282   6.711   0.547   6.451
14780TIP3    H144283   6.747   0.552   6.539
14780TIP3    H244284   6.628   0.595   6.456
14781TIP3   OH244285   4.680   5.985   5.334
14781TIP3    H144286   4.715   5.908   5.289
14781TIP3    H244287   4.727   6.059   5.295
14782TIP3   OH244288   6.886   5.344   3.361
14782TIP3    H144289   6.865   5.434   3.335
14782TIP3    H244290   6.802   5.299   3.364
14783TIP3   OH244291   6.106   3.991   3.896
14783TIP3    H144292   6.182   4.049   3.887
14783TIP3    H244293   6.144   3.903   3.904
14784TIP3   OH244294   5.945   5.161   6.579
14784TIP3    H144295   6.024   5.119   6.612
14784TIP3    H244296   5.873   5.116   6.623
14785TIP3   OH244297   1.969   4.015   6.202
14785TIP3    H144298   1.902   4.018   6.270
14785TIP3    H244299   2.019   4.096   6.214
14786TIP3   OH244300   4.759   5.591   6.707
14786TIP3    H144301   4.786   5.672   6.749
14786TIP3    H244302   4.664   5.588   6.721
14787TIP3   OH244303   3.945   7.529   3.687
14787TIP3    H144304   3.918   7.440   3.664
14787TIP3    H244305   3.956   7.528   3.782
14788TIP3   OH244306   0.857   6.715   0.563
14788TIP3    H144307   0.815   6.682   0.483
14788TIP3    H244308   0.900   6.638   0.600
14789TIP3   OH244309   4.601   4.892   1.551
14789TIP3    H144310   4.548   4.903   1.631
14789TIP3    H244311   4.640   4.978   1.536
14790TIP3   OH244312   7.819   7.177   5.831
14790TIP3    H144313   7.901   7.207   5.871
14790TIP3    H244314   7.789   7.251   5.779
14791TIP3   OH244315   2.909   0.982   3.881
14791TIP3    H144316   2.947   0.897   3.902
14791TIP3    H244317   2.820   0.978   3.916
14792TIP3   OH244318   4.241   3.997   5.043
14792TIP3    H144319   4.266   3.929   4.980
14792TIP3    H244320   4.146   4.006   5.032
14793TIP3   OH244321   5.661   4.533   2.443
14793TIP3    H144322   5.671   4.441   2.468
14793TIP3    H244323   5.567   4.547   2.438
14794TIP3   OH244324   7.110   4.045   5.494
14794TIP3    H144325   7.079   4.019   5.407
14794TIP3    H244326   7.084   4.136   5.502
14795TIP3   OH244327   0.563   6.775   3.969
14795TIP3    H144328   0.556   6.847   3.906
14795TIP3    H244329   0.520   6.701   3.925
14796TIP3   OH244330   6.733   6.153   1.396
14796TIP3    H144331   6.667   6.204   1.443
14796TIP3    H244332   6.784   6.218   1.348
14797TIP3   OH244333   2.803   1.480  -0.008
14797TIP3    H144334   2.728   1.447   0.041
14797TIP3    H244335   2.768   1.553  -0.059
14798TIP3   OH244336   4.878   7.050   3.440
14798TIP3    H144337   4.924   7.089   3.366
14798TIP3    H244338   4.796   7.017   3.404
14799TIP3   OH244339   1.246   1.102   0.883
14799TIP3    H144340   1.196   1.174   0.846
14799TIP3    H244341   1.209   1.088   0.970
14800TIP3   OH244342   3.283   5.759   4.806
14800TIP3    H144343   3.194   5.729   4.784
14800TIP3    H244344   3.336   5.735   4.730
14801TIP3   OH244345   7.557   2.628   0.733
14801TIP3    H144346   7.464   2.628   0.754
14801TIP3    H244347   7.598   2.674   0.807
14802TIP3   OH244348   1.351   5.852   1.248
14802TIP3    H144349   1.329   5.928   1.194
14802TIP3    H244350   1.424   5.882   1.303
14803TIP3   OH244351   4.426   2.972   2.308
14803TIP3    H144352   4.477   3.051   2.324
14803TIP3    H244353   4.488   2.911   2.269
14804TIP3   OH244354   6.244   1.846   0.299
14804TIP3    H144355   6.303   1.788   0.252
14804TIP3    H244356   6.189   1.884   0.231
14805TIP3   OH244357   4.563   7.764   1.244
14805TIP3    H144358   4.505   7.758   1.168
14805TIP3    H244359   4.607   7.849   1.233
14806TIP3   OH244360   8.142   3.931   4.219
14806TIP3    H144361   8.126   4.025   4.213
14806TIP3    H244362   8.162   3.916   4.311
14807TIP3   OH244363   5.739   7.806   4.053
14807TIP3    H144364   5.656   7.782   4.094
14807TIP3    H244365   5.717   7.818   3.961
14808TIP3   OH244366   6.082   3.804   0.895
14808TIP3    H144367   6.118   3.795   0.807
14808TIP3    H244368   5.995   3.841   0.882
14809TIP3   OH244369   5.591   5.870   4.560
14809TIP3    H144370   5.525   5.804   4.579
14809TIP3    H244371   5.628   5.892   4.645
14810TIP3   OH244372   3.128   3.696   1.518
14810TIP3    H144373   3.062   3.627   1.528
14810TIP3    H244374   3.211   3.650   1.524
14811TIP3   OH244375   5.619   5.317   3.359
14811TIP3    H144376   5.524   5.307   3.359
14811TIP3    H244377   5.644   5.302   3.268
14812TIP3   OH244378   1.674   3.433   2.191
14812TIP3    H144379   1.629   3.479   2.261
14812TIP3    H244380   1.748   3.489   2.168
14813TIP3   OH244381   7.310   2.250   1.859
14813TIP3    H144382   7.233   2.280   1.906
14813TIP3    H244383   7.367   2.214   1.927
14814TIP3   OH244384   5.787   5.588   4.794
14814TIP3    H144385   5.792   5.494   4.812
14814TIP3    H244386   5.846   5.602   4.720
14815TIP3   OH244387   7.739   2.889   6.398
14815TIP3    H144388   7.785   2.965   6.361
14815TIP3    H244389   7.786   2.813   6.363
   8.28496   7.81114   6.76464   0.00000   0.00000  -2.76165   0.00000  -2.76165  -3.90557
